Membrane in water
40344
    1TMC1    C1    1   1.961   2.545  11.275  0.2559  0.0105 -0.1935
    1TMC1    C2    2   1.922   2.675  11.253  0.4163  0.0035 -0.0635
    1TMC1    C3    3   1.848   2.687  11.141  0.0364  0.1004 -0.7170
    1TMC1    C4    4   1.929   2.436  11.197  0.2574 -0.2092  0.0426
    1TMC1    C5    5   1.847   2.460  11.092 -0.0757  0.5674 -0.7010
    1TMC1    C6    6   1.808   2.587  11.059 -0.1287  0.0884 -0.5329
    1TMC1     C    7   2.060   2.526  11.381 -0.0955 -0.5668  0.2056
    1TMC1     O    8   2.035   2.589  11.480 -0.0923 -0.2479 -0.1551
    1TMC1     H    9   1.976   2.758  11.296 -1.0370 -0.2364  2.2071
    1TMC1    H1   10   1.952   2.334  11.225  1.4301 -0.1664 -0.7384
    1TMC1    H2   11   1.740   2.612  10.978 -0.5082 -0.3270 -0.3394
    1TMC1    C7   12   1.790   2.349  11.022  0.5208  0.1808 -0.1878
    1TMC1    C8   13   1.856   2.825  11.083  0.3138  0.0253  0.2069
    1TMC1    O1   14   1.677   2.347  10.979 -0.2791 -0.2468  0.7813
    1TMC1    O2   15   1.953   2.894  11.095  0.3415  0.1899  0.0470
    1TMC1    O3   16   1.873   2.243  11.029  0.3021  0.3686 -0.0998
    1TMC1    H3   17   1.961   2.270  11.063 -0.2088  3.2842 -1.1580
    1TMC1    O5   18   1.727   2.870  11.072 -0.0531 -0.0951 -0.5628
    1TMC1    H5   19   1.659   2.799  11.069 -1.0585  0.9129 -2.0042
    2MPD2     C   20   2.456   2.308  11.618 -1.0700 -0.4637  0.0719
    2MPD2    C1   21   2.363   2.399  11.657 -0.1237  0.2990  0.4988
    2MPD2    C2   22   2.261   2.439  11.572 -0.2030  0.2436 -0.7560
    2MPD2    C3   23   2.252   2.395  11.443 -0.9719 -0.0532  0.0009
    2MPD2    C4   24   2.347   2.302  11.398  0.4096 -0.0189  0.7347
    2MPD2    C5   25   2.451   2.269  11.482 -0.3866 -0.0510 -0.4038
    2MPD2     H   26   2.183   2.498  11.619  1.4890  0.3013  2.0242
    2MPD2    H1   27   2.339   2.264  11.297  1.2653 -0.5475  0.8655
    2MPD2    H2   28   2.526   2.266  11.689 -1.5309 -1.6991 -0.2045
    2MPD2    H3   29   2.525   2.199  11.445  1.6489  3.3149 -2.7466
    2MPD2     N   30   2.152   2.431  11.356 -0.1681  0.1205 -0.3694
    2MPD2    H5   31   2.153   2.389  11.263  1.7780 -0.0268 -0.2827
    2MPD2    N1   32   2.357   2.447  11.793  0.1267  0.0144  0.0809
    2MPD2    H7   33   2.284   2.514  11.812 -0.6567 -0.8823  0.2101
    3TMC1    C1   34   2.219   2.951  10.379 -0.7035  0.1173  0.3587
    3TMC1    C2   35   2.318   3.048  10.372  0.2701 -0.2948  0.4526
    3TMC1    C3   36   2.407   3.051  10.267  0.1078 -0.1584  0.5180
    3TMC1    C4   37   2.200   2.864  10.272 -0.0297 -0.4525  0.1067
    3TMC1    C5   38   2.285   2.865  10.164 -0.2430  0.2062 -0.4565
    3TMC1    C6   39   2.386   2.964  10.158 -0.3274 -0.3526  0.1931
    3TMC1     C   40   2.118   2.944  10.487 -0.5939 -0.5149 -1.0143
    3TMC1     O   41   2.082   2.835  10.525 -0.5167  0.0990 -0.1474
    3TMC1     H   42   2.329   3.109  10.461  1.8720 -1.4888  1.0653
    3TMC1    H1   43   2.123   2.789  10.288 -1.0237  0.8814  1.6069
    3TMC1    H2   44   2.449   2.975  10.071 -3.8078  1.8286 -2.0289
    3TMC1    C7   45   2.250   2.778  10.050  0.3927  0.2556 -0.2354
    3TMC1    C8   46   2.479   3.169  10.237  0.1851 -0.4630  0.6173
    3TMC1    O1   47   2.337   2.737   9.978  0.1476  0.1675  0.4005
    3TMC1    O2   48   2.572   3.167  10.158  0.5316  0.1768  0.2469
    3TMC1    O3   49   2.110   2.772  10.026  0.4476  0.1972 -0.0828
    3TMC1    H3   50   2.063   2.836  10.085  3.0797  2.3960 -0.3822
    3TMC1    O5   51   2.405   3.275  10.280 -0.2462 -0.0812 -0.2910
    3TMC1    H5   52   2.327   3.251  10.334 -0.1279  0.2471  0.0228
    4MPD2     C   53   1.778   3.180  10.794 -0.3683 -0.6955 -0.4561
    4MPD2    C1   54   1.840   3.276  10.717 -0.4650 -0.1182  0.1097
    4MPD2    C2   55   1.921   3.231  10.613 -0.1942  0.4920 -0.4114
    4MPD2    C3   56   1.955   3.090  10.599  0.1057 -0.3139 -0.5750
    4MPD2    C4   57   1.897   2.998  10.680  0.3805 -0.7253  0.8795
    4MPD2    C5   58   1.816   3.046  10.776  0.3443  0.3141 -0.0475
    4MPD2     H   59   1.977   3.302  10.553  3.3344  0.7801  3.2408
    4MPD2    H1   60   1.932   2.896  10.684  0.5026 -0.7667 -1.3393
    4MPD2    H2   61   1.721   3.204  10.883 -0.9731 -0.8062 -0.8130
    4MPD2    H3   62   1.769   2.983  10.851  0.3018 -0.5856 -0.8237
    4MPD2     N   63   2.058   3.065  10.515 -0.0115  0.3266 -0.4779
    4MPD2    H5   64   2.101   3.143  10.465 -1.2940  0.5085 -1.3112
    4MPD2    N1   65   1.813   3.413  10.729  0.5259 -0.0624  0.0915
    4MPD2    H7   66   1.873   3.469  10.668  2.1557 -0.1314  1.6492
    5TCq1    O1   67   1.940   0.437  12.299 -0.1998  0.4332  0.3450
    5TCq1    C1   68   2.052   0.447  12.224  0.0519 -0.4690 -0.0492
    5TCq1    O2   69   2.166   0.465  12.261 -1.1050  0.4383  0.3293
    5TCq1    C2   70   2.014   0.429  12.089 -1.0029  0.1614  0.2887
    5TCq1    C3   71   1.905   0.350  12.063 -0.0858 -0.1899 -0.8819
    5TCq1    C4   72   1.891   0.304  11.935  0.6593  0.0867  1.0467
    5TCq1    C5   73   1.980   0.345  11.830 -0.0942 -0.8878  0.8026
    5TCq1    C6   74   2.088   0.418  11.865 -0.2333 -0.2767 -0.7126
    5TCq1    C7   75   2.104   0.468  11.993  0.1561  0.6472  0.0840
    5TCq1    C8   76   2.197   0.444  11.760 -0.1775  0.1674 -1.0104
    5TCq1    O4   77   2.200   0.375  11.662 -0.3475  0.2654  0.0063
    5TCq1    C9   78   1.798   0.191  11.911 -0.6287 -0.3088 -0.8068
    5TCq1    O5   79   1.823   0.119  11.806  0.1227 -0.0906  0.2083
    5TCq1    O6   80   1.732   0.159  12.007 -0.4729  0.1093  0.1314
    5TCq1    H1   81   1.862   0.428  12.241 -0.3852  1.9430  0.3537
    5TCq1    H2   82   1.832   0.309  12.131 -1.0783  0.4206 -1.5729
    5TCq1    H3   83   1.960   0.295  11.736  0.1636  2.1544 -0.8931
    5TCq1    H4   84   2.196   0.515  12.025 -0.1206  0.3817  1.2718
    6MPD2     C   85   2.431   0.733  11.762  0.2235 -0.5147  0.4436
    6MPD2    C1   86   2.382   0.606  11.719  0.1544 -0.4612 -0.3163
    6MPD2    C2   87   2.432   0.539  11.613 -0.0390 -0.3218 -0.4416
    6MPD2    C3   88   2.523   0.607  11.540 -0.3205  0.0689 -0.3854
    6MPD2    C4   89   2.583   0.727  11.579  0.2195 -0.3383  0.6502
    6MPD2    C5   90   2.538   0.786  11.691 -0.0725 -0.1181  0.8814
    6MPD2     H   91   2.399   0.440  11.581 -0.2112 -0.9234  1.6290
    6MPD2    H1   92   2.664   0.771  11.523 -0.8615 -0.0620 -0.6895
    6MPD2    H2   93   2.383   0.778  11.848  0.1088 -1.6248  0.9694
    6MPD2    H3   94   2.586   0.877  11.726  0.2133  0.0933 -0.0703
    6MPD2     N   95   2.566   0.535  11.424  0.1195  0.2097 -0.1471
    6MPD2    H5   96   2.513   0.452  11.401  0.6995 -0.8113  2.2312
    6MPD2    N1   97   2.272   0.553  11.794 -0.5144  0.4599  0.4820
    6MPD2    H7   98   2.252   0.608  11.876 -0.8965 -2.2817  2.2157
    7TCq1    O1   99   3.872   0.196  13.312  0.0793  0.2783 -0.2409
    7TCq1    C1  100   3.974   0.127  13.254 -0.9492 -0.1071 -0.5217
    7TCq1    O2  101   4.008   0.130  13.135  0.4722  0.3060 -0.0369
    7TCq1    C2  102   4.083   0.103  13.360 -0.0699 -0.1150  0.1074
    7TCq1    C3  103   4.101   0.192  13.463  0.6697 -0.5787  0.8300
    7TCq1    C4  104   4.230   0.200  13.519  0.3517 -0.0954 -0.2862
    7TCq1    C5  105   4.330   0.105  13.491 -0.2447 -0.4238  0.2227
    7TCq1    C6  106   4.312   0.015  13.390  0.0105  0.3388  0.1072
    7TCq1    C7  107   4.190   0.023  13.329  0.3900  0.0675  0.0515
    7TCq1    C8  108   4.378   4.620  13.391 -0.0576  0.5376  0.5588
    7TCq1    O4  109   4.318   4.521  13.356 -0.2351  0.3596  0.1017
    7TCq1    C9  110   4.256   0.277  13.635 -0.5284  0.9403  0.1722
    7TCq1    O5  111   4.340   0.233  13.720  0.1967 -0.1373 -0.4080
    7TCq1    O6  112   4.167   0.358  13.672 -0.0760 -0.4918 -0.1214
    7TCq1    H1  113   3.859   0.178  13.408  0.1297 -0.0993 -0.3045
    7TCq1    H2  114   4.023   0.260  13.494 -0.3283 -1.0726 -0.5647
    7TCq1    H3  115   4.422   0.121  13.546  0.4102  2.2738 -1.6338
    7TCq1    H4  116   4.182   4.686  13.249 -2.2550 -0.4464  0.7563
    8MPD2     C  117   4.732   4.299  13.587 -0.1296  1.0669  0.2449
    8MPD2    C1  118   4.603   4.278  13.540 -0.8371 -0.3326 -0.1900
    8MPD2    C2  119   4.522   4.381  13.491 -0.7378  0.8248  0.7645
    8MPD2    C3  120   4.575   4.509  13.499 -0.6861  0.0881  0.0869
    8MPD2    C4  121   4.711   4.530  13.526 -0.1169 -0.8454  0.1366
    8MPD2    C5  122   0.056   4.420  13.569 -0.0525  0.6425 -0.3125
    8MPD2     H  123   4.422   4.350  13.466  0.3646 -2.3923  0.3242
    8MPD2    H1  124   0.008   4.633  13.538  1.5561 -1.0129 -3.0537
    8MPD2    H2  125   0.069   4.225  13.620  0.3420  1.1828 -0.5214
    8MPD2    H3  126   0.155   4.441  13.608 -0.6049  2.2093  0.2650
    8MPD2     N  127   4.501   4.626  13.459  0.1175 -0.2874  0.2542
    8MPD2    H5  128   4.539   4.718  13.481 -1.3217  0.0310  1.4775
    8MPD2    N1  129   4.570   4.145  13.551 -0.2436 -0.3691  0.0508
    8MPD2    H7  130   4.654   4.091  13.569 -1.8060 -2.2426  1.6918
    9TMC1    C1  131   2.352   3.577  11.101  0.0375 -0.1482 -0.6620
    9TMC1    C2  132   2.224   3.624  11.085  0.2388  0.4208  0.1065
    9TMC1    C3  133   2.189   3.686  10.965 -0.7209  0.1621 -0.0076
    9TMC1    C4  134   2.443   3.600  11.004  0.0453  0.2324  0.1871
    9TMC1    C5  135   2.411   3.680  10.896 -0.3851 -0.1261  0.4089
    9TMC1    C6  136   2.279   3.727  10.877  0.1338 -0.4274 -0.3412
    9TMC1     C  137   2.369   3.457  11.179  0.2668  0.0975 -0.6683
    9TMC1     O  138   2.441   3.367  11.129  0.1998  0.1738 -0.2453
    9TMC1     H  139   2.145   3.597  11.154 -0.2525  2.1618  0.2271
    9TMC1    H1  140   2.545   3.569  11.021  0.1366 -0.0294 -0.8671
    9TMC1    H2  141   2.248   3.799  10.802  1.0591  0.0732 -0.2344
    9TMC1    C7  142   2.507   3.691  10.787 -0.6277  0.2533 -0.0059
    9TMC1    C8  143   2.054   3.736  10.942 -0.3687 -0.1458  0.0057
    9TMC1    O1  144   2.630   3.699  10.815  0.5333 -0.1811  0.1787
    9TMC1    O2  145   2.031   3.805  10.840  0.6575 -0.6480 -0.0969
    9TMC1    O3  146   2.445   3.721  10.675  0.5902 -0.2551  0.2626
    9TMC1    H3  147   2.379   3.649  10.687 -1.6739  1.6459 -0.9648
    9TMC1    O5  148   1.961   3.665  11.018  0.4960 -0.2165  0.4971
    9TMC1    H5  149   1.986   3.578  11.055  0.1235 -0.6250 -0.2178
   10MPD2     C  150   2.279   3.204  11.322  0.6193 -0.3112 -0.1187
   10MPD2    C1  151   2.250   3.332  11.366 -0.6928 -0.3918  0.1759
   10MPD2    C2  152   2.171   3.349  11.480 -0.9408  0.3749  0.1529
   10MPD2    C3  153   2.136   3.244  11.557  0.3131 -0.2118 -0.1176
   10MPD2    C4  154   2.181   3.121  11.515 -0.0135  0.1253  0.2544
   10MPD2    C5  155   2.249   3.098  11.395 -0.0539 -0.3457 -0.0150
   10MPD2     H  156   2.129   3.448  11.495 -1.0546  0.4370 -0.5311
   10MPD2    H1  157   2.143   3.030  11.561 -1.0262  0.4026 -0.0305
   10MPD2    H2  158   2.323   3.187  11.224  2.0508  0.3355  0.4162
   10MPD2    H3  159   2.272   3.000  11.353  0.7551 -1.4996  3.0726
   10MPD2     N  160   2.050   3.250  11.665  0.1152  0.1136  0.1896
   10MPD2    H5  161   2.016   3.165  11.708 -1.4280 -0.7625 -2.7306
   10MPD2    N1  162   2.285   3.450  11.289 -0.3909  0.1592  0.0370
   10MPD2    H7  163   2.238   3.534  11.321 -0.6584 -0.1321  0.3968
   11TCq1    O1  164   3.258   3.041  14.204 -0.0624 -0.0949  0.6199
   11TCq1    C1  165   3.132   3.048  14.154  0.6081 -0.2535 -0.2360
   11TCq1    O2  166   3.089   3.028  14.038 -0.2277  0.3077 -0.2340
   11TCq1    C2  167   3.039   3.101  14.249  0.6276 -0.7086  0.4769
   11TCq1    C3  168   3.056   3.084  14.388 -0.2445  0.1097  0.0768
   11TCq1    C4  169   2.962   3.126  14.473 -0.0020  0.6307 -0.8846
   11TCq1    C5  170   2.852   3.190  14.427 -0.5374  0.4451 -0.0816
   11TCq1    C6  171   2.837   3.196  14.292 -0.4819 -0.0855 -1.1334
   11TCq1    C7  172   2.930   3.157  14.196 -0.1973  0.0033 -0.4635
   11TCq1    C8  173   2.710   3.245  14.254 -0.4675  0.4981 -0.4633
   11TCq1    O4  174   2.645   3.304  14.339 -0.2527  0.2135  0.2657
   11TCq1    C9  175   2.982   3.103  14.612  0.0043  0.3123 -0.2176
   11TCq1    O5  176   3.069   3.023  14.656 -0.7168 -0.5982  0.1888
   11TCq1    O6  177   2.906   3.168  14.693 -0.4899 -0.9285  0.2880
   11TCq1    H1  178   3.272   3.098  14.283  0.5282  1.6731 -0.7600
   11TCq1    H2  179   3.149   3.050  14.431 -0.5328  0.1088  0.6948
   11TCq1    H3  180   2.778   3.225  14.497 -0.1281 -0.4236  0.7796
   11TCq1    H4  181   2.912   3.161  14.089  1.7065  1.8210 -0.6976
   12MPD2     C  182   2.483   3.310  14.092  0.6008 -0.0122  0.2871
   12MPD2    C1  183   2.572   3.206  14.066 -0.3059  0.3020 -0.3970
   12MPD2    C2  184   2.547   3.119  13.961  0.1593  0.1240  0.2880
   12MPD2    C3  185   2.450   3.148  13.871  0.3036  0.4746  0.3549
   12MPD2    C4  186   2.373   3.265  13.887 -0.1109  0.3616  0.4133
   12MPD2    C5  187   2.388   3.342  14.006  0.4662  0.2645  0.2623
   12MPD2     H  188   2.617   3.036  13.955  0.0927  0.0691  0.2789
   12MPD2    H1  189   2.304   3.292  13.807  0.4221 -0.9622 -0.5088
   12MPD2    H2  190   2.507   3.386  14.166  1.0906 -2.2515  2.4479
   12MPD2    H3  191   2.327   3.431  14.015 -1.5264 -1.1261  0.6365
   12MPD2     N  192   2.440   3.070  13.754  0.8700 -0.3503 -0.4541
   12MPD2    H5  193   2.369   3.112  13.695 -0.4093 -0.8181  0.7525
   12MPD2    N1  194   2.679   3.177  14.144  0.4611  0.6987  0.0068
   12MPD2    H7  195   2.738   3.098  14.118  3.4395  2.1424  2.4422
   13TCq1    O1  196   2.184   2.871  10.951 -0.5336 -0.1833 -0.0469
   13TCq1    C1  197   2.276   2.952  10.892  0.4475 -0.3921  0.1359
   13TCq1    O2  198   2.370   2.923  10.820  0.3956  0.1922 -0.1770
   13TCq1    C2  199   2.209   3.078  10.873 -0.1763  0.4081 -0.0939
   13TCq1    C3  200   2.244   3.148  10.761  0.2283 -0.4931  0.0944
   13TCq1    C4  201   2.218   3.282  10.771 -0.5139 -0.0155 -0.6849
   13TCq1    C5  202   2.148   3.339  10.876  0.2623  0.0778  0.1810
   13TCq1    C6  203   2.096   3.256  10.976 -0.9322 -0.1646  0.4088
   13TCq1    C7  204   2.126   3.121  10.974  1.3872  0.0657 -0.3570
   13TCq1    C8  205   2.008   3.311  11.078  0.2104  0.4927 -0.4694
   13TCq1    O4  206   2.002   3.431  11.080 -0.0929 -0.0791  0.1563
   13TCq1    C9  207   2.260   3.372  10.668  0.2175  0.2572  0.7153
   13TCq1    O5  208   2.260   3.498  10.686 -0.1517  0.0098 -0.8174
   13TCq1    O6  209   2.273   3.312  10.555  0.0264  0.3968 -0.0209
   13TCq1    H1  210   2.103   2.915  10.984  0.5229  2.5126 -1.0121
   13TCq1    H2  211   2.307   3.109  10.682  0.2876 -0.8388  0.3127
   13TCq1    H3  212   2.124   3.444  10.868 -0.1383 -0.0755 -0.6568
   13TCq1    H4  213   2.125   3.068  11.068  1.7016 -2.8683 -1.9855
   14MPD2     C  214   1.847   3.117  11.332 -0.0237  0.9389  0.5654
   14MPD2    C1  215   1.876   3.230  11.268 -0.0396 -0.3694  0.6639
   14MPD2    C2  216   1.837   3.351  11.318 -0.4112  0.1074 -0.3719
   14MPD2    C3  217   1.767   3.354  11.439  0.6823  0.2593  0.1380
   14MPD2    C4  218   1.741   3.238  11.508 -0.5610  0.2059  0.6921
   14MPD2    C5  219   1.782   3.121  11.452 -0.0487 -0.0364 -0.3829
   14MPD2     H  220   1.854   3.442  11.262 -0.8858  0.3702 -0.0847
   14MPD2    H1  221   1.691   3.227  11.603 -0.6285  1.8135  0.8375
   14MPD2    H2  222   1.881   3.024  11.289 -1.6962  0.2256  0.7866
   14MPD2    H3  223   1.770   3.022  11.495 -1.0276  1.0799  1.9239
   14MPD2     N  224   1.726   3.478  11.491  0.1358  0.2280  0.3536
   14MPD2    H5  225   1.746   3.554  11.428 -1.1266  0.9018  0.7712
   14MPD2    N1  226   1.957   3.216  11.153  0.7056 -0.7704  0.8533
   14MPD2    H7  227   1.968   3.121  11.119  1.7982  0.0503 -1.0363
   15TCq1    O1  228   4.529   2.283   1.416 -0.1274  0.4063 -0.0027
   15TCq1    C1  229   4.640   2.215   1.380  0.2732 -0.3431 -0.2921
   15TCq1    O2  230   4.715   2.241   1.286  0.1286  0.4889 -0.4340
   15TCq1    C2  231   4.680   2.148   1.503 -0.3625 -0.4142  0.2480
   15TCq1    C3  232   0.070   2.180   1.543  0.2803  0.2528  0.2571
   15TCq1    C4  233   0.132   2.094   1.623  0.2312 -0.6404 -0.4458
   15TCq1    C5  234   0.074   1.971   1.644  0.2251 -0.1707 -0.2247
   15TCq1    C6  235   4.680   1.938   1.598 -0.9475  0.6573 -0.7450
   15TCq1    C7  236   4.614   2.031   1.527 -0.1143 -0.3855  0.4317
   15TCq1    C8  237   4.634   1.799   1.589  0.0015  0.3047 -0.3140
   15TCq1    O4  238   4.720   1.717   1.602  0.4026  0.2003 -0.2326
   15TCq1    C9  239   0.259   2.126   1.680  0.1860  0.0494  0.1366
   15TCq1    O5  240   0.312   2.236   1.647 -0.7551 -0.6399 -0.0480
   15TCq1    O6  241   0.321   2.033   1.746  0.5600  0.3375  0.5803
   15TCq1    H1  242   4.504   2.249   1.505 -1.2407 -0.6578 -0.7223
   15TCq1    H2  243   0.108   2.280   1.526  0.3672  0.3252  0.8593
   15TCq1    H3  244   0.132   1.890   1.687 -1.2851 -0.5390  1.1457
   15TCq1    H4  245   4.523   2.005   1.473  0.5358 -1.4245 -0.1549
   16MPD2     C  246   4.302   1.658   1.546 -0.3757  0.2558  0.2868
   16MPD2    C1  247   4.436   1.671   1.526 -0.4251  0.1996 -0.2368
   16MPD2    C2  248   4.499   1.559   1.482  0.7586 -0.2940 -0.4525
   16MPD2    C3  249   4.429   1.447   1.452  0.0707 -0.4920 -0.5748
   16MPD2    C4  250   4.291   1.441   1.456 -0.7501 -0.3589 -0.5536
   16MPD2    C5  251   4.227   1.554   1.499  0.4916 -0.1842 -0.4736
   16MPD2     H  252   4.606   1.562   1.466  0.8804  0.1750  0.4458
   16MPD2    H1  253   4.231   1.352   1.437 -1.4221 -0.0877  0.2507
   16MPD2    H2  254   4.243   1.740   1.585 -1.6027 -0.2086 -0.5785
   16MPD2    H3  255   4.119   1.559   1.509  0.6119 -1.2803  1.4357
   16MPD2     N  256   4.499   1.335   1.416 -0.5658 -0.1245  0.3127
   16MPD2    H5  257   4.600   1.342   1.420 -0.6798  1.8518 -0.2333
   16MPD2    N1  258   4.499   1.787   1.559 -0.4822 -0.2743 -0.7550
   16MPD2    H7  259   4.441   1.870   1.568  1.7114  1.1384  0.4247
   17TMC1    C1  260   2.510   1.938   9.754  0.7700 -0.5053 -0.0831
   17TMC1    C2  261   2.382   1.938   9.796  0.6419 -0.2248 -0.4468
   17TMC1    C3  262   2.322   1.815   9.792  0.1954 -0.1634 -0.5672
   17TMC1    C4  263   2.587   1.830   9.732  0.1090  0.0305  0.4125
   17TMC1    C5  264   2.520   1.715   9.704  0.2890 -0.0119  0.3208
   17TMC1    C6  265   2.390   1.705   9.736 -0.2254  0.3084 -0.3290
   17TMC1     C  266   2.575   2.067   9.761  0.3087  0.1202 -0.5025
   17TMC1     O  267   2.678   2.088   9.701 -0.7520 -0.1940 -0.4134
   17TMC1     H  268   2.328   2.026   9.830  2.4417  0.5149  0.5016
   17TMC1    H1  269   2.693   1.847   9.719  0.0397 -0.8300 -1.3198
   17TMC1    H2  270   2.332   1.622   9.698  1.5147 -1.1349  0.1782
   17TMC1    C7  271   2.580   1.602   9.634 -0.4067  0.3852 -0.4533
   17TMC1    C8  272   2.193   1.787   9.834 -0.1788  0.2187 -0.4134
   17TMC1    O1  273   2.561   1.484   9.667  0.5279 -0.0120 -0.3027
   17TMC1    O2  274   2.139   1.683   9.800  0.1722 -0.1078 -0.6984
   17TMC1    O3  275   2.605   1.645   9.509  0.1170 -0.5137  0.0166
   17TMC1    H3  276   2.589   1.741   9.494  1.5724 -0.1044  1.1225
   17TMC1    O5  277   2.148   1.869   9.929 -0.0968  0.1912  0.1571
   17TMC1    H5  278   2.200   1.948   9.954  0.7562 -0.7403  1.3767
   18MPD2     C  279   2.610   2.364   9.754  0.0185 -0.3864  0.0154
   18MPD2    C1  280   2.564   2.286   9.859 -0.1032  0.4278 -0.8581
   18MPD2    C2  281   2.545   2.352   9.983  0.7996 -0.1838  0.1076
   18MPD2    C3  282   2.565   2.489   9.997  0.5098 -0.6468 -0.1669
   18MPD2    C4  283   2.605   2.566   9.886  0.7662  0.0611 -0.2859
   18MPD2    C5  284   2.633   2.497   9.773  0.1143  0.3909 -0.1859
   18MPD2     H  285   2.509   2.294  10.067  0.2230 -0.5671 -0.3999
   18MPD2    H1  286   2.629   2.672   9.889  2.9790 -0.4610  0.6832
   18MPD2    H2  287   2.624   2.320   9.656 -0.6005  0.2960 -0.3770
   18MPD2    H3  288   2.667   2.563   9.694  1.9681 -0.6122 -0.2342
   18MPD2     N  289   2.552   2.562  10.123  0.7801  0.0364  0.1474
   18MPD2    H5  290   2.549   2.662  10.108 -3.3040 -0.7078 -3.8756
   18MPD2    N1  291   2.535   2.150   9.862 -0.7002  0.3656  0.3343
   18MPD2    H7  292   2.467   2.122   9.932 -1.9712  2.8478  0.1162
   19TMC2    C1  293   3.995   2.740  14.014  0.4847 -0.4228 -0.4747
   19TMC2    C2  294   4.000   2.851  13.929  0.0040  0.1833  0.3136
   19TMC2    C3  295   3.881   2.872  13.859  0.0775  0.5507 -0.6220
   19TMC2    C4  296   3.890   2.656  14.026  0.1907 -0.1854 -0.2860
   19TMC2    C5  297   3.768   2.690  13.971 -0.2294 -0.1678  0.1241
   19TMC2    C6  298   3.768   2.794  13.883  1.2264  0.3319 -0.6610
   19TMC2     C  299   4.129   2.705  14.068 -0.3521  1.0139  0.1801
   19TMC2     O  300   4.220   2.787  14.063 -0.0185 -0.4091 -0.7763
   19TMC2     H  301   4.079   2.926  13.925 -0.5118  0.5826 -2.4289
   19TMC2    H1  302   3.899   2.587  14.109 -0.8113  0.0740  0.0425
   19TMC2    H2  303   3.680   2.807  13.822 -0.6430 -0.2036  1.9270
   19TMC2    C7  304   3.650   2.608  13.990  0.6468 -0.4057  1.0071
   19TMC2    C8  305   3.871   2.958  13.744  0.9134  0.5919 -0.3120
   19TMC2    O1  306   3.672   2.491  14.003 -0.9106  0.4133 -0.0379
   19TMC2    O2  307   3.771   3.010  13.696 -0.6425 -0.9386 -0.0970
   19TMC2    O5  308   3.993   2.992  13.703 -0.0297  0.1708  0.6731
   19TMC2    H5  309   4.067   2.955  13.756  0.5818  2.3282  1.3464
   20MPD2     C  310   4.385   2.564  14.129  0.2340 -0.1299 -0.4976
   20MPD2    C1  311   4.266   2.504  14.137 -0.5133 -0.3497 -0.3743
   20MPD2    C2  312   4.264   2.374  14.185  0.0037  0.0811 -0.0129
   20MPD2    C3  313   4.385   2.314  14.221  0.5859  0.4440 -0.1346
   20MPD2    C4  314   4.501   2.372  14.188 -0.4017  0.1457  0.2229
   20MPD2    C5  315   4.501   2.504  14.154 -0.0642 -0.2116 -0.1858
   20MPD2     H  316   4.171   2.334  14.223 -0.7476 -0.2195 -2.1651
   20MPD2    H1  317   4.598   2.329  14.210 -0.6805 -0.0793  1.0099
   20MPD2    H2  318   4.385   2.670  14.103 -1.9021  0.1445  0.6048
   20MPD2    H3  319   4.595   2.550  14.126 -0.3778 -0.0519 -0.9612
   20MPD2     N  320   4.395   2.199  14.306 -0.5730 -0.2136 -0.6375
   20MPD2    H5  321   4.489   2.176  14.338 -1.0234  1.0034  1.5818
   20MPD2    N1  322   4.141   2.569  14.099  0.1516 -0.1878  0.1622
   20MPD2    H7  323   4.059   2.512  14.112  0.1599 -0.3504 -0.4856
   21TMC2    C1  324   1.405   3.022  14.546  0.3143 -1.1059  0.2618
   21TMC2    C2  325   1.474   2.929  14.611 -0.0839  0.0904 -0.0688
   21TMC2    C3  326   1.459   2.914  14.741 -0.4281 -0.1179 -1.1662
   21TMC2    C4  327   1.320   3.104  14.605 -0.0419 -0.1939  0.5670
   21TMC2    C5  328   1.307   3.089  14.741  0.1884  0.0400  0.0352
   21TMC2    C6  329   1.378   3.001  14.807 -0.8281 -0.0771 -0.0966
   21TMC2     C  330   1.483   3.077  14.431  0.1329  0.4161  0.1748
   21TMC2     O  331   1.542   3.006  14.356 -0.1070  0.3453  0.5337
   21TMC2     H  332   1.524   2.852  14.554 -0.9902 -0.0987 -0.6077
   21TMC2    H1  333   1.267   3.179  14.546 -2.3012 -1.5157  0.9123
   21TMC2    H2  334   1.354   2.981  14.910 -0.6640 -1.7618 -0.3896
   21TMC2    C7  335   1.237   3.197  14.814  0.2509  0.4404 -0.5034
   21TMC2    C8  336   1.529   2.826  14.830  0.6345  0.3534 -0.0844
   21TMC2    O1  337   1.273   3.205  14.932  0.0752  0.2289 -0.0713
   21TMC2    O2  338   1.531   2.844  14.952  0.8312 -0.3141 -0.0948
   21TMC2    O5  339   1.632   2.781  14.758 -0.2747 -0.1832 -0.0475
   21TMC2    H5  340   1.630   2.791  14.661  0.4534  1.5885  0.1206
   22MPD2     C  341   1.761   3.462  14.255 -0.3112  0.5222  0.0901
   22MPD2    C1  342   1.766   3.330  14.227 -0.2471  0.4770  0.0982
   22MPD2    C2  343   1.675   3.240  14.283  0.1766  0.2926  0.0886
   22MPD2    C3  344   1.579   3.285  14.375 -0.0738  0.7562 -0.2888
   22MPD2    C4  345   1.564   3.417  14.393 -0.5581 -0.5192  0.2483
   22MPD2    C5  346   1.652   3.500  14.332 -0.9339 -0.2820  0.5929
   22MPD2     H  347   1.701   3.135  14.279 -1.5996 -0.1508  0.0908
   22MPD2    H1  348   1.483   3.463  14.447 -1.0607  0.2454 -1.1573
   22MPD2    H2  349   1.833   3.535  14.222  0.2917 -1.7492 -3.5702
   22MPD2    H3  350   1.645   3.605  14.358  0.4259  0.0324 -0.2877
   22MPD2     N  351   1.495   3.210  14.450 -0.2539 -0.5630 -0.0140
   22MPD2    H5  352   1.435   3.256  14.518 -0.7222 -0.7629 -0.2975
   22MPD2    N1  353   1.864   3.271  14.145  0.2907  0.2813 -0.1969
   22MPD2    H7  354   1.856   3.175  14.115 -0.8400  0.5084 -0.6467
   23TMC2    C1  355   2.143   4.544  14.747 -0.1838 -0.6826 -0.8222
   23TMC2    C2  356   2.103   4.669  14.710 -0.1452  0.4042  0.5285
   23TMC2    C3  357   1.992   4.679  14.633 -0.3730 -0.5506  0.8672
   23TMC2    C4  358   2.091   4.427  14.703  0.7145  0.5624 -0.6377
   23TMC2    C5  359   1.987   4.450  14.616 -0.2032  0.6598  0.3606
   23TMC2    C6  360   1.932   4.567  14.581  0.3254 -0.1635  0.1972
   23TMC2     C  361   2.279   4.520  14.770  0.3612 -0.7228  0.1081
   23TMC2     O  362   2.312   4.418  14.821  0.1807 -0.0990  0.1017
   23TMC2     H  363   2.153   0.017  14.759  2.4526 -0.7292 -0.2079
   23TMC2    H1  364   2.133   4.330  14.724  3.0062  1.4527 -1.0606
   23TMC2    H2  365   1.859   4.576  14.502 -0.6179 -1.1738  0.9653
   23TMC2    C7  366   1.930   4.318  14.575 -0.0569 -0.6077 -0.3862
   23TMC2    C8  367   1.925   0.068  14.657  0.5686  0.1831 -0.3312
   23TMC2    O1  368   1.996   4.221  14.602 -0.3687 -0.1634 -0.0660
   23TMC2    O2  369   1.964   0.147  14.743  0.0461  0.4478  0.1640
   23TMC2    O5  370   1.793   0.038  14.648  0.0175 -0.6110  0.0205
   23TMC2    H5  371   1.784   4.705  14.579  1.5775 -0.1986 -0.6081
   24MPD2     C  372   2.772   4.630  14.694  0.0601 -0.4185  0.0778
   24MPD2    C1  373   2.707   4.545  14.784  0.2070  0.1068  0.5976
   24MPD2    C2  374   2.568   4.531  14.786 -0.7550  0.1714  0.0024
   24MPD2    C3  375   2.498   4.596  14.684  0.3525  0.2258  0.7042
   24MPD2    C4  376   2.562   4.675  14.593  0.2788 -0.1854  0.0018
   24MPD2    C5  377   2.697   4.685  14.593  0.1855  0.4204 -0.0318
   24MPD2     H  378   2.520   4.477  14.866  0.4710  1.3382  1.5292
   24MPD2    H1  379   2.510   0.000  14.519  1.2132 -0.2446 -0.7009
   24MPD2    H2  380   2.880   4.629  14.681  0.0139  0.3282 -0.3498
   24MPD2    H3  381   2.749   0.018  14.527  0.9472 -1.7070 -1.5907
   24MPD2     N  382   2.355   4.592  14.679  0.5606 -0.2153  0.6191
   24MPD2    H5  383   2.301   4.656  14.622 -0.0634  0.4663  1.9769
   24MPD2    N1  384   2.770   4.462  14.874 -0.7124  0.3769 -1.1849
   24MPD2    H7  385   2.709   4.431  14.948 -1.0623 -2.5314 -2.6834
   25TMC2    C1  386   2.325   1.568  11.639 -0.4025 -0.6568  0.5891
   25TMC2    C2  387   2.421   1.625  11.714  0.1807  0.4728  0.5133
   25TMC2    C3  388   2.388   1.728  11.797 -0.3944 -0.7186 -0.6259
   25TMC2    C4  389   2.200   1.596  11.664  0.1661 -0.0384 -0.2706
   25TMC2    C5  390   2.168   1.697  11.752 -0.0054 -0.0587 -0.0016
   25TMC2    C6  391   2.259   1.758  11.817  0.1926 -0.2293  0.1049
   25TMC2     C  392   2.354   1.436  11.591  0.2693 -0.0869  0.1319
   25TMC2     O  393   2.445   1.378  11.642 -0.1880  0.1478 -0.5785
   25TMC2     H  394   2.527   1.602  11.705 -0.5568 -2.3676 -0.8432
   25TMC2    H1  395   2.124   1.539  11.611  0.6579 -0.5545 -0.4238
   25TMC2    H2  396   2.228   1.837  11.885 -0.4582 -1.7645  1.5785
   25TMC2    C7  397   2.034   1.717  11.781  0.3290  0.8563 -0.2068
   25TMC2    C8  398   2.491   1.761  11.892  0.0180  0.5297 -0.6742
   25TMC2    O1  399   2.010   1.762  11.892  0.8768  0.0557 -0.1953
   25TMC2    O2  400   2.604   1.716  11.881  0.1885 -0.3426  0.0994
   25TMC2    O5  401   2.460   1.889  11.920  0.3347 -0.4186 -0.0584
   25TMC2    H5  402   2.513   1.923  11.996  1.2435 -1.3934 -0.2571
   26MPD2     C  403   2.225   0.973  11.427  0.1678  0.0436 -0.8867
   26MPD2    C1  404   2.129   1.057  11.376 -0.4178  0.5729 -0.3287
   26MPD2    C2  405   2.147   1.191  11.405 -0.9363  0.9259 -0.1707
   26MPD2    C3  406   2.255   1.238  11.480 -0.2796  0.2095 -0.0833
   26MPD2    C4  407   2.349   1.146  11.526  0.0494  0.0518  0.1118
   26MPD2    C5  408   2.334   1.015  11.497  0.3857  0.1761  0.0614
   26MPD2     H  409   2.074   1.267  11.377 -0.0067  1.4514 -1.2059
   26MPD2    H1  410   2.439   1.181  11.576 -0.9108  1.6851  0.6973
   26MPD2    H2  411   2.222   0.866  11.410  2.7415 -0.2339  0.4311
   26MPD2    H3  412   2.389   0.931  11.539 -0.3006 -0.0935  0.4178
   26MPD2     N  413   2.255   1.376  11.514 -0.2488 -0.1697 -0.2178
   26MPD2    H5  414   2.180   1.431  11.474 -0.2201 -0.2613 -0.3993
   26MPD2    N1  415   2.019   1.005  11.302  0.3363  0.1067 -0.0574
   26MPD2    H7  416   2.009   0.906  11.283  1.0814 -0.3942  2.1526
   27TMC2    C1  417   0.895   3.898  12.340 -0.6656 -0.1133  0.3381
   27TMC2    C2  418   0.903   4.027  12.292  0.6528 -0.1741  0.2591
   27TMC2    C3  419   0.932   4.121  12.379 -0.2766  0.1878 -0.0107
   27TMC2    C4  420   0.880   3.862  12.467 -0.0666 -0.2460  0.4857
   27TMC2    C5  421   0.922   3.963  12.558  0.1789 -0.2479  0.8653
   27TMC2    C6  422   0.942   4.093  12.517  0.7650 -0.0991  0.1369
   27TMC2     C  423   0.819   3.814  12.252  0.5415  0.4951 -0.4697
   27TMC2     O  424   0.826   3.839  12.132 -0.2941 -0.3803 -0.1443
   27TMC2     H  425   0.900   4.042  12.184 -1.1007  0.2783  0.3750
   27TMC2    H1  426   0.894   3.761  12.505  2.5706 -0.2766 -0.5796
   27TMC2    H2  427   0.944   4.178  12.584  1.7831 -0.3824  0.4547
   27TMC2    C7  428   0.902   3.939  12.704 -0.0530 -0.8426 -0.3285
   27TMC2    C8  429   0.935   4.252  12.329  0.1513 -0.3834  0.5780
   27TMC2    O1  430   0.827   3.845  12.734  0.5331 -0.5104 -0.3042
   27TMC2    O2  431   0.978   4.346  12.396 -0.1383  0.1151 -0.6756
   27TMC2    O5  432   0.824   4.261  12.246 -0.1642  0.0014 -0.1537
   27TMC2    H5  433   0.772   4.181  12.223  2.1345 -1.3702 -0.5587
   28MPD2     C  434   0.383   3.537  12.222  0.1681 -0.0903 -0.7476
   28MPD2    C1  435   0.395   3.582  12.354  0.6881  0.5855  0.2644
   28MPD2    C2  436   0.511   3.643  12.379 -1.1033 -0.3409  0.0724
   28MPD2    C3  437   0.612   3.676  12.283 -0.9453 -0.2503  0.3783
   28MPD2    C4  438   0.593   3.633  12.154  0.2769 -0.0889  0.9436
   28MPD2    C5  439   0.479   3.559  12.125  0.6040  0.0268 -0.2983
   28MPD2     H  440   0.522   3.686  12.478  0.1365  0.5754 -0.4513
   28MPD2    H1  441   0.665   3.655  12.076  0.1944  0.2528  0.9634
   28MPD2    H2  442   0.302   3.472  12.192 -1.5034  0.7886  1.8781
   28MPD2    H3  443   0.456   3.535  12.022 -1.0385 -1.0688  0.3351
   28MPD2     N  444   0.718   3.756  12.326 -1.0258  0.4531  0.1948
   28MPD2    H5  445   0.716   3.790  12.422  1.1500  1.0211  0.0373
   28MPD2    N1  446   0.299   3.542  12.446 -0.1423  0.3572 -0.8159
   28MPD2    H7  447   0.227   3.477  12.415 -0.4987  0.0140  0.7358
   29TMC2    C1  448   0.140   1.600  14.474 -0.1812 -0.0917 -0.6493
   29TMC2    C2  449   0.130   1.546  14.601  0.6167  0.0369  0.1155
   29TMC2    C3  450   0.149   1.626  14.711  0.1356 -0.2473 -0.1726
   29TMC2    C4  451   0.158   1.733  14.465 -0.3216  0.5238 -0.1542
   29TMC2    C5  452   0.193   1.805  14.576  0.3475  0.0709 -0.7004
   29TMC2    C6  453   0.189   1.752  14.700 -0.0763  0.7613 -0.5770
   29TMC2     C  454   0.067   1.529  14.373 -0.0691  0.6019  0.8784
   29TMC2     O  455   4.710   1.598  14.331 -0.2904  0.0588  0.2063
   29TMC2     H  456   0.092   1.447  14.625  0.2825  0.5411  1.6241
   29TMC2    H1  457   0.140   1.776  14.368 -3.6229  0.2550  0.3447
   29TMC2    H2  458   0.194   1.808  14.792 -1.0386 -0.0384 -0.0364
   29TMC2    C7  459   0.211   1.939  14.563  0.6573 -0.2707 -0.0301
   29TMC2    C8  460   0.080   1.579  14.830 -0.0997  0.1973  0.1934
   29TMC2    O1  461   0.135   1.999  14.484 -0.6047 -0.1076  0.7628
   29TMC2    O2  462   0.092   1.460  14.863 -0.2100 -0.6464 -0.1781
   29TMC2    O5  463   4.707   1.656  14.851 -0.0060 -0.4105 -0.0261
   29TMC2    H5  464   4.709   1.747  14.813  0.8860  0.0467  1.1010
   30MPD2     C  465   4.627   1.129  14.115  0.2563 -0.1888 -0.2324
   30MPD2    C1  466   0.022   1.094  14.162  0.8272  0.4358  0.9265
   30MPD2    C2  467   0.077   1.183  14.252 -0.0672  0.1316  0.3437
   30MPD2    C3  468   0.017   1.306  14.277  0.0223 -0.7709  0.0105
   30MPD2    C4  469   4.629   1.337  14.220  0.3354  0.0174  0.1090
   30MPD2    C5  470   4.562   1.245  14.144  0.2629 -0.4753 -0.4961
   30MPD2     H  471   0.171   1.155  14.298 -0.8064 -1.3941  0.9029
   30MPD2    H1  472   4.586   1.436  14.237 -0.6152 -0.3424 -0.1728
   30MPD2    H2  473   4.585   1.062  14.041  0.3436  0.2444 -0.6760
   30MPD2    H3  474   4.464   1.277  14.108  1.6759  5.7847  1.2489
   30MPD2     N  475   0.096   1.396  14.359  0.2400  0.3714  0.0284
   30MPD2    H5  476   0.178   1.366  14.411  0.3237  1.4230  0.5014
   30MPD2    N1  477   0.090   0.976  14.134 -0.4349 -0.5851 -0.2257
   30MPD2    H7  478   0.186   0.964  14.165 -0.0102  0.3222 -1.1867
   31TMC2    C1  479   2.388   0.258  15.477  0.2574  0.3677 -0.3664
   31TMC2    C2  480   2.266   0.312  15.500 -0.2854  0.3275 -0.2721
   31TMC2    C3  481   2.205   0.278  15.618  0.3264  0.3768  0.7999
   31TMC2    C4  482   2.442   0.173  15.563  0.1765  0.4405 -0.0920
   31TMC2    C5  483   2.368   0.129  15.672 -0.4194  0.1003 -0.0653
   31TMC2    C6  484   2.252   0.180  15.701 -0.0349 -0.6945 -0.1122
   31TMC2     C  485   2.444   0.285  15.350 -0.2480 -1.0039  0.1922
   31TMC2     O  486   2.386   0.371  15.280  0.2185 -0.1830  0.0138
   31TMC2     H  487   2.222   0.383  15.431  1.1398  0.5845 -0.9014
   31TMC2    H1  488   2.547   0.148  15.557 -0.4385 -2.3393  0.7740
   31TMC2    H2  489   2.202   0.161  15.795  2.4143  0.1785  1.3979
   31TMC2    C7  490   2.441   0.068  15.786 -0.2939  0.3468  0.2930
   31TMC2    C8  491   2.081   0.344  15.654  0.4089  0.1016 -0.5445
   31TMC2    O1  492   2.392   4.708  15.844 -0.2789 -0.3119 -0.5592
   31TMC2    O2  493   2.004   0.296  15.736 -0.5451  0.1801  0.1859
   31TMC2    O5  494   2.102   0.477  15.639 -0.4133 -0.1646 -0.0656
   31TMC2    H5  495   2.180   0.500  15.584  0.0477 -2.1169 -0.2186
   32MPD2     C  496   2.743   0.165  14.948  0.0881 -0.2244 -0.0098
   32MPD2    C1  497   2.662   0.276  14.967  0.0437 -0.0390  0.3226
   32MPD2    C2  498   2.597   0.289  15.090 -0.1156  0.4965  0.0184
   32MPD2    C3  499   2.602   0.190  15.183  0.0541  0.1531  0.7911
   32MPD2    C4  500   2.688   0.079  15.163 -0.4032 -0.1721  0.2957
   32MPD2    C5  501   2.758   0.071  15.046  0.6056  0.2173 -0.0534
   32MPD2     H  502   2.554   0.386  15.107 -0.7924  0.2694 -0.4010
   32MPD2    H1  503   2.702   4.733  15.233  2.4054 -0.6714 -0.8319
   32MPD2    H2  504   2.797   0.141  14.857 -1.1269 -2.0698 -0.2563
   32MPD2    H3  505   2.823   4.722  15.026 -0.0108 -0.7509  2.0339
   32MPD2     N  506   2.531   0.187  15.307  0.3277 -0.0039 -0.0187
   32MPD2    H5  507   2.534   0.106  15.368  0.4781  0.6669  0.8506
   32MPD2    N1  508   2.646   0.371  14.863  0.3337  0.3547  0.5627
   32MPD2    H7  509   2.696   0.362  14.775  0.1437 -1.7154  0.6671
   33TMC2    C1  510   2.851   3.546  10.388  0.1205 -0.2723  0.2814
   33TMC2    C2  511   2.789   3.657  10.435  0.6717 -0.4296  0.0509
   33TMC2    C3  512   2.772   3.763  10.353  0.1289 -0.1231  0.8765
   33TMC2    C4  513   2.926   3.549  10.271  0.2314 -0.1302 -0.1459
   33TMC2    C5  514   2.909   3.655  10.196 -0.0822  0.0579 -0.6364
   33TMC2    C6  515   2.828   3.765  10.226  0.3422  0.1345 -0.0183
   33TMC2     C  516   2.810   3.415  10.435 -0.3526 -0.0407 -0.2725
   33TMC2     O  517   2.824   3.317  10.366  0.4378 -0.1043  0.3352
   33TMC2     H  518   2.746   3.663  10.534 -1.3270  0.8853 -0.8843
   33TMC2    H1  519   2.979   3.461  10.237 -1.5337 -1.7053  1.2194
   33TMC2    H2  520   2.832   3.864  10.180  0.3241 -0.3916 -1.1604
   33TMC2    C7  521   2.987   3.678  10.076 -0.1519  0.5218 -0.6645
   33TMC2    C8  522   2.726   3.886  10.411  0.1142  0.7827  0.4643
   33TMC2    O1  523   3.103   3.636  10.081 -0.4654  0.1190  0.2907
   33TMC2    O2  524   2.727   3.905  10.530  0.4808 -0.4406 -0.3004
   33TMC2    O5  525   2.647   3.942  10.320  0.1601  0.0795  0.0528
   33TMC2    H5  526   2.656   3.929  10.223  1.1327  1.3536 -0.0182
   34MPD2     C  527   2.590   3.134  10.799  0.6400  0.1060 -0.4499
   34MPD2    C1  528   2.624   3.093  10.669 -1.3111  0.0113  0.0904
   34MPD2    C2  529   2.675   3.192  10.585  0.6472  0.3059  0.1019
   34MPD2    C3  530   2.706   3.317  10.640  0.3160  0.5193  0.2117
   34MPD2    C4  531   2.676   3.354  10.771  0.9391 -0.0694  0.4863
   34MPD2    C5  532   2.612   3.262  10.850  0.0250 -0.2459  0.6030
   34MPD2     H  533   2.700   3.167  10.482  0.2970 -3.2518  0.8800
   34MPD2    H1  534   2.715   3.445  10.816  0.2989  0.9401 -1.0241
   34MPD2    H2  535   2.557   3.049  10.858 -3.6963  1.9156 -0.2806
   34MPD2    H3  536   2.587   3.292  10.951 -0.8469 -1.0298  0.6203
   34MPD2     N  537   2.762   3.420  10.567 -0.0838 -0.6438  0.2595
   34MPD2    H5  538   2.763   3.510  10.615  0.1370 -0.1211 -0.7205
   34MPD2    N1  539   2.588   2.964  10.633 -0.3630 -0.2471  0.6698
   34MPD2    H7  540   2.535   2.911  10.702 -0.2904 -1.5828 -0.3051
   35TMC2    C1  541   3.357   4.082  11.771 -0.0899 -0.6127 -0.3124
   35TMC2    C2  542   3.242   4.147  11.722  0.6792 -0.1164  0.5380
   35TMC2    C3  543   3.127   4.079  11.686 -0.3713 -0.0749  0.2794
   35TMC2    C4  544   3.360   3.944  11.783 -0.2530  0.1653 -0.1491
   35TMC2    C5  545   3.239   3.885  11.763 -0.1614 -0.1078  0.0541
   35TMC2    C6  546   3.120   3.949  11.721  0.3118 -0.1121 -0.0894
   35TMC2     C  547   3.474   4.165  11.796 -0.5453 -0.0846 -0.5241
   35TMC2     O  548   3.463   4.289  11.795  0.4811  0.1925 -0.1062
   35TMC2     H  549   3.236   4.253  11.700  0.4936 -0.4653 -1.1149
   35TMC2    H1  550   3.439   3.885  11.827  1.4811  2.1167 -0.6350
   35TMC2    H2  551   3.037   3.895  11.676 -1.3330 -0.0359  2.8570
   35TMC2    C7  552   3.239   3.743  11.796  0.0519  0.4576  0.1062
   35TMC2    C8  553   3.015   4.161  11.631 -0.5914 -0.2907 -0.2816
   35TMC2    O1  554   3.341   3.678  11.806 -0.1015 -0.4198  0.1461
   35TMC2    O2  555   3.033   4.280  11.598 -0.5745 -0.3851  0.0909
   35TMC2    O5  556   2.901   4.100  11.673  0.4816 -0.8346  0.0778
   35TMC2    H5  557   2.914   4.018  11.725 -2.2496 -1.6290 -0.4614
   36MPD2     C  558   3.972   4.158  11.939 -0.5931  0.6249  0.2554
   36MPD2    C1  559   3.930   4.032  11.931 -0.0025  0.0207  0.3802
   36MPD2    C2  560   3.795   4.013  11.892  0.0902  0.0563  0.9148
   36MPD2    C3  561   3.714   4.118  11.865 -0.3184 -1.2479 -0.0679
   36MPD2    C4  562   3.757   4.249  11.884  0.3685  0.6083 -0.1493
   36MPD2    C5  563   3.889   4.269  11.924  0.2403  0.3053  0.1144
   36MPD2     H  564   3.754   3.913  11.886  0.7810 -0.1723 -0.0154
   36MPD2    H1  565   3.694   4.337  11.880 -1.2600 -0.5751 -0.4250
   36MPD2    H2  566   4.076   4.166  11.970 -1.5776  0.0229  3.7189
   36MPD2    H3  567   3.921   4.373  11.923  2.1575 -0.2858 -0.0380
   36MPD2     N  568   3.581   4.086  11.827  0.6824 -0.5226  0.6753
   36MPD2    H5  569   3.568   3.988  11.804 -0.2463 -0.1617 -0.3154
   36MPD2    N1  570   4.020   3.928  11.952  0.1428  0.6563  0.1526
   36MPD2    H7  571   4.110   3.965  11.982 -0.4638  1.5414  0.9070
   37TMC2    C1  572   1.508   4.190  12.296 -1.4584  0.5769  0.5430
   37TMC2    C2  573   1.383   4.217  12.252  1.0569 -0.2961  0.3665
   37TMC2    C3  574   1.365   4.209  12.115  0.4100 -0.0074  0.2540
   37TMC2    C4  575   1.612   4.150  12.216 -0.1800  0.9661 -0.7464
   37TMC2    C5  576   1.595   4.168  12.084 -0.1911 -0.5590  0.1509
   37TMC2    C6  577   1.470   4.193  12.025  0.3083 -0.3781 -0.1086
   37TMC2     C  578   1.529   4.193  12.441 -0.1283 -0.1980 -0.7483
   37TMC2     O  579   1.423   4.184  12.502  0.3930  0.3278 -0.6790
   37TMC2     H  580   1.294   4.208  12.313  0.5579  0.4617 -0.2577
   37TMC2    H1  581   1.707   4.114  12.253 -0.7084  1.5868  1.2214
   37TMC2    H2  582   1.455   4.208  11.919 -3.0151  0.1625  0.4371
   37TMC2    C7  583   1.715   4.180  12.003 -0.1178 -0.0592 -0.6652
   37TMC2    C8  584   1.237   4.212  12.050 -0.4765 -0.2391  0.0450
   37TMC2    O1  585   1.818   4.190  12.069 -0.8472  0.1815  0.2226
   37TMC2    O2  586   1.138   4.238  12.117 -0.3573  0.0797  0.0987
   37TMC2    O5  587   1.246   4.146  11.931  0.1940 -0.2223  0.0799
   37TMC2    H5  588   1.333   4.104  11.914 -0.6206 -0.9348 -2.4683
   38MPD2     C  589   1.765   4.219  12.913 -0.1802  0.2180  0.0330
   38MPD2    C1  590   1.853   4.253  12.809 -0.1086 -0.4235  0.5309
   38MPD2    C2  591   1.815   4.255  12.672 -0.2254  0.2675 -0.3996
   38MPD2    C3  592   1.685   4.210  12.638 -1.0705 -0.1903 -0.2981
   38MPD2    C4  593   1.610   4.161  12.739  0.7254  0.0133 -0.2772
   38MPD2    C5  594   1.650   4.166  12.875  0.1215  0.4725  0.0466
   38MPD2     H  595   1.890   4.282  12.597 -1.3633  0.6068 -1.4099
   38MPD2    H1  596   1.513   4.118  12.716 -0.3138  1.3924  1.5434
   38MPD2    H2  597   1.773   4.231  13.021  1.5433  1.4335 -0.2310
   38MPD2    H3  598   1.568   4.142  12.941 -0.0779 -0.4941 -0.5478
   38MPD2     N  599   1.656   4.205  12.496  0.0573 -0.5714  0.4974
   38MPD2    H5  600   1.741   4.207  12.441 -0.3341  0.7381 -0.0555
   38MPD2    N1  601   1.990   4.274  12.836 -0.2132 -0.1639  0.1957
   38MPD2    H7  602   2.053   4.286  12.758 -0.2940 -0.6553  0.0553
   39TMC2    C1  603   0.011   0.943   1.915  0.4134  0.6031 -0.1449
   39TMC2    C2  604   4.691   0.959   2.037 -0.1587  0.1134 -0.5043
   39TMC2    C3  605   0.015   1.049   2.115 -0.3262 -0.2154  0.2208
   39TMC2    C4  606   0.113   1.022   1.866  0.0879 -0.5959 -0.5385
   39TMC2    C5  607   0.161   1.119   1.944 -0.8636  0.8978 -0.5056
   39TMC2    C6  608   0.119   1.130   2.074  0.7424  0.2125 -0.3130
   39TMC2     C  609   4.667   0.869   1.815  0.1898  0.0112 -0.1332
   39TMC2     O  610   4.547   0.864   1.846  0.3448  0.3901 -0.9827
   39TMC2     H  611   4.603   0.908   2.074  0.0709 -1.4821 -2.2014
   39TMC2    H1  612   0.169   0.998   1.776 -1.4502  1.2928 -1.9875
   39TMC2    H2  613   0.159   1.208   2.139 -0.4967  0.1191  0.5461
   39TMC2    C7  614   0.280   1.202   1.907  0.5621  0.0629  0.6318
   39TMC2    C8  615   4.699   1.049   2.255  0.6904 -0.4281 -0.1327
   39TMC2    O1  616   0.330   1.272   1.997 -0.3771  0.2538  0.0113
   39TMC2    O2  617   4.582   1.046   2.295 -0.1813 -0.0704  0.2074
   39TMC2    O5  618   0.071   1.079   2.332  0.2583 -0.5132  0.5884
   39TMC2    H5  619   0.156   1.041   2.301  0.5449  0.3847  0.2528
   40MPD2     C  620   0.051   0.687   1.507 -0.2059 -0.0429  0.2638
   40MPD2    C1  621   4.697   0.752   1.594 -0.8443  0.2659 -0.1538
   40MPD2    C2  622   4.571   0.768   1.557 -0.9155  0.2845 -0.3562
   40MPD2    C3  623   4.523   0.702   1.443  0.3232 -0.7295 -0.1725
   40MPD2    C4  624   4.600   0.608   1.375 -0.1962  0.7377 -0.8717
   40MPD2    C5  625   4.730   0.614   1.402  0.6766  0.2685  0.2676
   40MPD2     H  626   4.506   0.838   1.607 -0.2191  1.1271 -0.6270
   40MPD2    H1  627   4.568   0.554   1.287 -1.3038 -1.2785  0.7705
   40MPD2    H2  628   0.158   0.682   1.523 -0.1368 -0.3252 -0.2646
   40MPD2    H3  629   0.068   0.562   1.341  1.2043  1.2282  0.0887
   40MPD2     N  630   4.398   0.725   1.385  0.0556 -0.5699 -0.4752
   40MPD2    H5  631   4.381   0.675   1.299 -1.0870 -2.5280  0.8791
   40MPD2    N1  632   0.015   0.815   1.712  0.2690 -0.4035  0.6663
   40MPD2    H7  633   0.114   0.804   1.730  0.4607  0.3987  0.0788
   41TMC2    C1  634   4.057   4.119  13.061  0.2355  0.2368 -0.4053
   41TMC2    C2  635   4.106   4.240  13.085 -0.2021  0.0622  0.9478
   41TMC2    C3  636   4.171   4.303  12.979  0.3086  0.2226 -0.5215
   41TMC2    C4  637   4.067   4.055  12.941 -0.0488  0.7556  0.4667
   41TMC2    C5  638   4.136   4.116  12.840 -0.3768 -0.2443 -0.4759
   41TMC2    C6  639   4.192   4.243  12.860  0.9377  0.0031  0.1091
   41TMC2     C  640   3.986   4.034  13.154  0.1138  0.5945 -0.2051
   41TMC2     O  641   3.953   3.921  13.124 -0.1643  0.4832  0.3151
   41TMC2     H  642   4.085   4.303  13.170 -0.7413 -0.3861  1.1516
   41TMC2    H1  643   4.041   3.951  12.926  0.6183  0.5427  0.7749
   41TMC2    H2  644   4.235   4.300  12.779  1.4815 -2.0141 -1.0195
   41TMC2    C7  645   4.190   4.045  12.721 -0.2354 -0.1714 -0.1747
   41TMC2    C8  646   4.217   4.437  12.989 -0.1781  0.3674  0.6503
   41TMC2    O1  647   4.262   4.108  12.648  0.1943  0.4963  0.6323
   41TMC2    O2  648   4.302   4.476  12.910 -0.4941 -0.1097  0.4404
   41TMC2    O5  649   4.116   4.517  13.032  0.1453  0.0951  0.6408
   41TMC2    H5  650   4.044   4.467  13.075  0.4741 -0.6412  0.3342
   42MPD2     C  651   3.828   3.928  13.379 -0.0263  0.1820  0.1150
   42MPD2    C1  652   3.907   4.040  13.389 -0.1953 -0.6937  1.1983
   42MPD2    C2  653   3.899   4.108  13.509 -0.6146  0.4188  0.1555
   42MPD2    C3  654   3.835   4.057  13.619 -0.2612  0.4313 -0.2370
   42MPD2    C4  655   3.762   3.940  13.606  0.3397 -0.0628  0.4569
   42MPD2    C5  656   3.747   3.886  13.482  0.3739 -0.2793  0.0614
   42MPD2     H  657   3.951   4.202  13.519  1.2510 -0.6692  0.6427
   42MPD2    H1  658   3.717   3.898  13.696 -2.1305 -0.5080 -0.9749
   42MPD2    H2  659   3.808   3.877  13.285  1.8494 -0.2596 -0.0305
   42MPD2    H3  660   3.683   3.799  13.471 -0.6616  0.4123  0.6261
   42MPD2     N  661   3.840   4.119  13.748 -0.8177  0.1429  0.2679
   42MPD2    H5  662   3.779   4.082  13.820 -3.4364  1.5426 -1.2380
   42MPD2    N1  663   3.980   4.093  13.278 -0.5580 -0.1961 -0.1860
   42MPD2    H7  664   4.034   4.174  13.307  0.4244 -1.1343  0.6100
   43TMC2    C1  665   4.253   2.127   0.819 -1.0614 -0.5413 -0.3900
   43TMC2    C2  666   4.128   2.116   0.770  0.6153  0.0150 -0.2271
   43TMC2    C3  667   4.055   2.227   0.752  0.0820 -0.3798 -0.4297
   43TMC2    C4  668   4.300   2.252   0.850 -0.6263 -0.0509  0.4906
   43TMC2    C5  669   4.228   2.364   0.838  0.3202  0.6929  0.1246
   43TMC2    C6  670   4.101   2.350   0.789  0.2257 -0.2057 -0.5739
   43TMC2     C  671   4.360   2.025   0.800 -0.5098 -0.2089  0.8740
   43TMC2     O  672   4.475   2.068   0.786 -0.1173  0.2367 -0.3121
   43TMC2     H  673   4.089   2.024   0.728 -2.6316  1.2323  0.0658
   43TMC2    H1  674   4.407   2.268   0.859 -0.4719  0.1694 -1.5489
   43TMC2    H2  675   4.039   2.439   0.790  0.9062  0.2346  1.0194
   43TMC2    C7  676   4.271   2.488   0.907  0.5016 -0.7076  0.0198
   43TMC2    C8  677   3.921   2.218   0.711 -0.3635 -0.3269  0.7825
   43TMC2    O1  678   4.230   2.601   0.880  0.3941  0.1415 -0.3905
   43TMC2    O2  679   3.857   2.114   0.725 -0.0118 -0.4369 -0.1370
   43TMC2    O5  680   3.875   2.335   0.649  0.0197 -0.0891  0.5211
   43TMC2    H5  681   3.941   2.407   0.648 -0.3226  0.2466  1.4394
   44MPD2     C  682   4.517   1.550   0.677 -0.0056  0.1727 -0.3499
   44MPD2    C1  683   4.589   1.674   0.689  0.0683  0.9608 -0.0899
   44MPD2    C2  684   4.525   1.787   0.723 -1.2835  0.0374 -0.0944
   44MPD2    C3  685   4.389   1.777   0.762 -0.0533  0.3799  0.1098
   44MPD2    C4  686   4.324   1.654   0.761 -0.3940 -0.6965  0.2417
   44MPD2    C5  687   4.389   1.541   0.717 -0.1059 -0.0330  0.2807
   44MPD2     H  688   4.585   1.877   0.726  0.0107 -0.8230  0.2779
   44MPD2    H1  689   4.218   1.637   0.780 -0.5519 -0.4108 -0.3999
   44MPD2    H2  690   4.569   1.460   0.645 -2.0608 -0.7057 -1.2172
   44MPD2    H3  691   4.325   1.455   0.702  0.6639 -0.8040  1.5037
   44MPD2     N  692   4.312   1.893   0.794  0.4005  0.1848  0.2250
   44MPD2    H5  693   4.215   1.885   0.823  1.4017 -1.4183  3.0959
   44MPD2    N1  694   4.720   1.685   0.646  0.3812 -0.4461  0.6157
   44MPD2    H7  695   0.014   1.782   0.652  1.6922 -0.8309  0.5281
   45TMC2    C1  696   0.818   4.565   9.681 -0.1905  0.2277  0.2061
   45TMC2    C2  697   0.680   4.605   9.674  0.4654  0.1315  0.1346
   45TMC2    C3  698   0.661   0.004   9.690 -0.0736 -0.1874 -0.1364
   45TMC2    C4  699   0.929   4.644   9.705  0.4302  0.1860  0.0243
   45TMC2    C5  700   0.900   0.041   9.729 -0.1379  0.7020  0.0766
   45TMC2    C6  701   0.769   0.089   9.722 -0.3140  0.2692  0.0436
   45TMC2     C  702   0.853   4.434   9.632 -0.4465  0.0378 -0.1231
   45TMC2     O  703   0.973   4.409   9.630  0.3543 -0.2692  0.6105
   45TMC2     H  704   0.596   4.541   9.652  0.1849  1.5190 -2.8782
   45TMC2    H1  705   1.031   4.610   9.699 -0.3271 -1.6724 -2.0369
   45TMC2    H2  706   0.747   0.183   9.769  2.1818  0.1285  1.5390
   45TMC2    C7  707   1.005   0.131   9.758 -0.5341 -0.4361 -0.1727
   45TMC2    C8  708   0.522   0.051   9.664 -0.4619  0.6374  0.5189
   45TMC2    O1  709   1.080   0.097   9.849 -0.2710 -0.2597  0.2442
   45TMC2    O2  710   0.432   4.701   9.656  0.2006  0.2851 -0.0371
   45TMC2    O5  711   0.515   0.186   9.656 -0.3111 -0.4058  0.8050
   45TMC2    H5  712   0.598   0.233   9.681 -0.9933  1.3324 -0.1988
   46MPD2     C  713   0.882   4.206   9.446  0.2150 -0.1191  0.2284
   46MPD2    C1  714   0.758   4.255   9.493  0.1880  0.1802 -0.1777
   46MPD2    C2  715   0.640   4.212   9.439 -0.4258  0.2613  0.2404
   46MPD2    C3  716   0.639   4.106   9.352 -0.1389 -0.4992  0.3263
   46MPD2    C4  717   0.758   4.050   9.309 -0.3440 -0.2150 -0.3289
   46MPD2    C5  718   0.879   4.100   9.357 -0.2513 -0.2423 -0.5657
   46MPD2     H  719   0.545   4.252   9.473 -0.8964 -1.3224  0.8126
   46MPD2    H1  720   0.768   3.966   9.240 -1.9303 -0.4161 -0.3333
   46MPD2    H2  721   0.976   4.236   9.491  0.3608  0.3668 -0.4048
   46MPD2    H3  722   0.971   4.064   9.313  0.7653 -0.8091  1.9980
   46MPD2     N  723   0.507   4.058   9.331 -0.0201 -0.2416 -0.5500
   46MPD2    H5  724   0.433   4.100   9.387 -1.5677 -2.3265 -1.0210
   46MPD2    N1  725   0.751   4.368   9.569  0.7725 -0.5197 -0.0762
   46MPD2    H7  726   0.656   4.405   9.572  1.4111  1.1355 -0.0164
   47TMC2    C1  727   3.177   0.647   9.458 -0.0698  0.8366  0.2470
   47TMC2    C2  728   3.160   0.631   9.323  0.4019  0.0599 -0.4721
   47TMC2    C3  729   3.032   0.653   9.289  0.5921  0.3025  0.1491
   47TMC2    C4  730   3.084   0.687   9.550  0.3860 -0.3550  0.3189
   47TMC2    C5  731   2.960   0.724   9.504  0.2421 -0.0478  0.0357
   47TMC2    C6  732   2.935   0.712   9.369 -0.1232 -0.1207 -0.1770
   47TMC2     C  733   3.320   0.671   9.500 -0.0421  0.4826 -0.5952
   47TMC2     O  734   3.341   0.741   9.598  0.0136  0.1173  0.0524
   47TMC2     H  735   3.242   0.610   9.256  0.2242 -0.7939 -0.4240
   47TMC2    H1  736   3.100   0.726   9.650  1.0512 -0.9332  0.4396
   47TMC2    H2  737   2.837   0.727   9.325 -0.5574  0.5125  1.0020
   47TMC2    C7  738   2.839   0.749   9.588 -0.0017 -0.0239 -0.1146
   47TMC2    C8  739   2.991   0.661   9.149 -0.7395 -0.3720 -0.7110
   47TMC2    O1  740   2.834   0.691   9.693  0.3246 -0.0805  0.5055
   47TMC2    O2  741   3.033   0.593   9.056 -0.1706  0.5774 -0.1810
   47TMC2    O5  742   2.954   0.785   9.126 -0.0385  0.1084 -0.2838
   47TMC2    H5  743   2.980   0.842   9.201 -1.5773 -1.5277  1.5009
   48MPD2     C  744   3.605   0.736   9.472  0.2537 -0.0484  0.0475
   48MPD2    C1  745   3.546   0.616   9.425 -0.2785  0.0535 -0.6793
   48MPD2    C2  746   3.627   0.517   9.384  0.0530  0.0195 -0.2479
   48MPD2    C3  747   3.761   0.525   9.403  0.1320  0.0977 -0.0267
   48MPD2    C4  748   3.820   0.647   9.457  0.0331 -0.3394  0.4042
   48MPD2    C5  749   3.739   0.745   9.495  0.1456  0.1430 -0.4958
   48MPD2     H  750   3.591   0.423   9.343 -1.7628  0.9934 -0.9033
   48MPD2    H1  751   3.924   0.667   9.480 -0.1749  2.9420 -1.5046
   48MPD2    H2  752   3.556   0.824   9.512 -1.0487 -0.9527  0.4336
   48MPD2    H3  753   3.786   0.836   9.531 -0.3512  0.4094 -0.5289
   48MPD2     N  754   3.841   0.415   9.354 -0.2794 -0.1955  0.3183
   48MPD2    H5  755   3.791   0.330   9.330  1.2608 -0.9035 -0.3353
   48MPD2    N1  756   3.406   0.591   9.427  0.6341 -0.0744 -0.2388
   48MPD2    H7  757   3.369   0.505   9.387  0.3018 -0.0815  0.0838
   49TMC2    C1  758   1.618   2.012  10.253 -0.2813 -0.1534 -0.4121
   49TMC2    C2  759   1.537   2.115  10.208  1.0755  0.0764  0.5401
   49TMC2    C3  760   1.414   2.089  10.158  0.1830  0.2437  0.2375
   49TMC2    C4  761   1.573   1.885  10.267 -0.2902 -1.4526 -0.6689
   49TMC2    C5  762   1.448   1.867  10.227  0.0367 -0.3998 -1.2727
   49TMC2    C6  763   1.369   1.965  10.174 -0.2356  0.6951  0.8280
   49TMC2     C  764   1.745   2.055  10.309  0.1246 -0.3151  0.6232
   49TMC2     O  765   1.782   2.165  10.268 -0.4826  0.3384 -0.2379
   49TMC2     H  766   1.585   2.208  10.180 -0.0717  0.1261 -1.2755
   49TMC2    H1  767   1.640   1.806  10.297  1.7975  1.0107  1.1872
   49TMC2    H2  768   1.266   1.947  10.146 -0.1169 -1.2740  1.6486
   49TMC2    C7  769   1.383   1.750  10.258 -0.0114  0.1498  0.4648
   49TMC2    C8  770   1.314   2.197  10.152  0.5319  0.1775  1.0575
   49TMC2    O1  771   1.287   1.719  10.189 -0.1416  0.0713 -0.1277
   49TMC2    O2  772   1.205   2.192  10.096  0.8514 -0.0803  0.3390
   49TMC2    O5  773   1.351   2.302  10.228 -0.2002 -0.0444 -0.6272
   49TMC2    H5  774   1.441   2.292  10.267 -0.5455 -1.5762 -0.2356
   50MPD2     C  775   1.978   2.128  10.459 -0.2526  0.0025 -0.5741
   50MPD2    C1  776   1.885   2.035  10.510 -0.4638 -0.5012 -0.3889
   50MPD2    C2  777   1.912   1.966  10.632  0.5368 -0.0155  0.4882
   50MPD2    C3  778   2.027   1.985  10.703  0.9020  0.0205  0.2069
   50MPD2    C4  779   2.117   2.079  10.651 -0.3837  0.0328  0.3718
   50MPD2    C5  780   2.089   2.151  10.533 -0.0777 -0.2689 -0.1471
   50MPD2     H  781   1.842   1.889  10.665  1.1412 -1.4139 -1.4436
   50MPD2    H1  782   2.197   2.115  10.714  0.8937 -2.9570  0.4705
   50MPD2    H2  783   1.968   2.185  10.367 -0.3492  0.0714 -0.5203
   50MPD2    H3  784   2.145   2.241  10.509  0.4495 -0.2922  1.0007
   50MPD2     N  785   2.056   1.942  10.838  0.2298  0.1066  0.1523
   50MPD2    H5  786   2.139   1.976  10.884 -0.7979  0.7956  1.5086
   50MPD2    N1  787   1.782   1.999  10.431 -0.8150 -0.2884 -0.6377
   50MPD2    H7  788   1.726   1.919  10.459 -0.0507 -1.1579 -1.5989
   51TMC2    C1  789   1.929   0.313   1.221 -0.5745 -0.0195  0.5777
   51TMC2    C2  790   1.810   0.320   1.289  0.5775 -0.3954  0.2780
   51TMC2    C3  791   1.745   0.440   1.299 -0.1855  0.1363  0.2451
   51TMC2    C4  792   1.979   0.423   1.159 -0.6407  0.0572 -0.3617
   51TMC2    C5  793   1.906   0.533   1.166 -0.2870 -0.2972  0.4680
   51TMC2    C6  794   1.787   0.545   1.231  0.9391  0.1879 -0.3349
   51TMC2     C  795   2.011   0.195   1.234 -0.0329  0.2231  0.1586
   51TMC2     O  796   2.067   0.171   1.129  0.3859  0.1684  0.0925
   51TMC2     H  797   1.778   0.232   1.344 -1.6459  1.1498  1.4647
   51TMC2    H1  798   2.075   0.424   1.110 -0.9552  0.2484 -0.9650
   51TMC2    H2  799   1.730   0.637   1.222 -3.2987 -2.4008  0.3642
   51TMC2    C7  800   1.987   0.658   1.154 -0.2924  0.9084  0.0401
   51TMC2    C8  801   1.601   0.423   1.320 -0.3305 -0.0500 -0.3475
   51TMC2    O1  802   2.108   0.656   1.166 -0.4298  0.5536 -0.1506
   51TMC2    O2  803   1.533   0.340   1.264 -0.0538 -0.2340  0.8361
   51TMC2    O5  804   1.576   0.491   1.435 -0.3869 -0.5292 -0.1432
   51TMC2    H5  805   1.664   0.529   1.456 -0.9509  0.3431  0.6311
   52MPD2     C  806   2.139   4.475   1.411 -0.2709 -0.1228  0.0419
   52MPD2    C1  807   2.161   4.530   1.288  0.2209 -0.1006  0.1634
   52MPD2    C2  808   2.120   4.659   1.273  0.7187 -0.3105 -0.2679
   52MPD2    C3  809   2.045   4.728   1.372 -0.8259 -0.1348 -0.8880
   52MPD2    C4  810   2.024   4.670   1.496  0.5063  0.1458  0.0081
   52MPD2    C5  811   2.077   4.541   1.511  0.0929 -0.0183 -0.2447
   52MPD2     H  812   2.139   4.701   1.175 -0.3688  0.5179 -0.1121
   52MPD2    H1  813   1.970   4.721   1.574 -0.1896 -1.1190  0.3539
   52MPD2    H2  814   2.159   4.369   1.418 -1.9423 -0.5451 -1.5934
   52MPD2    H3  815   2.054   4.499   1.608  0.1034 -1.2177 -0.7586
   52MPD2     N  816   1.989   0.123   1.351 -0.0127  0.2409  0.2418
   52MPD2    H5  817   1.920   0.158   1.417 -0.9325 -2.3791  0.6989
   52MPD2    N1  818   2.224   4.471   1.178  0.3285 -0.3736 -0.4350
   52MPD2    H7  819   2.240   4.533   1.100 -1.2276  0.1021 -0.3680
   53TMC2    C1  820   2.374   4.399  11.772  0.1984  0.5200  0.5593
   53TMC2    C2  821   2.470   4.304  11.793 -0.3549 -0.3736  0.8789
   53TMC2    C3  822   2.532   4.301  11.916 -0.1790 -0.5281  0.1264
   53TMC2    C4  823   2.341   4.486  11.873  0.0979  0.1870  0.3652
   53TMC2    C5  824   2.393   4.457  12.000 -0.4613  0.0908 -0.0682
   53TMC2    C6  825   2.488   4.367  12.026  0.1125  0.7497 -0.0059
   53TMC2     C  826   2.267   4.354  11.689 -0.3279 -0.9308 -0.7826
   53TMC2     O  827   2.292   4.290  11.585 -0.0385 -0.0863  0.5661
   53TMC2     H  828   2.502   4.250  11.705 -0.9615  1.8611 -0.7222
   53TMC2    H1  829   2.268   4.566  11.865 -0.1377 -0.2979 -2.5074
   53TMC2    H2  830   2.539   4.348  12.119  1.5020  2.9633 -0.3150
   53TMC2    C7  831   2.317   4.510  12.115 -0.0834 -0.0735  0.0692
   53TMC2    C8  832   2.645   4.222  11.933 -0.1005  0.7528  0.5942
   53TMC2    O1  833   2.199   4.542  12.108 -0.2406 -0.1143 -0.0870
   53TMC2    O2  834   2.744   4.250  12.002  0.2506  0.5375  0.7155
   53TMC2    O5  835   2.614   4.104  11.876  0.2181  0.2655 -0.6443
   53TMC2    H5  836   2.517   4.089  11.879  0.0691  1.1744 -0.9513
   54MPD2     C  837   1.995   4.307  11.584 -0.1118  0.2869 -0.0584
   54MPD2    C1  838   2.025   4.317  11.724 -0.2719  0.9737 -0.0507
   54MPD2    C2  839   1.926   4.281  11.815 -0.3363  0.1253  0.5024
   54MPD2    C3  840   1.807   4.234  11.775  0.0891  0.6239  0.3022
   54MPD2    C4  841   1.785   4.215  11.641 -0.1380 -0.4304 -0.5554
   54MPD2    C5  842   1.874   4.263  11.545  0.0851  0.5630 -0.9443
   54MPD2     H  843   1.947   4.307  11.918 -0.5610 -1.4339  0.9410
   54MPD2    H1  844   1.692   4.172  11.607 -1.6723  1.3778  1.3235
   54MPD2    H2  845   2.067   4.340  11.510  1.2549 -0.5310  0.8851
   54MPD2    H3  846   1.858   4.262  11.438 -0.4688 -0.3403 -0.8499
   54MPD2     N  847   1.704   4.195  11.868  0.2238  0.8182 -0.0888
   54MPD2    H5  848   1.612   4.195  11.825 -0.0989 -1.0463  0.5741
   54MPD2    N1  849   2.153   4.364  11.766 -0.5186  0.2089 -0.6338
   54MPD2    H7  850   2.151   4.416  11.854 -0.4786  0.6879 -0.9151
   55TMC2    C1  851   3.040   2.195  17.707 -0.9512  0.2139 -0.4389
   55TMC2    C2  852   3.030   2.161  17.574 -0.1241  0.5618  0.0305
   55TMC2    C3  853   3.000   2.032  17.539  0.6178 -1.2646 -1.2948
   55TMC2    C4  854   3.024   2.100   0.066  0.6724 -0.0827  0.0983
   55TMC2    C5  855   2.998   1.968   0.021  0.0201  0.0029 -0.2811
   55TMC2    C6  856   2.995   1.935  17.628  0.5596 -1.0450  0.5223
   55TMC2     C  857   3.047   2.333   0.000  0.1722 -0.5685 -0.3693
   55TMC2     O  858   3.027   2.366   0.114  0.6140 -0.4118  0.8478
   55TMC2     H  859   3.021   2.237  17.497  1.1898  1.3816  0.6833
   55TMC2    H1  860   3.024   2.138   0.167 -1.6439 -1.2691  0.5275
   55TMC2    H2  861   2.986   1.833  17.590  1.5235 -0.9665  0.0912
   55TMC2    C7  862   2.941   1.869   0.113 -0.4081 -0.2326  0.1779
   55TMC2    C8  863   2.979   2.000  17.398  0.5388 -0.0969 -0.0303
   55TMC2    O1  864   2.935   1.750   0.075  0.0952  0.6045  0.1956
   55TMC2    O2  865   3.019   2.076  17.310  0.1227 -0.3600  0.0394
   55TMC2    O5  866   2.861   1.928  17.382 -0.1264 -0.0489 -0.1661
   55TMC2    H5  867   2.815   1.910  17.467 -1.7449  0.7693 -0.8473
   56MPD2     C  868   3.156   2.621  17.528  0.3219  0.7123  0.3064
   56MPD2    C1  869   3.075   2.557  17.626 -0.0322  0.4083  0.1053
   56MPD2    C2  870   3.017   2.633  17.719  0.1177  0.4750  0.1010
   56MPD2    C3  871   3.005   2.772  17.705  0.4380 -0.4015  0.5811
   56MPD2    C4  872   3.070   2.836  17.601  0.9327 -0.0534 -0.0601
   56MPD2    C5  873   3.153   2.757  17.525 -0.5095 -0.5219 -0.2017
   56MPD2     H  874   2.940   2.589   0.042 -0.0492  2.8768  1.5995
   56MPD2    H1  875   3.057   2.942  17.580  0.9442 -0.3513 -1.5819
   56MPD2    H2  876   3.220   2.564  17.462 -0.4259 -1.0785  1.1025
   56MPD2    H3  877   3.235   2.808  17.475  0.0905 -1.2952 -0.0023
   56MPD2     N  878   2.905   2.832   0.050 -1.1237 -0.4565 -0.3772
   56MPD2    H5  879   2.857   2.765   0.110  1.0187 -1.9643 -0.3543
   56MPD2    N1  880   3.086   2.410  17.636  0.0305  0.1714  0.0416
   56MPD2    H7  881   3.128   2.368  17.553 -1.9217  0.8549 -1.3109
   57TMC2    C1  882   1.912   2.801  13.237 -0.2693 -0.2009 -0.7971
   57TMC2    C2  883   1.878   2.693  13.163  0.2968  0.4272  0.6766
   57TMC2    C3  884   1.969   2.639  13.083 -0.6953  0.2222  0.4167
   57TMC2    C4  885   2.031   2.853  13.230 -0.2592  0.1613 -0.4208
   57TMC2    C5  886   2.126   2.796  13.150 -0.5848 -0.1352  0.5022
   57TMC2    C6  887   2.099   2.685  13.071  0.3371 -0.0271  0.5562
   57TMC2     C  888   1.815   2.862  13.338  0.0969 -0.2600  0.5078
   57TMC2     O  889   1.857   2.958  13.401  0.0258  0.2236  0.7984
   57TMC2     H  890   1.781   2.650  13.185 -0.7122  1.9186 -0.8522
   57TMC2    H1  891   2.060   2.931  13.299  1.9499  0.0554 -1.2228
   57TMC2    H2  892   2.178   2.640  13.012  0.8182 -1.2617  2.1429
   57TMC2    C7  893   2.260   2.836  13.179  0.3781  0.1142 -0.4682
   57TMC2    C8  894   1.932   2.526  12.993 -0.2233  0.0648  0.2580
   57TMC2    O1  895   2.261   2.952  13.225 -0.0123 -0.1315 -0.2489
   57TMC2    O2  896   2.023   2.451  12.956 -0.3816 -0.2945  0.5256
   57TMC2    O5  897   1.801   2.497  12.999 -0.6526 -0.2379  0.8549
   57TMC2    H5  898   1.740   2.572  13.015  0.5217  0.9037 -0.0000
   58MPD2     C  899   1.409   2.842  13.643 -0.5013  0.2237  0.4294
   58MPD2    C1  900   1.524   2.913  13.655  0.2018  0.0933  0.1262
   58MPD2    C2  901   1.622   2.902  13.554  0.2342  0.4532  0.0811
   58MPD2    C3  902   1.594   2.816  13.446  0.1993  1.2005  0.1226
   58MPD2    C4  903   1.475   2.754  13.433 -0.0607 -1.0659 -0.4751
   58MPD2    C5  904   1.380   2.766  13.531 -0.0888  0.2356  0.2360
   58MPD2     H  905   1.706   2.970  13.556  2.3035 -2.0670 -0.3273
   58MPD2    H1  906   1.455   2.685  13.352 -0.0218 -1.6889  0.0443
   58MPD2    H2  907   1.337   2.829  13.723 -1.0210 -0.2117 -0.1038
   58MPD2    H3  908   1.287   2.711  13.531  0.1179 -0.1073  0.0265
   58MPD2     N  909   1.691   2.799  13.342 -0.0119 -0.0621  0.3296
   58MPD2    H5  910   1.674   2.723  13.277  0.6889  0.3471 -0.3250
   58MPD2    N1  911   1.548   2.982  13.780  0.7868 -0.1713 -0.0466
   58MPD2    H7  912   1.639   3.024  13.790  1.2006 -0.9700 -0.4476
   59TMC2    C1  913   4.678   2.807  12.615 -0.0412 -0.1415  0.7844
   59TMC2    C2  914   0.001   2.684  12.634  0.0803  0.4337 -0.4625
   59TMC2    C3  915   4.710   2.589  12.541  0.3623 -0.1392  0.5026
   59TMC2    C4  916   4.588   2.831  12.518  0.2065  0.6188  0.2941
   59TMC2    C5  917   4.559   2.727  12.442 -0.1342  0.5686 -0.9714
   59TMC2    C6  918   4.602   2.600  12.454  0.1918 -0.0649  0.3564
   59TMC2     C  919   4.641   2.874  12.737  0.2256 -0.3076  0.0600
   59TMC2     O  920   4.542   2.946  12.739  0.1320 -0.0506 -0.2449
   59TMC2     H  921   0.066   2.661  12.718 -1.1352 -0.7310  0.1559
   59TMC2    H1  922   4.536   2.924  12.504 -1.5823 -0.3153  0.7606
   59TMC2    H2  923   4.567   2.516  12.395  1.1277 -0.3602  0.2335
   59TMC2    C7  924   4.476   2.744  12.327 -0.3674  1.2074 -0.2605
   59TMC2    C8  925   0.026   2.456  12.559 -0.6579 -0.6338 -0.9450
   59TMC2    O1  926   4.403   2.652  12.296  0.4070  0.5417 -0.7774
   59TMC2    O2  927   0.054   2.409  12.671  0.0740 -0.4914  0.0237
   59TMC2    O5  928   0.064   2.405  12.445 -0.1561  0.0664  0.0690
   59TMC2    H5  929   0.057   2.466  12.369  0.3746 -0.9208 -0.7674
   60MPD2     C  930   4.591   2.965  13.016 -0.1038  0.1501  1.2976
   60MPD2    C1  931   4.714   2.929  12.963 -0.5979  0.1525 -0.2281
   60MPD2    C2  932   0.094   2.954  13.037  0.5310  0.3022  0.3632
   60MPD2    C3  933   0.084   3.015  13.158  0.1778  0.0458  0.5021
   60MPD2    C4  934   4.696   3.057  13.208 -0.1160  0.0026  0.4072
   60MPD2    C5  935   4.582   3.021  13.138 -0.3691  0.3437  0.6937
   60MPD2     H  936   0.189   2.924  12.995  0.8356  0.4315  0.9706
   60MPD2    H1  937   4.686   3.115  13.299  3.2682  0.3990  0.5114
   60MPD2    H2  938   4.497   2.953  12.963  1.4200 -1.7595 -0.9832
   60MPD2    H3  939   4.486   3.051  13.178  0.4418  1.1694  2.0117
   60MPD2     N  940   0.202   3.045  13.222  0.5498  0.0100  0.0558
   60MPD2    H5  941   0.291   3.050  13.174 -0.7097 -2.7574 -2.5627
   60MPD2    N1  942   4.734   2.867  12.835  0.3950 -0.4060  0.0627
   60MPD2    H7  943   0.090   2.834  12.804  0.3208 -0.6455  0.1039
   61TMC2    C1  944   3.892   4.371  15.617  0.1532 -0.0290 -0.7117
   61TMC2    C2  945   3.803   4.290  15.688  0.4461 -0.6356  0.9396
   61TMC2    C3  946   3.681   4.334  15.714  0.8558 -0.1154 -0.0527
   61TMC2    C4  947   3.849   4.496  15.576 -0.0212  0.5517  0.1247
   61TMC2    C5  948   3.722   4.541  15.605 -0.3334 -0.3083 -0.3136
   61TMC2    C6  949   3.635   4.458  15.671  0.4190  0.2511  0.5221
   61TMC2     C  950   4.030   4.328  15.596  0.7080  0.0079 -0.6260
   61TMC2     O  951   4.063   4.232  15.664  0.5249 -0.2767  0.2701
   61TMC2     H  952   3.843   4.197  15.727 -0.6365 -1.3432  0.3743
   61TMC2    H1  953   3.919   4.567  15.533  0.2031  0.9629  1.1845
   61TMC2    H2  954   3.535   4.487  15.704  0.1562  0.4516 -0.4388
   61TMC2    C7  955   3.688   4.662  15.530 -1.0036 -0.2753 -0.0000
   61TMC2    C8  956   3.578   4.237  15.767  0.1834  0.6565 -0.3147
   61TMC2    O1  957   3.788   4.726  15.494  0.5215  0.0085 -0.5267
   61TMC2    O2  958   3.606   4.121  15.794 -0.0158 -0.2234  0.2154
   61TMC2    O5  959   3.477   4.263  15.684  0.3669 -0.4780 -0.3567
   61TMC2    H5  960   3.486   4.343  15.627 -0.5076 -1.3989 -1.7858
   62MPD2     C  961   4.305   4.273  15.521  0.1641 -0.6911  0.3805
   62MPD2    C1  962   4.224   4.368  15.460 -0.1418 -1.1750  0.3603
   62MPD2    C2  963   4.278   4.437  15.351  0.0956  0.2369  0.6437
   62MPD2    C3  964   4.410   4.418  15.308  0.9474  0.3869 -0.8035
   62MPD2    C4  965   4.495   4.337  15.380  0.1447 -0.4114  0.1553
   62MPD2    C5  966   4.433   4.262  15.483  0.2892  0.9983 -0.8110
   62MPD2     H  967   4.215   4.505  15.296 -0.3245  1.1413  2.2305
   62MPD2    H1  968   4.599   4.323  15.355 -0.3990 -2.0145 -1.2277
   62MPD2    H2  969   4.273   4.215  15.607 -2.7280 -1.1114 -0.9647
   62MPD2    H3  970   4.493   4.195  15.543  0.7375  0.2086 -2.1472
   62MPD2     N  971   4.452   4.494  15.194  0.6377 -0.2238 -0.6829
   62MPD2    H5  972   4.385   4.561  15.158  1.9027  0.8515 -1.0666
   62MPD2    N1  973   4.090   4.391  15.495  0.0995  0.1063  0.1548
   62MPD2    H7  974   4.041   4.467  15.447 -1.3128  0.9841  3.0153
   63TMC2    C1  975   4.140   4.569  10.585  0.0645  0.7883  0.8439
   63TMC2    C2  976   4.230   4.575  10.693  0.1324  0.4229  0.3355
   63TMC2    C3  977   4.349   4.643  10.683 -1.0371  0.0751 -0.4302
   63TMC2    C4  978   4.182   4.622  10.469  0.1393  0.5812 -0.1730
   63TMC2    C5  979   4.309   4.684  10.456 -0.3302 -0.9134  0.5047
   63TMC2    C6  980   4.381   4.707  10.568 -0.0381 -0.4403  0.4793
   63TMC2     C  981   4.006   4.524  10.604  0.0477 -0.9000 -0.2371
   63TMC2     O  982   3.988   4.451  10.700 -0.3417 -0.0155  0.1120
   63TMC2     H  983   4.196   4.535  10.788 -0.4687  0.8745  0.3137
   63TMC2    H1  984   4.117   4.618  10.382  2.2952  0.7228 -1.8038
   63TMC2    H2  985   4.477   0.021  10.558 -0.2812  0.4123  2.2126
   63TMC2    C7  986   4.319   0.036  10.345 -0.1240 -0.2866  0.1186
   63TMC2    C8  987   4.432   4.663  10.793 -0.5029  0.0429  0.0474
   63TMC2    O1  988   4.243   0.008  10.252  0.0085 -0.5874  0.4841
   63TMC2    O2  989   4.482   0.035  10.819  0.0285 -0.2186 -0.8202
   63TMC2    O5  990   4.400   4.571  10.881  0.4696  0.9272  0.1414
   63TMC2    H5  991   4.410   4.484  10.837  1.2137  0.6955  0.7770
   64MPD2     C  992   3.547   4.412  10.408  0.4268 -0.1260 -1.2859
   64MPD2    C1  993   3.611   4.363  10.520 -0.0628 -0.6782  0.8930
   64MPD2    C2  994   3.740   4.412  10.545  0.3304 -0.3748 -0.0458
   64MPD2    C3  995   3.799   4.513  10.475  1.4599  0.2780  0.4815
   64MPD2    C4  996   3.733   4.559  10.361  0.3695  0.2814 -0.1930
   64MPD2    C5  997   3.610   4.505  10.332  0.2306  0.1348 -0.6603
   64MPD2     H  998   3.789   4.370  10.633  0.1323  3.4750  1.9160
   64MPD2    H1  999   3.768   4.641  10.300  0.9145  0.3978  0.2749
   64MPD2    H2 1000   3.448   4.382  10.378  0.2976  0.9796 -1.9445
   64MPD2    H3 1001   3.559   4.544  10.244 -0.7535  2.2859  0.8662
   64MPD2     N 1002   3.918   4.575  10.505 -0.3363  0.0203 -0.2103
   64MPD2    H5 1003   3.944   4.654  10.446  2.0594 -2.9228 -3.1085
   64MPD2    N1 1004   3.569   4.248  10.585 -0.3613 -0.1697 -0.4347
   64MPD2    H7 1005   3.632   4.211  10.655  0.4331  0.8029 -0.6317
   65TMC2    C1 1006   0.150   4.084  15.755 -0.3225  0.2903  0.3452
   65TMC2    C2 1007   0.198   4.030  15.641  0.0241 -0.5711 -0.3879
   65TMC2    C3 1008   0.215   4.120  15.542  0.9507  0.4621 -0.3501
   65TMC2    C4 1009   0.095   4.213  15.758 -0.4309  0.0628 -1.0323
   65TMC2    C5 1010   0.118   4.294  15.654  0.2497  0.1400  0.4549
   65TMC2    C6 1011   0.183   4.253  15.547  0.6263 -0.2718  0.2447
   65TMC2     C 1012   0.122   3.999  15.870 -0.3115 -0.6554 -0.2001
   65TMC2     O 1013   0.110   4.056  15.974  0.5751  0.2497 -0.4011
   65TMC2     H 1014   0.246   3.933  15.635  0.3556 -0.4915  0.8893
   65TMC2    H1 1015   0.052   4.259  15.846  0.2536 -0.0176 -0.6590
   65TMC2    H2 1016   0.199   4.327  15.470  0.8127 -0.4101  0.1489
   65TMC2    C7 1017   0.031   4.406  15.630 -0.2761  0.0087  0.0803
   65TMC2    C8 1018   0.307   4.079  15.439 -0.1112  0.0265  0.0929
   65TMC2    O1 1019   0.051   4.489  15.539  0.5846  0.2285 -0.1931
   65TMC2    O2 1020   0.415   4.033  15.478 -0.1270 -0.2417  0.1529
   65TMC2    O5 1021   0.224   4.025  15.360 -0.4462 -0.0336  0.0401
   65TMC2    H5 1022   0.158   4.087  15.324 -0.5521 -0.5451 -0.6547
   66MPD2     C 1023   4.686   3.797  16.011  0.0955  0.0306  0.6679
   66MPD2    C1 1024   0.007   3.776  15.888 -0.0027  0.5817 -0.2003
   66MPD2    C2 1025   4.710   3.666  15.817  0.1299 -0.2516  0.5365
   66MPD2    C3 1026   4.607   3.587  15.866 -0.6423 -0.5354 -0.7774
   66MPD2    C4 1027   4.547   3.612  15.993 -0.2236 -0.7780  0.2700
   66MPD2    C5 1028   4.602   3.710  16.071  0.2057 -0.2931  0.6713
   66MPD2     H 1029   0.015   3.648  15.718  0.8433 -1.1190  0.9864
   66MPD2    H1 1030   4.462   3.558  16.033 -1.2973  2.1782  2.0195
   66MPD2    H2 1031   4.710   3.890  16.062  0.6372  0.5576 -0.5320
   66MPD2    H3 1032   4.575   3.718  16.176  2.3942  0.8918  1.1332
   66MPD2     N 1033   4.553   3.482  15.791 -0.5939  0.3268  0.2445
   66MPD2    H5 1034   4.469   3.434  15.823  0.9191 -1.1977  1.9134
   66MPD2    N1 1035   0.086   3.871  15.822  0.0831  0.3203 -0.7235
   66MPD2    H7 1036   0.099   3.864  15.722 -0.2070  1.7110 -0.8683
   67TMC2    C1 1037   0.173   3.377  14.550  0.8972 -0.0652 -0.0941
   67TMC2    C2 1038   0.091   3.480  14.599  0.5419  0.3969 -0.2204
   67TMC2    C3 1039   0.117   3.533  14.720  0.0177  0.5481  0.2346
   67TMC2    C4 1040   0.271   3.324  14.634  0.1930  0.0471  0.8854
   67TMC2    C5 1041   0.292   3.382  14.757 -0.0860  0.4795 -0.3173
   67TMC2    C6 1042   0.224   3.496  14.799  0.1080 -0.5779  0.4514
   67TMC2     C 1043   0.156   3.331  14.411 -0.5477 -0.1549 -0.6255
   67TMC2     O 1044   0.252   3.263  14.369  0.3602 -0.1377  0.8040
   67TMC2     H 1045   0.022   3.532  14.532 -0.4439 -1.6021 -0.7553
   67TMC2    H1 1046   0.335   3.243  14.603 -0.4067 -0.4302  0.8895
   67TMC2    H2 1047   0.251   3.567  14.877 -2.3857  0.5081  0.3255
   67TMC2    C7 1048   0.391   3.330  14.840  0.0614 -0.7053  0.2082
   67TMC2    C8 1049   0.028   3.634  14.768  0.5167  0.1964 -1.2560
   67TMC2    O1 1050   0.473   3.262  14.781  0.4368 -0.2423 -0.5146
   67TMC2    O2 1051   4.698   3.708  14.695 -0.0816  0.4694  0.3243
   67TMC2    O5 1052   0.017   3.636  14.906  0.4957  0.7912 -0.5095
   67TMC2    H5 1053   0.061   3.566  14.960  1.9666  1.1314 -1.2672
   68MPD2     C 1054   0.088   3.345  14.126 -0.2719  1.0751  0.2402
   68MPD2    C1 1055   4.729   3.338  14.225  0.2688  0.3774 -0.2406
   68MPD2    C2 1056   4.600   3.328  14.190 -0.0653  0.4865  0.7114
   68MPD2    C3 1057   4.561   3.320  14.057 -0.2968  0.1835  0.5206
   68MPD2    C4 1058   4.654   3.335  13.961 -0.3248 -0.3126 -0.2986
   68MPD2    C5 1059   0.050   3.336  13.996  0.6173  0.1674 -0.0708
   68MPD2     H 1060   4.533   3.320  14.274  0.3694 -1.6608  0.8598
   68MPD2    H1 1061   4.635   3.334  13.854 -0.3035  0.0406 -0.3029
   68MPD2    H2 1062   0.194   3.359  14.140  0.1363 -0.2732 -1.6322
   68MPD2    H3 1063   0.128   3.333  13.920  0.5040  0.4013 -0.1949
   68MPD2     N 1064   4.426   3.298  14.017  0.1118 -0.2074  0.0668
   68MPD2    H5 1065   4.409   3.297  13.917  2.5472 -0.7207 -0.3414
   68MPD2    N1 1066   0.029   3.358  14.361 -0.6350 -0.1552 -0.6883
   68MPD2    H7 1067   4.689   3.385  14.424 -0.4614 -0.1000 -0.5050
   69TMC2    C1 1068   2.312   0.241  12.792 -0.6782  0.1386 -0.2630
   69TMC2    C2 1069   2.185   0.276  12.774  0.2462 -0.2965  0.1322
   69TMC2    C3 1070   2.135   0.303  12.649 -0.2201 -0.2495  0.5145
   69TMC2    C4 1071   2.390   0.217  12.682  0.4291  0.3280  0.1295
   69TMC2    C5 1072   2.335   0.237  12.551  0.1956  0.0851 -0.2610
   69TMC2    C6 1073   2.206   0.275  12.535  0.2919 -0.6003 -0.4351
   69TMC2     C 1074   2.331   0.144  12.901  0.3315  0.5368  0.1767
   69TMC2     O 1075   2.256   0.157  12.999 -0.5636  0.8898 -0.2188
   69TMC2     H 1076   2.115   0.286  12.856  0.1592  1.0002 -0.0980
   69TMC2    H1 1077   2.496   0.197  12.691  0.0826 -1.8208 -0.5335
   69TMC2    H2 1078   2.159   0.299  12.440 -0.9004 -2.1595 -0.2497
   69TMC2    C7 1079   2.413   0.197  12.439  0.7751  0.0295 -0.1518
   69TMC2    C8 1080   1.989   0.324  12.645 -0.3142  0.5267 -0.3362
   69TMC2    O1 1081   2.522   0.151  12.475  0.2432 -0.0255 -0.0215
   69TMC2    O2 1082   1.904   0.259  12.582 -0.6190 -0.1635 -0.4469
   69TMC2    O5 1083   1.975   0.435  12.722  0.1857 -0.2517 -0.2453
   69TMC2    H5 1084   2.054   0.487  12.750  1.2150 -0.7733 -2.1640
   70MPD2     C 1085   2.563   4.590  12.913 -0.5632 -0.3713 -0.4416
   70MPD2    C1 1086   2.459   4.672  12.951 -0.3659  0.6648 -0.2537
   70MPD2    C2 1087   2.383   4.631  13.057 -0.9681 -0.5139  0.0881
   70MPD2    C3 1088   2.419   4.518  13.128 -0.0995 -0.8050 -0.3443
   70MPD2    C4 1089   2.533   4.446  13.098 -0.0334  0.1476  0.3588
   70MPD2    C5 1090   2.602   4.484  12.986  0.0457 -0.0237 -0.1631
   70MPD2     H 1091   2.304   4.690  13.102  0.2482  1.0022  0.2068
   70MPD2    H1 1092   2.560   4.354  13.148 -1.5488  0.2282  1.3021
   70MPD2    H2 1093   2.610   4.608  12.816  0.6236  0.1793  0.2348
   70MPD2    H3 1094   2.687   4.429  12.947 -1.4340 -2.5296  0.1983
   70MPD2     N 1095   2.358   4.474  13.242 -0.2445  0.0579  0.8678
   70MPD2    H5 1096   2.404   4.405  13.301 -0.0624 -2.6199 -2.3978
   70MPD2    N1 1097   2.425   0.045  12.865 -0.1082  0.5660  0.2347
   70MPD2    H7 1098   2.482   0.069  12.785  1.8067 -0.1664  1.4070
   71TMC2    C1 1099   3.407   0.727   1.479 -0.6779  0.5103 -0.1431
   71TMC2    C2 1100   3.410   0.844   1.553  0.3891  0.0250  0.0943
   71TMC2    C3 1101   3.297   0.888   1.614 -0.5465  0.4201 -0.5972
   71TMC2    C4 1102   3.295   0.651   1.471  0.1555  0.3749 -0.3534
   71TMC2    C5 1103   3.182   0.686   1.549 -0.4102 -0.1021 -0.1535
   71TMC2    C6 1104   3.185   0.803   1.625  0.4567  0.1616  0.4793
   71TMC2     C 1105   3.525   0.658   1.444 -0.3332 -0.2780  0.6563
   71TMC2     O 1106   3.505   0.558   1.372 -0.2904  0.1855 -0.2346
   71TMC2     H 1107   3.491   0.914   1.540  0.7630 -1.1040 -3.5371
   71TMC2    H1 1108   3.294   0.557   1.418  0.3379 -0.3425  0.9069
   71TMC2    H2 1109   3.096   0.847   1.668 -0.2875 -0.1079 -0.7742
   71TMC2    C7 1110   3.051   0.612   1.547  0.1210  0.3764  0.1418
   71TMC2    C8 1111   3.283   1.031   1.587  0.3605 -0.3236  0.3374
   71TMC2    O1 1112   2.976   0.640   1.640  0.2386 -0.1679  0.1268
   71TMC2    O2 1113   3.313   1.081   1.478  0.5991  0.4234 -0.3872
   71TMC2    O5 1114   3.211   1.090   1.687  0.6375  0.7699  0.2551
   71TMC2    H5 1115   3.215   1.037   1.770  1.5728 -1.5682 -1.2692
   72MPD2     C 1116   4.023   0.547   1.481 -0.4899  0.3517 -0.7317
   72MPD2    C1 1117   3.928   0.503   1.397 -0.2242  0.0181 -1.1735
   72MPD2    C2 1118   3.800   0.551   1.406 -0.0040  0.2389  0.1898
   72MPD2    C3 1119   3.759   0.633   1.506  0.2747 -0.2461  0.1063
   72MPD2    C4 1120   3.849   0.669   1.602 -0.0093  0.2481  0.4374
   72MPD2    C5 1121   3.982   0.631   1.585  0.2730  0.3618  0.2812
   72MPD2     H 1122   3.727   0.513   1.336 -1.2110 -0.1486  1.6618
   72MPD2    H1 1123   3.822   0.720   1.693  0.9844 -1.4079  1.6697
   72MPD2    H2 1124   4.126   0.516   1.471 -0.1657  1.3814 -0.5624
   72MPD2    H3 1125   4.057   0.665   1.654 -0.8162 -0.3111  1.8042
   72MPD2     N 1126   3.627   0.687   1.521 -0.0411  0.8656  0.2633
   72MPD2    H5 1127   3.615   0.748   1.601  0.9142  1.0199  0.2876
   72MPD2    N1 1128   3.978   0.423   1.291  0.4089  0.1937 -0.1982
   72MPD2    H7 1129   4.079   0.415   1.279  0.7223  1.6033  1.4666
   73TMC2    C1 1130   3.702   2.068  13.835 -0.5651  0.5183 -0.2799
   73TMC2    C2 1131   3.637   2.111  13.948 -0.1818  0.3325  0.1447
   73TMC2    C3 1132   3.662   2.047  14.069  0.1763 -0.6796 -1.0086
   73TMC2    C4 1133   3.792   1.967  13.854  0.0123 -0.5398  1.2081
   73TMC2    C5 1134   3.805   1.902  13.968 -0.4288 -0.0610  0.1325
   73TMC2    C6 1135   3.736   1.935  14.082  0.1093  0.8581 -0.9323
   73TMC2     C 1136   3.762   2.176  13.756 -0.2919  0.2434  0.4470
   73TMC2     O 1137   3.880   2.157  13.751  0.2332 -0.2989  0.7041
   73TMC2     H 1138   3.569   2.195  13.950  0.7069  1.0549 -0.1215
   73TMC2    H1 1139   3.848   1.943  13.765 -1.4668  0.3712  0.0338
   73TMC2    H2 1140   3.760   1.884  14.174  1.1682  1.2287 -1.0042
   73TMC2    C7 1141   3.945   1.876  13.995  0.7980 -0.0868  0.1452
   73TMC2    C8 1142   3.595   2.098  14.184 -0.3626  0.9320  0.1662
   73TMC2    O1 1143   3.975   1.796  14.088 -0.0742 -0.4184 -0.3231
   73TMC2    O2 1144   3.481   2.136  14.185 -0.8100 -0.1439 -0.1052
   73TMC2    O5 1145   3.683   2.103  14.284  0.0800  0.5289 -0.3963
   73TMC2    H5 1146   3.778   2.091  14.262  0.2858  1.6587 -0.1689
   74MPD2     C 1147   3.813   2.630  13.539  0.0859  0.0927  0.3627
   74MPD2    C1 1148   3.905   2.544  13.590  0.1840  0.0449 -1.0915
   74MPD2    C2 1149   3.861   2.428  13.643  0.5620 -0.6583 -0.0831
   74MPD2    C3 1150   3.728   2.400  13.656  0.5635 -0.6700  0.4955
   74MPD2    C4 1151   3.633   2.497  13.625  0.5272  0.3806  0.0375
   74MPD2    C5 1152   3.682   2.613  13.566  0.6684  0.4994  0.4725
   74MPD2     H 1153   3.938   2.359  13.676 -0.6257 -0.9223  2.1482
   74MPD2    H1 1154   3.530   2.483  13.655  0.6500  0.6213  0.5770
   74MPD2    H2 1155   3.839   2.723  13.490 -0.3227  0.0197 -0.0027
   74MPD2    H3 1156   3.619   2.701  13.552  0.4041  0.1389 -0.5458
   74MPD2     N 1157   3.683   2.278  13.714  0.3482  0.1969  0.1285
   74MPD2    H5 1158   3.583   2.269  13.727  0.3120 -3.0844 -2.3517
   74MPD2    N1 1159   4.041   2.581  13.581 -0.0911  0.1840  0.9723
   74MPD2    H7 1160   4.060   2.668  13.533 -1.4201 -0.3571 -0.5344
   75TMC2    C1 1161   4.202   3.223  14.027  1.0109  0.2767 -0.6648
   75TMC2    C2 1162   4.110   3.155  14.101  0.5070 -0.3904  0.5017
   75TMC2    C3 1163   3.989   3.135  14.043 -1.1287  0.7087 -0.1582
   75TMC2    C4 1164   4.160   3.282  13.916 -0.0820  0.3343 -0.1850
   75TMC2    C5 1165   4.027   3.287  13.878  0.2404  0.0826 -0.2443
   75TMC2    C6 1166   3.946   3.198  13.935  0.4294  0.5438  0.1911
   75TMC2     C 1167   4.324   3.260  14.098 -0.4926 -0.1320  0.2535
   75TMC2     O 1168   4.319   3.247  14.222  0.3301  0.5016 -0.1570
   75TMC2     H 1169   4.153   3.104  14.186  0.0544 -0.4973  0.6606
   75TMC2    H1 1170   4.243   3.335  13.869  2.2570 -2.8138  0.3843
   75TMC2    H2 1171   3.839   3.193  13.915  0.1308  1.0444  1.6590
   75TMC2    C7 1172   3.980   3.363  13.764 -0.9689 -0.0478  0.3799
   75TMC2    C8 1173   3.885   3.094  14.143 -0.4251  0.1020  0.7240
   75TMC2    O1 1174   3.861   3.343  13.735  0.4039  0.3785  0.1486
   75TMC2    O2 1175   3.902   3.014  14.232 -0.1485  0.0523 -0.2634
   75TMC2    O5 1176   3.841   3.212  14.174  0.2858  0.1133  0.0547
   75TMC2    H5 1177   3.839   3.274  14.099 -2.0082 -0.3998 -0.3025
   76TMC2    C1 1178   2.716   3.625  12.152 -0.3024  0.2091 -0.7577
   76TMC2    C2 1179   2.595   3.592  12.097  0.4222 -0.7406 -0.7061
   76TMC2    C3 1180   2.548   3.463  12.102 -0.1070 -0.1452 -0.0099
   76TMC2    C4 1181   2.793   3.528  12.221  0.3882  0.6258 -0.4886
   76TMC2    C5 1182   2.739   3.400  12.229  0.0549 -0.6447  0.1966
   76TMC2    C6 1183   2.626   3.366  12.159  0.6469  0.1948  0.7160
   76TMC2     C 1184   2.768   3.759  12.134  0.3216  0.3536  0.0587
   76TMC2     O 1185   2.708   3.831  12.051  0.9149  0.1878  0.5958
   76TMC2     H 1186   2.541   3.670  12.044 -1.7365 -2.0512 -0.4211
   76TMC2    H1 1187   2.868   3.551  12.296  0.0628  1.0053 -0.2733
   76TMC2    H2 1188   2.596   3.263  12.145  1.1418  0.1232  0.1692
   76TMC2    C7 1189   2.809   3.280  12.276  0.5650  0.5643  0.4398
   76TMC2    C8 1190   2.447   3.419  12.010  0.2182  0.3794  0.2740
   76TMC2    O1 1191   2.737   3.184  12.289 -0.3058  0.2236  0.0789
   76TMC2    O2 1192   2.421   3.306  12.011  0.3473 -0.3140 -0.1302
   76TMC2    O5 1193   2.470   3.481  11.901  0.2974 -0.1704 -0.0171
   76TMC2    H5 1194   2.453   3.578  11.899  3.1344  0.2876 -0.8290
   77MPD2     C 1195   3.183   4.045  12.083  0.2674 -0.6271 -0.2447
   77MPD2    C1 1196   3.046   4.082  12.076 -0.6009 -0.4540 -0.2640
   77MPD2    C2 1197   2.949   3.987  12.104  0.2494  0.3560 -0.4930
   77MPD2    C3 1198   2.990   3.860  12.136  0.2625 -0.2633 -0.0632
   77MPD2    C4 1199   3.117   3.828  12.149  0.1908  0.7381  0.1827
   77MPD2    C5 1200   3.217   3.917  12.119 -0.0259  0.2300  0.1908
   77MPD2     H 1201   2.845   4.016  12.100  0.8032  2.1277 -1.9928
   77MPD2    H1 1202   3.146   3.730  12.186  1.4558  1.7860  1.9533
   77MPD2    H2 1203   3.259   4.121  12.073  0.0030 -0.3846 -0.4320
   77MPD2    H3 1204   3.317   3.879  12.136  0.3604  0.8598 -0.6583
   77MPD2     N 1205   2.897   3.762  12.169  0.7044 -0.0873  0.3907
   77MPD2    H5 1206   2.940   3.671  12.185  0.2785 -0.4159 -0.3342
   77MPD2    N1 1207   3.013   4.213  12.038 -0.1273  0.2535  1.1416
   77MPD2    H7 1208   2.918   4.248  12.044 -0.6593 -1.0437  0.2472
   78TMC2    C1 1209   3.749   0.198   1.534 -0.1692 -0.6159 -0.9981
   78TMC2    C2 1210   3.685   0.133   1.432 -0.5325  0.5807  0.4820
   78TMC2    C3 1211   3.761   0.049   1.349  0.1891 -0.5332  0.3413
   78TMC2    C4 1212   3.884   0.179   1.564 -0.3357  0.1478 -0.1339
   78TMC2    C5 1213   3.957   0.104   1.478  0.6891  0.0986 -0.1747
   78TMC2    C6 1214   3.895   0.041   1.376  0.0546  0.8833 -0.4788
   78TMC2     C 1215   3.673   0.284   1.625 -0.4128 -0.9370 -0.4941
   78TMC2     O 1216   3.743   0.357   1.695 -0.3300  0.1936 -0.7144
   78TMC2     H 1217   3.592   0.174   1.395 -0.9343 -0.3243  0.5070
   78TMC2    H1 1218   3.930   0.223   1.652  2.6675 -0.4875 -1.4038
   78TMC2    H2 1219   3.950   4.707   1.313 -1.6317  0.3976 -1.4062
   78TMC2    C7 1220   4.101   0.104   1.477  0.5970 -0.3865  0.5284
   78TMC2    C8 1221   3.709   4.674   1.263 -0.4960 -0.1641  0.5165
   78TMC2    O1 1222   4.159   0.026   1.403  0.1516  0.1523  0.1785
   78TMC2    O2 1223   3.776   4.639   1.166  0.4070 -0.3161 -0.7196
   78TMC2    O5 1224   3.576   4.701   1.247  0.0416  0.2595 -0.1759
   78TMC2    H5 1225   3.541   0.004   1.330 -1.6950 -0.0622 -0.7750
   79MPD1     C 1226   3.225   0.444   1.807  0.3436  0.6884 -0.3554
   79MPD1    C1 1227   3.351   0.499   1.812 -0.8744 -0.5153  0.0939
   79MPD1    C2 1228   3.458   0.434   1.755  0.1434  0.2875  0.3240
   79MPD1    C3 1229   3.429   0.319   1.683 -0.5929  0.9810  0.3111
   79MPD1    C4 1230   3.303   0.270   1.679  0.0170 -0.3180 -0.5016
   79MPD1    C5 1231   3.206   0.330   1.740 -0.7952  0.1802  0.0958
   79MPD1     H 1232   3.557   0.476   1.766 -0.1685  1.1444 -0.1700
   79MPD1    H1 1233   3.272   0.188   1.616  2.8409 -2.0355  0.3366
   79MPD1    H2 1234   3.139   0.490   1.854 -0.7241 -1.8855  0.2195
   79MPD1    H3 1235   3.102   0.298   1.742  0.0122 -2.3411  1.4334
   79MPD1     N 1236   3.535   0.252   1.618 -0.2549 -0.1084 -0.9739
   79MPD1    H5 1237   3.515   0.170   1.562  0.1218  0.4937 -1.9938
   79MPD1    N1 1238   3.361   0.611   1.899  0.3428 -0.6646  0.1473
   79MPD1    H6 1239   3.438   0.678   1.891  0.7949 -1.2479 -0.4209
   79MPD1    H7 1240   3.274   0.663   1.907  0.4680 -0.2999 -0.8464
   80TMC2    C1 1241   2.145   4.028  11.936 -0.2068 -0.1574 -0.5743
   80TMC2    C2 1242   2.154   4.008  11.807  0.0525 -0.0290 -0.6881
   80TMC2    C3 1243   2.055   3.939  11.746  0.7018  0.3203  0.1538
   80TMC2    C4 1244   2.047   3.959  12.008  0.1100 -0.5063 -0.2027
   80TMC2    C5 1245   1.959   3.879  11.947  0.6389  0.5809  0.4524
   80TMC2    C6 1246   1.959   3.869  11.812  0.5921  0.3487 -0.3297
   80TMC2     C 1247   2.276   4.038  11.990 -0.5512  0.1231  0.2438
   80TMC2     O 1248   2.379   4.012  11.929 -0.3953 -0.1701  0.2696
   80TMC2     H 1249   2.232   4.062  11.755  0.9367  0.0563  0.7357
   80TMC2    H1 1250   2.057   3.962  12.116 -0.5566 -0.7531 -0.1315
   80TMC2    H2 1251   1.883   3.810  11.762  0.2169  1.1377 -0.6836
   80TMC2    C7 1252   1.840   3.821  12.013  0.2152 -0.4141 -0.0964
   80TMC2    C8 1253   2.045   3.933  11.599 -0.2318  0.0269  0.0007
   80TMC2    O1 1254   1.742   3.802  11.942  0.5584 -0.0108  0.2160
   80TMC2    O2 1255   1.941   3.890  11.548  0.6267 -0.0723  0.1821
   80TMC2    O5 1256   2.157   3.972  11.532 -0.0822 -0.1736  0.0515
   80TMC2    H5 1257   2.242   3.978  11.581  0.8039 -0.1337 -1.5161
   81MPD2     C 1258   2.498   4.044  12.195  0.1847 -0.7660  1.3686
   81MPD2    C1 1259   2.372   4.087  12.219 -0.1020 -0.2676 -0.5151
   81MPD2    C2 1260   2.340   4.157  12.338 -0.1684 -0.0437  0.6077
   81MPD2    C3 1261   2.438   4.181  12.435 -0.2165 -0.6196 -0.1574
   81MPD2    C4 1262   2.569   4.165  12.396 -0.1294  0.4149 -0.0262
   81MPD2    C5 1263   2.596   4.099  12.278 -0.2688  0.1917 -0.3035
   81MPD2     H 1264   2.238   4.189  12.353 -0.2240  0.5462 -1.0728
   81MPD2    H1 1265   2.651   4.195  12.460 -0.5018 -2.0835  1.6224
   81MPD2    H2 1266   2.523   3.996  12.101  1.5950  0.3203  1.1855
   81MPD2    H3 1267   2.702   4.093  12.255 -0.5261 -1.1419 -1.1218
   81MPD2     N 1268   2.417   4.236  12.567  0.1450  0.0841  0.4566
   81MPD2    H5 1269   2.505   4.260  12.610 -0.0611 -0.3676  1.1242
   81MPD2    N1 1270   2.267   4.076  12.125 -0.1373  0.4247  0.5041
   81MPD2    H7 1271   2.183   4.129  12.144 -0.8709  0.1650 -2.1245
   82TMC2    C1 1272   0.763   3.003  11.198  0.6866 -0.3233 -0.6756
   82TMC2    C2 1273   0.869   3.060  11.263  0.3445 -0.2887 -0.2826
   82TMC2    C3 1274   0.885   3.018  11.394 -0.2300 -1.0878 -0.5749
   82TMC2    C4 1275   0.690   2.896  11.245  0.0887  0.1387 -0.2177
   82TMC2    C5 1276   0.726   2.853  11.370  0.4938 -0.2354  0.1762
   82TMC2    C6 1277   0.819   2.917  11.445  0.0525 -0.2416 -0.2544
   82TMC2     C 1278   0.709   3.056  11.075  0.2022 -0.2042 -0.0884
   82TMC2     O 1279   0.666   2.973  10.999 -0.6213 -0.0622 -0.5510
   82TMC2     H 1280   0.916   3.144  11.212  0.3390  0.2989  0.6852
   82TMC2    H1 1281   0.613   2.845  11.188 -0.9293  0.7350  0.6311
   82TMC2    H2 1282   0.849   2.872  11.539  0.6312  0.3289 -0.1657
   82TMC2    C7 1283   0.659   2.744  11.425  0.2562 -0.2649 -0.5336
   82TMC2    C8 1284   1.013   3.045  11.457  0.3352  0.2603  0.0070
   82TMC2    O1 1285   0.651   2.740  11.547  0.2441 -0.1362  0.0984
   82TMC2    O2 1286   1.047   3.009  11.571 -0.2546 -0.5058  0.3750
   82TMC2    O5 1287   1.100   3.041  11.357  0.0855 -0.4686 -0.7445
   82TMC2    H5 1288   1.061   3.018  11.270 -0.1563 -2.0138 -0.2191
   83MPD2     C 1289   0.566   3.439  10.765  0.3765 -0.5862 -0.4507
   83MPD2    C1 1290   0.519   3.312  10.770  0.6404  0.2430 -0.1078
   83MPD2    C2 1291   0.576   3.230  10.867  0.8857  0.4142 -0.4621
   83MPD2    C3 1292   0.671   3.276  10.961 -0.9569  0.2497  0.7263
   83MPD2    C4 1293   0.703   3.408  10.954  0.5462  0.4189  0.8069
   83MPD2    C5 1294   0.654   3.487  10.862 -0.5773  0.1207  0.8387
   83MPD2     H 1295   0.561   3.123  10.862 -0.5999  0.6153 -0.2693
   83MPD2    H1 1296   0.770   3.457  11.024  3.0887 -0.3505 -1.0917
   83MPD2    H2 1297   0.532   3.512  10.693  0.5669  1.4760  1.5570
   83MPD2    H3 1298   0.687   3.589  10.844 -0.0214 -0.1053  0.5630
   83MPD2     N 1299   0.725   3.191  11.060  0.7424  0.0383 -1.0282
   83MPD2    H5 1300   0.769   3.237  11.139  2.6165 -1.2919 -1.2796
   83MPD2    N1 1301   0.422   3.270  10.674 -0.0938 -0.0822 -0.4479
   83MPD2    H7 1302   0.392   3.343  10.610 -1.5749  0.5335  0.9195
   84TMC2    C1 1303   2.128   1.921  11.238 -0.1970  0.7349 -0.8966
   84TMC2    C2 1304   2.117   1.792  11.293  0.7906  0.2138 -0.7767
   84TMC2    C3 1305   2.062   1.690  11.217  0.2920 -0.0077 -0.2058
   84TMC2    C4 1306   2.081   1.937  11.111  0.0378 -0.1539 -0.4162
   84TMC2    C5 1307   2.032   1.830  11.037  0.3226  1.0232 -0.1348
   84TMC2    C6 1308   2.015   1.703  11.091  0.0901 -0.1800  0.4669
   84TMC2     C 1309   2.106   2.036  11.330 -0.1475 -0.5085  0.0841
   84TMC2     O 1310   2.015   2.107  11.294  0.6158 -0.3519 -0.2340
   84TMC2     H 1311   2.164   1.773  11.389  2.6337 -2.8646 -2.2911
   84TMC2    H1 1312   2.061   2.039  11.079  1.8206  0.0675 -0.8569
   84TMC2    H2 1313   2.001   1.618  11.025 -0.0853  1.3492 -1.4730
   84TMC2    C7 1314   1.983   1.853  10.904 -0.4367  0.1884 -0.5107
   84TMC2    C8 1315   2.003   1.596  11.300 -0.6872  0.7623 -0.2703
   84TMC2    O1 1316   1.882   1.786  10.870  0.0102  0.1538 -0.5710
   84TMC2    O2 1317   2.059   1.551  11.400  0.0049 -0.4375  0.3387
   84TMC2    O5 1318   1.886   1.555  11.250 -0.4222  0.5547 -0.0346
   84TMC2    H5 1319   1.851   1.606  11.174 -1.0346  1.1018  0.6221
   85TMC2    C1 1320   2.575   0.433  16.153 -0.6280 -0.3858 -0.0366
   85TMC2    C2 1321   2.522   0.429  16.028 -0.5197 -0.1960  0.2284
   85TMC2    C3 1322   2.505   0.553  15.975 -0.0452 -0.2307  0.0051
   85TMC2    C4 1323   2.620   0.544  16.218 -0.1962 -0.5589 -0.2659
   85TMC2    C5 1324   2.604   0.663  16.158  0.1068 -0.1920  0.7312
   85TMC2    C6 1325   2.546   0.670  16.035  0.2249  0.7175 -0.3300
   85TMC2     C 1326   2.553   0.316  16.236 -0.0399 -0.9654 -0.0111
   85TMC2     O 1327   2.635   0.292  16.327 -0.2007 -0.3036 -0.3312
   85TMC2     H 1328   2.499   0.341  15.969  2.3519 -1.4090  0.9208
   85TMC2    H1 1329   2.670   0.539  16.314  2.7488  0.9157 -1.7441
   85TMC2    H2 1330   2.541   0.767  15.987  0.9816  0.3395 -1.1592
   85TMC2    C7 1331   2.696   0.780  16.185  0.2705 -0.5687 -0.2829
   85TMC2    C8 1332   2.455   0.547  15.835  0.2404 -0.0169 -0.4144
   85TMC2    O1 1333   2.649   0.888  16.154 -0.4212 -0.0438 -0.0158
   85TMC2    O2 1334   2.402   0.451  15.782 -0.2780 -0.0640 -0.0211
   85TMC2    O5 1335   2.402   0.669  15.813  0.0887 -0.1014 -0.1688
   85TMC2    H5 1336   2.448   0.738  15.865 -0.2207 -0.6809  0.8563
   86MPD2     C 1337   2.260   4.676  16.424  0.2406 -0.3294 -0.7105
   86MPD2    C1 1338   2.185   0.008  16.321  0.1169  0.4947  0.5281
   86MPD2    C2 1339   2.246   0.105  16.246 -0.8748 -0.0956  0.2924
   86MPD2    C3 1340   2.379   0.139  16.268  0.1679 -0.0744 -0.2643
   86MPD2    C4 1341   2.450   0.060  16.355 -0.1438 -0.3241  0.3794
   86MPD2    C5 1342   2.397   4.701  16.431 -0.1472 -0.2896  0.4144
   86MPD2     H 1343   2.181   0.171  16.189  0.6782 -0.7575 -2.2602
   86MPD2    H1 1344   2.557   0.070  16.357  0.0701 -2.0990 -1.9383
   86MPD2    H2 1345   2.224   4.589  16.476  0.6958 -1.4129 -2.2081
   86MPD2    H3 1346   2.463   4.641  16.493 -0.0494  0.1113  0.6998
   86MPD2     N 1347   2.432   0.256  16.205 -0.3979 -0.3209 -0.3095
   86MPD2    H5 1348   2.374   0.309  16.140 -0.9377 -0.5049  0.0158
   86MPD2    N1 1349   2.046   4.726  16.301 -0.2642  0.2794 -0.3207
   86MPD2    H7 1350   1.997   0.030  16.222  0.1230  2.1426  0.3723
   87TMC2    C1 1351   4.326   3.306   0.783  0.0064  0.4832 -0.5308
   87TMC2    C2 1352   4.411   3.209   0.833 -0.5749 -0.3348  0.0889
   87TMC2    C3 1353   4.460   3.241   0.956  0.4742  0.1769 -0.4057
   87TMC2    C4 1354   4.300   3.429   0.836  0.3591 -0.4870  0.5037
   87TMC2    C5 1355   4.356   3.454   0.957 -0.3126  0.2076 -0.0896
   87TMC2    C6 1356   4.438   3.361   1.017 -0.0155 -0.4035 -0.4649
   87TMC2     C 1357   4.257   3.282   0.655 -0.0202 -0.7625 -0.3275
   87TMC2     O 1358   4.230   3.373   0.578 -0.1482  0.4822  0.7678
   87TMC2     H 1359   4.433   3.122   0.773  0.6194 -0.0017  0.0348
   87TMC2    H1 1360   4.252   3.500   0.768 -0.3965 -1.8198 -0.3579
   87TMC2    H2 1361   4.458   3.365   1.124 -2.5151 -2.5175  0.0875
   87TMC2    C7 1362   4.304   3.570   1.024  0.2047 -0.0144  0.4529
   87TMC2    C8 1363   4.516   3.134   1.041 -0.0082 -0.0620  0.2796
   87TMC2    O1 1364   4.208   3.619   0.971 -0.0979  0.3930 -0.5293
   87TMC2    O2 1365   4.581   3.172   1.138 -0.0782 -0.3746  0.5868
   87TMC2    O5 1366   4.551   3.043   0.952  0.4161  0.5083  0.5356
   87TMC2    H5 1367   4.473   3.034   0.893 -0.2900 -0.5494  1.6225
   88MPD2     C 1368   4.440   3.781   1.294  0.1762 -0.5933  0.0056
   88MPD2    C1 1369   4.342   3.728   1.205 -0.6998 -0.7651  0.4383
   88MPD2    C2 1370   4.220   3.796   1.198  0.1302  0.0986  0.3106
   88MPD2    C3 1371   4.194   3.908   1.282 -0.2014  0.3237 -0.4198
   88MPD2    C4 1372   4.299   3.962   1.355 -0.2518 -0.2665 -0.2216
   88MPD2    C5 1373   4.413   3.896   1.365  0.0678 -0.2440  0.4833
   88MPD2     H 1374   4.144   3.757   1.131  0.2834 -1.7126  1.1899
   88MPD2    H1 1375   4.281   4.041   1.427 -0.1057 -1.2781  0.9318
   88MPD2    H2 1376   4.534   3.728   1.306  0.4792 -0.6680 -2.6340
   88MPD2    H3 1377   4.486   3.925   1.440 -0.1276 -1.0228  0.9826
   88MPD2     N 1378   4.066   3.975   1.282  0.9628  0.7847 -0.1060
   88MPD2    H5 1379   4.076   4.064   1.329  1.4839  0.2189  0.8406
   88MPD2    N1 1380   4.379   3.614   1.128  0.1617 -0.6511  0.2514
   88MPD2    H7 1381   4.469   3.571   1.151  1.0841  0.6501 -0.9241
   89TMC2    C1 1382   0.439   1.511   1.144 -0.4432  0.6625  0.1327
   89TMC2    C2 1383   0.413   1.389   1.083  0.8794  0.0124 -0.8151
   89TMC2    C3 1384   0.372   1.393   0.951 -0.0903  0.1743  0.3542
   89TMC2    C4 1385   0.436   1.630   1.079 -0.0345  0.2634  0.3761
   89TMC2    C5 1386   0.381   1.631   0.956  0.5258 -0.1528  0.3078
   89TMC2    C6 1387   0.359   1.514   0.895  0.2104  1.1144  0.4721
   89TMC2     C 1388   0.498   1.513   1.278 -0.0965  0.5815 -0.0878
   89TMC2     O 1389   0.590   1.595   1.304  0.0949  0.3319 -0.3977
   89TMC2     H 1390   0.419   1.295   1.137  1.1473  0.3809 -0.1949
   89TMC2    H1 1391   0.434   1.718   1.143 -0.6501  0.9889 -0.6361
   89TMC2    H2 1392   0.304   1.521   0.802 -0.9070 -0.7633  0.9911
   89TMC2    C7 1393   0.276   1.727   0.933  0.1347 -0.5559  1.0002
   89TMC2    C8 1394   0.331   1.266   0.891 -0.3234  0.4377 -0.3570
   89TMC2    O1 1395   0.172   1.680   0.895 -0.0702  0.5411 -0.3058
   89TMC2    O2 1396   0.299   1.164   0.949  0.8271 -0.0191 -0.1401
   89TMC2    O5 1397   0.358   1.285   0.764  0.2101  0.8282 -0.7814
   89TMC2    H5 1398   0.407   1.367   0.742  1.7999  0.5258  1.6375
   90MPD2     C 1399   0.489   1.372   1.778 -0.8794 -0.9361  0.4483
   90MPD2    C1 1400   0.392   1.302   1.705  0.1593 -0.3404 -0.4807
   90MPD2    C2 1401   0.380   1.313   1.565  0.4212  0.1372 -0.0713
   90MPD2    C3 1402   0.461   1.399   1.498  0.4324  0.7260 -0.6759
   90MPD2    C4 1403   0.557   1.469   1.567 -0.3423 -0.5922 -0.7352
   90MPD2    C5 1404   0.577   1.448   1.703  0.1284  0.3879 -0.3659
   90MPD2     H 1405   0.302   1.266   1.507  0.7355  1.5658 -1.6410
   90MPD2    H1 1406   0.613   1.541   1.508  0.0841 -0.7375 -0.5104
   90MPD2    H2 1407   0.511   1.362   1.883  3.4710 -1.2144 -0.4998
   90MPD2    H3 1408   0.654   1.513   1.742 -0.4779 -0.0346  1.5202
   90MPD2     N 1409   0.441   1.413   1.361 -0.8841 -0.0980 -0.3586
   90MPD2    H5 1410   0.364   1.354   1.332  1.0740 -2.5406 -0.6048
   90MPD2    N1 1411   0.291   1.225   1.773  0.4667 -0.0019  0.2359
   90MPD2    H7 1412   0.232   1.176   1.707 -0.5013 -1.0933  1.9288
   91TMC2    C1 1413   2.073   1.569  16.516 -0.5267  0.1086  0.1200
   91TMC2    C2 1414   2.096   1.597  16.645 -0.3508 -0.4556 -0.1495
   91TMC2    C3 1415   2.022   1.524  16.737 -0.0495  0.4818 -0.1672
   91TMC2    C4 1416   1.974   1.482  16.476 -0.5017 -0.2839 -0.3138
   91TMC2    C5 1417   1.900   1.421  16.571 -0.3561  0.3449  0.0879
   91TMC2    C6 1418   1.925   1.433  16.703 -0.2851  0.1444 -0.3093
   91TMC2     C 1419   2.154   1.619  16.409 -0.4618 -0.2531 -0.1007
   91TMC2     O 1420   2.120   1.589  16.293 -0.0531 -0.1649 -0.1549
   91TMC2     H 1421   2.157   1.680  16.678  1.7159 -1.5320 -1.2532
   91TMC2    H1 1422   1.945   1.471  16.373  0.2170  1.5566 -0.7085
   91TMC2    H2 1423   1.886   1.364  16.776 -1.5223 -0.5909 -1.6660
   91TMC2    C7 1424   1.802   1.318  16.541 -0.4713  0.7465  0.4792
   91TMC2    C8 1425   2.063   1.542  16.867 -0.1808  0.8446  0.0266
   91TMC2    O1 1426   1.744   1.270  16.639 -0.0221 -0.1024 -0.1113
   91TMC2    O2 1427   2.165   1.595  16.903  0.0765  0.5443  0.4673
   91TMC2    O5 1428   1.962   1.512  16.950 -0.2582 -0.1650  0.3529
   91TMC2    H5 1429   1.880   1.500  16.897  1.1954 -3.0781 -1.2591
   92MPD2     C 1430   2.349   1.750  16.228 -1.1857  0.0024 -0.3368
   92MPD2    C1 1431   2.373   1.720  16.360  0.1055 -0.2071  0.9112
   92MPD2    C2 1432   2.506   1.728  16.413 -0.4293  0.5544 -0.6054
   92MPD2    C3 1433   2.613   1.760  16.326  0.1391 -0.7257  0.5765
   92MPD2    C4 1434   2.581   1.804  16.203  0.3268  0.3032  0.0577
   92MPD2    C5 1435   2.453   1.801  16.152  0.3970  0.0857  0.2090
   92MPD2     H 1436   2.522   1.688  16.513 -0.3552  0.4178 -0.6716
   92MPD2    H1 1437   2.657   1.852  16.143 -1.0345 -0.7249 -2.4813
   92MPD2    H2 1438   2.251   1.755  16.182 -1.6020  1.6292  0.7505
   92MPD2    H3 1439   2.427   1.843  16.055 -0.1088  1.2482  0.8502
   92MPD2     N 1440   2.741   1.760  16.376  0.2472  0.0705 -0.2178
   92MPD2    H5 1441   2.753   1.742  16.475 -0.3878  0.4413 -0.0755
   92MPD2    N1 1442   2.274   1.675  16.448 -0.1906 -0.1569  0.0380
   92MPD2    H7 1443   2.303   1.659  16.544 -2.2008 -1.1958  0.4878
   93TMC2    C1 1444   3.921   1.215  13.713  0.0927 -0.7682 -1.1153
   93TMC2    C2 1445   3.843   1.334  13.707  0.4615 -0.1404  0.0148
   93TMC2    C3 1446   3.903   1.454  13.742 -0.1776  0.5505  0.9679
   93TMC2    C4 1447   4.049   1.215  13.759 -0.5741  0.6127 -0.3999
   93TMC2    C5 1448   4.104   1.332  13.790 -0.0158  0.0127 -0.1986
   93TMC2    C6 1449   4.031   1.453  13.783  0.3021  0.1744 -0.1726
   93TMC2     C 1450   3.860   1.085  13.728 -0.7346 -0.0786 -0.1038
   93TMC2     O 1451   3.892   1.021  13.825 -0.0961 -0.0661 -0.0203
   93TMC2     H 1452   3.739   1.339  13.679  0.7306  0.0022 -0.9585
   93TMC2    H1 1453   4.103   1.121  13.754 -1.1686  0.2540  0.0234
   93TMC2    H2 1454   4.068   1.546  13.826  1.2637 -0.5766  0.6056
   93TMC2    C7 1455   4.248   1.329  13.821  0.4284  0.7537  1.1199
   93TMC2    C8 1456   3.825   1.544  13.820 -0.0962  0.5205  0.4758
   93TMC2    O1 1457   4.312   1.226  13.797 -0.0741 -0.1780 -0.0819
   93TMC2    O2 1458   3.727   1.517  13.888 -0.3074  0.2288  0.1712
   93TMC2    O5 1459   3.850   1.661  13.760 -0.5127  0.1526  0.2561
   93TMC2    H5 1460   3.931   1.666  13.704 -1.8654 -0.6092 -1.7596
   94MPD2     C 1461   3.643   0.870  13.746 -0.5704 -0.2954 -0.0707
   94MPD2    C1 1462   3.640   0.977  13.663  0.3524 -0.6907 -0.5963
   94MPD2    C2 1463   3.528   1.003  13.588  0.3528  0.1030  0.3485
   94MPD2    C3 1464   3.412   0.930  13.606  0.0446 -0.7039 -0.4949
   94MPD2    C4 1465   3.410   0.823  13.704 -0.5736 -0.2636  0.0829
   94MPD2    C5 1466   3.529   0.798  13.765  0.2788 -0.1331 -0.0442
   94MPD2     H 1467   3.534   1.091  13.526  0.0267 -1.4063 -1.8237
   94MPD2    H1 1468   3.312   0.784  13.729 -0.7601 -0.4980 -1.0053
   94MPD2    H2 1469   3.730   0.846  13.806 -0.4814 -0.6609 -0.3477
   94MPD2    H3 1470   3.541   0.719  13.838 -0.5734 -0.0094  0.2299
   94MPD2     N 1471   3.286   0.970  13.546 -0.0804 -0.3873  0.0687
   94MPD2    H5 1472   3.199   0.919  13.554  0.9462 -2.7804 -3.8918
   94MPD2    N1 1473   3.746   1.076  13.653 -0.0771  0.6973 -0.2789
   94MPD2    H7 1474   3.748   1.151  13.584 -0.1075  1.1667  0.2335
   95TMC2    C1 1475   3.535   3.274  15.880  0.1748 -0.4135  0.2298
   95TMC2    C2 1476   3.546   3.295  16.011 -0.7218 -0.2750  0.1671
   95TMC2    C3 1477   3.445   3.382  16.062 -0.1341 -0.1486  0.4818
   95TMC2    C4 1478   3.440   3.341  15.798  0.4424  0.3191 -0.3400
   95TMC2    C5 1479   3.345   3.425  15.859 -0.2191 -0.4846 -0.6337
   95TMC2    C6 1480   3.346   3.443  15.996 -0.1112  0.3414 -0.4676
   95TMC2     C 1481   3.667   3.237  15.817  0.0956 -0.0854 -0.2546
   95TMC2     O 1482   3.767   3.245  15.888 -0.3471 -0.0451 -0.9810
   95TMC2     H 1483   3.614   3.247  16.081 -1.1362  0.8495  1.3416
   95TMC2    H1 1484   3.439   3.328  15.690  1.2276  0.5408 -0.3694
   95TMC2    H2 1485   3.276   3.510  16.046  0.3793  0.3890  0.1567
   95TMC2    C7 1486   3.265   3.500  15.773  0.3921  0.3030  0.5363
   95TMC2    C8 1487   3.443   3.374  16.204  0.7499  0.0236 -0.9970
   95TMC2    O1 1488   3.239   3.449  15.665 -0.3144 -0.3318  0.6416
   95TMC2    O2 1489   3.516   3.301  16.266  0.4206  0.2190  0.3468
   95TMC2    O5 1490   3.309   3.379  16.233  0.3884  0.3342  0.1876
   95TMC2    H5 1491   3.238   3.383  16.167  1.3787 -0.5173 -0.9282
   96MPD2     C 1492   3.936   3.033  15.427  0.0590  0.0913  0.3073
   96MPD2    C1 1493   3.981   3.100  15.540 -0.0534  0.1747 -0.0928
   96MPD2    C2 1494   3.886   3.151  15.632 -0.9493  0.9585  0.1015
   96MPD2    C3 1495   3.751   3.129  15.612 -0.3249 -0.1299 -0.1481
   96MPD2    C4 1496   3.713   3.061  15.504 -0.1360 -0.4679  0.0467
   96MPD2    C5 1497   3.805   3.011  15.410 -0.9747  0.0318  0.2933
   96MPD2     H 1498   3.926   3.195  15.722 -0.7167 -1.2647  1.1053
   96MPD2    H1 1499   3.606   3.043  15.496 -0.4318  0.7844  1.3311
   96MPD2    H2 1500   4.008   2.999  15.355 -2.1211 -0.3085 -1.7000
   96MPD2    H3 1501   3.781   2.943  15.329 -0.1751 -1.3454  1.2365
   96MPD2     N 1502   3.650   3.173  15.698  0.2430 -0.0658  0.0651
   96MPD2    H5 1503   3.555   3.159  15.664  0.6712  0.2977 -1.3126
   96MPD2    N1 1504   4.120   3.114  15.553 -0.4223 -0.2295 -0.2921
   96MPD2    H7 1505   4.173   3.083  15.472 -1.1144  2.4097 -1.7607
   97TMC2    C1 1506   1.199   1.401  17.641 -0.1795  0.1364 -1.0436
   97TMC2    C2 1507   1.195   1.336  17.519 -1.2204 -0.5334 -0.3254
   97TMC2    C3 1508   1.259   1.400  17.413 -0.2147  0.4440  0.6348
   97TMC2    C4 1509   1.263   1.517  17.662 -0.3036  0.0543  0.0423
   97TMC2    C5 1510   1.306   1.576  17.546 -0.4122  0.1098  0.0991
   97TMC2    C6 1511   1.305   1.524  17.424  0.3082  0.4548  0.5469
   97TMC2     C 1512   1.117   1.350   0.013  0.1610 -0.2389  0.5396
   97TMC2     O 1513   1.050   1.426   0.085 -0.0321 -0.1444  0.8371
   97TMC2     H 1514   1.145   1.242  17.500 -3.3322  0.6072 -0.4375
   97TMC2    H1 1515   1.265   1.571   0.016  1.4907 -2.5038  1.4748
   97TMC2    H2 1516   1.378   1.573  17.361  0.3316  0.2722  0.4318
   97TMC2    C7 1517   1.373   1.698  17.571 -0.1510  0.1381  0.1420
   97TMC2    C8 1518   1.292   1.313  17.304 -0.0007  0.3868 -0.6408
   97TMC2    O1 1519   1.396   1.731  17.686 -0.2110 -0.2170 -0.0382
   97TMC2    O2 1520   1.284   1.192  17.320  0.0787 -0.0516  0.1601
   97TMC2    O5 1521   1.376   1.373  17.223  0.0050  0.0912 -0.2029
   97TMC2    H5 1522   1.353   1.468  17.213  0.0207  0.4943  3.5456
   98MPD2     C 1523   1.037   0.952   0.317 -0.2292 -0.8196  0.2608
   98MPD2    C1 1524   1.103   0.906   0.202 -0.5675 -0.2610 -0.0829
   98MPD2    C2 1525   1.123   0.991   0.096 -0.2482 -0.3014  0.3269
   98MPD2    C3 1526   1.096   1.129   0.113  0.1975 -0.0543 -0.4550
   98MPD2    C4 1527   1.040   1.172   0.229 -0.1969 -1.3203 -0.7113
   98MPD2    C5 1528   1.004   1.082   0.327  0.4273  0.5630 -0.9512
   98MPD2     H 1529   1.174   0.963   0.004  0.9814 -1.0740  1.2465
   98MPD2    H1 1530   1.011   1.274   0.251  0.7275 -1.8547  3.0405
   98MPD2    H2 1531   1.041   0.896   0.410  2.1863 -2.7612 -1.0134
   98MPD2    H3 1532   0.955   1.116   0.417  1.3157 -0.8072  0.0638
   98MPD2     N 1533   1.138   1.216   0.011  0.6906  0.6983 -0.6457
   98MPD2    H5 1534   1.201   1.184  17.678 -0.2291 -0.3759 -0.9841
   98MPD2    N1 1535   1.141   0.771   0.204 -0.4891 -0.3007  0.4746
   98MPD2    H7 1536   1.129   0.726   0.294 -2.7831  0.3349  0.4708
   99TMC2    C1 1537   0.303   2.410   1.256  0.5273  0.1476 -0.4202
   99TMC2    C2 1538   0.406   2.460   1.332 -0.2653  0.5945 -0.0928
   99TMC2    C3 1539   0.472   2.363   1.400 -0.4839 -0.4386 -0.3974
   99TMC2    C4 1540   0.265   2.279   1.260  0.2404  0.1878 -0.0423
   99TMC2    C5 1541   0.343   2.185   1.325 -0.6194  0.0605 -0.0214
   99TMC2    C6 1542   0.447   2.227   1.395  0.0995  0.5916 -0.1836
   99TMC2     C 1543   0.217   2.513   1.190 -0.5004  0.0276 -0.3103
   99TMC2     O 1544   0.276   2.612   1.155  0.4793  0.0443 -0.5278
   99TMC2     H 1545   0.434   2.564   1.324 -0.5709  0.7174  0.4155
   99TMC2    H1 1546   0.194   2.249   1.183  0.1691 -1.1180  0.5457
   99TMC2    H2 1547   0.511   2.156   1.446 -0.3354  0.1315 -0.2791
   99TMC2    C7 1548   0.315   2.041   1.321 -0.2995  0.6406 -0.7955
   99TMC2    C8 1549   0.574   2.402   1.496 -0.7469  0.4633  0.0578
   99TMC2    O1 1550   0.410   1.968   1.349 -0.2642 -0.0604 -0.2742
   99TMC2    O2 1551   0.675   2.468   1.468 -0.1571 -0.0287  0.5866
   99TMC2    O5 1552   0.555   2.323   1.605 -0.1531  0.5373  0.1644
   99TMC2    H5 1553   0.464   2.286   1.606  0.2133 -0.3311  1.1184
  100MPD2     C 1554   4.731   2.668   1.063  0.3035  0.0444 -0.0814
  100MPD2    C1 1555   4.710   2.547   1.116 -0.2924  0.0217  0.0753
  100MPD2    C2 1556   4.592   2.480   1.092  0.1164 -0.1253  0.1043
  100MPD2    C3 1557   4.485   2.531   1.023  0.0418 -0.3274 -0.3066
  100MPD2    C4 1558   4.503   2.656   0.971  0.6036  0.4517 -0.4756
  100MPD2    C5 1559   4.624   2.718   0.987 -0.5940  0.0644 -0.9653
  100MPD2     H 1560   4.588   2.383   1.142 -0.4594 -0.1644 -0.0211
  100MPD2    H1 1561   4.427   2.706   0.912  0.4940  1.9161  0.9262
  100MPD2    H2 1562   0.088   2.724   1.067  0.3037 -0.0453  1.3985
  100MPD2    H3 1563   4.635   2.810   0.931 -0.4410 -0.1919 -1.3545
  100MPD2     N 1564   4.376   2.452   0.992  0.4491 -0.8560  0.3594
  100MPD2    H5 1565   4.364   2.360   1.032  1.0102 -0.4554  1.4506
  100MPD2    N1 1566   0.081   2.478   1.178  0.1986 -0.1720  0.7084
  100MPD2    H7 1567   0.060   2.386   1.214 -2.6273  0.7629  1.4453
  101TMC2    C1 1568   1.018   4.005  13.416  0.4963  0.0549 -0.3942
  101TMC2    C2 1569   1.035   4.022  13.556  0.4478  0.1217 -0.6369
  101TMC2    C3 1570   1.111   4.130  13.594 -0.2668 -0.3370  0.1234
  101TMC2    C4 1571   1.087   4.069  13.316 -0.5172  0.2380  1.3350
  101TMC2    C5 1572   1.189   4.157  13.368  0.0981 -0.6756  0.3877
  101TMC2    C6 1573   1.195   4.186  13.504 -0.1593  0.2098 -0.1281
  101TMC2     C 1574   0.940   3.882  13.380 -0.5736 -0.1515 -0.4051
  101TMC2     O 1575   0.881   3.825  13.470  0.2642  0.2087 -0.0184
  101TMC2     H 1576   0.978   3.960  13.624  2.5343 -1.0096  0.0855
  101TMC2    H1 1577   1.069   4.045  13.212 -1.0977  0.4382  1.3898
  101TMC2    H2 1578   1.262   4.259  13.548  0.7614 -1.0220  0.5277
  101TMC2    C7 1579   1.283   4.216  13.271  0.2303  0.2695 -0.4248
  101TMC2    C8 1580   1.179   4.112  13.718  0.2824 -0.0607 -0.0146
  101TMC2    O1 1581   1.260   4.230  13.151  0.5128 -0.2369 -0.0531
  101TMC2    O2 1582   1.298   4.121  13.727  0.0179 -0.4813  0.2420
  101TMC2    O5 1583   1.114   4.029  13.784 -0.1704  0.4810  0.0241
  101TMC2    H5 1584   1.018   4.041  13.771 -0.3176  1.5598  2.1993
  102MPD2     C 1585   0.941   3.688  13.064 -0.3145  0.5436  0.1286
  102MPD2    C1 1586   0.888   3.736  13.187  0.3295 -0.6285  0.1450
  102MPD2    C2 1587   0.783   3.666  13.241 -0.5244 -0.8281 -0.2929
  102MPD2    C3 1588   0.730   3.557  13.182 -0.5273  0.9727  0.3705
  102MPD2    C4 1589   0.783   3.524  13.058  0.1659  0.3933 -0.0124
  102MPD2    C5 1590   0.887   3.590  12.996  0.1709 -0.8544  0.0937
  102MPD2     H 1591   0.733   3.700  13.331  0.4041  2.3166 -0.9889
  102MPD2    H1 1592   0.740   3.448  12.993 -0.4266  1.1068 -0.4628
  102MPD2    H2 1593   1.024   3.733  13.011  0.0433  0.7692  0.8727
  102MPD2    H3 1594   0.919   3.568  12.895 -0.9204 -1.5609 -0.0926
  102MPD2     N 1595   0.632   3.491  13.252  0.0821  0.0665 -0.5537
  102MPD2    H5 1596   0.598   3.536  13.337  2.1768 -0.5820  0.6160
  102MPD2    N1 1597   0.952   3.847  13.249  0.3266 -0.0961 -0.4280
  102MPD2    H7 1598   1.020   3.893  13.189  0.3017  0.1789 -0.2466
  103TMC2    C1 1599   3.601   3.287  12.355 -0.3020 -0.2487 -0.1826
  103TMC2    C2 1600   3.667   3.189  12.281 -0.0279  0.2750 -0.3209
  103TMC2    C3 1601   3.801   3.199  12.282  0.2648  0.0365  0.1546
  103TMC2    C4 1602   3.666   3.395  12.410  0.4903 -0.0200 -0.6900
  103TMC2    C5 1603   3.798   3.402  12.411 -0.6294 -0.3204  0.3197
  103TMC2    C6 1604   3.869   3.300  12.351 -0.7570 -0.2580  0.4843
  103TMC2     C 1605   3.459   3.286  12.364  0.2695 -0.6253  0.0878
  103TMC2     O 1606   3.401   3.400  12.358 -0.3453 -0.4188 -0.6665
  103TMC2     H 1607   3.615   3.104  12.239 -1.1176  0.1526  1.2701
  103TMC2    H1 1608   3.615   3.473  12.466 -0.3315 -0.2214 -1.1638
  103TMC2    H2 1609   3.977   3.298  12.359 -0.6831  0.8372 -0.1414
  103TMC2    C7 1610   3.868   3.520  12.466  0.4570 -0.4121 -0.2806
  103TMC2    C8 1611   3.876   3.078  12.288  0.5408 -0.7469 -0.3576
  103TMC2    O1 1612   3.801   3.596  12.535 -0.0165  0.9644 -0.1107
  103TMC2    O2 1613   3.906   3.033  12.397  0.2557  0.8468  0.7834
  103TMC2    O5 1614   3.821   3.016  12.177 -0.1952 -0.0726 -0.0905
  103TMC2    H5 1615   3.804   3.084  12.109  1.2593  1.5992  1.2081
  104MPD2     C 1616   3.231   3.010  12.372 -0.1774 -0.0887 -0.0536
  104MPD2    C1 1617   3.266   3.140  12.346  0.8629 -0.1090 -0.1439
  104MPD2    C2 1618   3.172   3.231  12.303 -0.3716 -0.1637  0.2272
  104MPD2    C3 1619   3.041   3.192  12.307 -0.8559 -0.1821 -0.5571
  104MPD2    C4 1620   3.002   3.063  12.337 -0.0845  0.3569  0.0941
  104MPD2    C5 1621   3.099   2.975  12.363 -0.0082 -0.4178  0.1300
  104MPD2     H 1622   3.192   3.331  12.266  1.9864 -0.0128  1.9083
  104MPD2    H1 1623   2.902   3.022  12.327  0.1551  0.0226 -0.9702
  104MPD2    H2 1624   3.307   2.942  12.408  0.3878  1.0597  0.9015
  104MPD2    H3 1625   3.073   2.875  12.393 -3.0791  0.0049 -1.1597
  104MPD2     N 1626   2.947   3.294  12.285  0.4422 -0.3647 -0.5783
  104MPD2    H5 1627   2.984   3.384  12.254 -0.2064  1.0824  2.8130
  104MPD2    N1 1628   3.406   3.164  12.353 -0.0016  0.1985 -0.5850
  104MPD2    H7 1629   3.462   3.082  12.373  2.4156  1.7595 -0.9158
  105TMC2    C1 1630   4.584   3.174  17.544 -0.2495  0.2481 -0.1135
  105TMC2    C2 1631   4.617   3.303  17.586 -0.9495  0.0068 -0.5574
  105TMC2    C3 1632   4.581   3.335  17.714 -0.7518 -0.6890 -0.0152
  105TMC2    C4 1633   4.489   3.098  17.612 -0.4318  0.4769 -0.2526
  105TMC2    C5 1634   4.432   3.154  17.727 -0.2196 -0.3219  0.4560
  105TMC2    C6 1635   4.486   3.266   0.043  0.4877  0.5291  0.2505
  105TMC2     C 1636   4.635   3.124  17.417 -0.1376  0.0392 -0.3269
  105TMC2     O 1637   4.582   3.026  17.369  0.3676  0.0983 -0.2629
  105TMC2     H 1638   4.689   3.355  17.524  0.0763 -1.9608 -1.0453
  105TMC2    H1 1639   4.455   3.005  17.569 -0.9573  1.4625 -1.9741
  105TMC2    H2 1640   4.438   3.311   0.129 -2.0778 -0.5876 -0.6064
  105TMC2    C7 1641   4.339   3.067   0.069  0.2830  0.8748 -0.1058
  105TMC2    C8 1642   4.628   3.462   0.018 -0.2665  0.1825 -0.2042
  105TMC2    O1 1643   4.316   2.955   0.029 -0.1467  0.0556 -0.4099
  105TMC2    O2 1644   4.667   3.538  17.671  0.2719 -0.6605 -0.0055
  105TMC2    O5 1645   4.628   3.487   0.151 -0.2220  0.1012  0.0298
  105TMC2    H5 1646   4.620   3.409   0.208 -3.9496  0.3766 -0.0782
  106MPD2     C 1647   0.294   3.058  17.094  0.7055 -0.0273  0.8616
  106MPD2    C1 1648   0.311   3.177  17.155 -0.2641 -0.0277 -0.2976
  106MPD2    C2 1649   0.217   3.208  17.253 -0.7076 -0.2357 -0.6723
  106MPD2    C3 1650   0.097   3.140  17.273 -0.0174 -0.2430 -0.1754
  106MPD2    C4 1651   0.078   3.028  17.196  0.5311  0.1765  0.0634
  106MPD2    C5 1652   0.179   2.984  17.126 -0.0263  0.1105  0.6885
  106MPD2     H 1653   0.223   3.301  17.308 -1.0449 -0.4884 -0.2125
  106MPD2    H1 1654   4.726   2.964  17.203  1.9923 -1.7361  1.0764
  106MPD2    H2 1655   0.353   3.024  17.010  0.0348 -0.5179  0.5920
  106MPD2    H3 1656   0.157   2.894  17.069 -1.9041  1.1505 -0.2188
  106MPD2     N 1657   0.013   3.187  17.376  0.0464  0.0526  0.2473
  106MPD2    H5 1658   0.052   3.260  17.434 -0.2149  0.3300  0.0777
  106MPD2    N1 1659   0.420   3.267  17.138 -0.4784 -0.9859 -0.0071
  106MPD2    H7 1660   0.423   3.351  17.194 -1.5896 -1.6741  1.1006
  107TMC2    C1 1661   1.621   2.639  11.862  0.4255  0.0358  0.9420
  107TMC2    C2 1662   1.663   2.745  11.783  0.2600 -0.0094  0.2286
  107TMC2    C3 1663   1.787   2.733  11.710  0.4967 -0.3102  0.7000
  107TMC2    C4 1664   1.692   2.525  11.878 -0.4400  0.0274  0.3832
  107TMC2    C5 1665   1.806   2.519  11.806 -0.2516 -0.2378 -0.1603
  107TMC2    C6 1666   1.861   2.623  11.727 -0.0462  0.1097 -0.6963
  107TMC2     C 1667   1.498   2.649  11.929 -0.0194  0.0281  0.2342
  107TMC2     O 1668   1.481   2.587  12.032 -0.3488 -0.2395 -0.2398
  107TMC2     H 1669   1.612   2.840  11.796  0.4723  0.1847 -0.3519
  107TMC2    H1 1670   1.653   2.444  11.939  1.8230 -3.3339 -2.6407
  107TMC2    H2 1671   1.963   2.621  11.690 -0.1575  0.4023 -1.0223
  107TMC2    C7 1672   1.896   2.404  11.827 -0.3859 -0.3733 -0.1387
  107TMC2    C8 1673   1.870   2.856  11.696  0.0385  0.2944 -0.1015
  107TMC2    O1 1674   1.920   2.382  11.943 -0.5684 -0.5742  0.2538
  107TMC2    O2 1675   1.843   2.965  11.739 -0.3040 -0.0258 -0.3250
  107TMC2    O5 1676   1.947   2.831  11.588  0.6585  0.0661  0.3320
  107TMC2    H5 1677   1.944   2.739  11.554  6.2541 -0.5705  1.6955
  108MPD2     C 1678   1.189   2.759  11.772 -0.1883 -0.1572 -0.0385
  108MPD2    C1 1679   1.272   2.723  11.877  0.8530  0.3827 -0.1861
  108MPD2    C2 1680   1.222   2.698  12.010 -0.7245  0.0963  0.3255
  108MPD2    C3 1681   1.085   2.708  12.033  0.8991  0.2927 -0.7693
  108MPD2    C4 1682   1.008   2.757  11.925 -0.8240  0.1943  0.0374
  108MPD2    C5 1683   1.060   2.781  11.800 -0.3164 -0.8232 -0.0668
  108MPD2     H 1684   1.282   2.661  12.093  0.9362  1.1907 -0.3776
  108MPD2    H1 1685   0.901   2.771  11.934 -0.9459  1.1181 -2.9484
  108MPD2    H2 1686   1.215   2.767  11.667  0.5761  2.3850  0.3562
  108MPD2    H3 1687   0.989   2.812  11.724  0.4612 -1.0462 -0.8856
  108MPD2     N 1688   1.018   2.682  12.153  0.5677 -0.4155  0.2219
  108MPD2    H5 1689   0.918   2.692  12.140  0.4312 -0.8825  0.8598
  108MPD2    N1 1690   1.407   2.708  11.850 -0.4236 -0.1709 -0.1649
  108MPD2    H7 1691   1.418   2.722  11.750 -2.1570 -2.6527 -0.6923
  109TMC2    C1 1692   0.199   4.667   0.243 -0.4017  0.0799  0.2219
  109TMC2    C2 1693   0.152   4.708   0.122 -0.5242  1.0791 -0.1991
  109TMC2    C3 1694   0.234   0.056   0.049  0.9915 -0.9006  0.6079
  109TMC2    C4 1695   0.317   4.706   0.287 -0.5373  0.3137  0.0784
  109TMC2    C5 1696   0.400   0.040   0.210 -0.3714 -0.3397 -0.7786
  109TMC2    C6 1697   0.361   0.098   0.096  0.0607  0.3075  0.2698
  109TMC2     C 1698   0.106   4.597   0.330 -0.2861  0.0498 -0.2196
  109TMC2     O 1699   0.014   4.538   0.279  0.5525  0.6165 -0.4245
  109TMC2     H 1700   0.056   4.679   0.081 -0.1897 -0.5509  0.1577
  109TMC2    H1 1701   0.362   4.660   0.374 -0.4506  2.2112  1.0246
  109TMC2    H2 1702   0.426   0.165   0.041  1.5015 -1.4715 -0.2069
  109TMC2    C7 1703   0.528   0.089   0.256 -0.4682  0.1550  0.1347
  109TMC2    C8 1704   0.205   0.096  17.657  0.7275  0.2980 -0.2868
  109TMC2    O1 1705   0.559   0.205   0.231 -0.6451  0.2261  0.5582
  109TMC2    O2 1706   0.093   0.134  17.621 -0.3737  0.0433  0.0008
  109TMC2    O5 1707   0.313   0.050  17.578 -0.5771  0.1162  1.3792
  109TMC2    H5 1708   0.393   0.018  17.625 -0.7361 -1.1624  0.7650
  110MPD2     C 1709   4.636   4.460   0.780 -0.0642  0.1019  0.5576
  110MPD2    C1 1710   0.009   4.548   0.801  0.1041 -0.8525 -0.1646
  110MPD2    C2 1711   0.094   4.573   0.696 -0.1362  0.0483 -0.5438
  110MPD2    C3 1712   0.057   4.544   0.561  0.1977  0.1044  0.9235
  110MPD2    C4 1713   4.687   4.454   0.540  0.2559 -0.7661  0.5795
  110MPD2    C5 1714   4.615   4.410   0.649 -0.1674 -0.1975 -0.7300
  110MPD2     H 1715   0.181   4.636   0.712 -0.5844  1.5099 -3.7895
  110MPD2    H1 1716   4.663   4.422   0.439  1.4135  0.4934 -0.0994
  110MPD2    H2 1717   4.571   4.430   0.862 -2.6300  0.7935 -1.2000
  110MPD2    H3 1718   4.530   4.345   0.632 -0.1743 -0.2799 -0.3900
  110MPD2     N 1719   0.139   4.596   0.461  0.4694 -0.0587 -0.2233
  110MPD2    H5 1720   0.221   4.651   0.481 -0.5430  1.8705 -1.3312
  110MPD2    N1 1721   0.033   4.596   0.928  0.2135 -0.6981  0.2780
  110MPD2    H7 1722   4.691   4.578   0.991  0.6066 -1.2549  0.6023
  111TMC2    C1 1723   1.485   4.545  11.523  0.3924  0.1242 -0.6570
  111TMC2    C2 1724   1.605   4.602  11.483 -0.0282  0.0669  0.2994
  111TMC2    C3 1725   1.698   4.627  11.580  0.1910  0.3991 -0.1812
  111TMC2    C4 1726   1.459   4.513  11.654 -0.0842  0.5022  0.0866
  111TMC2    C5 1727   1.565   4.529  11.737  0.8770  0.4658  0.7087
  111TMC2    C6 1728   1.681   4.587  11.705  1.0196 -0.0126  0.6791
  111TMC2     C 1729   1.398   4.514  11.417  0.1911 -0.2957  0.2340
  111TMC2     O 1730   1.442   4.522  11.301  0.7531 -0.6933  0.2383
  111TMC2     H 1731   1.638   4.626  11.382 -1.0880  1.3313  0.2535
  111TMC2    H1 1732   1.369   4.455  11.673 -0.7513  1.0372 -1.4280
  111TMC2    H2 1733   1.764   4.600  11.773  1.2031 -0.0108  0.4549
  111TMC2    C7 1734   1.543   4.509  11.879  1.1561  0.8807 -0.3669
  111TMC2    C8 1735   1.829   4.661  11.525  0.8067  0.1767 -0.5738
  111TMC2    O1 1736   1.637   4.497  11.954  0.5284  0.2002  0.2544
  111TMC2    O2 1737   1.867   4.625  11.414  0.1443  0.5533  0.0770
  111TMC2    O5 1738   1.865   0.045  11.579 -0.5756 -0.4531  0.1500
  111TMC2    H5 1739   1.831   0.071  11.667  1.5595 -0.3911  0.9632
  112MPD2     C 1740   0.928   4.413  11.228 -0.4462 -0.1343  0.1346
  112MPD2    C1 1741   1.037   4.482  11.170  0.1166  0.1973  0.0549
  112MPD2    C2 1742   1.153   4.505  11.245  0.0406 -0.0227 -0.6126
  112MPD2    C3 1743   1.162   4.459  11.374 -0.2854  0.4089  0.2258
  112MPD2    C4 1744   1.046   4.413  11.436  0.0999 -0.1648 -0.4263
  112MPD2    C5 1745   0.938   4.380  11.361 -0.1453 -0.6659  1.0377
  112MPD2     H 1746   1.232   4.569  11.207  0.2137  0.8983  1.3315
  112MPD2    H1 1747   1.046   4.375  11.537  0.8274 -1.3774 -0.8791
  112MPD2    H2 1748   0.839   4.393  11.169 -1.1392  2.4576  0.2654
  112MPD2    H3 1749   0.852   4.345  11.417  0.8398 -4.1413  0.3830
  112MPD2     N 1750   1.272   4.487  11.458 -0.5005  0.0857  0.4182
  112MPD2    H5 1751   1.250   4.475  11.557  1.1245 -1.4251  0.5851
  112MPD2    N1 1752   1.034   4.526  11.035  0.4454 -0.1177  0.4303
  112MPD2    H7 1753   1.124   4.563  11.004 -0.4081  1.8313  0.2984
  113TMC2    C1 1754   3.524   2.653   0.778 -0.5147 -0.9752  0.6293
  113TMC2    C2 1755   3.521   2.767   0.700  0.1323  0.6349  0.1889
  113TMC2    C3 1756   3.431   2.781   0.604 -0.3446  0.0985  0.4133
  113TMC2    C4 1757   3.449   2.543   0.734  0.3161 -0.1067 -0.4821
  113TMC2    C5 1758   3.354   2.563   0.638  0.0979 -0.0950  0.4774
  113TMC2    C6 1759   3.344   2.679   0.570 -0.3110 -0.8087 -0.2700
  113TMC2     C 1760   3.651   2.636   0.859  0.3177 -0.0412 -0.4123
  113TMC2     O 1761   3.729   2.732   0.864  0.0906  0.0181 -0.5117
  113TMC2     H 1762   3.574   2.857   0.729 -0.3392  0.1035  2.7060
  113TMC2    H1 1763   3.461   2.454   0.796 -1.5299  1.3045  1.8772
  113TMC2    H2 1764   3.281   2.690   0.483 -1.7348  0.9513  0.9963
  113TMC2    C7 1765   3.278   2.450   0.578  0.0236  0.0710  0.1355
  113TMC2    C8 1766   3.426   2.910   0.531 -0.0039 -0.2469 -0.1883
  113TMC2    O1 1767   3.195   2.469   0.489 -0.4978  0.0369  0.3060
  113TMC2    O2 1768   3.322   2.960   0.503  0.7061  0.0946 -0.0862
  113TMC2    O5 1769   3.539   2.908   0.457 -0.7253 -0.6383  0.0113
  113TMC2    H5 1770   3.613   2.861   0.502 -0.3911  0.6295  0.7699
  114MPD2     C 1771   3.988   2.369   1.163  0.9022  0.0715  0.0320
  114MPD2    C1 1772   3.980   2.502   1.132 -0.7545  0.7526 -0.1057
  114MPD2    C2 1773   3.883   2.555   1.048  0.4170 -0.0151  0.4642
  114MPD2    C3 1774   3.784   2.471   1.000  0.2626 -0.0039 -0.5280
  114MPD2    C4 1775   3.790   2.336   1.026  0.1896 -0.2684 -0.2992
  114MPD2    C5 1776   3.894   2.284   1.100  0.0633 -0.5182  0.5463
  114MPD2     H 1777   3.905   2.658   1.019 -0.6898  0.0522 -0.1337
  114MPD2    H1 1778   3.715   2.274   0.979  0.6037 -1.4308  0.5794
  114MPD2    H2 1779   4.064   2.323   1.226 -0.0476 -2.5053 -0.7107
  114MPD2    H3 1780   3.883   2.177   1.114  1.4013 -0.8247 -0.8746
  114MPD2     N 1781   3.676   2.509   0.911  0.1173 -0.4887 -0.0667
  114MPD2    H5 1782   3.614   2.438   0.874 -1.2611  0.7283 -0.0961
  114MPD2    N1 1783   4.069   2.603   1.179  0.0382 -0.2236  0.1653
  114MPD2    H7 1784   4.045   2.701   1.164  0.6816 -0.1331 -0.2726
  115TMC2    C1 1785   4.494   0.326  17.709 -0.7856 -0.0067 -0.3531
  115TMC2    C2 1786   4.617   0.308   0.030 -0.6657 -0.0129  0.5322
  115TMC2    C3 1787   4.698   0.416   0.046  0.4862  0.4350  0.5585
  115TMC2    C4 1788   4.468   0.447  17.641  0.0424  0.9144  1.0842
  115TMC2    C5 1789   4.558   0.549  17.664  0.3469 -0.3467 -0.0948
  115TMC2    C6 1790   4.668   0.544  17.737  0.1235  0.5172 -0.2884
  115TMC2     C 1791   4.409   0.210  17.687  0.6775  0.1756 -1.0608
  115TMC2     O 1792   4.461   0.101  17.709 -0.0884  0.2132 -0.5352
  115TMC2     H 1793   4.646   0.216   0.080  1.1976  0.1781 -0.2172
  115TMC2    H1 1794   4.393   0.461  17.565  1.4797 -0.6138 -0.6363
  115TMC2    H2 1795   4.723   0.633   0.024 -0.4880 -0.0560  2.8483
  115TMC2    C7 1796   4.524   0.679  17.613 -0.1726  0.5851  0.1767
  115TMC2    C8 1797   0.094   0.400   0.111  0.1483 -0.5439 -0.6110
  115TMC2    O1 1798   4.407   0.695  17.591 -0.4588  0.5037 -0.0676
  115TMC2    O2 1799   0.113   0.308   0.189  0.0161  0.2980 -0.2460
  115TMC2    O5 1800   0.182   0.506   0.085  0.4165 -0.0855 -0.3785
  115TMC2    H5 1801   0.152   0.549   0.002 -2.7351 -1.6966 -0.0423
  116MPD2     C 1802   3.980   0.011  17.496  0.0942 -0.1158 -0.1703
  116MPD2    C1 1803   4.118   4.715  17.472  0.5934 -0.2178 -0.1404
  116MPD2    C2 1804   4.222   0.055  17.532  0.4480 -0.3152 -0.7126
  116MPD2    C3 1805   4.187   0.166  17.608 -0.4206  0.6386 -0.1094
  116MPD2    C4 1806   4.058   0.199  17.625  0.6772 -0.0931 -0.1705
  116MPD2    C5 1807   3.961   0.118  17.579  0.4197 -0.4501 -0.1334
  116MPD2     H 1808   4.321   0.027  17.500  0.9000  0.9095 -0.3889
  116MPD2    H1 1809   4.034   0.282  17.690 -0.4149 -1.2175  0.8489
  116MPD2    H2 1810   3.899   4.682  17.463  0.0920 -1.2673  2.0501
  116MPD2    H3 1811   3.860   0.144  17.606  1.1757 -0.4460  2.7284
  116MPD2     N 1812   4.279   0.243  17.673 -0.5694 -0.4569  0.2528
  116MPD2    H5 1813   4.260   0.335  17.712  0.8035 -0.3781  0.7668
  116MPD2    N1 1814   4.144   4.606  17.392 -0.4075  0.0784 -0.1830
  116MPD2    H7 1815   4.066   4.560  17.348 -0.4424 -0.7523  0.7407
  117TMC2    C1 1816   3.077   2.021  13.605  0.4372 -0.2955 -0.3881
  117TMC2    C2 1817   3.163   1.915  13.602  0.2946 -0.8264  0.6546
  117TMC2    C3 1818   3.282   1.925  13.672 -0.7149  0.1789  0.5787
  117TMC2    C4 1819   3.106   2.137  13.672 -0.0040  1.0009  0.5343
  117TMC2    C5 1820   3.220   2.136  13.752  0.9271 -0.3099 -0.1636
  117TMC2    C6 1821   3.315   2.034  13.740 -0.4152 -0.3110 -0.2067
  117TMC2     C 1822   2.989   2.029  13.488 -0.7963  0.1614  0.1150
  117TMC2     O 1823   3.002   1.950  13.398  0.4912 -0.2560 -0.1798
  117TMC2     H 1824   3.147   1.830  13.538  0.0229  0.3224 -0.7921
  117TMC2    H1 1825   3.037   2.220  13.674 -1.4314 -0.2685  4.0566
  117TMC2    H2 1826   3.419   2.040  13.770 -0.7652  0.5109  0.8338
  117TMC2    C7 1827   3.282   2.261  13.777  0.1036  0.5161  0.4737
  117TMC2    C8 1828   3.388   1.852  13.623 -0.7499  0.2168 -0.6309
  117TMC2    O1 1829   3.405   2.263  13.794 -0.1178 -0.4561 -0.6059
  117TMC2    O2 1830   3.415   1.857  13.505 -0.1622 -0.2104 -0.1280
  117TMC2    O5 1831   3.485   1.840  13.720 -0.1678 -0.0060 -0.1013
  117TMC2    H5 1832   3.460   1.824  13.813  0.2822  1.2757  0.2470
  118MPD2     C 1833   3.143   2.584  13.890  0.7822  0.7336 -0.3235
  118MPD2    C1 1834   3.240   2.492  13.872  0.4658  0.2337 -0.9118
  118MPD2    C2 1835   3.370   2.515  13.915 -0.5419 -0.0368 -0.0260
  118MPD2    C3 1836   3.402   2.647  13.959  0.6969 -0.3211 -0.0998
  118MPD2    C4 1837   3.309   2.746  13.974  0.5356 -0.1649  0.2498
  118MPD2    C5 1838   3.179   2.711  13.939  0.4193 -0.1719  0.4930
  118MPD2     H 1839   3.450   2.443  13.918  0.5224  1.0596 -2.5398
  118MPD2    H1 1840   3.341   2.839  14.019  0.2124  0.0257  0.0864
  118MPD2    H2 1841   3.037   2.567  13.874  0.7387  1.9197 -1.2710
  118MPD2    H3 1842   3.101   2.784  13.956  1.0046  0.5117  0.2428
  118MPD2     N 1843   3.535   2.684  13.983 -0.1663  0.5727 -0.6552
  118MPD2    H5 1844   3.552   2.784  13.995 -1.0072  0.6668 -0.2047
  118MPD2    N1 1845   3.198   2.366  13.816 -0.0566 -0.1064 -0.1177
  118MPD2    H7 1846   3.098   2.352  13.805 -0.0297  1.1326 -1.8919
  119TMC2    C1 1847   1.014   3.366  13.325 -0.0040 -0.4030  0.1984
  119TMC2    C2 1848   1.057   3.333  13.198 -0.1370 -0.6619  0.4231
  119TMC2    C3 1849   0.998   3.227  13.137  0.3396 -0.2157  0.5064
  119TMC2    C4 1850   0.917   3.291  13.383  0.5681 -0.1787  0.4021
  119TMC2    C5 1851   0.871   3.183  13.318  0.4296 -0.2431 -0.3218
  119TMC2    C6 1852   0.899   3.148  13.187 -0.0335 -0.0410  0.7097
  119TMC2     C 1853   1.116   3.414  13.423 -0.9423  1.2278 -0.1287
  119TMC2     O 1854   1.091   3.400  13.541 -0.1704  0.5688  0.4221
  119TMC2     H 1855   1.129   3.390  13.139 -1.6658  0.6890 -0.1107
  119TMC2    H1 1856   0.884   3.316  13.483  2.3668 -3.6103  1.8703
  119TMC2    H2 1857   0.859   3.059  13.139  1.7124 -1.3572  1.6985
  119TMC2    C7 1858   0.782   3.099  13.390 -0.0294  0.4411 -0.7523
  119TMC2    C8 1859   1.015   3.223  12.992  0.1987 -0.1035 -0.7788
  119TMC2    O1 1860   0.687   3.054  13.331 -0.3006  0.2501 -0.2228
  119TMC2    O2 1861   1.056   3.311  12.915 -0.4083  0.7430 -0.5825
  119TMC2    O5 1862   1.030   3.097  12.955  0.2500 -0.0141 -0.0362
  119TMC2    H5 1863   1.006   3.035  13.026 -0.0105 -0.3605 -0.4305
  120MPD2     C 1864   1.620   3.484  13.525 -0.5684 -0.8349 -0.1505
  120MPD2    C1 1865   1.520   3.439  13.605 -0.0679  0.5967  0.1962
  120MPD2    C2 1866   1.393   3.435  13.543 -0.2629  0.6256 -0.3879
  120MPD2    C3 1867   1.367   3.449  13.413  0.5489  0.3017 -0.2384
  120MPD2    C4 1868   1.476   3.483  13.331 -0.9630  0.5316 -1.0304
  120MPD2    C5 1869   1.598   3.510  13.391  0.3625 -0.0945 -0.0238
  120MPD2     H 1870   1.306   3.407  13.601 -1.3033  0.2979 -2.1168
  120MPD2    H1 1871   1.461   3.490  13.224  0.6718 -1.1712 -1.3684
  120MPD2    H2 1872   1.716   3.508  13.570 -1.1880 -0.2255  0.8361
  120MPD2    H3 1873   1.689   3.536  13.338  1.5812  0.3073  2.2516
  120MPD2     N 1874   1.236   3.435  13.358 -0.7715 -0.5619  0.0277
  120MPD2    H5 1875   1.224   3.462  13.261  2.5136  0.1324 -0.2066
  120MPD2    N1 1876   1.549   3.422  13.743  0.0853  0.5634 -0.0916
  120MPD2    H7 1877   1.644   3.436  13.778  0.1236 -0.4295  0.1881
  121TMC2    C1 1878   2.905   0.442  14.226  0.2767  0.6648  0.3808
  121TMC2    C2 1879   2.866   0.531  14.128  0.9562  0.3476  0.4776
  121TMC2    C3 1880   2.734   0.562  14.123 -0.3786  0.6109  0.0547
  121TMC2    C4 1881   2.816   0.378  14.311 -0.1131  0.0739 -0.5926
  121TMC2    C5 1882   2.683   0.414  14.298 -0.0281  0.2759 -0.6804
  121TMC2    C6 1883   2.645   0.505  14.208  0.8747  0.4727 -0.1334
  121TMC2     C 1884   3.013   0.361  14.187 -0.4521  0.1603 -0.4975
  121TMC2     O 1885   3.075   0.304  14.277  0.0737 -0.4658 -0.1320
  121TMC2     H 1886   2.941   0.575  14.063 -0.4892 -0.5074 -1.7681
  121TMC2    H1 1887   2.850   0.297  14.374 -2.0468  1.0259  1.6661
  121TMC2    H2 1888   2.548   0.553  14.222  0.5862  0.9632 -3.8892
  121TMC2    C7 1889   2.585   0.364  14.396 -0.2083  0.4612  0.2879
  121TMC2    C8 1890   2.698   0.680  14.043 -0.6436  0.1127  0.2066
  121TMC2    O1 1891   2.625   0.320  14.504 -0.3227  0.0374  0.0160
  121TMC2    O2 1892   2.783   0.751  13.993 -0.1905  0.0468 -0.2189
  121TMC2    O5 1893   2.576   0.661  14.002 -0.0720 -0.0850  0.2177
  121TMC2    H5 1894   2.539   0.575  14.030  1.3161 -0.7185  0.1103
  122MPD2     C 1895   3.159   0.168  14.008 -0.1465 -0.7899 -0.3185
  122MPD2    C1 1896   3.068   0.259  13.966  0.1513  0.9256 -0.6507
  122MPD2    C2 1897   3.036   0.268  13.833  0.6363  0.1780 -0.1651
  122MPD2    C3 1898   3.108   0.193  13.739 -0.6003 -0.6388 -0.2459
  122MPD2    C4 1899   3.221   0.120  13.782  0.2228 -0.6096 -0.2351
  122MPD2    C5 1900   3.234   0.101  13.914  0.0415  0.7216  0.3719
  122MPD2     H 1901   2.952   0.331  13.808 -0.1243 -0.6894  0.2471
  122MPD2    H1 1902   3.260   0.055  13.705 -3.4438 -2.0179 -0.9143
  122MPD2    H2 1903   3.165   0.138  14.112  0.3442  0.5253  0.0392
  122MPD2    H3 1904   3.309   0.027  13.940  1.2280  1.4029 -1.1657
  122MPD2     N 1905   3.087   0.202  13.598 -0.5519  0.3229 -0.4137
  122MPD2    H5 1906   3.164   0.159  13.548 -0.2648  1.2000 -0.7074
  122MPD2    N1 1907   2.991   0.339  14.050 -0.1843  0.4965  0.0086
  122MPD2    H7 1908   2.919   0.397  14.008 -0.7233  1.0336  1.6994
  123TMC2    C1 1909   2.396   2.807   9.625 -0.2238  0.3083 -0.1296
  123TMC2    C2 1910   2.462   2.799   9.507 -0.5707  0.0483 -0.2139
  123TMC2    C3 1911   2.491   2.678   9.451 -0.5543  0.5568  0.2739
  123TMC2    C4 1912   2.336   2.696   9.679  0.1174  0.2673 -0.1395
  123TMC2    C5 1913   2.360   2.573   9.617  0.4981  0.5637 -0.1126
  123TMC2    C6 1914   2.432   2.564   9.506 -0.7004  0.1608 -0.1580
  123TMC2     C 1915   2.396   2.936   9.687  0.3730 -0.3128  0.2657
  123TMC2     O 1916   2.487   3.009   9.650  0.0564 -0.0286 -0.0154
  123TMC2     H 1917   2.515   2.888   9.474 -1.4923  1.2049  1.4252
  123TMC2    H1 1918   2.273   2.710   9.766  1.9725 -2.1338  1.5947
  123TMC2    H2 1919   2.460   2.466   9.469  0.2821  0.4870 -0.2654
  123TMC2    C7 1920   2.287   2.455   9.677 -0.4034  0.0909  0.2283
  123TMC2    C8 1921   2.602   2.658   9.362  0.0958  0.0589 -0.0808
  123TMC2    O1 1922   2.278   2.359   9.601  0.0425  0.4061 -0.1444
  123TMC2    O2 1923   2.647   2.546   9.351 -0.6177 -0.2326  0.1327
  123TMC2    O5 1924   2.646   2.765   9.304  0.2891  0.7611  0.0042
  123TMC2    H5 1925   2.578   2.836   9.303 -0.3231  0.1290 -1.5544
  124MPD2     C 1926   2.209   3.307  10.011  0.4686  0.3091  0.0978
  124MPD2    C1 1927   2.120   3.204  10.001  0.5083  0.3795  0.1644
  124MPD2    C2 1928   2.154   3.094   9.920  0.3783  0.3022  0.3176
  124MPD2    C3 1929   2.265   3.094   9.841 -0.4484  0.2758 -0.8016
  124MPD2    C4 1930   2.344   3.204   9.839  0.0039 -0.0630  0.0489
  124MPD2    C5 1931   2.311   3.310   9.923  0.2726 -0.5245 -0.0602
  124MPD2     H 1932   2.091   3.006   9.919  0.9533 -0.1009 -0.2031
  124MPD2    H1 1933   2.429   3.202   9.771  2.3939  1.5452  2.9738
  124MPD2    H2 1934   2.184   3.393  10.072  1.2194  0.7241 -0.1840
  124MPD2    H3 1935   2.375   3.398   9.924  1.2363 -1.2454  0.5171
  124MPD2     N 1936   2.281   2.973   9.757  0.2247 -0.8460 -0.2732
  124MPD2    H5 1937   2.200   2.913   9.762 -0.5754  0.1971 -0.7382
  124MPD2    N1 1938   2.013   3.204  10.095  0.8282 -0.3514  0.1192
  124MPD2    H7 1939   1.994   3.296  10.134  1.3884 -0.4219  0.5672
  125TMC2    C1 1940   2.206   0.831  10.300 -0.5419 -0.1864  0.6040
  125TMC2    C2 1941   2.249   0.698  10.310  0.1664 -0.3814  1.0379
  125TMC2    C3 1942   2.321   0.641  10.207 -0.3407  0.0183 -0.3007
  125TMC2    C4 1943   2.218   0.895  10.176 -0.0514 -0.7192  0.1592
  125TMC2    C5 1944   2.278   0.831  10.074  0.1516 -0.1732 -0.0673
  125TMC2    C6 1945   2.341   0.712  10.092 -0.2299 -0.2871 -0.0418
  125TMC2     C 1946   2.123   0.894  10.407 -0.0137  0.7026  0.1177
  125TMC2     O 1947   2.037   0.973  10.378  0.4527 -0.1767 -0.0792
  125TMC2     H 1948   2.229   0.641  10.400  1.4227 -0.3215  1.3495
  125TMC2    H1 1949   2.174   0.993  10.164 -1.2799 -1.4198 -1.0570
  125TMC2    H2 1950   2.411   0.676  10.017  1.7693 -0.0213  1.6776
  125TMC2    C7 1951   2.297   0.899   9.943  0.6246  0.2607  0.0893
  125TMC2    C8 1952   2.361   0.504  10.221  0.9199  0.0112  1.1586
  125TMC2    O1 1953   2.214   0.985   9.918 -0.4367  0.5706 -0.2933
  125TMC2    O2 1954   2.347   0.444  10.328 -0.7025  0.5619  0.5484
  125TMC2    O5 1955   2.423   0.459  10.116  0.1869 -0.3980 -0.3598
  125TMC2    H5 1956   2.389   0.502  10.034 -1.5018  0.7528  0.9523
  126MPD1     C 1957   2.026   0.920  10.905 -0.2252 -0.5367 -0.1801
  126MPD1    C1 1958   2.144   0.854  10.886  0.1509  0.1741  0.7083
  126MPD1    C2 1959   2.188   0.843  10.755  1.1083  0.2969  0.4323
  126MPD1    C3 1960   2.115   0.878  10.646  0.2366 -0.6302  0.7798
  126MPD1    C4 1961   1.990   0.933  10.668 -0.5919  0.2311  0.1230
  126MPD1    C5 1962   1.949   0.967  10.793 -0.2144 -0.3368 -0.3542
  126MPD1     H 1963   2.281   0.794  10.733 -0.9925 -2.6532 -1.7769
  126MPD1    H1 1964   1.921   0.958  10.588 -2.2337  0.0961  1.4947
  126MPD1    H2 1965   1.988   0.938  11.005 -0.3578 -0.1898 -0.2932
  126MPD1    H3 1966   1.854   1.016  10.810 -0.8735 -1.1648 -1.6043
  126MPD1     N 1967   2.175   0.854  10.525  0.3902 -0.3209 -0.3578
  126MPD1    H5 1968   2.258   0.797  10.516  1.1572  0.2939  2.9217
  126MPD1    N1 1969   2.240   0.837  10.993 -0.4217 -0.0052  0.4998
  126MPD1    H6 1970   2.191   0.804  11.075 -0.3600 -3.9398 -1.0285
  126MPD1    H7 1971   2.301   0.758  10.974  0.0431  0.2512  0.9535
  127TMC2    C1 1972   3.707   4.118   9.617 -0.2413 -0.0188  0.3509
  127TMC2    C2 1973   3.772   4.071   9.726  0.1008 -0.0815 -0.1772
  127TMC2    C3 1974   3.712   3.982   9.802  0.5262  0.5718  0.4278
  127TMC2    C4 1975   3.580   4.087   9.586 -0.2945  0.4295 -0.1171
  127TMC2    C5 1976   3.516   3.996   9.662 -0.0530 -0.6903  0.0673
  127TMC2    C6 1977   3.587   3.938   9.767  0.4489 -0.3228  0.8704
  127TMC2     C 1978   3.771   4.217   9.530  0.3640  0.1222 -0.1859
  127TMC2     O 1979   3.866   4.273   9.572 -0.2541  0.4516 -0.2308
  127TMC2     H 1980   3.872   4.109   9.744  0.8836 -1.8881 -0.7797
  127TMC2    H1 1981   3.512   4.147   9.526 -1.9064  0.8890  2.1931
  127TMC2    H2 1982   3.540   3.864   9.831  0.1752 -1.5230 -0.7203
  127TMC2    C7 1983   3.377   3.971   9.636  0.6928 -1.3287 -0.2367
  127TMC2    C8 1984   3.769   3.943   9.938  0.4047 -0.3307 -0.7068
  127TMC2    O1 1985   3.341   3.985   9.518  0.3017 -0.5125  0.5808
  127TMC2    O2 1986   3.692   3.904  10.019  0.1782  0.0225 -0.4932
  127TMC2    O5 1987   3.900   3.921   9.920  0.7610 -0.3186  0.7895
  127TMC2    H5 1988   3.925   3.961   9.834 -1.0222 -0.1390  0.3471
  128MPD2     C 1989   3.701   4.284   9.174 -0.2592  0.6953 -0.2966
  128MPD2    C1 1990   3.750   4.309   9.301 -0.7678  0.0927  0.7754
  128MPD2    C2 1991   3.833   4.416   9.325  0.3534  0.3056  0.4341
  128MPD2    C3 1992   3.859   4.499   9.216  0.0705  0.2536  0.1266
  128MPD2    C4 1993   3.809   4.476   9.093 -0.0168 -0.2185 -0.4384
  128MPD2    C5 1994   3.727   4.369   9.069  0.3394  0.4689  0.0509
  128MPD2     H 1995   3.886   4.429   9.419 -1.6244 -0.9308  1.7157
  128MPD2    H1 1996   3.833   4.530   9.002  0.4684 -0.5383 -0.4992
  128MPD2    H2 1997   3.654   4.188   9.163 -2.5430  1.9791 -1.6808
  128MPD2    H3 1998   3.691   4.352   8.968 -0.6446  0.5307  0.3897
  128MPD2     N 1999   3.951   4.604   9.233  0.2229  0.0244 -0.6991
  128MPD2    H5 2000   4.019   4.603   9.308 -1.4326 -2.1085  0.7721
  128MPD2    N1 2001   3.722   4.213   9.404 -1.0250 -0.2003  0.1603
  128MPD2    H7 2002   3.664   4.133   9.385 -2.0353  0.6294 -0.2754
  129TMC2    C1 2003   2.555   3.461   1.499 -0.2605  0.2576 -0.8617
  129TMC2    C2 2004   2.519   3.570   1.576 -0.6179 -0.0699  0.7391
  129TMC2    C3 2005   2.458   3.549   1.696 -0.5369  0.7296 -0.5252
  129TMC2    C4 2006   2.509   3.335   1.526  0.0370  0.0676  0.6335
  129TMC2    C5 2007   2.442   3.316   1.645  0.7492 -0.7274 -0.3817
  129TMC2    C6 2008   2.427   3.422   1.733  0.5194 -0.4465 -0.2588
  129TMC2     C 2009   2.611   3.482   1.362  0.5695 -0.6165  0.6111
  129TMC2     O 2010   2.648   3.382   1.302 -0.0914 -0.5506 -0.3328
  129TMC2     H 2011   2.580   3.659   1.565 -1.9381  0.6512 -0.6150
  129TMC2    H1 2012   2.540   3.251   1.465 -1.5831 -0.8056  1.0181
  129TMC2    H2 2013   2.380   3.403   1.829  0.1787  0.8600 -0.1666
  129TMC2    C7 2014   2.329   3.228   1.650  0.4145 -1.0542  0.1169
  129TMC2    C8 2015   2.464   3.648   1.804  0.0231 -0.0965  0.1859
  129TMC2    O1 2016   2.235   3.274   1.709  0.7874 -0.1513 -0.2316
  129TMC2    O2 2017   2.445   3.615   1.923  0.4553  0.0931  0.0878
  129TMC2    O5 2018   2.445   3.776   1.751  0.0723  0.5010  0.6688
  129TMC2    H5 2019   2.452   3.767   1.653  0.0873 -1.0496  0.7997
  130MPD2     C 2020   2.689   3.599   1.096 -0.3609 -0.6304 -0.1663
  130MPD2    C1 2021   2.639   3.676   1.199 -0.8819  0.0508 -0.3813
  130MPD2    C2 2022   2.606   3.806   1.176  0.4982 -0.0196 -0.5662
  130MPD2    C3 2023   2.633   3.866   1.057 -0.1349  0.5138 -0.2748
  130MPD2    C4 2024   2.684   3.791   0.952  0.0167 -0.2876 -0.0311
  130MPD2    C5 2025   2.710   3.657   0.974 -0.4497 -0.8493  0.1919
  130MPD2     H 2026   2.557   3.868   1.251 -0.5577 -0.2323 -1.0826
  130MPD2    H1 2027   2.700   3.841   0.857 -0.1313 -0.9424 -0.3969
  130MPD2    H2 2028   2.679   3.491   1.098 -0.0976 -0.6057  1.6130
  130MPD2    H3 2029   2.734   3.595   0.889  0.3140 -1.3580  0.7796
  130MPD2     N 2030   2.604   4.004   1.051 -0.5213  1.3601  0.0831
  130MPD2    H5 2031   2.562   4.048   1.133  0.3248  1.2615  0.5651
  130MPD2    N1 2032   2.599   3.618   1.322 -0.6400  0.5853 -0.4344
  130MPD2    H7 2033   2.557   3.677   1.392 -1.5270  1.6879 -1.8854
  131TMC2    C1 2034   1.467   3.838   9.790 -0.3023 -0.1026 -0.2503
  131TMC2    C2 2035   1.468   3.787   9.661 -0.3097 -0.3633  0.5959
  131TMC2    C3 2036   1.429   3.867   9.557 -1.0652  0.0985 -0.2472
  131TMC2    C4 2037   1.418   3.965   9.813 -0.5451 -0.2627 -0.5453
  131TMC2    C5 2038   1.383   4.039   9.708 -0.0578 -0.4592 -0.4998
  131TMC2    C6 2039   1.388   3.995   9.584  0.1060  0.2098  0.0037
  131TMC2     C 2040   1.522   3.761   9.900 -0.5128  0.0403 -0.1921
  131TMC2     O 2041   1.553   3.648   9.877 -0.4619 -0.3062 -0.8678
  131TMC2     H 2042   1.494   3.682   9.649 -0.7713 -0.8125  3.6761
  131TMC2    H1 2043   1.384   3.997   9.911 -1.4626 -1.6438 -0.4050
  131TMC2    H2 2044   1.355   4.067   9.510  0.0424  2.3921  2.1499
  131TMC2    C7 2045   1.363   4.183   9.724  0.2687  1.1112 -0.1997
  131TMC2    C8 2046   1.429   3.822   9.418 -0.8164 -0.5128 -0.4348
  131TMC2    O1 2047   1.290   4.232   9.639 -0.4603  0.6047 -0.0150
  131TMC2    O2 2048   1.362   3.861   9.324 -0.4529  0.5677  0.8828
  131TMC2    O5 2049   1.514   3.722   9.404  0.6635  0.0566  0.0699
  131TMC2    H5 2050   1.572   3.694   9.479 -0.1127  2.7971  1.6938
  132MPD2     C 2051   1.524   3.855  10.262 -0.1169 -0.0286  0.8393
  132MPD2    C1 2052   1.554   3.779  10.142 -0.2930  0.5757  1.0062
  132MPD2    C2 2053   1.592   3.649  10.145  0.5868  0.7084 -0.4404
  132MPD2    C3 2054   1.613   3.595  10.268  0.4357  0.3685 -0.5077
  132MPD2    C4 2055   1.583   3.662  10.383 -0.3582  0.4706 -0.2540
  132MPD2    C5 2056   1.539   3.793  10.382  0.0621 -0.0082  0.3847
  132MPD2     H 2057   1.627   3.579  10.071 -1.0015 -0.2993 -0.2372
  132MPD2    H1 2058   1.612   3.615  10.476  3.8619 -0.3310 -1.9561
  132MPD2    H2 2059   1.478   3.953  10.261  2.6336  1.2421 -0.8396
  132MPD2    H3 2060   1.521   3.846  10.475 -1.1791  1.9982 -1.0059
  132MPD2     N 2061   1.651   3.455  10.270  0.2068 -0.4347  0.3172
  132MPD2    H5 2062   1.683   3.410  10.185 -1.2477  0.3334 -0.6227
  132MPD2    N1 2063   1.537   3.834  10.014  0.2744  0.1865  0.8223
  132MPD2    H7 2064   1.518   3.934  10.021 -1.2714 -0.3011  3.6389
  133TMC2    C1 2065   0.096   4.162   8.297 -0.3871  0.7859  0.1001
  133TMC2    C2 2066   0.006   4.146   8.193 -0.0836  0.1562 -0.0279
  133TMC2    C3 2067   0.034   4.200   8.071  0.8549 -0.5820 -0.4625
  133TMC2    C4 2068   0.216   4.226   8.275  0.6203  0.4684  0.0184
  133TMC2    C5 2069   0.232   4.290   8.157 -0.1596 -0.0131  0.3608
  133TMC2    C6 2070   0.143   4.279   8.045  0.1337  0.1801 -0.5995
  133TMC2     C 2071   0.069   4.120   8.431  0.6281  0.3151  0.0428
  133TMC2     O 2072   0.134   4.168   8.519 -0.5070  0.3794 -0.1312
  133TMC2     H 2073   4.644   4.100   8.210  0.5479 -1.2862 -0.3838
  133TMC2    H1 2074   0.283   4.245   8.358  0.4354  1.4701 -0.0563
  133TMC2    H2 2075   0.176   4.315   7.948  2.1575 -1.2800 -0.4572
  133TMC2    C7 2076   0.359   4.361   8.133  0.2647 -0.9896 -0.2308
  133TMC2    C8 2077   4.670   4.170   7.970 -0.1603 -0.0009 -0.5428
  133TMC2    O1 2078   0.450   4.339   8.214 -0.1646  0.5521  0.2036
  133TMC2    O2 2079   4.569   4.102   7.995  0.2207  0.1673 -0.0251
  133TMC2    O5 2080   4.678   4.260   7.868  0.6341 -0.4753  0.3626
  133TMC2    H5 2081   0.018   4.322   7.874 -0.3928  0.8569 -0.6511
  134MPD2     C 2082   4.501   3.958   8.550 -0.2965 -0.4929  0.6460
  134MPD2    C1 2083   4.631   4.001   8.561  0.0969  0.5655  0.4130
  134MPD2    C2 2084   4.699   4.001   8.683  0.1597  0.7615 -0.0911
  134MPD2    C3 2085   4.643   3.931   8.789  0.3981 -0.4086 -0.8229
  134MPD2    C4 2086   4.514   3.884   8.777 -0.5459 -0.1194 -0.2628
  134MPD2    C5 2087   4.442   3.898   8.658  0.5254 -0.8329  0.5187
  134MPD2     H 2088   0.059   4.050   8.700 -0.0018  0.9796  0.1718
  134MPD2    H1 2089   4.462   3.845   8.864 -0.7425 -0.1561 -0.3956
  134MPD2    H2 2090   4.432   3.977   8.468  1.2861 -2.2279 -1.0788
  134MPD2    H3 2091   4.340   3.863   8.649  0.8826 -1.3073 -1.8302
  134MPD2     N 2092   4.701   3.926   8.918 -0.1344 -0.1511 -0.5723
  134MPD2    H5 2093   4.638   3.907   8.994  0.9982  0.2330  0.4554
  134MPD2    N1 2094   4.683   4.057   8.442  0.3547 -0.1112 -0.1381
  134MPD2    H7 2095   4.632   4.040   8.356  0.1735 -0.9919  0.1476
  135TMC2    C1 2096   3.080   0.754  10.049  0.1117  0.1544 -0.6096
  135TMC2    C2 2097   3.190   0.689  10.008 -0.1964  0.3213 -0.2053
  135TMC2    C3 2098   3.230   0.569  10.065  0.2420 -0.1955  0.7961
  135TMC2    C4 2099   3.012   0.707  10.155 -0.2582  0.0527  0.1064
  135TMC2    C5 2100   3.048   0.589  10.212 -0.7039 -0.3521 -0.6051
  135TMC2    C6 2101   3.149   0.512  10.161 -0.5056 -0.2251  0.2452
  135TMC2     C 2102   3.003   0.837   9.954 -0.4051 -0.5204  0.0159
  135TMC2     O 2103   2.883   0.852   9.989 -0.0300 -0.3752 -1.0254
  135TMC2     H 2104   3.256   0.719   9.928 -0.8595 -0.2333 -0.9666
  135TMC2    H1 2105   2.924   0.761  10.189 -2.1850 -3.8576  1.2825
  135TMC2    H2 2106   3.194   0.426  10.210 -0.2837 -1.1896 -1.6771
  135TMC2    C7 2107   2.958   0.541  10.317 -0.0407  0.2385 -0.2502
  135TMC2    C8 2108   3.322   0.485   9.989  1.2212  0.4641 -0.3419
  135TMC2    O1 2109   2.890   0.628  10.371 -0.3003 -0.3573 -0.4068
  135TMC2    O2 2110   3.355   0.516   9.874  0.3504  0.7743  0.2871
  135TMC2    O5 2111   3.411   0.464  10.085  0.0496  0.0107 -0.2293
  135TMC2    H5 2112   3.387   0.491  10.176  3.0588 -0.1549  0.6048
  136MPD2     C 2113   2.930   1.074   9.791  0.3370  0.4210  0.4546
  136MPD2    C1 2114   3.049   1.005   9.774 -0.4565  0.5414  0.3499
  136MPD2    C2 2115   3.144   1.058   9.693 -0.0894  0.7677 -0.1885
  136MPD2    C3 2116   3.124   1.180   9.624  0.4540  0.5106 -0.3911
  136MPD2    C4 2117   3.001   1.239   9.629 -0.0914 -0.0743  0.3034
  136MPD2    C5 2118   2.901   1.182   9.713 -0.2798  0.5147  0.3701
  136MPD2     H 2119   3.234   0.998   9.687 -1.2647 -1.3095  2.3876
  136MPD2    H1 2120   2.976   1.338   9.592  1.1825  0.2095  0.2295
  136MPD2    H2 2121   2.856   1.046   9.865  1.1995 -1.5137  0.5701
  136MPD2    H3 2122   2.807   1.236   9.723 -0.6877 -0.1672  0.2905
  136MPD2     N 2123   3.229   1.245   9.560  1.0400  0.2231 -0.1256
  136MPD2    H5 2124   3.210   1.338   9.522  1.1794  0.9433  1.5655
  136MPD2    N1 2125   3.081   0.895   9.859 -0.3480  0.2080 -0.2415
  136MPD2    H7 2126   3.177   0.865   9.849 -0.1966  0.6566 -0.1091
  137TMC2    C1 2127   2.171   0.722   9.594 -0.1937 -0.1060  0.0015
  137TMC2    C2 2128   2.160   0.841   9.531 -0.2118 -0.0399  0.9474
  137TMC2    C3 2129   2.054   0.922   9.575 -0.0268 -0.2116 -0.5082
  137TMC2    C4 2130   2.093   0.684   9.703  0.2615  0.3941  0.1322
  137TMC2    C5 2131   1.988   0.767   9.745 -0.1458 -0.6043 -0.0176
  137TMC2    C6 2132   1.963   0.885   9.672  0.0214  0.3957  0.3766
  137TMC2     C 2133   2.274   0.627   9.548 -0.0494 -0.7661 -0.2886
  137TMC2     O 2134   2.295   0.535   9.623  0.3844  0.4132  0.0666
  137TMC2     H 2135   2.221   0.873   9.447  2.6434 -2.5385  2.0559
  137TMC2    H1 2136   2.122   0.591   9.752  1.4189  1.2301  1.0310
  137TMC2    H2 2137   1.868   0.935   9.686 -1.3912 -2.6139  1.5073
  137TMC2    C7 2138   1.929   0.750   9.878  0.6877  0.3012  1.1742
  137TMC2    C8 2139   2.033   1.051   9.510  0.2492 -0.6639  0.1441
  137TMC2    O1 2140   1.884   0.851   9.926 -0.0977 -0.3654  0.1653
  137TMC2    O2 2141   2.059   1.066   9.392 -0.0463  0.3209  0.4649
  137TMC2    O5 2142   1.997   1.142   9.602  0.4207  0.1552  0.1887
  137TMC2    H5 2143   1.992   1.100   9.691 -0.1703  0.1725  0.1591
  138MPD2     C 2144   2.484   0.644   9.245  0.7959 -0.3318  0.1542
  138MPD2    C1 2145   2.446   0.607   9.374 -0.2147  0.2461  0.4833
  138MPD2    C2 2146   2.529   0.527   9.444 -0.5158 -0.1545  0.2162
  138MPD2    C3 2147   2.643   0.476   9.387  0.8258  0.2084  1.0133
  138MPD2    C4 2148   2.670   0.501   9.257  0.2706 -0.6596  0.2712
  138MPD2    C5 2149   2.594   0.583   9.184  0.1093  0.1176  0.4923
  138MPD2     H 2150   2.511   0.513   9.551 -1.2362  0.3628  0.1708
  138MPD2    H1 2151   2.757   0.462   9.206  0.2929 -0.8725  0.4724
  138MPD2    H2 2152   2.412   0.699   9.185  0.7998 -2.1626 -1.5132
  138MPD2    H3 2153   2.627   0.610   9.084  0.6562 -0.7281  0.4397
  138MPD2     N 2154   2.728   0.390   9.473  0.6809 -0.3801  0.6817
  138MPD2    H5 2155   2.686   0.374   9.564 -1.3805 -1.1889 -0.4003
  138MPD2    N1 2156   2.334   0.669   9.430  0.0701 -0.5516  0.8069
  138MPD2    H7 2157   2.291   0.748   9.383  0.1569 -0.3191  1.1231
  139TMC2    C1 2158   3.318   3.005  13.696  0.3149 -0.2393  0.3603
  139TMC2    C2 2159   3.432   3.015  13.766 -0.1201  0.7887  0.4891
  139TMC2    C3 2160   3.431   3.101  13.869  0.5985  0.1717 -0.3482
  139TMC2    C4 2161   3.208   3.089  13.719 -0.2078 -0.1320 -0.0190
  139TMC2    C5 2162   3.233   3.198  13.806 -0.0469  0.2635  0.2612
  139TMC2    C6 2163   3.334   3.189  13.890  0.1933  0.6556 -0.1777
  139TMC2     C 2164   3.311   2.906  13.592  0.5597 -0.0679 -0.3101
  139TMC2     O 2165   3.423   2.882  13.542  1.0342  0.0168 -0.1523
  139TMC2     H 2166   3.518   2.949  13.756 -1.3500 -0.2563 -3.0114
  139TMC2    H1 2167   3.119   3.085  13.657  0.1807 -2.0442 -0.4386
  139TMC2    H2 2168   3.346   3.259  13.972  2.1939  2.1675 -1.7553
  139TMC2    C7 2169   3.129   3.293  13.843  0.4990  0.3524  0.4918
  139TMC2    C8 2170   3.522   3.090  13.982 -0.1904 -0.0155  0.9848
  139TMC2    O1 2171   3.148   3.352  13.947 -0.2267  0.4364  0.3243
  139TMC2    O2 2172   3.565   2.984  14.019  0.8049 -0.3878 -0.2557
  139TMC2    O5 2173   3.582   3.210  14.010  0.2169  0.6538  0.2657
  139TMC2    H5 2174   3.553   3.294  13.968  1.3708 -1.2326 -4.3577
  140MPD2     C 2175   3.045   2.644  13.556  0.1917 -0.1092 -0.2096
  140MPD2    C1 2176   3.174   2.701  13.551  0.2850  0.0879  0.8082
  140MPD2    C2 2177   3.280   2.627  13.501 -0.0366 -0.3917 -0.8529
  140MPD2    C3 2178   3.261   2.489  13.481  0.4190  0.7993 -0.4174
  140MPD2    C4 2179   3.131   2.435  13.492  0.1228  0.0131  0.1526
  140MPD2    C5 2180   3.029   2.515  13.525  0.7332  0.7500  0.0142
  140MPD2     H 2181   3.379   2.670  13.489 -0.1734  0.6166  1.7454
  140MPD2    H1 2182   3.098   2.334  13.472 -0.1079  0.3742 -1.2993
  140MPD2    H2 2183   2.964   2.699  13.603  0.1908  0.9588 -1.4879
  140MPD2    H3 2184   2.932   2.468  13.536  1.4680  0.2254  3.9532
  140MPD2     N 2185   3.373   2.410  13.445  0.2344  0.1805  0.1241
  140MPD2    H5 2186   3.463   2.454  13.428 -0.3182  1.4072  0.3114
  140MPD2    N1 2187   3.192   2.833  13.592 -0.1696  0.4893  0.4293
  140MPD2    H7 2188   3.111   2.872  13.641 -1.1316 -0.3238 -0.5134
  141TMC2    C1 2189   3.949   4.228  13.926 -0.8023  0.1267  0.5757
  141TMC2    C2 2190   3.952   4.115  13.999 -0.4193 -0.0645 -0.7607
  141TMC2    C3 2191   3.996   4.119  14.131 -0.3400 -0.2789 -0.0327
  141TMC2    C4 2192   3.990   4.350  13.978  0.2406  0.2739 -0.6996
  141TMC2    C5 2193   4.046   4.353  14.111  0.3552 -0.2519 -0.3608
  141TMC2    C6 2194   4.043   4.232  14.188 -0.2642  0.0370  0.5624
  141TMC2     C 2195   3.936   4.209  13.783  0.0622  0.2475 -0.1062
  141TMC2     O 2196   3.987   4.290  13.710 -0.1373  0.1681 -0.1030
  141TMC2     H 2197   3.941   4.013  13.964 -4.6890  0.3145 -0.5528
  141TMC2    H1 2198   3.978   4.429  13.905 -0.8742  0.1595 -0.6415
  141TMC2    H2 2199   4.072   4.222  14.292 -0.0267 -3.4530  0.1513
  141TMC2    C7 2200   4.069   4.483  14.170  0.6724  0.4121  0.5306
  141TMC2    C8 2201   3.961   4.011  14.217  0.0760 -0.0375  0.3243
  141TMC2    O1 2202   4.025   4.578  14.107 -0.0781 -0.2320 -0.4252
  141TMC2    O2 2203   4.025   3.987  14.316 -0.0490  0.4992  0.1106
  141TMC2    O5 2204   3.831   3.999  14.216  0.1249 -0.1144 -0.0830
  141TMC2    H5 2205   3.787   4.046  14.141  0.6277  0.7181  0.1432
  142TMC2    C1 2206   1.751   2.425  10.520 -0.0185  0.2497 -0.2219
  142TMC2    C2 2207   1.816   2.461  10.640  0.7474 -0.9137 -0.4187
  142TMC2    C3 2208   1.934   2.524  10.615 -0.0923 -0.7087 -0.1149
  142TMC2    C4 2209   1.794   2.458  10.395  0.3546  0.2164  0.0459
  142TMC2    C5 2210   1.916   2.514  10.384  0.4261 -0.5468 -0.4791
  142TMC2    C6 2211   1.992   2.549  10.493  0.6054  0.5379  0.0707
  142TMC2     C 2212   1.636   2.334  10.531  0.2886  0.4902  0.5096
  142TMC2     O 2213   1.546   2.332  10.449  0.1868 -0.7552 -0.5967
  142TMC2     H 2214   1.777   2.447  10.741 -2.9080  0.7776 -1.6068
  142TMC2    H1 2215   1.733   2.418  10.314 -0.4556 -0.2465  0.8847
  142TMC2    H2 2216   2.097   2.578  10.494  1.3296 -2.0753 -0.6681
  142TMC2    C7 2217   1.995   2.490  10.267  0.6929  0.1427 -0.6546
  142TMC2    C8 2218   2.030   2.528  10.732 -0.4818 -0.0779  0.1316
  142TMC2    O1 2219   2.108   2.542  10.255  0.0465  0.1362  0.1080
  142TMC2    O2 2220   2.024   2.440  10.815 -0.6051  0.3011 -0.0098
  142TMC2    O5 2221   2.083   2.651  10.735  0.0891  0.2529  0.2243
  142TMC2    H5 2222   2.070   2.690  10.646  0.5880  0.2110  0.1373
  143MPD2     C 2223   1.466   1.914  10.763 -0.2483 -0.4758  0.7837
  143MPD2    C1 2224   1.395   1.998  10.679 -0.2255 -0.3596  0.2884
  143MPD2    C2 2225   1.453   2.112  10.632  0.1650  0.6418 -0.8161
  143MPD2    C3 2226   1.579   2.149  10.678 -0.7475 -0.5757  0.1328
  143MPD2    C4 2227   1.628   2.083  10.788  0.1624 -0.0134 -0.4912
  143MPD2    C5 2228   1.575   1.962  10.825  0.7265  0.4335  0.0402
  143MPD2     H 2229   1.402   2.176  10.561 -1.9534 -0.1816 -0.0182
  143MPD2    H1 2230   1.720   2.107  10.839 -0.0602 -1.4381  0.5758
  143MPD2    H2 2231   1.438   1.812  10.784  2.8625 -1.3695  0.6189
  143MPD2    H3 2232   1.634   1.904  10.895 -1.3036  0.3898  1.7103
  143MPD2     N 2233   1.663   2.256  10.633 -0.2715 -0.2692 -0.3733
  143MPD2    H5 2234   1.747   2.271  10.688  0.1787 -0.0721 -1.1176
  143MPD2    N1 2235   1.274   1.943  10.631  0.2481  0.2321  0.1985
  143MPD2    H7 2236   1.241   1.853  10.664  0.0038  1.0857  2.2659
  144TMC2    C1 2237   3.579   1.006   0.673 -0.5959  0.1649 -0.5153
  144TMC2    C2 2238   3.514   1.010   0.790 -0.6095  0.4541  0.2323
  144TMC2    C3 2239   3.583   0.987   0.906 -0.0696  0.2713 -0.5435
  144TMC2    C4 2240   3.715   0.984   0.662 -0.4031  0.6210 -0.2831
  144TMC2    C5 2241   3.785   0.956   0.773  0.2435 -0.1040 -0.4426
  144TMC2    C6 2242   3.717   0.961   0.895 -0.8294 -0.6740 -0.8225
  144TMC2     C 2243   3.528   1.066   0.551  0.4213  0.1261  0.2933
  144TMC2     O 2244   3.574   1.022   0.447  0.3898 -0.1757  0.3840
  144TMC2     H 2245   3.408   1.034   0.789 -1.0734 -1.6908 -1.3340
  144TMC2    H1 2246   3.771   1.004   0.571 -1.3089  1.4063 -0.6714
  144TMC2    H2 2247   3.783   0.936   0.978 -2.5888  0.6732  0.9705
  144TMC2    C7 2248   3.926   0.994   0.765 -0.3612  0.6511  0.0163
  144TMC2    C8 2249   3.506   0.993   1.034  0.1559  0.0413 -0.6287
  144TMC2    O1 2250   3.988   0.948   0.673  0.0861 -0.7615  0.3422
  144TMC2    O2 2251   3.387   1.017   1.037  0.7115  0.3819 -0.1452
  144TMC2    O5 2252   3.584   1.048   1.130 -0.1854 -0.1410 -0.2763
  144TMC2    H5 2253   3.675   1.075   1.107  0.5253 -1.2734  1.1871
  145MPD2     C 2254   3.249   1.411   0.299  0.7085 -0.7125 -0.1644
  145MPD2    C1 2255   3.329   1.309   0.255  0.8203  0.2408 -0.0751
  145MPD2    C2 2256   3.381   1.220   0.341 -0.1666  0.7295  0.2857
  145MPD2    C3 2257   3.358   1.230   0.477 -0.7176 -0.3316  0.4224
  145MPD2    C4 2258   3.279   1.333   0.519  0.3043 -0.1292  0.0188
  145MPD2    C5 2259   3.221   1.424   0.432  0.5689  0.0741  0.5536
  145MPD2     H 2260   3.429   1.133   0.297 -0.1221  1.6817 -1.5323
  145MPD2    H1 2261   3.261   1.345   0.625 -1.9335  2.5158 -0.6668
  145MPD2    H2 2262   3.206   1.483   0.231  0.3273 -3.1936 -2.5669
  145MPD2    H3 2263   3.154   1.499   0.474  0.3144 -0.1055  0.4709
  145MPD2     N 2264   3.420   1.150   0.566 -0.3104  0.3440  0.2377
  145MPD2    H5 2265   3.396   1.171   0.662  0.7838  0.0531  0.5659
  145MPD2    N1 2266   3.345   1.278   0.118  0.4581 -0.4414  0.7766
  145MPD2    H7 2267   3.409   1.203   0.094  1.1063 -0.1121  1.4803
  146TMC2    C1 2268   1.048   0.465  12.840  0.2654 -0.7205 -0.0152
  146TMC2    C2 2269   0.999   0.478  12.714  0.0057 -0.7733 -0.5115
  146TMC2    C3 2270   1.076   0.421  12.615  0.4464 -0.0690 -0.0232
  146TMC2    C4 2271   1.151   0.380  12.869  0.2896 -0.5706  0.3015
  146TMC2    C5 2272   1.223   0.317  12.772 -0.1784  0.1168 -0.4199
  146TMC2    C6 2273   1.187   0.351  12.641  0.8631 -0.0688 -0.4482
  146TMC2     C 2274   0.955   0.523  12.942 -0.5953 -0.0049  0.0993
  146TMC2     O 2275   0.883   0.620  12.913  0.6773  0.6477 -0.0792
  146TMC2     H 2276   0.912   0.540  12.694  1.5248  2.0173  1.6046
  146TMC2    H1 2277   1.189   0.368  12.970  0.5327  1.2379  0.4244
  146TMC2    H2 2278   1.242   0.316  12.554  2.7791 -1.4224  1.3015
  146TMC2    C7 2279   1.344   0.238  12.793 -0.1670 -0.3451 -0.7051
  146TMC2    C8 2280   1.058   0.445  12.475 -0.2314  0.2980  0.6511
  146TMC2    O1 2281   1.400   0.205  12.689  0.0779 -0.4717 -0.7028
  146TMC2    O2 2282   1.148   0.508  12.416 -0.0923  0.5737  0.2268
  146TMC2    O5 2283   0.929   0.463  12.465 -0.0398  0.4439  0.3261
  146TMC2    H5 2284   0.880   0.401  12.523  2.4846 -0.7587  1.1964
  147MPD2     C 2285   1.686   0.066  13.116  0.0622  0.2173  0.1208
  147MPD2    C1 2286   1.565   0.057  13.179  0.3465 -0.2172 -0.3208
  147MPD2    C2 2287   1.452   0.094  13.106  0.0487 -0.2250 -0.2366
  147MPD2    C3 2288   1.466   0.141  12.980  0.6000 -0.1025 -0.3726
  147MPD2    C4 2289   1.586   0.139  12.918 -0.3469  0.2432 -0.3275
  147MPD2    C5 2290   1.697   0.107  12.987  0.6693  0.6136 -0.2175
  147MPD2     H 2291   1.357   0.115  13.153 -0.7915 -3.1449 -0.6267
  147MPD2    H1 2292   1.600   0.173  12.816 -0.8114  0.6812 -0.2381
  147MPD2    H2 2293   1.782   0.058  13.166  0.0386  0.9956  0.2875
  147MPD2    H3 2294   1.793   0.135  12.947  1.5790 -0.1073  1.4499
  147MPD2     N 2295   1.359   0.204  12.924  0.4073 -0.2975 -0.4244
  147MPD2    H5 2296   1.279   0.217  12.984 -0.1378  1.3552 -1.5190
  147MPD2    N1 2297   1.556   0.033  13.321  0.1533  0.7652  0.1071
  147MPD2    H7 2298   1.641   0.017  13.375 -0.0043 -1.1677 -0.2211
  148TMC2    C1 2299   1.362   3.233  11.396  0.6513  0.3022  0.0404
  148TMC2    C2 2300   1.329   3.143  11.496  0.1601 -0.6207 -1.0065
  148TMC2    C3 2301   1.385   3.021  11.472  0.2740 -0.3224  0.7514
  148TMC2    C4 2302   1.435   3.189  11.287  1.1761  0.3307 -0.0109
  148TMC2    C5 2303   1.485   3.068  11.261  0.4662 -0.4726  0.0879
  148TMC2    C6 2304   1.445   2.974  11.356 -0.7417  0.1131  0.2391
  148TMC2     C 2305   1.266   3.325  11.354  0.0546 -0.3823 -0.2893
  148TMC2     O 2306   1.237   3.420  11.429  0.0315 -0.0058  0.4434
  148TMC2     H 2307   1.278   3.174  11.587 -3.0511 -2.3736 -2.2039
  148TMC2    H1 2308   1.468   3.275  11.230 -1.2382  1.3849  0.1715
  148TMC2    H2 2309   1.476   2.871  11.348  2.3531  1.1614 -1.4651
  148TMC2    C7 2310   1.466   3.022  11.128 -0.0456 -0.4153 -0.1952
  148TMC2    C8 2311   1.409   2.931  11.594 -0.3593  0.4022 -0.2033
  148TMC2    O1 2312   1.404   2.916  11.119  0.1980  0.0372 -0.4379
  148TMC2    O2 2313   1.458   2.821  11.594  0.1128 -0.1727  0.1227
  148TMC2    O5 2314   1.387   2.993  11.706 -0.3742 -0.3227  0.6536
  148TMC2    H5 2315   1.352   3.080  11.678  0.0533  0.2106  1.7464
  149MPD2     C 2316   1.155   3.503  11.145 -0.1572 -0.0188  0.0205
  149MPD2    C1 2317   1.148   3.366  11.139  0.5933  0.3789 -0.0620
  149MPD2    C2 2318   1.085   3.294  11.027 -0.2462  0.0072 -0.2475
  149MPD2    C3 2319   1.035   3.367  10.923  0.6065 -0.6281 -0.5445
  149MPD2    C4 2320   1.042   3.508  10.929  0.2318  0.3543  1.1503
  149MPD2    C5 2321   1.102   3.572  11.038  0.4649  0.2051  0.6050
  149MPD2     H 2322   1.097   3.187  11.013  2.1560  0.6442 -3.0987
  149MPD2    H1 2323   0.998   3.562  10.846  2.8508 -0.4607 -0.7863
  149MPD2    H2 2324   1.204   3.556  11.226 -0.4090 -2.1985  1.5756
  149MPD2    H3 2325   1.096   3.680  11.048  0.7304  0.1345  1.4970
  149MPD2     N 2326   0.966   3.308  10.809  0.5521 -0.0147 -0.4446
  149MPD2    H5 2327   0.921   3.372  10.745  0.1124  1.1572  1.0526
  149MPD2    N1 2328   1.218   3.286  11.231 -0.4922 -0.0273 -0.6826
  149MPD2    H7 2329   1.233   3.193  11.193  0.2340 -0.2395  0.1214
  150TMC2    C1 2330   2.711   3.535  12.608 -0.1862  0.2634  0.5938
  150TMC2    C2 2331   2.668   3.666  12.605  0.7366 -0.4868 -0.0359
  150TMC2    C3 2332   2.762   3.765  12.631 -0.6905 -0.7868  0.1191
  150TMC2    C4 2333   2.839   3.508  12.641  0.2252  0.2520  0.1946
  150TMC2    C5 2334   2.923   3.612  12.689 -0.4029 -0.7244  0.3758
  150TMC2    C6 2335   2.879   3.739  12.687 -0.0489 -0.0363  0.0740
  150TMC2     C 2336   2.619   3.425  12.604  0.6603 -0.5267 -0.2220
  150TMC2     O 2337   2.659   3.322  12.650 -0.3849 -0.0321 -0.0088
  150TMC2     H 2338   2.570   3.704  12.578 -0.2983 -0.9393  3.0431
  150TMC2    H1 2339   2.868   3.404  12.647 -0.0892  0.2278  1.1940
  150TMC2    H2 2340   2.952   3.817  12.705  0.2523 -0.0690 -1.0301
  150TMC2    C7 2341   3.064   3.588  12.707  0.6976 -0.4769 -0.6812
  150TMC2    C8 2342   2.722   3.903  12.631  0.0132 -0.1964 -1.0333
  150TMC2    O1 2343   3.130   3.683  12.752  0.3004  0.2266  0.7893
  150TMC2    O2 2344   2.608   3.933  12.667  0.4263 -0.0100 -0.3415
  150TMC2    O5 2345   2.784   3.962  12.523  0.3143  0.1122 -0.7543
  150TMC2    H5 2346   2.874   3.927  12.503  0.0373 -1.6526  1.0795
  151MPD2     C 2347   2.166   3.209  12.482 -0.2015 -0.0048 -0.1386
  151MPD2    C1 2348   2.185   3.319  12.397  0.4936  0.1609 -0.4447
  151MPD2    C2 2349   2.301   3.396  12.410 -0.3916  0.9138 -0.1232
  151MPD2    C3 2350   2.396   3.367  12.510  0.0761 -0.5345 -0.4850
  151MPD2    C4 2351   2.375   3.251  12.585 -0.5462 -0.0938 -0.4068
  151MPD2    C5 2352   2.261   3.181  12.573 -0.3316  0.2403 -0.2052
  151MPD2     H 2353   2.316   3.488  12.355 -1.1885  1.4018  0.4763
  151MPD2    H1 2354   2.428   3.222  12.674 -1.4531 -0.1018  0.1368
  151MPD2    H2 2355   2.072   3.156  12.487 -0.4314  0.5662  1.2507
  151MPD2    H3 2356   2.251   3.104  12.649  0.0616 -0.4919 -0.8909
  151MPD2     N 2357   2.507   3.452  12.527 -0.2049 -0.2167  0.1478
  151MPD2    H5 2358   2.513   3.542  12.482  0.8759  1.4988  3.7475
  151MPD2    N1 2359   2.082   3.336  12.304  0.1100 -0.1960 -0.3036
  151MPD2    H7 2360   2.013   3.262  12.291  0.8951 -1.2974  1.7746
  152TMC2    C1 2361   2.625   3.073  12.910 -0.0980  0.3400 -0.5116
  152TMC2    C2 2362   2.667   2.992  12.808 -0.5673 -0.2581 -0.6182
  152TMC2    C3 2363   2.796   2.966  12.811 -0.9051 -0.3740  0.5848
  152TMC2    C4 2364   2.705   3.119  13.010  0.1505 -0.1909  0.0662
  152TMC2    C5 2365   2.836   3.087  13.011 -0.3808 -0.1395  0.4566
  152TMC2    C6 2366   2.886   3.011  12.904 -0.1304  0.4614  0.1363
  152TMC2     C 2367   2.485   3.069  12.947 -0.3082 -0.4424  0.3056
  152TMC2     O 2368   2.444   3.155  13.030  0.4111  0.2670  0.6478
  152TMC2     H 2369   2.603   2.934  12.742  1.4529 -3.6225  0.3564
  152TMC2    H1 2370   2.667   3.177  13.094  0.8248  0.8749 -0.3545
  152TMC2    H2 2371   2.989   2.978  12.915 -0.4620 -0.8215 -0.6083
  152TMC2    C7 2372   2.920   3.120  13.123  0.1685  0.2049  0.0736
  152TMC2    C8 2373   2.830   2.843  12.739 -0.0372 -0.0217  0.6497
  152TMC2    O1 2374   2.855   3.171  13.217 -0.3545 -0.3798 -0.0786
  152TMC2    O2 2375   2.898   2.755  12.791 -0.5310 -0.0166 -0.4450
  152TMC2    O5 2376   2.815   2.874  12.609  0.4538 -0.1019  0.9835
  152TMC2    H5 2377   2.776   2.963  12.594  1.0390 -0.0286 -0.0736
  153MPD2     C 2378   2.217   2.855  12.828 -0.5521 -0.3042 -0.2821
  153MPD2    C1 2379   2.272   2.969  12.879  0.2985 -0.7781 -0.1160
  153MPD2    C2 2380   2.184   3.074  12.910 -0.4439  0.0149 -0.4998
  153MPD2    C3 2381   2.053   3.063  12.884 -0.0437 -0.2498  0.1713
  153MPD2    C4 2382   1.999   2.948  12.829 -0.4765 -0.4853  0.2877
  153MPD2    C5 2383   2.087   2.848  12.800  0.1878 -0.0121 -0.2457
  153MPD2     H 2384   2.230   3.164  12.949 -0.0361  0.2528 -1.5095
  153MPD2    H1 2385   1.894   2.929  12.807 -0.9097  1.0599  0.9838
  153MPD2    H2 2386   2.286   2.772  12.814 -1.8342 -2.0915  4.1709
  153MPD2    H3 2387   2.052   2.749  12.774  0.4148  0.2366 -1.4986
  153MPD2     N 2388   1.979   3.177  12.914  0.6482  0.4548 -0.4167
  153MPD2    H5 2389   2.025   3.261  12.948  2.4151 -0.8499  0.3861
  153MPD2    N1 2390   2.411   2.975  12.886 -0.0699 -0.1852 -0.2109
  153MPD2    H7 2391   2.457   2.893  12.848  0.7487 -0.6612  1.8333
  154TMC2    C1 2392   3.883   2.306   0.160  0.2613 -0.8084  0.0279
  154TMC2    C2 2393   3.918   2.225   0.265 -0.6163 -0.9818  0.3380
  154TMC2    C3 2394   3.896   2.096   0.253 -0.1243 -0.0067  0.4243
  154TMC2    C4 2395   3.825   2.261   0.042 -0.5748  0.1281  0.4835
  154TMC2    C5 2396   3.792   2.130   0.039 -0.5709 -0.6305 -0.1261
  154TMC2    C6 2397   3.836   2.049   0.140  0.3400  0.4389 -0.1168
  154TMC2     C 2398   3.885   2.452   0.190 -0.6178 -0.5512  0.3748
  154TMC2     O 2399   3.880   2.485   0.307 -0.3658 -0.1552  0.0147
  154TMC2     H 2400   3.954   2.275   0.354  0.8573 -0.1479 -0.7352
  154TMC2    H1 2401   3.804   2.332  17.703  1.4742  0.4927  0.2515
  154TMC2    H2 2402   3.828   1.941   0.135  0.8956  0.4316 -0.8394
  154TMC2    C7 2403   3.750   2.065  17.655 -0.5794 -0.1812 -0.3409
  154TMC2    C8 2404   3.972   2.000   0.322 -0.1112 -0.2554 -0.1702
  154TMC2    O1 2405   3.735   1.945  17.672  0.0118 -0.7299  0.7116
  154TMC2    O2 2406   3.930   1.884   0.335 -0.4797  0.2474 -0.0511
  154TMC2    O5 2407   4.060   2.068   0.399  0.5423 -0.0520 -0.4485
  154TMC2    H5 2408   4.084   2.157   0.366 -1.3728  0.4504 -0.4571
  155MPD2     C 2409   3.996   2.739  17.731  0.1758 -0.2784 -0.3932
  155MPD2    C1 2410   3.925   2.671   0.092 -1.0846 -0.3674  0.1698
  155MPD2    C2 2411   3.866   2.759   0.184 -0.9582  0.4790 -0.0212
  155MPD2    C3 2412   3.871   2.896   0.172  0.1995 -1.0995  0.3021
  155MPD2    C4 2413   3.918   2.955   0.060  0.7561 -0.1055 -0.2151
  155MPD2    C5 2414   3.986   2.873  17.711  0.3299 -0.4665  0.1730
  155MPD2     H 2415   3.815   2.718   0.271  0.5060  0.4566  0.8237
  155MPD2    H1 2416   3.911   3.062   0.046 -3.5601 -0.6282 -1.8527
  155MPD2    H2 2417   4.047   2.680  17.655 -3.3569 -3.8040 -0.0844
  155MPD2    H3 2418   4.034   2.917  17.624  2.0317 -0.5532  1.0554
  155MPD2     N 2419   3.810   2.971   0.278  0.1144  0.6115  0.3320
  155MPD2    H5 2420   3.782   2.918   0.360  2.7742 -1.5564 -0.1702
  155MPD2    N1 2421   3.923   2.535   0.088  0.4257 -0.0692  0.0486
  155MPD2    H7 2422   3.953   2.494   0.000 -0.8025  0.1826 -0.4804
  156TMC2    C1 2423   3.149   0.590  11.275 -0.1070 -0.3253  0.3430
  156TMC2    C2 2424   3.215   0.521  11.182 -0.6079  0.0579  0.0205
  156TMC2    C3 2425   3.174   0.534  11.054 -0.0284  0.3478 -0.5310
  156TMC2    C4 2426   3.042   0.671  11.251  0.9275 -0.4821 -0.3141
  156TMC2    C5 2427   2.999   0.679  11.121 -0.0628 -0.0296 -0.0919
  156TMC2    C6 2428   3.058   0.608  11.025  0.0883 -0.2583  0.2990
  156TMC2     C 2429   3.164   0.549  11.416 -0.6689 -0.5919 -0.2019
  156TMC2     O 2430   3.065   0.574  11.486  0.3778  0.0710 -0.0751
  156TMC2     H 2431   3.306   0.463  11.196  0.0321  1.1425  0.3795
  156TMC2    H1 2432   3.004   0.739  11.327  1.0844  1.2047 -1.7648
  156TMC2    H2 2433   3.013   0.613  10.927  0.6719 -2.3080 -0.0761
  156TMC2    C7 2434   2.915   0.792  11.090 -0.6512 -0.0034 -0.0816
  156TMC2    C8 2435   3.225   0.437  10.962  0.4398  0.1279 -0.0389
  156TMC2    O1 2436   2.907   0.828  10.972  0.3306 -0.0891 -0.3419
  156TMC2    O2 2437   3.154   0.381  10.878  0.3374 -0.3748 -0.0880
  156TMC2    O5 2438   3.360   0.467  10.951 -0.2338 -0.4362  0.0024
  156TMC2    H5 2439   3.386   0.549  10.999 -0.5627 -0.2079 -0.2131
  157MPD2     C 2440   3.421   0.364  11.600 -0.4898  0.3629  0.3056
  157MPD2    C1 2441   3.325   0.456  11.581 -0.3637 -0.3737  0.6096
  157MPD2    C2 2442   3.271   0.512  11.692  0.1098  0.0451 -0.1518
  157MPD2    C3 2443   3.293   0.469  11.821 -0.5716  0.4861  0.2616
  157MPD2    C4 2444   3.378   0.364  11.841 -0.5387 -0.0906 -0.6192
  157MPD2    C5 2445   3.449   0.320  11.728  0.0806 -0.2516 -0.1559
  157MPD2     H 2446   3.212   0.602  11.677  0.9257  0.4745 -0.7780
  157MPD2    H1 2447   3.410   0.331  11.939 -0.5344  0.9733 -0.2597
  157MPD2    H2 2448   3.473   0.318  11.517  1.3472  0.4779  1.3995
  157MPD2    H3 2449   3.521   0.239  11.738  1.0766  0.7771  1.0835
  157MPD2     N 2450   3.219   0.545  11.912  0.2632 -0.0044 -0.3288
  157MPD2    H5 2451   3.178   0.633  11.880 -2.2390 -1.8249 -2.1162
  157MPD2    N1 2452   3.291   0.490  11.452  0.1488  0.2080  0.1378
  157MPD2    H7 2453   3.355   0.463  11.378  0.2833 -0.2805  0.4333
  158TMC2    C1 2454   2.858   4.578  13.533 -0.3044  0.3053  0.2444
  158TMC2    C2 2455   2.824   4.624  13.409 -0.3727  1.1377 -0.2236
  158TMC2    C3 2456   2.690   4.637  13.380  0.5536 -0.1041  0.2541
  158TMC2    C4 2457   2.771   4.544  13.634  1.1769  0.0622  0.0442
  158TMC2    C5 2458   2.642   4.566  13.609 -0.3206 -0.0521  0.0905
  158TMC2    C6 2459   2.606   4.619  13.486 -0.1654 -0.4463 -0.4034
  158TMC2     C 2460   3.002   4.556  13.558  0.3219  1.1171 -0.1243
  158TMC2     O 2461   3.070   4.564  13.460 -0.2437 -0.3779  0.2292
  158TMC2     H 2462   2.901   4.645  13.335  1.2411 -1.7602  0.6443
  158TMC2    H1 2463   2.810   4.499  13.724  1.1688  0.3460  0.1895
  158TMC2    H2 2464   2.501   4.642  13.467 -0.5069 -0.6200  1.2866
  158TMC2    C7 2465   2.533   4.558  13.715  0.3544 -0.8031  0.2013
  158TMC2    C8 2466   2.652   0.014  13.302 -0.2878  0.6376  0.7318
  158TMC2    O1 2467   2.435   4.626  13.699 -0.9218 -0.2982 -0.8477
  158TMC2    O2 2468   2.587   0.104  13.356 -0.1988  0.1928 -0.1893
  158TMC2    O5 2469   2.754   0.036  13.216  0.3445 -0.7607 -0.1860
  158TMC2    H5 2470   2.793   4.685  13.190  1.8187  0.2614 -1.4091
  159MPD2     C 2471   3.384   4.362  13.829  0.6954  0.0928 -0.4751
  159MPD2    C1 2472   3.303   4.434  13.916 -0.1487 -0.5218  0.3870
  159MPD2    C2 2473   3.192   4.501  13.865 -0.1092 -0.4861  0.9152
  159MPD2    C3 2474   3.167   4.494  13.735 -0.8621 -1.2305  0.5772
  159MPD2    C4 2475   3.248   4.419  13.646  0.1874 -0.2818  0.9143
  159MPD2    C5 2476   3.353   4.350  13.697 -0.3733  0.6185  0.5428
  159MPD2     H 2477   3.129   4.556  13.934  1.1020  2.2102 -0.1207
  159MPD2    H1 2478   3.244   4.417  13.538 -0.6671  0.5688  0.9388
  159MPD2    H2 2479   3.466   4.297  13.858 -1.4518 -1.8542  1.1873
  159MPD2    H3 2480   3.419   4.286  13.640  0.6893  1.8294  0.4154
  159MPD2     N 2481   3.041   4.537  13.691  0.3276 -0.1422  0.4605
  159MPD2    H5 2482   2.975   4.565  13.763 -0.8597 -1.9058  0.0437
  159MPD2    N1 2483   3.329   4.445  14.054 -0.4240  0.1082 -0.3819
  159MPD2    H7 2484   3.260   4.504  14.101 -1.2299 -1.5923  0.5614
  160TMC2    C1 2485   2.405   1.996   1.443 -0.0251 -0.1775  0.6798
  160TMC2    C2 2486   2.454   1.974   1.569  0.1200  0.2103  0.2931
  160TMC2    C3 2487   2.587   1.945   1.583 -0.5037  0.4873 -0.2557
  160TMC2    C4 2488   2.485   1.986   1.337 -0.2446  0.5563 -0.1117
  160TMC2    C5 2489   2.621   1.956   1.352 -0.6656 -0.2301  0.2209
  160TMC2    C6 2490   2.670   1.940   1.478  0.6160  0.0552  0.2317
  160TMC2     C 2491   2.264   2.032   1.427 -0.2361  0.5513  0.2586
  160TMC2     O 2492   2.185   1.989   1.509 -0.0328  0.0857 -0.4709
  160TMC2     H 2493   2.394   2.014   1.651  2.7618  1.3973  1.6389
  160TMC2    H1 2494   2.456   1.994   1.233 -1.2389  1.3889  0.2292
  160TMC2    H2 2495   2.773   1.908   1.489  1.1077  1.9585  1.1322
  160TMC2    C7 2496   2.706   1.959   1.236  0.1746 -0.1568  0.1391
  160TMC2    C8 2497   2.646   1.923   1.715  0.2429 -0.0450 -0.4544
  160TMC2    O1 2498   2.661   1.931   1.125  0.1960  0.1484  0.0929
  160TMC2    O2 2499   2.764   1.948   1.739 -0.2287 -0.5252  0.1951
  160TMC2    O5 2500   2.543   1.922   1.801  0.4799  0.4130  0.8071
  160TMC2    H5 2501   2.471   1.862   1.772 -0.1966  2.0554 -0.8867
  161MPD2     C 2502   2.004   2.136   1.333 -0.1069 -0.3289 -0.0310
  161MPD2    C1 2503   2.123   2.187   1.293  0.1358 -0.0555 -0.1872
  161MPD2    C2 2504   2.121   2.294   1.205 -0.2148 -1.0625  0.1996
  161MPD2    C3 2505   2.004   2.349   1.160 -0.1443  0.7498 -0.1484
  161MPD2    C4 2506   1.881   2.299   1.204  0.9481  0.0452 -0.0014
  161MPD2    C5 2507   1.886   2.187   1.286 -0.7512 -0.2421 -0.0412
  161MPD2     H 2508   2.217   2.340   1.185 -0.7417  0.6021  1.5242
  161MPD2    H1 2509   1.782   2.337   1.180  1.1028  0.4828  0.0482
  161MPD2    H2 2510   1.998   2.045   1.391 -2.0978 -1.2111 -1.6199
  161MPD2    H3 2511   1.797   2.140   1.325  0.6456 -1.6089  1.5361
  161MPD2     N 2512   1.994   2.462   1.075  0.3958 -0.5369  0.9085
  161MPD2    H5 2513   1.901   2.495   1.050  0.4701 -1.8109 -1.0179
  161MPD2    N1 2514   2.244   2.132   1.336 -0.1940  0.5615 -0.6210
  161MPD2    H7 2515   2.329   2.173   1.298  0.1360  0.6341  0.1949
  162TMC2    C1 2516   1.086   4.151   1.382  0.0540 -0.1826  0.1217
  162TMC2    C2 2517   1.001   4.198   1.475 -0.5511 -0.4873  0.0866
  162TMC2    C3 2518   1.019   4.156   1.610  0.8811 -0.3894 -0.7237
  162TMC2    C4 2519   1.177   4.061   1.416  0.6538 -0.1117 -1.0551
  162TMC2    C5 2520   1.194   4.027   1.545  1.0453 -0.1627 -0.0941
  162TMC2    C6 2521   1.112   4.071   1.654  0.0868  0.1122 -0.2576
  162TMC2     C 2522   1.039   4.152   1.240 -0.2729 -0.2549  0.2657
  162TMC2     O 2523   1.084   4.074   1.162  0.2062  0.2401 -0.0731
  162TMC2     H 2524   0.919   4.263   1.449  1.3363  1.3690 -1.2815
  162TMC2    H1 2525   1.247   4.032   1.339  0.0817 -0.7710 -1.3278
  162TMC2    H2 2526   1.134   4.038   1.755 -0.2740 -0.3044 -0.3117
  162TMC2    C7 2527   1.321   3.963   1.591 -0.8599  0.3525 -0.3521
  162TMC2    C8 2528   0.907   4.191   1.694 -0.9673 -0.5439  0.1565
  162TMC2    O1 2529   1.359   3.985   1.703 -0.1970  0.2214 -0.1206
  162TMC2    O2 2530   0.794   4.187   1.646 -0.4675  0.0975 -0.0357
  162TMC2    O5 2531   0.946   4.156   1.819  0.1322 -0.8168 -0.0205
  162TMC2    H5 2532   1.041   4.173   1.835  0.1498 -0.3466 -0.6466
  163MPD2     C 2533   0.835   4.394   0.833 -0.5865 -0.4531  0.1225
  163MPD2    C1 2534   0.881   4.266   0.844  0.4104 -0.1775 -0.2828
  163MPD2    C2 2535   0.926   4.225   0.971 -0.0410  0.0217  0.1459
  163MPD2    C3 2536   0.918   4.305   1.082 -0.6027 -0.3474 -0.3393
  163MPD2    C4 2537   0.871   4.435   1.069 -0.2208 -0.5356  0.5836
  163MPD2    C5 2538   0.832   4.478   0.944 -0.7712 -0.4170  0.4835
  163MPD2     H 2539   0.970   4.127   0.983  0.5132  0.3633  0.9062
  163MPD2    H1 2540   0.864   4.509   1.147  2.7814 -0.6884  1.0117
  163MPD2    H2 2541   0.802   4.441   0.741  0.4427  0.9229  0.4521
  163MPD2    H3 2542   0.805   4.582   0.929 -0.5352 -0.8010 -2.5492
  163MPD2     N 2543   0.966   4.268   1.216 -0.4050 -0.0832 -0.3887
  163MPD2    H5 2544   0.956   4.326   1.298 -0.3583  0.0084 -0.4479
  163MPD2    N1 2545   0.879   4.181   0.739  0.3233  0.1478 -0.3875
  163MPD2    H7 2546   0.845   4.218   0.650  0.6877 -1.0605 -1.0392
  164TMC2    C1 2547   1.701   3.616  10.788 -0.1070 -0.1804 -0.1929
  164TMC2    C2 2548   1.765   3.701  10.698 -0.4906 -0.1081  0.0137
  164TMC2    C3 2549   1.745   3.839  10.706  0.6181  0.5911 -0.2691
  164TMC2    C4 2550   1.618   3.662  10.881  0.8018 -0.5977  0.0851
  164TMC2    C5 2551   1.612   3.797  10.896  0.0387  0.2632  0.6456
  164TMC2    C6 2552   1.668   3.890  10.808  0.2100  0.1256 -0.7578
  164TMC2     C 2553   1.740   3.482  10.821 -0.2128  0.1225  0.4156
  164TMC2     O 2554   1.706   3.434  10.930  0.3335 -0.0717  0.6542
  164TMC2     H 2555   1.826   3.656  10.620 -1.4260  0.1933 -0.8872
  164TMC2    H1 2556   1.562   3.601  10.951 -0.6502  1.6422  0.9209
  164TMC2    H2 2557   1.657   3.998  10.805  0.0901  0.1277 -0.2116
  164TMC2    C7 2558   1.496   3.848  10.962  0.1354  0.2839  0.3360
  164TMC2    C8 2559   1.808   3.939  10.628  0.3049  0.0225  0.3151
  164TMC2    O1 2560   1.438   3.936  10.900  0.3439  0.1077  0.5714
  164TMC2    O2 2561   1.739   4.027  10.575  0.0592  0.2303 -0.4481
  164TMC2    O5 2562   1.923   3.883  10.581 -0.1438 -0.6081 -0.4252
  164TMC2    H5 2563   1.954   3.823  10.652 -1.1775  0.3517  0.8252
  165TMC2    C1 2564   2.382   1.242   1.221  0.5286 -0.4334  0.8365
  165TMC2    C2 2565   2.322   1.357   1.250  0.2454 -0.3709 -0.4280
  165TMC2    C3 2566   2.397   1.473   1.247  0.2493  0.0050  0.4122
  165TMC2    C4 2567   2.515   1.232   1.186  0.3329  0.0288 -0.6161
  165TMC2    C5 2568   2.588   1.343   1.198  0.4091 -0.4428 -0.1068
  165TMC2    C6 2569   2.529   1.464   1.231  0.6916  0.0196 -0.6403
  165TMC2     C 2570   2.301   1.124   1.183  0.5879  0.2828 -0.0519
  165TMC2     O 2571   2.353   1.015   1.189  0.2754  0.1233  0.2621
  165TMC2     H 2572   2.216   1.364   1.275  0.7752 -0.8150  1.9919
  165TMC2    H1 2573   2.549   1.130   1.170  1.4573  0.4699 -1.0259
  165TMC2    H2 2574   2.592   1.549   1.251  1.5290 -0.1779 -2.4633
  165TMC2    C7 2575   2.724   1.345   1.140 -0.9339  0.5215 -0.7224
  165TMC2    C8 2576   2.345   1.577   1.332  0.9993 -0.0327  0.0773
  165TMC2    O1 2577   2.777   1.453   1.132  0.1960  0.7846 -0.1869
  165TMC2    O2 2578   2.260   1.563   1.420 -0.1811  0.4833  0.0184
  165TMC2    O5 2579   2.394   1.694   1.296 -0.0982 -0.2142 -0.0905
  165TMC2    H5 2580   2.445   1.695   1.212 -2.2502 -0.8048 -1.4114
  166MPD2     C 2581   1.840   0.961   1.014  0.0608 -0.7535  0.2460
  166MPD2    C1 2582   1.943   0.891   1.082  0.1779 -0.1925  0.1260
  166MPD2    C2 2583   2.064   0.955   1.112  0.6531  0.0082  0.4004
  166MPD2    C3 2584   2.071   1.089   1.091 -0.2968  0.4126 -0.0088
  166MPD2    C4 2585   1.966   1.160   1.039  0.3434  0.5933 -0.5921
  166MPD2    C5 2586   1.851   1.101   0.994  0.6199  0.1964 -0.1434
  166MPD2     H 2587   2.141   0.902   1.167  2.1120 -0.0157 -1.6628
  166MPD2    H1 2588   1.981   1.265   1.015  0.3881  0.7961  0.3342
  166MPD2    H2 2589   1.745   0.922   0.980  0.6559 -2.5092  0.6237
  166MPD2    H3 2590   1.784   1.171   0.946 -0.0441  0.7480  1.6081
  166MPD2     N 2591   2.180   1.170   1.130  0.6133 -0.4600  0.3700
  166MPD2    H5 2592   2.176   1.270   1.114  0.1184 -0.6678 -0.7990
  166MPD2    N1 2593   1.906   0.758   1.108  0.5882 -0.3551 -0.0881
  166MPD2    H7 2594   1.814   0.720   1.087  0.6163  0.8648 -2.4032
  167TMC2    C1 2595   0.461   3.892  13.274  0.5548 -0.0161 -0.5163
  167TMC2    C2 2596   0.360   3.943  13.354 -0.4031 -0.0953  0.1883
  167TMC2    C3 2597   0.232   3.898  13.343 -0.3543  0.2122  0.5640
  167TMC2    C4 2598   0.442   3.798  13.182  0.1230 -0.2257 -1.0093
  167TMC2    C5 2599   0.312   3.756  13.168 -0.3748 -0.1417  0.0324
  167TMC2    C6 2600   0.203   3.799  13.252 -0.4576  0.2968  0.1346
  167TMC2     C 2601   0.592   3.957  13.264 -0.6798 -0.1038 -0.3046
  167TMC2     O 2602   0.629   4.022  13.363 -0.9148  0.6162 -0.3126
  167TMC2     H 2603   0.385   4.029  13.414 -0.0567  0.0687 -0.1848
  167TMC2    H1 2604   0.520   3.750  13.124  2.3687 -1.5317  3.0522
  167TMC2    H2 2605   0.101   3.768  13.230 -0.2596  1.0404 -1.8453
  167TMC2    C7 2606   0.287   3.631  13.109  0.2901  0.4346 -0.2245
  167TMC2    C8 2607   0.115   3.963  13.395  0.2764  0.4270 -0.0430
  167TMC2    O1 2608   0.199   3.560  13.154 -0.2763 -0.0527  0.6999
  167TMC2    O2 2609   0.002   3.945  13.345  0.6949  0.1318 -0.2029
  167TMC2    O5 2610   0.146   4.017  13.515 -0.2736 -0.1216  0.3690
  167TMC2    H5 2611   0.240   4.002  13.540  0.1407 -1.8865 -2.2401
  168MPD2     C 2612   0.798   4.146  13.170  0.1953  0.0634 -0.6924
  168MPD2    C1 2613   0.747   4.044  13.099 -0.1962 -0.1809 -0.1140
  168MPD2    C2 2614   0.793   4.015  12.970  0.1582 -0.5158 -0.3639
  168MPD2    C3 2615   0.900   4.080  12.910  0.2119 -0.4344  0.5110
  168MPD2    C4 2616   0.950   4.189  12.979 -0.6741  0.3803  0.0959
  168MPD2    C5 2617   0.893   4.221  13.097  0.3053 -0.1457  0.2426
  168MPD2     H 2618   0.745   3.934  12.917 -0.8392  0.8159 -1.4795
  168MPD2    H1 2619   1.034   4.246  12.941 -0.0792 -0.4661  0.1625
  168MPD2    H2 2620   0.748   4.180  13.259  0.1019  0.7603 -1.0107
  168MPD2    H3 2621   0.921   4.319  13.136  0.8725 -0.7850  1.4361
  168MPD2     N 2622   0.947   4.046  12.779 -0.1988 -0.6354  0.3795
  168MPD2    H5 2623   0.996   4.113  12.721 -1.5776 -1.2741 -1.5420
  168MPD2    N1 2624   0.638   3.966  13.139 -0.0404  0.1879  0.2357
  168MPD2    H7 2625   0.588   3.911  13.070  0.4193 -1.2828  1.0475
  169MPD1     C 2626   2.612   4.052   8.973 -0.5389  0.5986 -0.2796
  169MPD1    C1 2627   2.572   4.007   9.098 -0.0343  0.5855 -1.4253
  169MPD1    C2 2628   2.658   3.935   9.178 -0.0457 -0.5917 -0.0981
  169MPD1    C3 2629   2.799   3.933   9.158  0.3822 -0.1214 -0.0769
  169MPD1    C4 2630   2.840   3.987   9.036  0.0922  0.2556 -0.2340
  169MPD1    C5 2631   2.746   4.037   8.941  1.0539 -0.6669  0.1340
  169MPD1     H 2632   2.619   3.891   9.269 -0.8051  2.2303  0.9375
  169MPD1    H1 2633   2.943   3.991   9.002  1.3419 -1.1885  3.4667
  169MPD1    H2 2634   2.540   4.099   8.907 -0.7123  0.6846 -0.0307
  169MPD1    H3 2635   2.779   4.077   8.846  0.4137 -1.2180 -0.3160
  169MPD1     N 2636   2.883   3.859   9.245 -0.3477  0.3098  0.0617
  169MPD1    H5 2637   2.835   3.815   9.324 -0.2508 -2.0970 -1.2272
  169MPD1    N1 2638   2.433   4.010   9.122  0.2578 -0.3096 -0.3508
  169MPD1    H6 2639   2.377   4.079   9.073 -1.6110 -0.8197  1.1061
  169MPD1    H7 2640   2.423   4.037   9.219 -1.4019  0.7467 -0.8277
  170MPD1     C 2641   1.962   1.134  12.919  0.0151  0.0749 -0.1746
  170MPD1    C1 2642   1.998   1.137  13.052 -0.2859 -0.1435  0.7617
  170MPD1    C2 2643   1.910   1.197  13.149  0.3234  0.8412 -0.2363
  170MPD1    C3 2644   1.791   1.250  13.109 -0.2986 -0.3665  0.0790
  170MPD1    C4 2645   1.762   1.249  12.974  0.6123  0.2329  1.0050
  170MPD1    C5 2646   1.848   1.198  12.884  0.2451 -0.6965 -0.0631
  170MPD1     H 2647   1.945   1.212  13.251 -0.4133 -0.5616  0.2341
  170MPD1    H1 2648   1.667   1.281  12.933  0.8730 -1.8261 -1.2516
  170MPD1    H2 2649   2.022   1.089  12.841  0.1070 -0.4208  0.1740
  170MPD1    H3 2650   1.831   1.202  12.777 -0.2835 -0.8104  0.0150
  170MPD1     N 2651   1.708   1.315  13.203 -0.1013 -0.1051  0.0927
  170MPD1    H5 2652   1.721   1.322  13.304  0.0367  0.0421  0.0662
  170MPD1    N1 2653   2.131   1.101  13.078  0.5193  0.1938 -0.2270
  170MPD1    H6 2654   2.164   1.021  13.024  1.7209  0.8497 -0.4614
  170MPD1    H7 2655   2.147   1.071  13.174  0.2497 -1.4340 -0.6929
  171MPD1     C 2656   0.079   2.540  15.421 -0.4495 -0.1953 -0.1623
  171MPD1    C1 2657   0.066   2.403  15.396 -0.3332  0.3127 -0.6189
  171MPD1    C2 2658   0.142   2.324  15.478  0.2534 -0.3725  0.0941
  171MPD1    C3 2659   0.229   2.369  15.583  0.0171 -0.3691 -0.3390
  171MPD1    C4 2660   0.245   2.503  15.588  0.0233 -0.2193 -0.5388
  171MPD1    C5 2661   0.183   2.584  15.498 -0.5422 -0.0965  0.4523
  171MPD1     H 2662   0.130   2.218  15.458  0.4290 -0.4138  0.2050
  171MPD1    H1 2663   0.298   2.538  15.676 -1.1733  0.5886 -0.1432
  171MPD1    H2 2664   0.023   2.614  15.364  0.4168  0.6482  0.0766
  171MPD1    H3 2665   0.197   2.691  15.515  4.6257 -0.7708  0.3793
  171MPD1     N 2666   0.287   2.284  15.682  0.2399 -0.3671 -0.0899
  171MPD1    H5 2667   0.356   2.327  15.742 -1.4975  2.0211  0.2251
  171MPD1    N1 2668   4.686   2.355  15.331  0.0675  0.0665 -0.2657
  171MPD1    H6 2669   4.663   2.412  15.250  1.1089 -3.1996 -2.8750
  171MPD1    H7 2670   4.717   2.266  15.293 -0.1425  0.1336 -0.5983
  172MPD1     C 2671   3.676   0.791  17.428  0.3299 -0.5682 -0.6514
  172MPD1    C1 2672   3.595   0.797  17.538 -0.2655  0.1436 -0.2579
  172MPD1    C2 2673   3.623   0.900  17.632  0.2944 -0.1540 -0.0359
  172MPD1    C3 2674   3.738   0.979  17.613 -0.1553  0.0108  0.0449
  172MPD1    C4 2675   3.827   0.960  17.507 -0.2567 -0.2128 -0.1493
  172MPD1    C5 2676   3.794   0.863  17.414  0.1841 -0.1993 -0.0649
  172MPD1     H 2677   3.574   0.897  17.729  1.9423  1.9174  0.8762
  172MPD1    H1 2678   3.923   1.011  17.507 -0.8866  0.9737 -0.5223
  172MPD1    H2 2679   3.648   0.725  17.346  1.2452 -1.2634 -0.4073
  172MPD1    H3 2680   3.860   0.844  17.330 -1.4640  2.6347 -1.9926
  172MPD1     N 2681   3.768   1.081  17.700 -0.2195 -0.0319  0.4237
  172MPD1    H5 2682   3.860   1.121  17.690 -0.6807  0.2008 -3.0424
  172MPD1    N1 2683   3.482   0.715  17.554 -0.3442  0.3421 -0.2822
  172MPD1    H6 2684   3.492   0.629  17.501  0.7887 -0.0761  0.5996
  172MPD1    H7 2685   3.461   0.699  17.652  0.0237 -1.8550 -0.5660
  173MPD1     C 2686   0.094   2.043  13.989 -0.0562  0.0679  0.2861
  173MPD1    C1 2687   0.140   2.113  14.097 -0.1169 -0.3601  0.6955
  173MPD1    C2 2688   0.243   2.056  14.170 -0.3991  0.6300 -0.1538
  173MPD1    C3 2689   0.292   1.928  14.133  0.0365  0.1994 -0.0481
  173MPD1    C4 2690   0.248   1.868  14.015 -0.2150 -0.5409  0.2339
  173MPD1    C5 2691   0.151   1.928  13.946  0.2180  0.3609  0.9143
  173MPD1     H 2692   0.286   2.101  14.259 -0.0358 -2.2892  1.1535
  173MPD1    H1 2693   0.289   1.775  13.979  0.0888 -0.7767  1.1792
  173MPD1    H2 2694   0.012   2.088  13.934  0.8608 -0.4695 -1.4948
  173MPD1    H3 2695   0.134   1.893  13.845  0.0985  1.8622  0.4117
  173MPD1     N 2696   0.397   1.860  14.206  0.1984 -0.2544 -0.1742
  173MPD1    H5 2697   0.420   1.908  14.292 -1.7308  0.8734 -0.2673
  173MPD1    N1 2698   0.083   2.239  14.131  0.1619  0.4804  0.8106
  173MPD1    H6 2699   0.052   2.300  14.055  2.5309 -0.2278 -0.7084
  173MPD1    H7 2700   0.127   2.289  14.207 -0.3881  0.8916  0.8643
  174MPD1     C 2701   0.789   0.981  13.950 -0.4665  0.4857 -0.1669
  174MPD1    C1 2702   0.784   0.972  14.086 -0.1994 -0.2219 -1.3194
  174MPD1    C2 2703   0.765   1.091  14.159  0.0863  0.5517 -0.6255
  174MPD1    C3 2704   0.757   1.210  14.083 -0.1186  0.2568  0.1324
  174MPD1    C4 2705   0.778   1.214  13.946  0.0558  0.6071 -0.3552
  174MPD1    C5 2706   0.781   1.098  13.883  0.2631  0.2927  0.1990
  174MPD1     H 2707   0.738   1.086  14.264  2.0978 -0.5468 -0.1710
  174MPD1    H1 2708   0.783   1.312  13.899  0.4780  0.4747 -0.5853
  174MPD1    H2 2709   0.798   0.888  13.894 -1.4605  0.5769 -0.4746
  174MPD1    H3 2710   0.792   1.096  13.775  1.4056 -0.1913  0.3163
  174MPD1     N 2711   0.736   1.340  14.136  0.4097 -0.4150  0.0908
  174MPD1    H5 2712   0.727   1.419  14.073  0.4742  0.3452  1.0304
  174MPD1    N1 2713   0.769   0.846  14.151  0.8459 -0.1029 -0.1605
  174MPD1    H6 2714   0.775   0.752  14.113  1.9061  0.0212 -0.2940
  174MPD1    H7 2715   0.795   0.846  14.249  0.7272  3.6878 -0.1650
  175MPD1     C 2716   2.829   2.942  16.085  0.4598  0.1349 -0.4148
  175MPD1    C1 2717   2.896   2.967  15.965  0.1479 -0.3149  0.1287
  175MPD1    C2 2718   3.036   2.961  15.963  0.2431 -0.7140  0.3914
  175MPD1    C3 2719   3.108   2.927  16.073 -0.4486 -0.6931 -0.4745
  175MPD1    C4 2720   3.042   2.913  16.192 -0.2743 -0.4856 -0.0911
  175MPD1    C5 2721   2.902   2.913  16.196  0.1887  0.6862 -0.2180
  175MPD1     H 2722   3.082   2.977  15.866  0.2023 -0.2323  0.4476
  175MPD1    H1 2723   3.104   2.892  16.278 -0.4213  0.2308  0.1868
  175MPD1    H2 2724   2.721   2.932  16.096  0.5951  0.1052  0.9548
  175MPD1    H3 2725   2.853   2.900  16.292 -1.4740 -1.0808 -1.3176
  175MPD1     N 2726   3.249   2.926  16.074  0.2767 -0.5767  0.0747
  175MPD1    H5 2727   3.286   2.917  16.168  1.3934 -1.5614 -0.4543
  175MPD1    N1 2728   2.814   2.993  15.850 -0.0585  0.0811 -0.2901
  175MPD1    H6 2729   2.736   3.055  15.870  0.2306  1.1519 -2.4194
  175MPD1    H7 2730   2.863   3.033  15.771 -2.2338 -1.1984 -2.3183
  176MPD1     C 2731   0.947   4.337  16.925 -0.0070 -1.5881  0.7211
  176MPD1    C1 2732   0.959   4.470  16.906  0.3967 -0.1285 -0.2065
  176MPD1    C2 2733   0.967   4.552  17.014 -0.8919  0.1989  1.0007
  176MPD1    C3 2734   0.980   4.491  17.138 -0.2905  0.2328  0.6692
  176MPD1    C4 2735   0.965   4.353  17.156  0.2572 -0.4989  0.1375
  176MPD1    C5 2736   0.945   4.274  17.045 -0.2885 -0.0365  0.0715
  176MPD1     H 2737   0.970   4.660  16.999 -2.6605  0.1480  0.3769
  176MPD1    H1 2738   0.965   4.306  17.254 -0.8870 -0.7306  0.0271
  176MPD1    H2 2739   0.909   4.279  16.841 -0.0340 -1.8631  0.9227
  176MPD1    H3 2740   0.919   4.170  17.059 -4.4553  1.4793  3.7041
  176MPD1     N 2741   1.006   4.581  17.245  0.6705 -0.3942  0.0536
  176MPD1    H5 2742   1.011   4.679  17.218  0.0264 -0.8570 -1.7784
  176MPD1    N1 2743   0.933   4.524  16.777 -0.0712  0.2771  0.0780
  176MPD1    H6 2744   0.979   4.614  16.763 -2.2212  1.4730  0.6324
  176MPD1    H7 2745   0.979   4.459  16.714 -1.5986 -0.1826 -0.5710
  177MPD1     C 2746   0.004   4.533   9.479 -0.5997  0.7347  0.0028
  177MPD1    C1 2747   4.704   4.637   9.563  0.2139 -1.3698  0.1552
  177MPD1    C2 2748   4.599   4.709   9.518 -0.0066  0.1815  0.3777
  177MPD1    C3 2749   4.510   4.656   9.428 -0.0321  0.5506  0.5883
  177MPD1    C4 2750   4.537   4.536   9.367  0.0640  0.6952 -0.3587
  177MPD1    C5 2751   4.659   4.483   9.387  0.3584  0.6304  0.3071
  177MPD1     H 2752   4.586   0.074   9.557 -0.5294  0.4808 -0.5726
  177MPD1    H1 2753   4.456   4.491   9.311 -1.1649  0.9779  1.1926
  177MPD1    H2 2754   0.091   4.473   9.504 -1.1114 -0.6237 -1.4850
  177MPD1    H3 2755   4.690   4.392   9.338 -0.2830  0.1899  0.7234
  177MPD1     N 2756   4.393   4.719   9.371  0.4523  0.6828  0.7080
  177MPD1    H5 2757   4.341   4.688   9.290  1.0250 -2.1745  1.4162
  177MPD1    N1 2758   0.051   4.701   9.659  0.3569  0.3846 -0.1938
  177MPD1    H6 2759   0.097   4.633   9.718  1.4203 -0.0631 -1.5322
  177MPD1    H7 2760   4.734   0.036   9.711  1.0441  1.7706 -1.3612
  178MPD1     C 2761   1.671   0.520   0.467 -0.5070 -0.4093  0.1151
  178MPD1    C1 2762   1.631   0.398   0.424 -0.4225  0.2615 -0.4495
  178MPD1    C2 2763   1.635   0.380   0.287  0.0078  0.5776 -0.1338
  178MPD1    C3 2764   1.677   0.479   0.197 -0.0336  0.3135 -0.1700
  178MPD1    C4 2765   1.708   0.601   0.246 -0.1248 -0.4701  0.5752
  178MPD1    C5 2766   1.703   0.623   0.379  0.3007 -0.3691  0.1987
  178MPD1     H 2767   1.607   0.283   0.246 -2.1835  0.9801  0.4251
  178MPD1    H1 2768   1.745   0.678   0.181  0.4975 -0.4110  1.0044
  178MPD1    H2 2769   1.662   0.555   0.569 -0.6290  1.0964 -0.4117
  178MPD1    H3 2770   1.720   0.722   0.419  1.1099 -1.0246  1.4815
  178MPD1     N 2771   1.703   0.460   0.064  0.1670 -0.1747  0.0145
  178MPD1    H5 2772   1.740   0.537   0.009  0.2791 -0.1494  0.1272
  178MPD1    N1 2773   1.567   0.308   0.513 -0.0650 -0.3707 -0.8618
  178MPD1    H6 2774   1.539   0.231   0.453 -4.7762  1.3004 -0.7494
  178MPD1    H7 2775   1.622   0.275   0.593  0.1938 -1.4277 -1.4716
  179MPD1     C 2776   0.854   3.652  15.235  0.2366  0.9017 -0.9716
  179MPD1    C1 2777   0.984   3.655  15.277 -0.1719  0.6639 -0.8070
  179MPD1    C2 2778   1.034   3.538  15.336  0.4295  0.1972 -0.0755
  179MPD1    C3 2779   0.945   3.442  15.384 -0.2732  0.6942 -0.3255
  179MPD1    C4 2780   0.812   3.459  15.354 -0.2011 -0.0440 -0.3049
  179MPD1    C5 2781   0.767   3.557  15.278  0.3485 -0.0582 -0.2722
  179MPD1     H 2782   1.142   3.534  15.349  0.5350  0.9209 -0.7300
  179MPD1    H1 2783   0.746   3.390  15.405 -0.0097 -0.8455 -1.1364
  179MPD1    H2 2784   0.829   3.739  15.175  0.7465  1.2421 -0.6818
  179MPD1    H3 2785   0.663   3.572  15.249  0.4290 -1.3528 -1.2550
  179MPD1     N 2786   0.997   3.334  15.462 -0.8932  0.7465 -0.3024
  179MPD1    H5 2787   0.920   3.279  15.499  1.0665 -0.7557  1.5359
  179MPD1    N1 2788   1.065   3.765  15.230 -0.5027  0.5904  0.2859
  179MPD1    H6 2789   1.013   3.852  15.246 -0.1691  1.1075 -1.4715
  179MPD1    H7 2790   1.148   3.775  15.289 -1.2315  2.3083  1.0401
  180MPD1     C 2791   1.527   4.457  15.283 -0.3084 -0.0385 -0.0474
  180MPD1    C1 2792   1.534   4.599  15.284  0.1321 -0.4911  0.2025
  180MPD1    C2 2793   1.432   4.675  15.234 -0.2841 -0.4536 -0.3044
  180MPD1    C3 2794   1.334   4.610  15.157 -0.3113 -0.4768 -0.4936
  180MPD1    C4 2795   1.347   4.474  15.139 -0.6805 -0.0925  0.0705
  180MPD1    C5 2796   1.441   4.398  15.201 -1.3511 -0.0858 -0.6508
  180MPD1     H 2797   1.433   0.047  15.254  0.0377 -0.4341 -0.4382
  180MPD1    H1 2798   1.286   4.421  15.066 -0.9004  0.4245 -0.1199
  180MPD1    H2 2799   1.602   4.394  15.328  2.3794  2.1568 -1.4956
  180MPD1    H3 2800   1.436   4.290  15.190  0.9245 -0.1483 -0.9941
  180MPD1     N 2801   1.228   4.689  15.105 -0.2118  0.3999  0.2368
  180MPD1    H5 2802   1.236   0.055  15.095 -0.3210  0.3976  0.1282
  180MPD1    N1 2803   1.632   4.641  15.375 -0.0744  0.4513 -0.2830
  180MPD1    H6 2804   1.660   0.004  15.370 -3.0174  1.2749 -0.6619
  180MPD1    H7 2805   1.722   4.596  15.361 -1.8693 -2.4948 -2.4167
  181MPD1     C 2806   2.444   1.446  10.368  0.0470  0.0826 -0.6312
  181MPD1    C1 2807   2.424   1.582  10.372  0.0314 -0.2452  0.7186
  181MPD1    C2 2808   2.541   1.663  10.380  0.0307 -0.4122  0.3838
  181MPD1    C3 2809   2.666   1.601  10.376 -0.1991 -0.4654 -0.5471
  181MPD1    C4 2810   2.674   1.464  10.378 -0.2042  0.4851 -0.6130
  181MPD1    C5 2811   2.567   1.391  10.374 -0.2545  0.7139  0.0157
  181MPD1     H 2812   2.540   1.769  10.404  0.8008  0.0202 -1.5770
  181MPD1    H1 2813   2.768   1.410  10.386 -0.8738 -0.4500  0.9351
  181MPD1    H2 2814   2.365   1.375  10.345  0.3741 -0.4494 -0.1129
  181MPD1    H3 2815   2.589   1.286  10.364  0.7738  0.9105  0.1770
  181MPD1     N 2816   2.799   1.661  10.368  0.1735 -0.3543  0.5590
  181MPD1    H5 2817   2.880   1.611  10.334 -0.1633  0.0972 -0.9565
  181MPD1    N1 2818   2.300   1.633  10.341  0.2200  0.1664 -0.8099
  181MPD1    H6 2819   2.274   1.701  10.412 -0.6890 -0.1925 -0.7951
  181MPD1    H7 2820   2.220   1.570  10.334  0.0719  0.3240 -0.5851
  182MPD1     C 2821   3.966   0.773   0.228  0.4288 -0.4209 -1.1536
  182MPD1    C1 2822   3.880   0.729   0.126 -0.7098  0.1065  0.9695
  182MPD1    C2 2823   3.746   0.705   0.154  0.1339 -0.1293  0.5609
  182MPD1    C3 2824   3.694   0.725   0.278 -0.4957  0.3862  0.3898
  182MPD1    C4 2825   3.783   0.768   0.377  0.0880  0.3859  0.3650
  182MPD1    C5 2826   3.912   0.800   0.354 -0.6925  0.1278 -0.5839
  182MPD1     H 2827   3.685   0.669   0.072  2.2766 -1.4837 -0.4365
  182MPD1    H1 2828   3.750   0.785   0.478  1.8773  1.0880  0.8302
  182MPD1    H2 2829   4.072   0.791   0.216  0.3914  1.0603  0.5930
  182MPD1    H3 2830   3.970   0.840   0.437  0.1478 -1.3139 -0.4751
  182MPD1     N 2831   3.561   0.710   0.319  0.5627  0.1759 -0.2786
  182MPD1    H5 2832   3.538   0.734   0.414 -0.4838 -1.2995 -0.1720
  182MPD1    N1 2833   3.933   0.691   0.004 -0.1285 -0.2081  0.8669
  182MPD1    H6 2834   3.866   0.706  17.668 -2.6986 -0.9663  2.9560
  182MPD1    H7 2835   4.020   0.736  17.719  0.1556 -2.3137 -1.9535
  183MPD1     C 2836   0.285   2.249   9.925  0.5566  0.0278 -0.7017
  183MPD1    C1 2837   0.171   2.306   9.880  0.9112  0.4500  0.1994
  183MPD1    C2 2838   0.056   2.232   9.878 -0.6685  0.1928 -0.4246
  183MPD1    C3 2839   0.050   2.100   9.922 -0.3725 -0.0033 -0.5926
  183MPD1    C4 2840   0.160   2.047   9.976 -1.3635 -0.1983 -0.0966
  183MPD1    C5 2841   0.275   2.124   9.985  1.6503 -0.1809 -0.9644
  183MPD1     H 2842   4.698   2.275   9.842 -0.0188 -0.6109 -3.0662
  183MPD1    H1 2843   0.172   1.950  10.025  0.0796  0.5346  1.0162
  183MPD1    H2 2844   0.380   2.300   9.940  0.8584 -0.4374 -1.0710
  183MPD1    H3 2845   0.360   2.085  10.040  1.2109 -1.2139 -1.0202
  183MPD1     N 2846   4.673   2.022   9.924  0.9450  0.8771 -0.3813
  183MPD1    H5 2847   4.587   2.071   9.902 -0.7244 -0.9000  2.1594
  183MPD1    N1 2848   0.181   2.425   9.807 -0.5633  0.2341  0.1746
  183MPD1    H6 2849   0.253   2.483   9.850 -0.4188  0.0464  0.1857
  183MPD1    H7 2850   0.098   2.485   9.806  0.2845  1.4083 -0.2798
  184MPD1     C 2851   3.192   3.745  10.562  0.0357  0.3224  0.5802
  184MPD1    C1 2852   3.071   3.809  10.539  0.4203 -0.5496  0.6069
  184MPD1    C2 2853   3.063   3.904  10.437  0.2239 -0.0911 -0.1551
  184MPD1    C3 2854   3.164   3.904  10.339 -0.3699 -0.0705 -0.9114
  184MPD1    C4 2855   3.280   3.837  10.356 -0.2861 -0.3509 -0.7575
  184MPD1    C5 2856   3.291   3.751  10.469 -0.6408 -0.2511 -0.7047
  184MPD1     H 2857   2.966   3.952  10.430 -0.8311 -2.0893  0.6293
  184MPD1    H1 2858   3.361   3.845  10.285 -1.2080 -2.2640 -2.0241
  184MPD1    H2 2859   3.221   3.703  10.658  1.4995  0.6376  0.2668
  184MPD1    H3 2860   3.384   3.700  10.488 -0.2977  0.2510 -1.0389
  184MPD1     N 2861   3.158   3.974  10.216  0.0885  0.4378 -0.1996
  184MPD1    H5 2862   3.236   3.956  10.154 -0.8298 -1.4754 -0.8245
  184MPD1    N1 2863   2.976   3.826  10.642  0.4135 -0.3797  0.9740
  184MPD1    H6 2864   2.962   3.737  10.687 -1.8454  0.1396  1.2896
  184MPD1    H7 2865   2.885   3.863  10.615  0.6097 -0.2754  0.4387
  185MPD1     C 2866   2.671   4.254   9.289 -0.1960 -0.0525  0.1863
  185MPD1    C1 2867   2.602   4.253   9.411 -0.3145 -0.4007 -0.0900
  185MPD1    C2 2868   2.684   4.246   9.522  1.0186  0.6463 -0.2937
  185MPD1    C3 2869   2.818   4.256   9.519  0.0216  0.4112 -0.1146
  185MPD1    C4 2870   2.882   4.282   9.404  0.4491 -0.8622  0.4821
  185MPD1    C5 2871   2.806   4.267   9.289 -0.3815 -0.6355 -0.4106
  185MPD1     H 2872   2.626   4.244   9.614 -0.2770 -1.8831 -1.1480
  185MPD1    H1 2873   2.990   4.290   9.398  0.2074  1.0269 -1.5927
  185MPD1    H2 2874   2.620   4.247   9.193 -1.0395 -2.3077  0.8111
  185MPD1    H3 2875   2.860   4.269   9.195 -1.8670 -1.2119 -1.2895
  185MPD1     N 2876   2.904   4.247   9.634  0.2814 -0.4463 -0.4403
  185MPD1    H5 2877   3.000   4.274   9.617  0.3900  0.2657  1.2327
  185MPD1    N1 2878   2.469   4.214   9.417 -0.3094 -0.6103 -0.1320
  185MPD1    H6 2879   2.422   4.248   9.333  0.0363  0.6107  0.1773
  185MPD1    H7 2880   2.427   4.241   9.506 -1.4872  0.9747 -1.1748
  186MPD1     C 2881   1.616   3.216  15.720  0.2793 -0.0559 -0.4472
  186MPD1    C1 2882   1.639   3.184  15.848 -0.3629 -0.4350  0.2064
  186MPD1    C2 2883   1.640   3.281  15.944 -1.1084 -0.2481  0.5469
  186MPD1    C3 2884   1.608   3.410  15.919 -0.0983 -0.3257  0.0482
  186MPD1    C4 2885   1.574   3.446  15.790 -0.1802  0.4763 -0.1333
  186MPD1    C5 2886   1.577   3.344  15.693 -0.0345  0.0546  0.4184
  186MPD1     H 2887   1.667   3.257  16.046 -2.1998 -0.4937  0.7808
  186MPD1    H1 2888   1.557   3.547  15.754  2.0324  1.0480  0.4305
  186MPD1    H2 2889   1.629   3.144  15.641 -0.2530 -1.1135  0.4223
  186MPD1    H3 2890   1.565   3.375  15.590 -1.0086  1.3520  0.9274
  186MPD1     N 2891   1.625   3.494  16.028 -0.1311  0.1349  0.9097
  186MPD1    H5 2892   1.639   3.450  16.118  0.1721 -0.0071  0.7922
  186MPD1    N1 2893   1.676   3.050  15.880  0.5515 -0.2638  0.2890
  186MPD1    H6 2894   1.643   2.987  15.808 -0.1021  2.0734 -1.4710
  186MPD1    H7 2895   1.649   3.018  15.973 -1.1004 -0.1442 -0.1521
  187MPD1     C 2896   0.572   1.086   0.531 -0.2164 -0.7383  0.1897
  187MPD1    C1 2897   0.615   0.962   0.486  0.0220  0.4510 -0.7411
  187MPD1    C2 2898   0.671   0.951   0.360  0.6741 -0.6557 -0.5286
  187MPD1    C3 2899   0.679   1.067   0.272  0.2389 -0.6805 -0.3249
  187MPD1    C4 2900   0.639   1.186   0.323 -0.4305  0.1176 -0.1034
  187MPD1    C5 2901   0.579   1.194   0.445  0.4731  0.3969 -0.5456
  187MPD1     H 2902   0.709   0.852   0.340  1.9136 -0.4879  0.9001
  187MPD1    H1 2903   0.641   1.276   0.262 -0.1351  1.2236  1.5214
  187MPD1    H2 2904   0.533   1.108   0.630 -1.8593 -1.0648 -0.3878
  187MPD1    H3 2905   0.533   1.287   0.474 -1.3755 -0.4898 -0.6529
  187MPD1     N 2906   0.727   1.064   0.139  0.1746 -0.7100 -0.6658
  187MPD1    H5 2907   0.710   1.147   0.082  1.3478 -1.1048 -1.6044
  187MPD1    N1 2908   0.625   0.848   0.568 -0.1078 -0.0327 -0.7689
  187MPD1    H6 2909   0.618   0.757   0.521  0.4997 -0.0477 -0.8369
  187MPD1    H7 2910   0.566   0.857   0.650 -0.0441 -0.6890 -0.6499
  188MPD1     C 2911   1.195   0.519  10.217 -0.4149  0.1449  0.0977
  188MPD1    C1 2912   1.193   0.431  10.320 -0.3250 -1.0684 -0.3729
  188MPD1    C2 2913   1.180   0.298  10.290  0.5353  0.7030 -0.5722
  188MPD1    C3 2914   1.157   0.251  10.167 -0.1627  0.0556 -0.2172
  188MPD1    C4 2915   1.144   0.348  10.063  0.1701 -0.1510 -0.3982
  188MPD1    C5 2916   1.155   0.478  10.093 -0.8163 -0.1280  0.2098
  188MPD1     H 2917   1.178   0.234  10.377  0.8261  0.8194 -0.4801
  188MPD1    H1 2918   1.099   0.330   9.966  0.4823  3.6988 -1.2298
  188MPD1    H2 2919   1.196   0.626  10.236  0.4059  0.0274  0.7035
  188MPD1    H3 2920   1.148   0.543  10.008  1.0334  1.1501  1.0467
  188MPD1     N 2921   1.129   0.122  10.133 -0.4510  0.1528  0.0247
  188MPD1    H5 2922   1.120   0.108  10.032  1.8855  3.0369 -0.5703
  188MPD1    N1 2923   1.226   0.478  10.451  0.5622 -0.0392 -0.2564
  188MPD1    H6 2924   1.219   0.579  10.458 -0.1895 -0.1505  0.5583
  188MPD1    H7 2925   1.165   0.434  10.518  1.3176  1.3952  1.3785
  189MPD1     C 2926   2.301   1.863   0.620  0.8711  0.1039 -0.7283
  189MPD1    C1 2927   2.174   1.813   0.613 -0.1838  0.2021 -0.8214
  189MPD1    C2 2928   2.081   1.895   0.554 -0.4490  0.4211 -0.4716
  189MPD1    C3 2929   2.100   2.028   0.507  0.5569 -0.2521  0.4783
  189MPD1    C4 2930   2.233   2.069   0.515 -0.5557  0.5153  0.4525
  189MPD1    C5 2931   2.331   1.987   0.563 -0.1229  0.3238 -0.1032
  189MPD1     H 2932   1.983   1.849   0.545  1.3140 -2.9247 -2.6719
  189MPD1    H1 2933   2.252   2.174   0.497  0.9262  0.2959  0.7785
  189MPD1    H2 2934   2.386   1.817   0.669  0.1776  0.6984  1.0377
  189MPD1    H3 2935   2.428   2.034   0.571 -0.9570  1.5884  2.7835
  189MPD1     N 2936   1.991   2.093   0.445  0.1039 -0.1602  0.3021
  189MPD1    H5 2937   1.909   2.041   0.418 -0.3576  0.0724  1.2555
  189MPD1    N1 2938   2.140   1.689   0.669 -0.3491 -0.2182  0.5614
  189MPD1    H6 2939   2.065   1.660   0.607 -0.0297  0.3810 -0.1096
  189MPD1    H7 2940   2.215   1.620   0.666 -0.7221 -0.6039  0.2037
  190MPD1     C 2941   0.797   0.095  15.907 -0.3427  0.2913 -0.2159
  190MPD1    C1 2942   0.859   0.108  16.030 -0.3212 -0.1692 -0.7426
  190MPD1    C2 2943   0.993   0.152  16.037 -0.6991  0.3873  0.4113
  190MPD1    C3 2944   1.062   0.194  15.929 -0.4840 -0.5372 -0.6977
  190MPD1    C4 2945   0.999   0.192  15.809 -0.1520 -0.6517  0.2903
  190MPD1    C5 2946   0.870   0.136  15.797 -0.8923 -0.0233 -0.3255
  190MPD1     H 2947   1.038   0.148  16.136  1.8829 -0.1285 -0.7926
  190MPD1    H1 2948   1.037   0.222  15.712 -2.1174 -1.2846 -0.7026
  190MPD1    H2 2949   0.693   0.065  15.894  0.0118 -0.7015 -0.7850
  190MPD1    H3 2950   0.819   0.141  15.701  0.2342 -0.2498 -0.9380
  190MPD1     N 2951   1.200   0.197  15.944 -0.6803 -0.3436  0.1174
  190MPD1    H5 2952   1.245   0.196  16.034  0.8071 -4.7386 -0.7061
  190MPD1    N1 2953   0.780   0.088  16.151 -0.3013 -0.4751  0.1831
  190MPD1    H6 2954   0.840   0.077  16.232  0.8896 -1.4412 -0.8348
  190MPD1    H7 2955   0.722   0.005  16.136  1.3096 -1.3117 -1.4351
  191MPD1     C 2956   0.779   2.313  12.330  0.2017  0.0472 -0.0818
  191MPD1    C1 2957   0.901   2.254  12.319 -0.1884  0.0749  0.5046
  191MPD1    C2 2958   0.985   2.281  12.210 -0.4046 -0.1574 -0.6128
  191MPD1    C3 2959   0.934   2.348  12.101 -0.0127  0.1100 -0.1861
  191MPD1    C4 2960   0.804   2.392  12.108  0.0238  0.3020 -0.6234
  191MPD1    C5 2961   0.729   2.376  12.225 -0.5629  0.1596  1.4393
  191MPD1     H 2962   1.081   2.231  12.212 -1.5715 -2.3257  2.9703
  191MPD1    H1 2963   0.768   2.451  12.025  2.8234  1.9292 -0.6990
  191MPD1    H2 2964   0.728   2.306  12.426 -0.2159 -0.6737 -0.3510
  191MPD1    H3 2965   0.628   2.416  12.227  0.2997  2.3126  1.5842
  191MPD1     N 2966   1.019   2.352  11.985 -0.3965  0.3482 -0.3328
  191MPD1    H5 2967   1.117   2.345  12.010 -1.1074 -1.0063  2.0105
  191MPD1    N1 2968   0.967   2.190  12.429  0.1774  0.1371 -0.1234
  191MPD1    H6 2969   1.023   2.109  12.400  1.2018  1.1967 -1.1197
  191MPD1    H7 2970   0.902   2.160  12.501 -1.0206  1.9232 -0.4679
  192MPD1     C 2971   0.941   2.782  11.042 -0.2092  0.1001 -0.7162
  192MPD1    C1 2972   1.059   2.811  11.111 -0.2971 -0.3191 -0.2868
  192MPD1    C2 2973   1.093   2.747  11.229  0.7875  0.4780 -0.2089
  192MPD1    C3 2974   1.025   2.630  11.262 -0.0100  1.1066 -0.4036
  192MPD1    C4 2975   0.910   2.601  11.185 -0.0727  0.3127 -0.6007
  192MPD1    C5 2976   0.870   2.674  11.077  0.0932 -0.6897  0.4754
  192MPD1     H 2977   1.180   2.781  11.284 -0.0781  1.3905  0.5696
  192MPD1    H1 2978   0.843   2.517  11.202  0.4193  0.3980  1.7559
  192MPD1    H2 2979   0.918   2.833  10.950  0.1650 -0.5358 -1.1579
  192MPD1    H3 2980   0.788   2.636  11.016 -0.1659  0.7431 -0.0606
  192MPD1     N 2981   1.062   2.540  11.375  0.2804 -0.5997  0.9595
  192MPD1    H5 2982   1.015   2.450  11.386 -1.3021  0.2133  0.7941
  192MPD1    N1 2983   1.128   2.925  11.074 -0.4663  0.3813 -0.3254
  192MPD1    H6 2984   1.228   2.923  11.095 -0.7448  0.2420  0.9385
  192MPD1    H7 2985   1.116   2.947  10.975 -0.2862 -0.9013 -0.6350
  193MPD1     C 2986   4.597   2.207  16.543 -0.1974  0.6115 -0.2291
  193MPD1    C1 2987   4.693   2.133  16.612  0.1848 -0.1126 -0.3472
  193MPD1    C2 2988   0.085   2.190  16.607 -0.8180 -0.6008  0.0245
  193MPD1    C3 2989   0.120   2.297  16.532  0.6921  0.0607 -0.0308
  193MPD1    C4 2990   0.026   2.341  16.442  0.5324  0.4176  0.4735
  193MPD1    C5 2991   4.637   2.298  16.454  0.3245  0.1471 -0.1996
  193MPD1     H 2992   0.150   2.145  16.681  0.2120  0.7529 -0.0572
  193MPD1    H1 2993   0.046   2.422  16.372  1.7248 -1.6555 -1.5769
  193MPD1    H2 2994   4.489   2.195  16.545 -0.4993  3.3069 -1.4940
  193MPD1    H3 2995   4.558   2.345  16.397  1.9667  0.4634 -2.2258
  193MPD1     N 2996   0.247   2.357  16.520  0.0332 -0.1293 -0.3731
  193MPD1    H5 2997   0.257   2.442  16.466  2.2253  1.2539  2.1990
  193MPD1    N1 2998   4.661   2.029  16.700 -0.4148 -0.1693  0.0015
  193MPD1    H6 2999   0.003   1.969  16.728 -2.2299 -2.1467  0.8170
  193MPD1    H7 3000   4.586   1.965  16.672 -0.6121 -0.8305  2.0819
  194MPD1     C 3001   2.599   3.780  16.646  0.1300  0.0924  0.4558
  194MPD1    C1 3002   2.628   3.905  16.697 -0.1467 -0.8638  0.3830
  194MPD1    C2 3003   2.727   3.913  16.788  0.1993 -0.5256  0.9079
  194MPD1    C3 3004   2.795   3.807  16.841  0.1402  0.8421 -0.1798
  194MPD1    C4 3005   2.760   3.684  16.788  0.1539 -0.5907  0.7307
  194MPD1    C5 3006   2.655   3.671  16.702 -0.4181  0.9227  0.5272
  194MPD1     H 3007   2.755   4.014  16.817 -0.0507 -0.3355  0.4750
  194MPD1    H1 3008   2.800   3.588  16.821 -0.4197 -0.7168  1.0651
  194MPD1    H2 3009   2.517   3.773  16.575  0.9034  0.3509 -0.4567
  194MPD1    H3 3010   2.629   3.574  16.663  1.6899  1.1017 -1.3705
  194MPD1     N 3011   2.887   3.810  16.944  0.0453 -0.3267 -0.0128
  194MPD1    H5 3012   2.940   3.728  16.970 -1.1529 -0.9067  0.5828
  194MPD1    N1 3013   2.581   4.019  16.646  0.2641  0.2349  0.2900
  194MPD1    H6 3014   2.504   3.994  16.583 -0.3543  1.2850  0.6390
  194MPD1    H7 3015   2.545   4.078  16.720  0.5986  0.7493  0.0418
  195MPD1     C 3016   0.090   1.583   0.221  0.0228 -0.1881 -0.9107
  195MPD1    C1 3017   0.210   1.554   0.164 -0.4458  0.6292 -0.1561
  195MPD1    C2 3018   0.248   1.419   0.157  0.0504  0.6132 -0.2720
  195MPD1    C3 3019   0.170   1.321   0.223  0.1049 -0.4778  0.4780
  195MPD1    C4 3020   0.060   1.361   0.287  0.5858 -0.0697 -0.1041
  195MPD1    C5 3021   0.018   1.486   0.286 -0.1626 -0.0365 -0.5665
  195MPD1     H 3022   0.344   1.395   0.113  0.0618  0.0195  0.0797
  195MPD1    H1 3023   0.006   1.294   0.353  1.0356  0.1937  0.5269
  195MPD1    H2 3024   0.059   1.687   0.223 -3.0209 -1.0816 -0.8015
  195MPD1    H3 3025   4.664   1.514   0.341  0.4500 -0.4937  0.6490
  195MPD1     N 3026   0.193   1.184   0.211  0.2515  0.3337  0.0397
  195MPD1    H5 3027   0.114   1.124   0.235 -1.3142  1.3385 -2.6884
  195MPD1    N1 3028   0.273   1.651   0.084 -0.4194  0.6624 -0.3052
  195MPD1    H6 3029   0.270   1.740   0.132 -0.1345  0.7398 -0.4298
  195MPD1    H7 3030   0.367   1.615   0.071  0.6049  3.0345  0.6268
  196MPD1     C 3031   3.965   0.015   0.298  0.4100  0.6214  0.7594
  196MPD1    C1 3032   4.080   0.094   0.306  0.3206 -0.5796  0.0586
  196MPD1    C2 3033   4.117   0.153   0.422 -0.0145 -0.1832 -0.4251
  196MPD1    C3 3034   4.042   0.149   0.532 -0.5420 -0.4189 -0.2146
  196MPD1    C4 3035   3.928   0.077   0.525  0.3798 -0.1271  0.4424
  196MPD1    C5 3036   3.889   0.012   0.409  0.3035  0.4204  0.7001
  196MPD1     H 3037   4.210   0.209   0.429 -0.7161  1.1651 -1.8630
  196MPD1    H1 3038   3.862   0.078   0.611  1.8422  1.0689  1.5528
  196MPD1    H2 3039   3.941   4.708   0.201  0.7091  0.4099  0.7789
  196MPD1    H3 3040   3.790   4.705   0.399  0.3065  0.7724 -0.8040
  196MPD1     N 3041   4.080   0.218   0.647 -0.1578  0.4099  0.3514
  196MPD1    H5 3042   4.178   0.246   0.647 -0.6354  2.0997  0.3479
  196MPD1    N1 3043   4.172   0.088   0.200  0.3229  0.0438 -0.2098
  196MPD1    H6 3044   4.256   0.143   0.218 -0.4762  1.5451 -1.1581
  196MPD1    H7 3045   4.132   0.100   0.108  0.4066 -2.2261 -0.5389
  197MPD1     C 3046   4.254   2.018   0.059 -0.2099  0.0180 -1.0173
  197MPD1    C1 3047   4.237   2.158   0.079  0.5168  0.4798  0.2446
  197MPD1    C2 3048   4.187   2.226  17.710  0.1479 -0.1990 -0.2442
  197MPD1    C3 3049   4.157   2.162  17.587 -0.1081  0.7492  0.1279
  197MPD1    C4 3050   4.184   2.028  17.574  0.2559  0.7807  0.1390
  197MPD1    C5 3051   4.223   1.953  17.677 -0.3319  0.4016 -0.1755
  197MPD1     H 3052   4.177   2.333  17.720 -0.4043 -0.4671  2.0684
  197MPD1    H1 3053   4.183   1.989  17.473  0.2311  1.0871  0.0196
  197MPD1    H2 3054   4.308   1.965   0.137 -0.8667  2.2265  0.9509
  197MPD1    H3 3055   4.258   1.852  17.661  2.2514  1.1715  0.6468
  197MPD1     N 3056   4.104   2.238  17.474  0.6695 -0.1432  0.0647
  197MPD1    H5 3057   4.096   2.184  17.388  0.1542  1.0253 -0.6146
  197MPD1    N1 3058   4.243   2.217   0.207 -0.2816  0.2278  0.4758
  197MPD1    H6 3059   4.303   2.170   0.274  2.4746  1.7371 -0.9517
  197MPD1    H7 3060   4.256   2.318   0.204  0.5698  0.0298 -3.4556
  198MPD1     C 3061   1.942   0.454  15.285  0.2823  0.0225  0.0855
  198MPD1    C1 3062   1.961   0.591  15.288 -0.6481 -0.0797  0.0730
  198MPD1    C2 3063   1.875   0.667  15.360 -0.5558 -0.1637  0.0801
  198MPD1    C3 3064   1.768   0.613  15.431  0.1341  0.3460 -0.1548
  198MPD1    C4 3065   1.756   0.476  15.442  0.1432  0.0123  0.3476
  198MPD1    C5 3066   1.845   0.396  15.370  0.0314 -0.1389  0.0283
  198MPD1     H 3067   1.888   0.774  15.362  0.2861 -0.2091 -2.5971
  198MPD1    H1 3068   1.675   0.426  15.495 -1.3637  0.3233 -1.6525
  198MPD1    H2 3069   2.002   0.380  15.233  0.0875  1.1386 -1.7193
  198MPD1    H3 3070   1.831   0.288  15.374 -2.5763  0.1837 -0.4566
  198MPD1     N 3071   1.687   0.700  15.508 -0.1485 -0.1485 -0.6511
  198MPD1    H5 3072   1.693   0.799  15.485 -0.1106  0.3739  1.5411
  198MPD1    N1 3073   2.075   0.647  15.226  0.0289  0.5842  0.5747
  198MPD1    H6 3074   2.104   0.740  15.257  0.3440  0.1766  1.4868
  198MPD1    H7 3075   2.148   0.577  15.223 -0.4663  0.1136 -0.9028
  199MPD1     C 3076   4.097   3.184  10.137  0.6769 -0.1957  0.2748
  199MPD1    C1 3077   4.060   3.147  10.262 -0.5111  0.6137  0.4709
  199MPD1    C2 3078   3.932   3.122  10.291  0.2980  0.0228  0.3710
  199MPD1    C3 3079   3.839   3.148  10.198  0.0620 -0.9436 -0.0059
  199MPD1    C4 3080   3.873   3.199  10.075  0.0381  0.0775 -0.5933
  199MPD1    C5 3081   4.008   3.210  10.043  0.3721  0.0669  0.2056
  199MPD1     H 3082   3.910   3.078  10.388  1.2700 -0.3494  0.4242
  199MPD1    H1 3083   3.801   3.219   9.998  0.4681  2.0634 -0.4676
  199MPD1    H2 3084   4.202   3.180  10.113  0.7576  2.1094  0.1695
  199MPD1    H3 3085   4.048   3.230   9.944  2.6972 -0.3567  1.0396
  199MPD1     N 3086   3.701   3.138  10.221  0.1920  0.5569 -0.0660
  199MPD1    H5 3087   3.649   3.165  10.138 -0.8747 -3.1773 -0.6228
  199MPD1    N1 3088   4.162   3.102  10.351  0.0311  0.4108 -0.4574
  199MPD1    H6 3089   4.150   3.099  10.452  2.1524  3.1113 -0.1088
  199MPD1    H7 3090   4.247   3.156  10.333 -0.5005  1.4571  0.1946
  200MPD1     C 3091   2.025   2.520  14.812  0.3525  0.6494  0.4780
  200MPD1    C1 3092   2.149   2.463  14.803  0.4013  0.0404  0.0540
  200MPD1    C2 3093   2.184   2.377  14.698 -0.0943 -0.8584 -0.5309
  200MPD1    C3 3094   2.095   2.349  14.594  0.2954  0.2969 -0.7161
  200MPD1    C4 3095   1.970   2.409  14.605  0.5864 -0.1900 -0.2687
  200MPD1    C5 3096   1.939   2.494  14.710 -0.5328 -0.2281  0.2821
  200MPD1     H 3097   2.282   2.330  14.703  1.4567  2.4200 -0.2028
  200MPD1    H1 3098   1.886   2.401  14.537  2.0365 -0.7392 -1.9899
  200MPD1    H2 3099   1.996   2.571  14.903  2.3982  0.0679  1.4483
  200MPD1    H3 3100   1.839   2.535  14.718 -0.6839 -0.7374  0.9456
  200MPD1     N 3101   2.136   2.270  14.487 -0.3515 -0.2151 -0.2700
  200MPD1    H5 3102   2.234   2.243  14.484  0.0482  1.2642 -0.4957
  200MPD1    N1 3103   2.236   2.478  14.913  0.3107  0.2864 -0.2168
  200MPD1    H6 3104   2.334   2.478  14.885  0.1601 -1.6824 -0.7779
  200MPD1    H7 3105   2.226   2.571  14.954 -0.0498  0.8602 -1.6031
  201MPD1     C 3106   4.208   1.444  13.425  0.2387  0.0778  0.0323
  201MPD1    C1 3107   4.311   1.386  13.492 -0.1393 -0.1952 -0.3060
  201MPD1    C2 3108   4.331   1.253  13.469 -0.3143  0.0800  0.0862
  201MPD1    C3 3109   4.246   1.174  13.390  0.1461  0.3551 -0.5754
  201MPD1    C4 3110   4.141   1.236  13.335  0.1034 -0.8275  0.4888
  201MPD1    C5 3111   4.118   1.367  13.360  0.0360 -0.6119  0.2023
  201MPD1     H 3112   4.418   1.209  13.515  0.8103  1.7910 -0.3734
  201MPD1    H1 3113   4.073   1.186  13.267 -0.4403  1.4595 -0.6494
  201MPD1    H2 3114   4.190   1.551  13.424 -0.5696 -0.0429  1.3412
  201MPD1    H3 3115   4.023   1.407  13.326 -0.2865 -0.9197  0.7387
  201MPD1     N 3116   4.274   1.033  13.379  0.1818 -0.4379  0.2479
  201MPD1    H5 3117   4.361   0.999  13.420  0.6513  0.2112 -0.2249
  201MPD1    N1 3118   4.410   1.465  13.552  1.1225 -0.1546 -0.8889
  201MPD1    H6 3119   4.373   1.557  13.576 -0.2172 -0.4503 -1.8206
  201MPD1    H7 3120   4.444   1.423  13.639 -1.5603  0.4170  0.4439
  202MPD1     C 3121   0.617   1.496  10.214 -0.3315 -0.3633 -0.5585
  202MPD1    C1 3122   0.704   1.424  10.130  0.5088 -0.2365 -0.1002
  202MPD1    C2 3123   0.659   1.297  10.109  0.0765 -0.3766 -0.3724
  202MPD1    C3 3124   0.523   1.254  10.127  0.3600  0.3697 -0.1007
  202MPD1    C4 3125   0.443   1.344  10.193 -0.1947  1.4807 -0.2103
  202MPD1    C5 3126   0.485   1.465  10.236  0.4603  0.9203  0.2581
  202MPD1     H 3127   0.725   1.225  10.062  3.1613  1.8671  0.5392
  202MPD1    H1 3128   0.340   1.313  10.205  0.2519 -0.1609 -0.6636
  202MPD1    H2 3129   0.642   1.596  10.246 -0.1807 -0.0468 -1.6606
  202MPD1    H3 3130   0.418   1.526  10.295 -1.7346  0.7548 -2.0049
  202MPD1     N 3131   0.464   1.131  10.085 -0.1311 -0.2674  0.0035
  202MPD1    H5 3132   0.378   1.105  10.133 -1.2312 -1.9752 -2.8575
  202MPD1    N1 3133   0.839   1.461  10.132  1.2169 -0.0992  0.3169
  202MPD1    H6 3134   0.841   1.563  10.127  0.0097  0.0392  2.8222
  202MPD1    H7 3135   0.877   1.434  10.041 -0.0169 -0.2107 -0.1679
  203MPD1     C 3136   2.789   1.611  12.168  0.9769  0.0738  0.7796
  203MPD1    C1 3137   2.741   1.488  12.138  0.3929 -0.4756 -0.1787
  203MPD1    C2 3138   2.771   1.386  12.215  0.3760 -0.2019  0.4891
  203MPD1    C3 3139   2.851   1.399  12.325 -0.7794  0.2468  0.1045
  203MPD1    C4 3140   2.888   1.526  12.375  0.9799  0.1158 -1.0012
  203MPD1    C5 3141   2.860   1.632  12.290 -0.2462 -0.1525  0.0511
  203MPD1     H 3142   2.731   1.288  12.192  0.0489 -0.1715  0.9246
  203MPD1    H1 3143   2.956   1.551  12.455 -0.5195 -1.5653  0.8040
  203MPD1    H2 3144   2.780   1.692  12.096  0.7439 -1.7078 -1.1664
  203MPD1    H3 3145   2.912   1.726  12.306 -0.6295 -0.0159  0.5038
  203MPD1     N 3146   2.915   1.285  12.383  0.5480 -0.2452 -0.0728
  203MPD1    H5 3147   2.901   1.196  12.335  0.6630 -1.2548  1.7898
  203MPD1    N1 3148   2.691   1.467  12.005  0.2499  0.1582 -0.2381
  203MPD1    H6 3149   2.649   1.548  11.960 -0.3439 -0.3234 -0.5628
  203MPD1    H7 3150   2.644   1.378  11.993 -1.4293  0.7080  2.1929
  204MPD1     C 3151   2.497   3.285  17.438  0.5192 -0.0964  0.0841
  204MPD1    C1 3152   2.629   3.273  17.413  0.8835 -0.2255  0.3472
  204MPD1    C2 3153   2.682   3.149  17.438  0.2648  0.0920 -0.3839
  204MPD1    C3 3154   2.611   3.037  17.461  0.3169  0.1410  0.0857
  204MPD1    C4 3155   2.474   3.054  17.485  0.0850 -0.0015 -0.3640
  204MPD1    C5 3156   2.426   3.181  17.484 -0.3562 -0.0851 -0.1419
  204MPD1     H 3157   2.789   3.133  17.438  0.4047  1.0915  0.6021
  204MPD1    H1 3158   2.399   2.977  17.504 -0.1296  0.2157 -0.3307
  204MPD1    H2 3159   2.434   3.374  17.434  0.4243 -0.1020  1.5565
  204MPD1    H3 3160   2.321   3.191  17.505 -0.5404  0.1198 -1.1557
  204MPD1     N 3161   2.680   2.912  17.455 -0.6018  0.1262  0.0211
  204MPD1    H5 3162   2.773   2.916  17.415 -0.5861  0.9255  0.1211
  204MPD1    N1 3163   2.708   3.387  17.401 -0.0963 -0.6287  0.2194
  204MPD1    H6 3164   2.803   3.374  17.366 -0.0814 -0.1470  0.0879
  204MPD1    H7 3165   2.673   3.471  17.356 -0.6451 -1.6111 -1.2093
  205MPD1     C 3166   3.054   1.035  17.185  0.4421  0.7866 -0.1652
  205MPD1    C1 3167   3.039   1.173  17.154  0.0912  0.0225  0.6061
  205MPD1    C2 3168   2.957   1.253  17.235 -0.9351  0.1829  0.4507
  205MPD1    C3 3169   2.896   1.201  17.350 -0.2364 -0.2229 -0.3072
  205MPD1    C4 3170   2.914   1.067  17.372  0.4193  0.0242 -0.2306
  205MPD1    C5 3171   2.985   0.977  17.290 -0.5758 -0.5479  0.5565
  205MPD1     H 3172   2.952   1.358  17.210 -3.0553  0.2200  1.0646
  205MPD1    H1 3173   2.865   1.020  17.456  1.6898  1.4727  1.3279
  205MPD1    H2 3174   3.121   0.972  17.127 -1.5063 -1.9184  0.5094
  205MPD1    H3 3175   3.009   0.875  17.317  2.2555  0.2348  1.0398
  205MPD1     N 3176   2.826   1.276  17.451  0.1762  1.1292 -0.1739
  205MPD1    H5 3177   2.780   1.226  17.527 -0.0473 -0.8336 -1.6006
  205MPD1    N1 3178   3.105   1.230  17.042 -0.3751 -0.4892  0.1498
  205MPD1    H6 3179   3.122   1.330  17.050  1.8838 -0.9193  0.7896
  205MPD1    H7 3180   3.192   1.188  17.009 -1.3715 -1.4771 -1.1967
  206MPD1     C 3181   3.262   4.077  16.916  0.3533 -0.8047 -0.1896
  206MPD1    C1 3182   3.157   4.148  16.950 -0.4046  0.3738 -0.8043
  206MPD1    C2 3183   3.054   4.164  16.858 -0.8106 -0.4112  0.4057
  206MPD1    C3 3184   3.059   4.104  16.733 -0.1704  0.4700 -0.3918
  206MPD1    C4 3185   3.162   4.011  16.705  0.4584  1.0579  0.2385
  206MPD1    C5 3186   3.258   3.999  16.806  0.0701 -0.3800  0.5535
  206MPD1     H 3187   2.972   4.228  16.889  0.1786  1.1186 -0.1489
  206MPD1    H1 3188   3.175   3.963  16.609 -2.9803 -0.6281  0.6069
  206MPD1    H2 3189   3.355   4.075  16.972  1.2106 -1.3673 -1.6155
  206MPD1    H3 3190   3.351   3.950  16.780  0.1516  0.5088 -0.8417
  206MPD1     N 3191   2.976   4.142  16.630 -0.1199 -0.4738  0.1202
  206MPD1    H5 3192   2.965   4.081  16.550  0.1431 -1.5633  0.9207
  206MPD1    N1 3193   3.171   4.233  17.063 -0.6790  0.2040 -0.4607
  206MPD1    H6 3194   3.228   4.187  17.133  0.5964  1.9081 -0.3670
  206MPD1    H7 3195   3.079   4.251  17.103  0.1888 -0.1303  1.7233
  207MPD1     C 3196   0.611   2.156   9.871  0.0289 -0.2629 -0.4442
  207MPD1    C1 3197   0.613   2.018   9.884 -0.0910  0.3358 -1.1528
  207MPD1    C2 3198   0.693   1.956   9.977  0.0081 -0.8327 -0.5664
  207MPD1    C3 3199   0.769   2.034  10.063 -0.0750 -0.3125 -0.1148
  207MPD1    C4 3200   0.753   2.165  10.065 -0.2693 -0.6680 -0.1811
  207MPD1    C5 3201   0.678   2.228   9.967 -0.6256  0.1916  0.0542
  207MPD1     H 3202   0.680   1.849   9.987  2.4055 -1.0038  0.7244
  207MPD1    H1 3203   0.797   2.227  10.141  1.4881 -0.7175 -1.1584
  207MPD1    H2 3204   0.565   2.210   9.789 -0.6468 -1.1058 -0.6274
  207MPD1    H3 3205   0.680   2.337   9.963 -1.8687  0.1517 -1.7482
  207MPD1     N 3206   0.854   1.979  10.163  0.5086  0.2864 -0.2906
  207MPD1    H5 3207   0.891   2.043  10.232  1.0019  0.2123 -0.4846
  207MPD1    N1 3208   0.568   1.938   9.783 -0.6907  0.2688 -0.2623
  207MPD1    H6 3209   0.486   1.982   9.742 -0.4270  3.2496  2.3634
  207MPD1    H7 3210   0.543   1.842   9.801  2.0626 -0.1976  1.0858
  208MPD1     C 3211   1.885   4.590  17.560 -0.0179  0.3607  0.1200
  208MPD1    C1 3212   1.996   4.619  17.493 -0.6698 -0.0291  0.5825
  208MPD1    C2 3213   2.067   4.726  17.535 -0.4079 -0.2372  0.1997
  208MPD1    C3 3214   2.031   0.071  17.639  0.0244  1.2239 -0.3710
  208MPD1    C4 3215   1.912   0.051  17.702  0.3756  0.3755  0.1551
  208MPD1    C5 3216   1.847   4.675  17.663 -0.6645  0.5073  0.2964
  208MPD1     H 3217   2.148   0.027  17.473  0.0924 -1.3227  0.2241
  208MPD1    H1 3218   1.884   0.102   0.053 -0.2069  1.6314 -0.7144
  208MPD1    H2 3219   1.831   4.501  17.533  0.5107  0.3249 -0.8339
  208MPD1    H3 3220   1.758   4.655  17.721 -0.6153  0.1660  0.2571
  208MPD1     N 3221   2.117   0.172  17.681  0.3607 -0.4053 -0.2592
  208MPD1    H5 3222   2.200   0.188  17.624 -0.2344 -0.0350 -1.0210
  208MPD1    N1 3223   2.026   4.541  17.379  0.0532 -0.6960 -0.3843
  208MPD1    H6 3224   2.097   4.591  17.325  1.0471 -0.7480  0.8761
  208MPD1    H7 3225   1.949   4.507  17.322  0.8134 -0.3739 -1.5986
  209MPD1     C 3226   1.526   0.405  10.858  0.3231 -0.7247  0.2121
  209MPD1    C1 3227   1.443   0.454  10.765 -0.7657  0.4915  0.1880
  209MPD1    C2 3228   1.349   0.555  10.791  0.0980  0.4470  0.6845
  209MPD1    C3 3229   1.339   0.600  10.927 -0.0720  0.8180 -0.3666
  209MPD1    C4 3230   1.432   0.555  11.021 -0.0394 -0.1687 -1.0119
  209MPD1    C5 3231   1.518   0.458  10.986  0.6196  0.3542 -0.2312
  209MPD1     H 3232   1.279   0.594  10.719 -0.1343  0.2788  0.8204
  209MPD1    H1 3233   1.429   0.588  11.124 -1.0300  0.7955 -1.3460
  209MPD1    H2 3234   1.601   0.330  10.837  0.6884  0.1193 -1.4545
  209MPD1    H3 3235   1.593   0.423  11.056 -1.7463  1.1670  2.6905
  209MPD1     N 3236   1.244   0.704  10.952  0.1775 -0.9986 -0.0651
  209MPD1    H5 3237   1.199   0.756  10.878  2.0942  0.1454 -0.4223
  209MPD1    N1 3238   1.446   0.393  10.642  0.4910 -0.9472 -1.2490
  209MPD1    H6 3239   1.466   0.293  10.650 -0.5331 -1.1166 -0.8814
  209MPD1    H7 3240   1.367   0.412  10.581 -2.2988  1.8422  3.2538
  210MPD1     C 3241   1.257   1.403  11.710 -0.0441  0.6663  0.8045
  210MPD1    C1 3242   1.245   1.270  11.734  0.4625 -0.0262 -0.2519
  210MPD1    C2 3243   1.208   1.193  11.622 -0.0869  0.2003  0.0348
  210MPD1    C3 3244   1.168   1.247  11.500 -0.6476  0.3735  0.0050
  210MPD1    C4 3245   1.177   1.383  11.484  0.2503  0.0060  0.4884
  210MPD1    C5 3246   1.211   1.460  11.588 -0.0614 -0.9920 -0.6085
  210MPD1     H 3247   1.214   1.085  11.628  1.7576  0.3220  0.3199
  210MPD1    H1 3248   1.145   1.436  11.395 -0.4945 -0.6256  0.3787
  210MPD1    H2 3249   1.285   1.471  11.789  0.3205  2.0345 -0.5042
  210MPD1    H3 3250   1.216   1.567  11.573  1.5466 -1.2386 -1.8136
  210MPD1     N 3251   1.119   1.184  11.383 -0.7936 -0.3051 -0.2611
  210MPD1    H5 3252   1.116   1.239  11.298  0.1097  1.1392  0.6360
  210MPD1    N1 3253   1.297   1.215  11.847 -0.3256 -0.4026 -0.4534
  210MPD1    H6 3254   1.265   1.127  11.888  3.5588 -2.0832 -0.9431
  210MPD1    H7 3255   1.283   1.278  11.926  3.5432 -0.9088  0.6512
  211MPD1     C 3256   3.616   1.454  16.215  0.3771  0.1746  0.6065
  211MPD1    C1 3257   3.493   1.394  16.248 -0.0373 -0.5541  0.2951
  211MPD1    C2 3258   3.400   1.475  16.309  0.0251 -0.2332 -0.1486
  211MPD1    C3 3259   3.414   1.611  16.327  0.3126 -0.3231  0.3604
  211MPD1    C4 3260   3.532   1.670  16.287  0.2750  0.2147  0.6052
  211MPD1    C5 3261   3.627   1.591  16.227  0.6024  0.1756  0.4796
  211MPD1     H 3262   3.306   1.426  16.333  0.2082  0.0516  1.1377
  211MPD1    H1 3263   3.559   1.775  16.289  0.1117  0.2751 -0.1617
  211MPD1    H2 3264   3.695   1.389  16.180  0.0207  2.1661 -3.8014
  211MPD1    H3 3265   3.729   1.626  16.215 -0.0312  2.7226  2.6102
  211MPD1     N 3266   3.304   1.680  16.386 -0.0655 -0.0261 -0.1726
  211MPD1    H5 3267   3.217   1.628  16.390  1.3014 -2.3234 -0.2626
  211MPD1    N1 3268   3.475   1.256  16.254  0.5269 -0.3685  0.6602
  211MPD1    H6 3269   3.524   1.210  16.178  1.0321 -4.0630  3.2622
  211MPD1    H7 3270   3.380   1.231  16.227  0.8973 -2.8630  1.6795
  212MPD1     C 3271   2.533   4.672  16.794 -0.2036 -0.1141  0.6026
  212MPD1    C1 3272   2.606   4.558  16.776 -0.0183 -0.0881 -0.4912
  212MPD1    C2 3273   2.539   4.437  16.782 -0.6059 -0.1275  0.3866
  212MPD1    C3 3274   2.397   4.432  16.805  0.3518  0.4025 -0.8075
  212MPD1    C4 3275   2.327   4.551  16.795  0.3764 -0.1428  0.4339
  212MPD1    C5 3276   2.398   4.670  16.796  0.4270 -0.6744 -0.5452
  212MPD1     H 3277   2.594   4.344  16.768 -0.3242  0.1078 -0.0431
  212MPD1    H1 3278   2.221   4.554  16.813  0.3937 -2.3265  0.9093
  212MPD1    H2 3279   2.577   0.036  16.789  0.0004 -0.2001  0.7085
  212MPD1    H3 3280   2.336   0.024  16.789  2.1490  0.5143 -0.5378
  212MPD1     N 3281   2.325   4.311  16.846 -0.2928 -0.2862 -0.2654
  212MPD1    H5 3282   2.224   4.321  16.856 -0.2265 -0.7727  0.8533
  212MPD1    N1 3283   2.745   4.557  16.801  0.5656  0.1845  0.1744
  212MPD1    H6 3284   2.798   4.475  16.773 -2.2248 -1.7070  0.5240
  212MPD1    H7 3285   2.795   4.631  16.752 -3.5129  0.7853 -3.0686
  213MPD1     C 3286   0.612   0.565  16.087 -0.4840 -0.0864 -0.0320
  213MPD1    C1 3287   0.660   0.435  16.061 -0.2948 -0.1355  0.3114
  213MPD1    C2 3288   0.668   0.418  15.925 -0.1715  0.4653  0.2685
  213MPD1    C3 3289   0.691   0.515  15.828 -0.7009 -0.5336 -0.0126
  213MPD1    C4 3290   0.673   0.641  15.864 -0.0244 -0.0457  0.7006
  213MPD1    C5 3291   0.617   0.659  15.990 -0.3694 -0.6074  0.9279
  213MPD1     H 3292   0.677   0.314  15.894  3.1486  0.8918 -0.1162
  213MPD1    H1 3293   0.672   0.725  15.796  2.2596  0.1061  0.8410
  213MPD1    H2 3294   0.581   0.610  16.180 -0.5149  0.1921 -0.1761
  213MPD1    H3 3295   0.585   0.761  16.008 -1.6072 -0.9987  0.9572
  213MPD1     N 3296   0.696   0.470  15.695 -0.5892 -0.0436 -0.7014
  213MPD1    H5 3297   0.690   0.368  15.692 -2.1026  0.0870 -1.7322
  213MPD1    N1 3298   0.615   0.335  16.146 -0.2885  0.1527 -0.1370
  213MPD1    H6 3299   0.622   0.367  16.243 -2.7631 -0.2629  0.1852
  213MPD1    H7 3300   0.675   0.253  16.147  0.1351  0.4823  1.9601
  214MPD1     C 3301   0.308   4.528  15.305 -0.4731  0.0156  0.1217
  214MPD1    C1 3302   0.370   4.580  15.415  0.0991 -0.3587  0.2682
  214MPD1    C2 3303   0.459   4.682  15.392  0.2740  0.0618  1.7522
  214MPD1    C3 3304   0.477   0.004  15.268  0.3207 -0.0324 -0.4565
  214MPD1    C4 3305   0.408   4.687  15.160 -0.6977  0.9355 -0.4114
  214MPD1    C5 3306   0.324   4.580  15.175 -0.1316 -0.5953 -0.5781
  214MPD1     H 3307   0.502   0.001  15.475  0.6934 -0.6400  1.9965
  214MPD1    H1 3308   0.419   4.726  15.060 -2.0383 -0.2220 -1.0005
  214MPD1    H2 3309   0.248   4.438  15.300 -2.7356  1.4895  0.9868
  214MPD1    H3 3310   0.285   4.525  15.091  1.7643 -2.6236 -0.1321
  214MPD1     N 3311   0.570   0.111  15.254 -0.0936 -0.0384 -0.7923
  214MPD1    H5 3312   0.568   0.164  15.168 -0.5770  0.4984 -0.4432
  214MPD1    N1 3313   0.359   4.525  15.546 -0.2242 -0.2288  0.1106
  214MPD1    H6 3314   0.262   4.496  15.557  0.0302 -1.1092 -0.0065
  214MPD1    H7 3315   0.366   4.588  15.626 -1.4190 -0.3419  0.3146
  215MPD1     C 3316   0.331   0.911  10.304  0.3412 -0.0146  0.0077
  215MPD1    C1 3317   0.277   1.032  10.321 -0.4125  0.3902  0.0766
  215MPD1    C2 3318   0.332   1.114  10.420  0.3232  0.2309  0.3968
  215MPD1    C3 3319   0.418   1.059  10.511 -0.2330 -0.4915 -0.1385
  215MPD1    C4 3320   0.462   0.927  10.496  0.0853  0.0937 -0.2319
  215MPD1    C5 3321   0.421   0.859  10.386  0.1352 -0.0676 -0.1019
  215MPD1     H 3322   0.308   1.219  10.430 -3.6622 -0.5203 -1.1483
  215MPD1    H1 3323   0.540   0.885  10.558  0.4610  1.5803  0.3121
  215MPD1    H2 3324   0.311   0.848  10.218 -0.3322  0.1723  0.0256
  215MPD1    H3 3325   0.469   0.768  10.350  0.9560 -0.5945  2.3365
  215MPD1     N 3326   0.477   1.149  10.598  0.0641  0.1230  0.0974
  215MPD1    H5 3327   0.447   1.245  10.583  1.2858  0.3993 -0.5572
  215MPD1    N1 3328   0.193   1.084  10.225  0.2155  0.0077 -0.0532
  215MPD1    H6 3329   0.119   1.022  10.193  0.2743  0.1493 -0.4650
  215MPD1    H7 3330   0.138   1.162  10.261 -1.2873 -2.1680  2.3443
  216MPD1     C 3331   2.020   3.907  17.495 -0.6362 -0.2234  0.7940
  216MPD1    C1 3332   2.086   3.890  17.618  0.5693 -0.9659 -0.5154
  216MPD1    C2 3333   2.075   3.763  17.675  0.0038 -0.3762 -0.2734
  216MPD1    C3 3334   1.998   3.666  17.623  0.3906 -0.5964 -0.5644
  216MPD1    C4 3335   1.938   3.683  17.496 -0.0234  0.3329  0.1941
  216MPD1    C5 3336   1.959   3.802  17.432 -0.0193  0.1344 -0.9495
  216MPD1     H 3337   2.144   3.744   0.016  0.6783  2.8377 -0.0749
  216MPD1    H1 3338   1.882   3.603  17.447 -0.4245  0.2981  0.7014
  216MPD1    H2 3339   2.035   4.000  17.441 -1.8010  0.2005  1.2125
  216MPD1    H3 3340   1.924   3.817  17.331 -0.2748  2.2887 -0.5384
  216MPD1     N 3341   1.995   3.545  17.699  0.5855  0.5164 -0.0341
  216MPD1    H5 3342   2.027   3.548   0.055 -1.8272  1.3992  0.7435
  216MPD1    N1 3343   2.199   3.976  17.655 -0.1586 -0.0573 -0.1823
  216MPD1    H6 3344   2.218   3.971   0.015 -0.0450 -0.1749 -0.2093
  216MPD1    H7 3345   2.188   4.074  17.630 -1.1748 -0.0190  0.4315
  217MPD1     C 3346   3.680   2.114   9.350 -0.1808 -0.0233  0.0135
  217MPD1    C1 3347   3.564   2.069   9.399  0.3234 -0.1894 -0.4864
  217MPD1    C2 3348   3.546   1.937   9.404 -0.1851 -0.1541 -0.0684
  217MPD1    C3 3349   3.638   1.847   9.343  0.0258  0.5509  0.3171
  217MPD1    C4 3350   3.754   1.895   9.284 -0.1644  0.3573  0.6271
  217MPD1    C5 3351   3.773   2.032   9.289  0.2154 -0.4710  0.3655
  217MPD1     H 3352   3.449   1.910   9.442 -0.1562 -0.0260  0.0935
  217MPD1    H1 3353   3.809   1.815   9.236  1.6200  0.2731  2.8264
  217MPD1    H2 3354   3.708   2.219   9.356 -1.8564  0.3753  0.8021
  217MPD1    H3 3355   3.865   2.067   9.242  1.0760 -0.4636  2.0552
  217MPD1     N 3356   3.623   1.705   9.345 -0.0801  0.2828 -0.4033
  217MPD1    H5 3357   3.695   1.656   9.293  1.2706  1.0974  0.6889
  217MPD1    N1 3358   3.480   2.151   9.471  0.1701 -0.3828  0.3023
  217MPD1    H6 3359   3.469   2.242   9.427  0.7965  0.3906  1.7419
  217MPD1    H7 3360   3.393   2.111   9.505 -0.4629 -1.4536 -2.6332
  218MPD1     C 3361   1.127   1.934  12.144 -0.2893  0.1508 -0.1325
  218MPD1    C1 3362   1.125   1.878  12.268 -0.0936  0.1182  0.0482
  218MPD1    C2 3363   1.031   1.783  12.304  0.1088 -0.0920 -0.1076
  218MPD1    C3 3364   0.933   1.741  12.214 -0.7509 -0.0426 -0.0044
  218MPD1    C4 3365   0.932   1.803  12.088  0.0547  0.2454  0.2349
  218MPD1    C5 3366   1.023   1.907  12.064 -0.3018  0.1472 -0.2311
  218MPD1     H 3367   1.046   1.745  12.405 -2.1219  2.6865  1.2711
  218MPD1    H1 3368   0.861   1.788  12.007  0.9912 -0.4158 -0.4615
  218MPD1    H2 3369   1.193   2.017  12.120  1.5552 -1.8038 -1.7998
  218MPD1    H3 3370   1.011   1.963  11.972 -0.5703  0.6778  0.1265
  218MPD1     N 3371   0.845   1.642  12.256  0.8124  0.7516  0.7135
  218MPD1    H5 3372   0.866   1.602  12.347  0.9906  1.6368  1.0647
  218MPD1    N1 3373   1.205   1.941  12.367 -0.5811 -0.1627  0.2101
  218MPD1    H6 3374   1.298   1.971  12.337 -2.0775  3.4416 -0.8068
  218MPD1    H7 3375   1.223   1.877  12.445  0.6369  0.3659  0.3651
  219MPD1     C 3376   0.159   0.960  11.778 -0.6003  0.3547 -0.1132
  219MPD1    C1 3377   0.204   1.084  11.738  0.5139 -0.2749  0.2829
  219MPD1    C2 3378   0.264   1.171  11.830  0.1428  0.0676 -1.0779
  219MPD1    C3 3379   0.283   1.131  11.965 -0.1625 -0.7961  0.2466
  219MPD1    C4 3380   0.226   1.011  12.007  0.3126 -0.2982 -0.5817
  219MPD1    C5 3381   0.169   0.929  11.916  0.2000 -0.6257  0.3431
  219MPD1     H 3382   0.312   1.262  11.795 -0.1682  0.1133 -1.3896
  219MPD1    H1 3383   0.233   0.978  12.110  0.7120  2.1630  0.1631
  219MPD1    H2 3384   0.124   0.883  11.710 -0.6237  0.3841 -0.1344
  219MPD1    H3 3385   0.134   0.834  11.954  2.2674 -1.0624  1.1584
  219MPD1     N 3386   0.346   1.200  12.073  0.1615  0.1749  0.0030
  219MPD1    H5 3387   0.345   1.156  12.164 -1.7610 -0.3010 -0.2465
  219MPD1    N1 3388   0.222   1.108  11.601 -0.1289  0.3513  0.4626
  219MPD1    H6 3389   0.233   1.206  11.573 -0.8952  0.1530 -0.5123
  219MPD1    H7 3390   0.161   1.065  11.532 -1.0687  2.5095 -0.0684
  220MPD1     C 3391   4.568   2.865  10.247 -0.2136 -0.8414 -0.4069
  220MPD1    C1 3392   4.680   2.819  10.315 -0.4868  0.4422 -0.2675
  220MPD1    C2 3393   4.700   2.681  10.335 -0.5917 -0.4780 -0.0465
  220MPD1    C3 3394   4.623   2.591  10.274 -0.4743  0.3720 -0.8802
  220MPD1    C4 3395   4.517   2.637  10.197 -0.0221  0.7937 -0.4670
  220MPD1    C5 3396   4.489   2.769  10.191 -0.1687 -0.6385  0.2457
  220MPD1     H 3397   0.052   2.657  10.394 -0.5208 -2.8807 -1.1109
  220MPD1    H1 3398   4.458   2.572  10.134 -0.8540  2.3388 -1.2615
  220MPD1    H2 3399   4.549   2.971  10.239  0.6133 -0.9403 -4.0035
  220MPD1    H3 3400   4.406   2.797  10.128  0.5804 -0.3974 -0.6363
  220MPD1     N 3401   4.655   2.450  10.287  0.2727  0.0341 -0.3520
  220MPD1    H5 3402   0.007   2.431  10.335 -0.0485 -2.6168 -0.8524
  220MPD1    N1 3403   0.040   2.914  10.365 -0.5104 -0.8760 -0.4151
  220MPD1    H6 3404   0.032   2.988  10.296  1.4600 -1.1002 -0.8729
  220MPD1    H7 3405   0.139   2.892  10.371 -0.5157 -1.1300 -1.1986
  221MPD1     C 3406   4.010   4.660  16.384  0.6990 -0.4382 -0.0798
  221MPD1    C1 3407   3.881   4.657  16.427  0.3334 -0.3152 -0.5405
  221MPD1    C2 3408   3.795   0.018  16.383  0.2384  0.1337  0.0164
  221MPD1    C3 3409   3.830   0.076  16.264 -0.5824 -0.0899 -0.3784
  221MPD1    C4 3410   3.951   0.065  16.209 -0.4342 -0.5362  0.3117
  221MPD1    C5 3411   4.049   4.725  16.269  0.5742 -1.3305  0.5189
  221MPD1     H 3412   3.695   0.036  16.421 -0.0864 -3.7289  0.9449
  221MPD1    H1 3413   3.960   0.102  16.107 -0.7072 -1.6782 -0.1256
  221MPD1    H2 3414   4.080   4.587  16.423 -0.1908 -2.0940 -1.6222
  221MPD1    H3 3415   4.146   4.713  16.224  1.1907  0.0340  1.4733
  221MPD1     N 3416   3.742   0.153  16.185  0.4180 -0.5942 -0.4721
  221MPD1    H5 3417   3.781   0.200  16.104 -1.2848  0.3525 -0.7544
  221MPD1    N1 3418   3.852   4.585  16.542 -0.5025 -0.1731 -0.1791
  221MPD1    H6 3419   3.881   4.488  16.538  0.2854  0.0999 -1.1215
  221MPD1    H7 3420   3.751   4.590  16.553 -0.3865 -1.9088  1.5602
  222MPD1     C 3421   2.253   3.899   0.972 -0.2288  0.8966  0.2122
  222MPD1    C1 3422   2.160   3.878   1.076  0.1280  0.1389 -0.2654
  222MPD1    C2 3423   2.060   3.976   1.076  0.1558  0.6379  0.2260
  222MPD1    C3 3424   2.035   4.068   0.974 -0.6694 -0.4123 -0.1338
  222MPD1    C4 3425   2.118   4.073   0.870  0.0865 -0.1791 -0.2496
  222MPD1    C5 3426   2.228   3.988   0.869 -0.3953 -0.2893 -0.3615
  222MPD1     H 3427   1.984   3.955   1.151  0.6816 -1.4310  0.1842
  222MPD1    H1 3428   2.089   4.145   0.795 -0.7589 -1.3512 -1.0455
  222MPD1    H2 3429   2.349   3.851   0.967 -1.0458 -0.7024 -0.1620
  222MPD1    H3 3430   2.300   3.994   0.788 -1.3519  0.4654 -1.1395
  222MPD1     N 3431   1.930   4.153   0.985 -0.1207 -0.6336 -0.3240
  222MPD1    H5 3432   1.915   4.226   0.916 -1.4538 -0.0084  0.6345
  222MPD1    N1 3433   2.184   3.792   1.193 -0.5809 -0.1908 -0.2958
  222MPD1    H6 3434   2.103   3.760   1.245 -0.4389 -1.6688 -0.9712
  222MPD1    H7 3435   2.246   3.713   1.176 -1.5975 -1.2151  0.7959
  223MPD1     C 3436   1.581   0.101   1.672  0.4130  0.1157  0.2706
  223MPD1    C1 3437   1.632   4.712   1.703 -0.0688  0.0179 -0.1407
  223MPD1    C2 3438   1.672   4.631   1.599  0.0761  0.1890  0.0033
  223MPD1    C3 3439   1.664   4.666   1.461 -0.4674  0.0463 -0.6967
  223MPD1    C4 3440   1.615   0.057   1.443 -1.0571 -0.6662 -0.2781
  223MPD1    C5 3441   1.568   0.139   1.542  0.6491  0.2804 -0.1054
  223MPD1     H 3442   1.704   4.532   1.629  0.2019  0.4631  0.7521
  223MPD1    H1 3443   1.590   0.088   1.342 -1.6028  1.1665  0.4209
  223MPD1    H2 3444   1.550   0.171   1.748  2.6524 -0.6701  1.8903
  223MPD1    H3 3445   1.520   0.234   1.520 -0.8868 -0.7066 -0.9820
  223MPD1     N 3446   1.701   4.581   1.358  0.0124  0.8740  0.7294
  223MPD1    H5 3447   1.749   4.495   1.382  1.0492  1.9815  2.5816
  223MPD1    N1 3448   1.653   4.681   1.837 -0.4256 -0.2403 -0.3356
  223MPD1    H6 3449   1.665   4.582   1.856 -1.4042 -0.2875  0.0425
  223MPD1    H7 3450   1.582   4.708   1.904  0.4471 -1.2749  0.9896
  224MPD1     C 3451   3.716   2.699   9.714 -0.4781 -0.1375 -0.3583
  224MPD1    C1 3452   3.839   2.650   9.675 -0.2784 -0.0893  0.4627
  224MPD1    C2 3453   3.848   2.519   9.633 -0.3546 -0.4507  0.5753
  224MPD1    C3 3454   3.748   2.432   9.677 -0.0923  0.1761 -0.3003
  224MPD1    C4 3455   3.625   2.479   9.726  0.0944  0.2251 -1.2149
  224MPD1    C5 3456   3.612   2.613   9.747  0.0900  0.2854  1.0258
  224MPD1     H 3457   3.931   2.471   9.584 -0.9609  1.6166 -2.4772
  224MPD1    H1 3458   3.548   2.418   9.770 -0.0220  1.4484  0.2740
  224MPD1    H2 3459   3.702   2.806   9.730  0.7551  0.2657 -1.9109
  224MPD1    H3 3460   3.516   2.650   9.782 -0.4515  0.4108 -0.6040
  224MPD1     N 3461   3.766   2.293   9.686 -0.4357 -0.2850  0.8859
  224MPD1    H5 3462   3.691   2.240   9.729 -1.2853  0.4024  0.2572
  224MPD1    N1 3463   3.931   2.742   9.622  0.0149 -0.2157 -0.2749
  224MPD1    H6 3464   4.023   2.704   9.646  0.8624  1.2008 -1.2887
  224MPD1    H7 3465   3.928   2.831   9.671 -3.4354 -0.2116 -0.4859
  225MPD1     C 3466   4.182   2.096  13.542 -0.1044  0.4256  0.5236
  225MPD1    C1 3467   4.104   2.163  13.449  0.2364 -0.4066 -0.1710
  225MPD1    C2 3468   4.156   2.224  13.340 -0.3435  0.4011 -0.1581
  225MPD1    C3 3469   4.291   2.213  13.308  0.0029 -0.0189 -0.0401
  225MPD1    C4 3470   4.373   2.157  13.407  0.4490  0.5989  0.1075
  225MPD1    C5 3471   4.317   2.108  13.525 -0.1801  0.4745 -0.2504
  225MPD1     H 3472   4.094   2.270  13.263 -0.1754  1.9647  0.6274
  225MPD1    H1 3473   4.479   2.144  13.391  0.1741 -0.2611 -1.0479
  225MPD1    H2 3474   4.143   2.038  13.624  0.5237 -1.0099 -0.2039
  225MPD1    H3 3475   4.390   2.057  13.587  0.3573  1.7674  0.1777
  225MPD1     N 3476   4.335   2.269  13.185 -0.1080 -0.6533  0.3960
  225MPD1    H5 3477   4.260   2.306  13.128  1.0098  1.3258  0.2228
  225MPD1    N1 3478   3.962   2.152  13.466  0.8107 -0.0138  0.1393
  225MPD1    H6 3479   3.902   2.210  13.407 -0.1390 -2.6492 -1.5227
  225MPD1    H7 3480   3.928   2.150  13.561  0.8972  0.7886  0.1843
  226MPD1     C 3481   3.189   2.974   9.962  0.3792 -0.1650  0.3110
  226MPD1    C1 3482   3.205   2.879  10.061 -0.4470  0.1506 -0.5062
  226MPD1    C2 3483   3.335   2.843  10.104  0.2095 -0.8105 -0.4342
  226MPD1    C3 3484   3.436   2.896  10.040  0.1123 -0.4786 -0.0291
  226MPD1    C4 3485   3.424   2.980   9.929 -0.2331  0.2825 -0.6164
  226MPD1    C5 3486   3.295   3.023   9.895 -0.8679  0.1577 -0.2328
  226MPD1     H 3487   3.347   2.762  10.176 -0.4215 -1.2882 -0.8661
  226MPD1    H1 3488   3.511   3.025   9.881  0.7096 -0.7925  0.0793
  226MPD1    H2 3489   3.088   2.999   9.931  1.7064  1.0653 -3.0225
  226MPD1    H3 3490   3.281   3.086   9.808 -0.0426  1.3443  0.4941
  226MPD1     N 3491   3.565   2.845  10.075 -0.6809 -0.6555  0.8196
  226MPD1    H5 3492   3.567   2.770  10.144  2.1068 -0.4075  1.0299
  226MPD1    N1 3493   3.092   2.838  10.136 -0.7878  0.0023 -0.0084
  226MPD1    H6 3494   3.004   2.843  10.085 -0.0331 -0.8230 -1.4125
  226MPD1    H7 3495   3.107   2.739  10.152 -1.8876 -0.3564 -1.2006
  227MPD1     C 3496   4.482   3.039   9.728 -0.4730  0.2812 -0.2605
  227MPD1    C1 3497   4.365   3.112   9.739  0.3789  0.7245 -0.5444
  227MPD1    C2 3498   4.261   3.051   9.806  0.0106 -0.2870  0.7659
  227MPD1    C3 3499   4.271   2.916   9.864 -0.1611 -0.4282 -0.1983
  227MPD1    C4 3500   4.395   2.857   9.865  0.6893 -0.4989 -0.0358
  227MPD1    C5 3501   4.494   2.917   9.792  0.1709 -0.1727  1.1517
  227MPD1     H 3502   4.161   3.094   9.812  0.2800  0.1829  1.8800
  227MPD1    H1 3503   4.413   2.756   9.900  0.4141 -1.5468 -2.8864
  227MPD1    H2 3504   4.558   3.078   9.661 -1.4290  0.3990 -1.2803
  227MPD1    H3 3505   4.591   2.877   9.765  0.4626  0.4311  1.3123
  227MPD1     N 3506   4.153   2.854   9.929  0.2679 -0.5390  1.0767
  227MPD1    H5 3507   4.074   2.917   9.927  0.3646 -0.5201 -2.7950
  227MPD1    N1 3508   4.338   3.218   9.652 -0.5679  0.6615  0.7670
  227MPD1    H6 3509   4.268   3.278   9.696 -1.3385  2.0006 -2.2888
  227MPD1    H7 3510   4.410   3.285   9.626  2.1994 -1.1182  3.8284
  228MPD1     C 3511   1.384   0.575  13.939  0.4156  0.2524 -0.4267
  228MPD1    C1 3512   1.361   0.560  13.799  0.0605 -0.5002 -0.0988
  228MPD1    C2 3513   1.383   0.435  13.738 -0.3252 -0.1849  0.1904
  228MPD1    C3 3514   1.421   0.327  13.815 -0.8462 -0.7575  0.1029
  228MPD1    C4 3515   1.447   0.347  13.952 -0.2733  0.4033 -0.6328
  228MPD1    C5 3516   1.433   0.472  14.013  0.9543 -0.0887  0.2469
  228MPD1     H 3517   1.358   0.430  13.632  1.0959 -2.0895 -0.0406
  228MPD1    H1 3518   1.482   0.266  14.015  0.2958 -0.7872 -2.4995
  228MPD1    H2 3519   1.367   0.675  13.978 -1.4590  0.2001 -1.0847
  228MPD1    H3 3520   1.446   0.474  14.121  0.3618  1.5559  0.2880
  228MPD1     N 3521   1.449   0.201  13.750  0.4577  0.1157  1.1288
  228MPD1    H5 3522   1.409   0.193  13.657  3.6045 -0.6287 -0.1676
  228MPD1    N1 3523   1.346   0.677  13.723 -0.1552 -0.4363 -0.4394
  228MPD1    H6 3524   1.307   0.659  13.631  0.6744  1.0218 -1.0614
  228MPD1    H7 3525   1.290   0.743  13.777  2.0882  3.1826 -2.6283
  229MPD1     C 3526   0.775   3.945  14.814  0.3230 -0.1005  0.6101
  229MPD1    C1 3527   0.821   3.844  14.728 -0.6017  0.6834 -0.3099
  229MPD1    C2 3528   0.915   3.754  14.775 -0.0611  1.0706  0.4069
  229MPD1    C3 3529   0.990   3.782  14.886 -0.2798  0.1462 -0.2748
  229MPD1    C4 3530   0.959   3.896  14.955  0.1923  0.4572  0.0309
  229MPD1    C5 3531   0.841   3.962  14.933  0.2701 -1.2479 -0.4004
  229MPD1     H 3532   0.945   3.666  14.721  0.1569  1.0156  0.6174
  229MPD1    H1 3533   1.015   3.918  15.046  0.4794  0.5277 -0.1634
  229MPD1    H2 3534   0.686   4.003  14.794 -0.1568 -0.4546  1.6974
  229MPD1    H3 3535   0.807   4.032  15.008  0.5638 -1.4187 -0.1067
  229MPD1     N 3536   1.105   3.712  14.930  0.1132  0.5759 -0.1693
  229MPD1    H5 3537   1.126   3.727  15.029 -0.5192  0.3552 -0.0052
  229MPD1    N1 3538   0.746   3.804  14.615  0.0935  0.2393  0.5146
  229MPD1    H6 3539   0.793   3.734  14.559 -0.2660 -0.2033  0.7608
  229MPD1    H7 3540   0.716   3.887  14.564 -0.2896  0.6920  1.4625
  230MPD1     C 3541   1.765   3.793  15.610  0.9297 -0.3615 -0.5709
  230MPD1    C1 3542   1.819   3.677  15.557 -0.9560 -0.0940  0.1723
  230MPD1    C2 3543   1.743   3.597  15.468  0.0357  0.4987 -0.0961
  230MPD1    C3 3544   1.627   3.645  15.416 -0.4639  0.3821 -0.0293
  230MPD1    C4 3545   1.570   3.755  15.471 -0.2127  0.2066 -0.7281
  230MPD1    C5 3546   1.634   3.826  15.570 -0.2950 -0.3101  0.3181
  230MPD1     H 3547   1.780   3.498  15.440  0.8408 -0.0505  2.9447
  230MPD1    H1 3548   1.480   3.806  15.437  0.3120  0.8763 -1.1330
  230MPD1    H2 3549   1.812   3.852  15.688  1.7504 -0.3325 -1.0796
  230MPD1    H3 3550   1.580   3.916  15.600  1.5064  0.5187  1.0633
  230MPD1     N 3551   1.572   3.567  15.311  0.3411 -0.3250 -0.3781
  230MPD1    H5 3552   1.639   3.501  15.272  2.1173  0.5602  1.2004
  230MPD1    N1 3553   1.937   3.632  15.609 -0.2996 -0.3838 -0.7774
  230MPD1    H6 3554   2.002   3.598  15.539  0.1869 -1.7696  0.3363
  230MPD1    H7 3555   1.986   3.701  15.665 -1.5516  0.5977 -0.8981
  231MPD1     C 3556   4.496   0.625  15.707 -0.0845  0.9372  0.6652
  231MPD1    C1 3557   4.557   0.540  15.617 -0.1385 -0.3302 -0.1152
  231MPD1    C2 3558   4.639   0.596  15.521  0.0182  0.3904 -0.4314
  231MPD1    C3 3559   4.683   0.728  15.530 -0.1027 -0.1816  0.0302
  231MPD1    C4 3560   4.628   0.812  15.629  0.0632 -0.7888 -0.3350
  231MPD1    C5 3561   4.535   0.752  15.711  0.1550 -1.0481  0.1516
  231MPD1     H 3562   4.687   0.531  15.450  1.2282  0.8853 -0.0580
  231MPD1    H1 3563   4.638   0.920  15.628 -1.1755 -0.6632  2.2266
  231MPD1    H2 3564   4.425   0.599  15.784 -2.2197  1.5217 -1.0698
  231MPD1    H3 3565   4.491   0.816  15.787  0.1721  1.1312 -1.6617
  231MPD1     N 3566   0.044   0.771  15.436 -0.2732 -0.2299 -0.2745
  231MPD1    H5 3567   0.068   0.698  15.371 -0.1181 -1.5080  1.2038
  231MPD1    N1 3568   4.506   0.409  15.603 -0.1111  0.2029  0.1549
  231MPD1    H6 3569   4.574   0.346  15.560  0.8905  0.2559  1.6776
  231MPD1    H7 3570   4.463   0.369  15.685 -0.7743  1.0421  0.2118
  232MPD1     C 3571   1.255   3.445   0.449  0.3208 -0.0008  0.2360
  232MPD1    C1 3572   1.126   3.496   0.435  0.1198  0.0978  0.0620
  232MPD1    C2 3573   1.049   3.437   0.331 -0.3987 -0.0878  1.2059
  232MPD1    C3 3574   1.096   3.336   0.252 -0.5607 -0.8894  0.1273
  232MPD1    C4 3575   1.202   3.268   0.299  0.3749 -0.3638 -0.1545
  232MPD1    C5 3576   1.287   3.328   0.392 -0.2250 -0.6220  0.1355
  232MPD1     H 3577   0.953   3.480   0.304  0.3930  1.0066  0.0994
  232MPD1    H1 3578   1.238   3.179   0.247  0.9567 -0.3075  0.1475
  232MPD1    H2 3579   1.325   3.487   0.520  0.9526  2.6179 -1.9414
  232MPD1    H3 3580   1.385   3.284   0.408  0.6991  1.8108  1.2022
  232MPD1     N 3581   1.022   3.301   0.133 -0.2556 -0.2721  0.1608
  232MPD1    H5 3582   0.953   3.371   0.107 -0.5249  0.0645  1.8261
  232MPD1    N1 3583   1.077   3.605   0.505  0.3969  0.4268  0.0920
  232MPD1    H6 3584   0.976   3.594   0.508  0.3680  0.9311  0.8414
  232MPD1    H7 3585   1.120   3.616   0.596  0.3982  1.7920 -0.0677
  233MPD1     C 3586   1.746   1.426   0.562 -0.5883 -0.1447  0.3774
  233MPD1    C1 3587   1.843   1.478   0.640 -0.2182 -0.3934 -0.0153
  233MPD1    C2 3588   1.948   1.391   0.682 -0.3082 -0.3741  0.9936
  233MPD1    C3 3589   1.938   1.251   0.658 -0.1435  0.1807 -0.2243
  233MPD1    C4 3590   1.829   1.208   0.588  0.2563  0.2081 -0.0260
  233MPD1    C5 3591   1.739   1.294   0.533 -0.6621 -0.2257 -0.3540
  233MPD1     H 3592   2.024   1.441   0.741  0.0395  1.6844 -1.1761
  233MPD1    H1 3593   1.813   1.108   0.550 -0.6500  0.7006 -0.9425
  233MPD1    H2 3594   1.669   1.489   0.520  0.4576 -0.1919 -1.6298
  233MPD1    H3 3595   1.660   1.256   0.469  1.3219 -1.4877 -2.0260
  233MPD1     N 3596   2.034   1.155   0.709  0.1045 -0.2586 -0.3726
  233MPD1    H5 3597   2.017   1.056   0.698  0.3460 -0.2390 -0.8917
  233MPD1    N1 3598   1.854   1.615   0.659 -0.7518 -0.4788 -0.7967
  233MPD1    H6 3599   1.899   1.648   0.744 -0.5268 -0.7901 -0.7969
  233MPD1    H7 3600   1.763   1.661   0.653 -1.1630 -0.8413  2.9876
  234MPD1     C 3601   0.371   0.523   9.552 -0.0187  0.3199  0.5051
  234MPD1    C1 3602   0.245   0.492   9.601  0.7101  0.5789 -0.1026
  234MPD1    C2 3603   0.149   0.591   9.601  0.3016 -0.6356  0.8685
  234MPD1    C3 3604   0.185   0.723   9.590  0.8845 -0.0655 -0.6495
  234MPD1    C4 3605   0.313   0.762   9.565 -0.0342 -0.7552 -0.0381
  234MPD1    C5 3606   0.410   0.658   9.546 -0.2490  0.4174  0.4786
  234MPD1     H 3607   0.046   0.563   9.617 -0.1041  0.0775 -0.5104
  234MPD1    H1 3608   0.338   0.865   9.543 -1.2315 -0.2933  0.8041
  234MPD1    H2 3609   0.452   0.456   9.526  0.9097  1.9174 -0.7086
  234MPD1    H3 3610   0.512   0.690   9.527  0.6541 -1.6760  1.8650
  234MPD1     N 3611   0.081   0.823   9.581  0.1158  0.3972 -0.4296
  234MPD1    H5 3612   4.720   0.794   9.597  0.5924 -0.5066  0.7977
  234MPD1    N1 3613   0.207   0.354   9.611  0.2423  0.0103 -0.5016
  234MPD1    H6 3614   0.122   0.336   9.664 -0.2188  3.9636  0.0804
  234MPD1    H7 3615   0.285   0.295   9.639 -0.2636 -0.6326 -0.4546
  235MPD1     C 3616   1.437   2.579  10.799  0.6102 -0.2044 -0.8204
  235MPD1    C1 3617   1.497   2.688  10.862 -0.3197  0.4819 -0.5448
  235MPD1    C2 3618   1.554   2.787  10.784  0.1934 -0.1233 -0.8108
  235MPD1    C3 3619   1.556   2.778  10.641  0.3621  0.3525 -0.7477
  235MPD1    C4 3620   1.498   2.664  10.585  0.4608 -0.3450  0.5242
  235MPD1    C5 3621   1.436   2.572  10.664 -0.0142 -0.3845  0.2604
  235MPD1     H 3622   1.591   2.875  10.833  1.2656 -0.0554 -1.7313
  235MPD1    H1 3623   1.501   2.642  10.479  0.1516 -1.2253  0.6990
  235MPD1    H2 3624   1.405   2.491  10.853  0.0558 -0.2628 -1.2444
  235MPD1    H3 3625   1.389   2.489  10.612 -0.8670 -0.6746  1.4919
  235MPD1     N 3626   1.622   2.876  10.568 -0.0711 -0.1156 -0.2787
  235MPD1    H5 3627   1.655   2.966  10.602  2.0476 -0.8328 -0.4425
  235MPD1    N1 3628   1.500   2.687  11.002  0.1225 -0.2686 -0.5010
  235MPD1    H6 3629   1.438   2.614  11.036  0.5370 -0.7600 -0.8003
  235MPD1    H7 3630   1.451   2.767  11.043 -1.9404 -1.4986 -0.6216
  236MPD1     C 3631   0.679   3.747  10.217 -0.9905 -0.3628  0.0497
  236MPD1    C1 3632   0.577   3.650  10.217  0.2158 -0.2028  0.3103
  236MPD1    C2 3633   0.609   3.532  10.267 -0.2664 -0.5622 -0.1388
  236MPD1    C3 3634   0.740   3.492  10.285 -0.1841 -0.0378 -0.2219
  236MPD1    C4 3635   0.843   3.584  10.267 -1.0792 -0.6852  0.3960
  236MPD1    C5 3636   0.809   3.714  10.245 -0.2973  0.0968  0.2957
  236MPD1     H 3637   0.528   3.465  10.295 -0.7780  1.1144  2.2893
  236MPD1    H1 3638   0.950   3.564  10.272 -0.3075  3.2569 -0.7894
  236MPD1    H2 3639   0.653   3.849  10.192 -2.5270 -0.9607 -0.7948
  236MPD1    H3 3640   0.894   3.780  10.232 -0.9134  0.6622 -0.8001
  236MPD1     N 3641   0.779   3.373  10.346 -0.2646  0.4095  0.5422
  236MPD1    H5 3642   0.877   3.369  10.371  0.3219 -0.6999 -1.9070
  236MPD1    N1 3643   0.443   3.690  10.220  0.5152 -0.0341  0.1864
  236MPD1    H6 3644   0.388   3.613  10.183  0.3670  0.5435 -0.7898
  236MPD1    H7 3645   0.432   3.760  10.147 -2.0273  0.3364  0.9216
  237MPD1     C 3646   0.205   1.732  15.227  0.1772 -0.0641  0.2229
  237MPD1    C1 3647   0.172   1.807  15.338  0.4077  0.4621 -1.2273
  237MPD1    C2 3648   0.038   1.799  15.371 -0.3457 -0.0344 -1.2482
  237MPD1    C3 3649   4.674   1.734  15.298  0.4230 -0.1806  0.0451
  237MPD1    C4 3650   4.715   1.656  15.203 -0.2513 -0.1525  0.5968
  237MPD1    C5 3651   0.113   1.653  15.167 -0.1076 -0.3010  0.3797
  237MPD1     H 3652   0.008   1.853  15.460 -1.9769 -3.1540  0.0772
  237MPD1    H1 3653   4.643   1.596  15.147  0.2620  0.1019 -0.3353
  237MPD1    H2 3654   0.311   1.723  15.205  0.0890 -0.3269 -0.0901
  237MPD1    H3 3655   0.154   1.584  15.094 -1.5522  0.3497 -1.0473
  237MPD1     N 3656   4.538   1.736  15.338  0.2048 -0.1743 -0.1261
  237MPD1    H5 3657   4.480   1.679  15.277 -2.0269  0.9399  0.9296
  237MPD1    N1 3658   0.265   1.855  15.438 -0.5915 -0.3248  0.0536
  237MPD1    H6 3659   0.357   1.880  15.401 -0.0054 -1.4918  0.6958
  237MPD1    H7 3660   0.225   1.936  15.485  0.6834 -0.1525  0.8526
  238MPD1     C 3661   1.756   0.794  15.053  0.2944 -0.3280 -1.0801
  238MPD1    C1 3662   1.687   0.882  15.127 -0.1844 -0.0967 -0.0971
  238MPD1    C2 3663   1.571   0.841  15.187  0.1972 -0.3950  0.5724
  238MPD1    C3 3664   1.522   0.715  15.166 -0.3897 -0.2281 -0.1407
  238MPD1    C4 3665   1.589   0.630  15.085  0.5562  0.2662  0.0683
  238MPD1    C5 3666   1.708   0.672  15.027  0.1256  0.2568 -0.6156
  238MPD1     H 3667   1.514   0.917  15.240  0.1934 -2.7565  3.9945
  238MPD1    H1 3668   1.551   0.532  15.060  3.7909 -1.3325  1.4201
  238MPD1    H2 3669   1.850   0.824  15.007  0.4603 -2.0052 -1.8226
  238MPD1    H3 3670   1.768   0.616  14.957 -1.5788 -0.3645 -1.5801
  238MPD1     N 3671   1.396   0.672  15.207 -0.0489 -0.2080 -0.0213
  238MPD1    H5 3672   1.373   0.579  15.174  1.7044 -0.0919 -1.5484
  238MPD1    N1 3673   1.753   0.994  15.166 -0.0103 -0.4152 -0.0027
  238MPD1    H6 3674   1.679   1.064  15.168  2.1148  1.7561  3.0478
  238MPD1    H7 3675   1.831   1.024  15.108  1.0170 -1.6696  0.7287
  239MPD1     C 3676   1.752   1.142  14.834  0.0535 -0.7923 -0.3094
  239MPD1    C1 3677   1.804   1.269  14.812  0.2145 -0.3184  0.1005
  239MPD1    C2 3678   1.769   1.338  14.692  0.0572 -0.4618 -0.0672
  239MPD1    C3 3679   1.702   1.288  14.589 -0.4741 -0.2445 -0.0170
  239MPD1    C4 3680   1.660   1.163  14.607 -0.4419 -0.4236 -0.6925
  239MPD1    C5 3681   1.690   1.088  14.724  0.3452 -0.2674  0.3218
  239MPD1     H 3682   1.801   1.441  14.687  0.3535 -0.4539  1.9610
  239MPD1    H1 3683   1.613   1.107  14.527  0.6679 -0.1410 -1.5391
  239MPD1    H2 3684   1.772   1.087  14.925  0.6886  0.9261  0.5726
  239MPD1    H3 3685   1.668   0.982  14.716 -1.1183  0.0344  0.4307
  239MPD1     N 3686   1.681   1.355  14.463 -0.1247  0.1002  0.3608
  239MPD1    H5 3687   1.609   1.316  14.404  0.1180 -1.4051  1.0325
  239MPD1    N1 3688   1.875   1.325  14.915 -0.2310  0.2618 -0.5909
  239MPD1    H6 3689   1.962   1.358  14.874  0.2070 -1.2346 -0.8869
  239MPD1    H7 3690   1.910   1.250  14.974  1.4013  0.0531 -1.8388
  240MPD1     C 3691   1.204   1.478  14.020  0.2792 -0.8699  0.0464
  240MPD1    C1 3692   1.205   1.344  13.993 -0.1529  0.5625 -0.2068
  240MPD1    C2 3693   1.159   1.252  14.093  0.7727 -0.6844 -0.3810
  240MPD1    C3 3694   1.111   1.306  14.218  0.4820  0.5071  0.7606
  240MPD1    C4 3695   1.122   1.441  14.240  0.2590  0.6355  0.0244
  240MPD1    C5 3696   1.156   1.524  14.136 -0.1943 -0.6258  0.1417
  240MPD1     H 3697   1.146   1.147  14.068 -1.4833 -0.1112 -1.5997
  240MPD1    H1 3698   1.094   1.486  14.335  1.1184 -0.5767  0.8528
  240MPD1    H2 3699   1.232   1.544  13.939 -0.0960  0.1777  0.7798
  240MPD1    H3 3700   1.156   1.632  14.149  1.5023 -0.0973 -4.1068
  240MPD1     N 3701   1.071   1.217  14.318 -0.0130 -0.3974  0.2505
  240MPD1    H5 3702   1.063   1.121  14.287  0.2906 -0.5077  0.5137
  240MPD1    N1 3703   1.228   1.306  13.860 -0.3063 -0.7847  0.4027
  240MPD1    H6 3704   1.256   1.209  13.848  0.7977 -0.2914 -1.0350
  240MPD1    H7 3705   1.300   1.365  13.818 -2.3007  1.5247  0.2462
  241MPD1     C 3706   1.129   1.350  15.318  0.1426 -0.0573  0.2173
  241MPD1    C1 3707   1.118   1.211  15.303  0.1226  0.3089 -0.0163
  241MPD1    C2 3708   1.109   1.155  15.174  0.2779  0.0403 -0.0941
  241MPD1    C3 3709   1.122   1.231  15.065 -0.0181 -0.0238 -0.1451
  241MPD1    C4 3710   1.143   1.369  15.089  0.6351  0.7034  0.6070
  241MPD1    C5 3711   1.146   1.428  15.210 -0.8588  0.3736 -0.6426
  241MPD1     H 3712   1.090   1.049  15.169 -0.9476  0.1553  1.8547
  241MPD1    H1 3713   1.161   1.439  15.008  1.8913  1.3256  1.4181
  241MPD1    H2 3714   1.122   1.389  15.419  1.6060  1.8775 -0.4331
  241MPD1    H3 3715   1.160   1.535  15.211  0.9351  0.0845  3.3042
  241MPD1     N 3716   1.104   1.190  14.930  0.4049 -0.1286  0.4934
  241MPD1    H5 3717   1.113   1.267  14.865 -0.0865 -1.3052 -0.9671
  241MPD1    N1 3718   1.080   1.136  15.414 -0.7552  0.2414 -0.9374
  241MPD1    H6 3719   1.079   1.035  15.398  1.3414 -0.0736  0.8827
  241MPD1    H7 3720   1.124   1.167  15.500 -0.2647 -0.7036 -0.8458
  242MPD1     C 3721   0.927   3.315  15.861 -0.2528 -0.1533 -0.3149
  242MPD1    C1 3722   0.797   3.351  15.840 -0.0187  0.8576 -0.5469
  242MPD1    C2 3723   0.773   3.466  15.769  0.3433  0.4057  0.1933
  242MPD1    C3 3724   0.874   3.555  15.731 -0.6654 -0.0444 -0.4808
  242MPD1    C4 3725   1.002   3.526  15.768  0.9847  0.8920 -0.8084
  242MPD1    C5 3726   1.027   3.409  15.839 -0.8229 -0.9456  0.0846
  242MPD1     H 3727   0.678   3.460  15.716 -0.7393  1.7500  1.9779
  242MPD1    H1 3728   1.085   3.596  15.758  1.8401  0.2925  2.0584
  242MPD1    H2 3729   0.953   3.224  15.914  0.0739  2.0254  3.2287
  242MPD1    H3 3730   1.127   3.376  15.864  0.5225  2.0249 -1.3125
  242MPD1     N 3731   0.856   3.659  15.644 -0.1182 -0.0250  0.5206
  242MPD1    H5 3732   0.938   3.708  15.609  1.1555  0.6724  4.4956
  242MPD1    N1 3733   0.698   3.251  15.862 -0.0168 -0.5966 -0.0375
  242MPD1    H6 3734   0.610   3.287  15.897  0.4927 -0.8224  1.4815
  242MPD1    H7 3735   0.729   3.179  15.927 -2.2901 -1.8700 -0.3595
  243MPD1     C 3736   3.248   3.263  16.765  0.1653 -0.1833 -0.0232
  243MPD1    C1 3737   3.202   3.182  16.667 -0.2112 -0.5385  0.4431
  243MPD1    C2 3738   3.096   3.103  16.692 -0.0117  0.4598 -0.6713
  243MPD1    C3 3739   3.040   3.091  16.823 -0.4782 -0.2659  0.1268
  243MPD1    C4 3740   3.096   3.175  16.919  0.2450 -0.0372  0.7390
  243MPD1    C5 3741   3.199   3.260  16.891 -0.5044  0.3708  0.2560
  243MPD1     H 3742   3.050   3.042  16.615 -0.5316 -1.4576  1.1438
  243MPD1    H1 3743   3.065   3.174  17.023 -0.9906  1.4425  0.3734
  243MPD1    H2 3744   3.332   3.329  16.751 -0.1983  0.1650 -0.5378
  243MPD1    H3 3745   3.236   3.328  16.967 -1.1580  2.1480 -1.0172
  243MPD1     N 3746   2.929   3.004  16.847  0.0275  0.3538 -0.0942
  243MPD1    H5 3747   2.888   2.950  16.772  0.6279  0.8234 -0.7516
  243MPD1    N1 3748   3.259   3.191  16.540  0.3914  0.4526 -0.2762
  243MPD1    H6 3749   3.356   3.223  16.531  0.7624 -0.5267  0.2606
  243MPD1    H7 3750   3.248   3.108  16.481  3.1915  0.1940 -0.4742
  244MPD1     C 3751   2.042   2.828  17.314  0.1637 -0.1952 -0.3378
  244MPD1    C1 3752   2.101   2.952  17.292  0.3041  0.2130 -0.6449
  244MPD1    C2 3753   2.234   2.960  17.257  0.7207 -0.1259  0.4035
  244MPD1    C3 3754   2.305   2.842  17.241  0.6774  0.3733  0.4404
  244MPD1    C4 3755   2.250   2.723  17.290  0.0962 -0.2982  0.2945
  244MPD1    C5 3756   2.115   2.715  17.321  0.8706  0.2032  0.9152
  244MPD1     H 3757   2.282   3.053  17.228  0.6779  0.6215  2.6747
  244MPD1    H1 3758   2.295   2.624  17.287  0.3081 -0.1220 -2.9494
  244MPD1    H2 3759   1.940   2.837  17.349  0.3918  0.9477  0.0314
  244MPD1    H3 3760   2.068   2.620  17.341  1.6897 -0.5979 -1.0401
  244MPD1     N 3761   2.430   2.846  17.179  0.2011  0.0866 -0.7749
  244MPD1    H5 3762   2.457   2.933  17.134  0.6673  0.5097  0.3317
  244MPD1    N1 3763   2.028   3.069  17.300  0.3865 -0.2691 -0.2507
  244MPD1    H6 3764   1.937   3.068  17.345  0.3156 -0.6627 -0.4054
  244MPD1    H7 3765   2.076   3.158  17.316  1.3842 -1.0613  1.0907
  245MPD1     C 3766   4.470   3.325  13.015 -0.3259  0.0378  0.6639
  245MPD1    C1 3767   4.350   3.357  13.067 -0.3112 -0.1540  0.4812
  245MPD1    C2 3768   4.347   3.456  13.164 -0.3299 -1.0263 -0.5962
  245MPD1    C3 3769   4.462   3.509  13.213 -0.6701  0.2374  0.1519
  245MPD1    C4 3770   4.581   3.472  13.162  0.3039 -0.2174 -0.7884
  245MPD1    C5 3771   4.586   3.371  13.063 -0.1602  0.3456 -0.6609
  245MPD1     H 3772   4.252   3.503  13.188 -0.5957 -2.3784  0.9750
  245MPD1    H1 3773   4.674   3.520  13.188 -0.5212  0.8191  0.2436
  245MPD1    H2 3774   4.480   3.261  12.928  2.8932  1.5379 -0.0452
  245MPD1    H3 3775   4.683   3.329  13.041 -0.4187 -0.5089 -0.1501
  245MPD1     N 3776   4.453   3.604  13.313 -0.4651  0.2766 -0.4620
  245MPD1    H5 3777   4.365   3.645  13.342 -0.0220  0.7757  0.1722
  245MPD1    N1 3778   4.229   3.316  13.005 -0.0786  0.2966 -0.3655
  245MPD1    H6 3779   4.245   3.234  12.947  0.4315 -0.0409  0.2580
  245MPD1    H7 3780   4.151   3.290  13.065  0.0567 -0.0933 -0.3561
  246MPD1     C 3781   0.586   0.026   7.896 -0.3539  0.1913 -0.3114
  246MPD1    C1 3782   0.466   0.004   7.840 -0.1593  0.3003  0.0854
  246MPD1    C2 3783   0.389   4.635   7.885  0.2775 -0.1402 -0.3475
  246MPD1    C3 3784   0.430   4.552   7.989  0.0578  0.0515  0.2999
  246MPD1    C4 3785   0.558   4.573   8.043  0.2425  0.7656  0.2965
  246MPD1    C5 3786   0.633   4.675   7.991 -0.4192 -0.1233 -1.0654
  246MPD1     H 3787   0.290   4.644   7.841  0.3851 -1.9942 -0.9478
  246MPD1    H1 3788   0.587   4.533   8.140  0.7004  0.2164 -0.0684
  246MPD1    H2 3789   0.658   0.101   7.866  0.5186 -0.0519  1.1574
  246MPD1    H3 3790   0.726   4.694   8.043 -0.8566  0.0704 -0.3491
  246MPD1     N 3791   0.340   4.458   8.043  0.2535 -0.4512 -0.1512
  246MPD1    H5 3792   0.246   4.475   8.010  0.6892  1.6896 -0.2649
  246MPD1    N1 3793   0.428   0.080   7.726 -0.1424  0.2207 -0.2930
  246MPD1    H6 3794   0.327   0.090   7.720  0.0272  0.0187 -3.2185
  246MPD1    H7 3795   0.461   0.176   7.721 -1.2729  0.6215 -0.1943
  247MPD1     C 3796   3.134   3.945  15.551  0.1131 -0.3854 -0.1879
  247MPD1    C1 3797   3.083   3.817  15.529 -0.1713 -0.1536  0.0117
  247MPD1    C2 3798   3.130   3.714  15.610 -0.1607 -0.1851 -0.1003
  247MPD1    C3 3799   3.238   3.733  15.706  0.0909  0.1137 -0.4199
  247MPD1    C4 3800   3.298   3.858  15.706 -0.7461  0.4067 -0.0511
  247MPD1    C5 3801   3.250   3.955  15.623  0.2530  0.2804 -0.0438
  247MPD1     H 3802   3.090   3.614  15.594 -1.4604 -0.0643  2.3891
  247MPD1    H1 3803   3.389   3.872  15.763 -2.0105  1.3861  1.7121
  247MPD1    H2 3804   3.105   4.031  15.493  1.5038 -0.9016 -1.6253
  247MPD1    H3 3805   3.294   4.054  15.624  0.3091  0.2579 -0.3483
  247MPD1     N 3806   3.295   3.630  15.790 -0.2934  0.0559  0.3900
  247MPD1    H5 3807   3.372   3.654  15.852 -0.8536  1.9220  0.3499
  247MPD1    N1 3808   2.971   3.808  15.440 -0.1084  0.1258  0.1233
  247MPD1    H6 3809   2.948   3.714  15.408 -2.5805  0.2744  1.4537
  247MPD1    H7 3810   2.969   3.872  15.362 -0.3595  0.7341  0.6275
  248MPD1     C 3811   3.694   1.997  17.148 -0.5864 -0.4758  0.2806
  248MPD1    C1 3812   3.682   2.132  17.176 -0.1709  0.0813  0.4239
  248MPD1    C2 3813   3.719   2.181  17.299  0.0736  0.0506  0.3062
  248MPD1    C3 3814   3.743   2.095  17.409  0.3472  0.0211  0.6957
  248MPD1    C4 3815   3.735   1.958  17.386 -0.2193 -0.1124 -0.2328
  248MPD1    C5 3816   3.717   1.917  17.254  0.5532  0.2598 -0.4179
  248MPD1     H 3817   3.715   2.287  17.318  0.5125  0.2934 -0.9860
  248MPD1    H1 3818   3.749   1.881  17.461 -0.7859  0.3380  0.3344
  248MPD1    H2 3819   3.674   1.953  17.051  0.7555  0.6806 -0.5121
  248MPD1    H3 3820   3.713   1.809  17.244 -0.6187  0.1287  1.4941
  248MPD1     N 3821   3.747   2.148  17.546  0.2637 -0.8080 -0.5336
  248MPD1    H5 3822   3.740   2.248  17.559  2.2350 -0.6803 -0.4161
  248MPD1    N1 3823   3.643   2.221  17.076  0.0714 -0.1818  0.5009
  248MPD1    H6 3824   3.572   2.289  17.104 -1.4116 -1.0730 -1.1175
  248MPD1    H7 3825   3.598   2.170  17.000 -3.5867 -0.2365  2.7229
  249MPD1     C 3826   1.273   1.353  10.549  0.5154 -0.5080 -0.6237
  249MPD1    C1 3827   1.342   1.447  10.625 -0.0072  0.5114  0.6271
  249MPD1    C2 3828   1.395   1.555  10.567 -0.5349  0.0446 -0.6832
  249MPD1    C3 3829   1.385   1.577  10.432  0.4977 -0.9215  0.2988
  249MPD1    C4 3830   1.321   1.477  10.356  0.0256 -0.2945  0.4263
  249MPD1    C5 3831   1.264   1.368  10.415 -0.4083  0.5534 -0.0219
  249MPD1     H 3832   1.445   1.623  10.634 -0.2755 -1.2850  0.4816
  249MPD1    H1 3833   1.317   1.489  10.249 -1.6338 -2.8404  0.1917
  249MPD1    H2 3834   1.223   1.267  10.592  0.6457 -0.0396  0.4496
  249MPD1    H3 3835   1.208   1.295  10.358 -0.7380  1.7115 -1.1927
  249MPD1     N 3836   1.431   1.695  10.375  1.0660 -0.2159 -0.1442
  249MPD1    H5 3837   1.490   1.749  10.437 -0.6388  1.3670  0.1209
  249MPD1    N1 3838   1.359   1.416  10.758 -0.0915 -0.0058  0.3780
  249MPD1    H6 3839   1.343   1.501  10.811 -2.4194 -0.6369  0.7057
  249MPD1    H7 3840   1.278   1.361  10.786  1.1079 -1.5794  0.7912
  250MPD2     C 3841   3.176   1.719  13.012 -0.0465  0.3480 -0.8310
  250MPD2    C1 3842   3.065   1.800  12.968  0.1093  0.2394 -0.3475
  250MPD2    C2 3843   2.970   1.742  12.888 -0.3975 -0.0035  0.2014
  250MPD2    C3 3844   2.984   1.613  12.839 -0.1881  0.0923 -0.1807
  250MPD2    C4 3845   3.095   1.538  12.883  0.0001 -0.5796  0.2011
  250MPD2    C5 3846   3.189   1.594  12.961  0.5096 -0.0305 -0.2761
  250MPD2     H 3847   2.898   1.808  12.841 -1.3251 -0.5662  0.8368
  250MPD2    H1 3848   3.114   1.438  12.845 -2.5183 -0.7032 -0.7313
  250MPD2    H2 3849   3.254   1.763  13.073 -0.8309 -1.0766  1.1904
  250MPD2    H3 3850   3.277   1.538  12.989 -0.2756 -2.0633 -1.8521
  250MPD2     N 3851   2.891   1.545  12.754 -0.4441 -0.2032  0.1201
  250MPD2    H5 3852   2.925   1.455  12.719 -0.8684  0.1477 -1.2191
  250MPD2    N1 3853   3.049   1.933  13.019 -0.4775  0.6517 -0.2346
  250MPD2    H7 3854   3.132   1.966  13.067 -1.0730 -0.6941  1.6969
  251TMC3    C1 3855   2.990   2.160  13.011 -0.1005 -0.4711 -0.5972
  251TMC3    C2 3856   2.889   2.255  12.998 -0.2063 -0.0712 -0.3977
  251TMC3    C3 3857   2.912   2.390  12.989  0.4771 -0.0570 -0.4428
  251TMC3    C4 3858   3.118   2.211  13.008 -0.2531  0.2945 -0.8217
  251TMC3    C5 3859   3.134   2.349  12.997  0.2417 -0.4097 -0.1454
  251TMC3    C6 3860   3.035   2.444  12.999  0.8764  0.0513 -0.4713
  251TMC3     C 3861   2.942   2.017  13.009 -0.1874 -0.0603  0.3050
  251TMC3     O 3862   2.828   1.992  12.978  0.3479 -0.1855 -0.1975
  251TMC3     H 3863   2.786   2.226  13.017 -0.1866 -1.2558 -2.0951
  251TMC3    H1 3864   3.202   2.143  13.006  1.2437  2.1518 -0.8036
  251TMC3    H2 3865   3.057   2.548  12.978 -3.2810  1.4558  2.1257
  251TMC3    C7 3866   3.272   2.399  13.015 -0.0416 -0.5815  0.6172
  251TMC3    C8 3867   2.789   2.478  12.997  0.3097  0.1427 -0.3399
  251TMC3    O1 3868   3.368   2.331  12.981 -0.4090  0.3690 -0.1898
  251TMC3    O2 3869   2.684   2.431  12.956 -0.2887 -0.0409 -0.0538
  252TMC3    C1 3870   3.083   3.767   9.329 -0.2004  0.3975 -0.1374
  252TMC3    C2 3871   3.215   3.763   9.328 -0.1091 -0.1893 -0.6370
  252TMC3    C3 3872   3.271   3.689   9.427 -0.0970 -0.0961  0.2730
  252TMC3    C4 3873   3.002   3.691   9.407  0.0081  0.4146  0.5822
  252TMC3    C5 3874   3.067   3.612   9.507  1.0114  0.5423 -0.1553
  252TMC3    C6 3875   3.205   3.607   9.512 -0.3557 -0.0287 -0.1060
  252TMC3     C 3876   3.019   3.838   9.222  0.2073  0.6157  0.5693
  252TMC3     O 3877   3.089   3.866   9.126 -0.1626 -0.4152  0.2570
  252TMC3     H 3878   3.280   3.820   9.262  0.4233  0.7748  0.7165
  252TMC3    H1 3879   2.893   3.697   9.413 -0.0093  1.0201 -0.2932
  252TMC3    H2 3880   3.252   3.533   9.576 -0.7567 -0.3520 -0.1824
  252TMC3    C7 3881   2.988   3.533   9.589 -0.2968  0.4399  0.9066
  252TMC3    C8 3882   3.415   3.677   9.426  0.0025 -0.1201 -1.1009
  252TMC3    O1 3883   2.876   3.507   9.543  0.4049 -0.7987 -0.7389
  252TMC3    O2 3884   3.475   3.704   9.318  0.8607 -1.2846  0.2140
  253MPD2     C 3885   4.292   2.056  15.093 -0.2583  0.1832  0.3359
  253MPD2    C1 3886   4.161   2.055  15.134  0.2625  0.1663  0.2860
  253MPD2    C2 3887   4.132   2.085  15.268 -0.0340  1.0020  0.1893
  253MPD2    C3 3888   4.233   2.115  15.363  0.9458 -0.0198  0.9167
  253MPD2    C4 3889   4.365   2.117  15.320 -0.7304 -0.1986  0.4964
  253MPD2    C5 3890   4.387   2.079  15.188  0.2558 -0.3470 -0.2210
  253MPD2     H 3891   4.029   2.095  15.299  0.2991  1.2919  1.1844
  253MPD2    H1 3892   4.448   2.150  15.381  0.8940 -2.3478 -0.5835
  253MPD2    H2 3893   4.325   2.045  14.990 -2.0319 -0.3635 -0.1728
  253MPD2    H3 3894   4.489   2.097  15.156  0.6378 -0.6382  0.8170
  253MPD2     N 3895   4.213   2.168  15.495 -0.6550 -0.2733  0.0639
  253MPD2    H5 3896   4.298   2.179  15.550 -0.0763 -3.9463 -0.1330
  253MPD2    N1 3897   4.051   2.052  15.048  0.1706  0.3728 -0.2527
  253MPD2    H7 3898   3.956   2.052  15.084  0.3894 -2.0297  0.3879
  254TMC3    C1 3899   4.085   2.236  15.686  0.0356 -0.6049 -0.1379
  254TMC3    C2 3900   3.971   2.297  15.727  0.3561  0.0906 -0.0881
  254TMC3    C3 3901   3.951   2.310  15.862 -0.8328 -0.7954  0.2426
  254TMC3    C4 3902   4.177   2.178  15.771  0.0446 -0.0300 -0.5575
  254TMC3    C5 3903   4.153   2.201  15.899 -0.1076 -0.4227  0.3495
  254TMC3    C6 3904   4.039   2.254  15.955  0.8439 -0.1059 -0.2951
  254TMC3     C 3905   4.085   2.204  15.549  0.2636 -0.5596 -0.2715
  254TMC3     O 3906   3.976   2.213  15.495  0.5023 -0.8083  0.1476
  254TMC3     H 3907   3.920   2.357  15.652  0.5540  0.6292  0.2072
  254TMC3    H1 3908   4.251   2.104  15.745  0.2695  0.4128 -1.1904
  254TMC3    H2 3909   4.021   2.246  16.062 -2.1431  1.4065 -0.6713
  254TMC3    C7 3910   4.231   2.119  15.984 -0.5808  0.1424 -0.2401
  254TMC3    C8 3911   3.828   2.356  15.917  0.8438 -0.5895  0.2455
  254TMC3    O1 3912   4.181   2.047  16.066  0.1519  0.4669 -0.2853
  254TMC3    O2 3913   3.812   2.323  16.033  0.5367 -0.2038 -0.1092
  255MPD2     C 3914   2.518   4.378  10.053  0.0619  0.7585 -0.0957
  255MPD2    C1 3915   2.650   4.403  10.081 -0.0084  0.5936  0.0421
  255MPD2    C2 3916   2.736   4.457   9.983 -0.2072  0.1689 -0.6326
  255MPD2    C3 3917   2.677   4.513   9.871 -0.0854 -0.1818 -0.5363
  255MPD2    C4 3918   2.539   4.497   9.850 -0.5981 -0.2943  0.4560
  255MPD2    C5 3919   2.463   4.429   9.940 -0.7086 -0.0991  0.2457
  255MPD2     H 3920   2.844   4.456   9.995 -0.0574 -0.1720 -1.9911
  255MPD2    H1 3921   2.484   4.528   9.762  0.1083  1.6224  0.6890
  255MPD2    H2 3922   2.458   4.310  10.112  0.1416  0.4134 -0.4061
  255MPD2    H3 3923   2.362   4.399   9.916 -0.8095 -0.0675  0.6398
  255MPD2     N 3924   2.763   4.593   9.786  0.0992  0.1002 -0.4613
  255MPD2    H5 3925   2.858   4.607   9.819  0.1313 -0.2353 -0.4125
  255MPD2    N1 3926   2.703   4.358  10.208  0.2476  0.8769  0.5629
  255MPD2    H7 3927   2.641   4.308  10.271  2.8225 -1.7039  1.0656
  256TMC3    C1 3928   2.827   4.356  10.394 -1.2078 -0.3249  0.4207
  256TMC3    C2 3929   2.872   4.461  10.466 -0.3758  0.2921  0.3417
  256TMC3    C3 3930   2.796   4.506  10.571  0.1562  0.4284  0.0832
  256TMC3    C4 3931   2.716   4.281  10.436  0.8682 -0.6082  0.1786
  256TMC3    C5 3932   2.652   4.319  10.547 -0.1284  0.5285  0.4736
  256TMC3    C6 3933   2.687   4.432  10.620 -0.2892 -0.1225  0.4014
  256TMC3     C 3934   2.832   4.385  10.253  1.0966 -0.3140 -0.5852
  256TMC3     O 3935   2.929   4.449  10.212 -0.1205  0.7267 -0.6174
  256TMC3     H 3936   2.957   4.522  10.438 -1.1209  1.5831  0.9331
  256TMC3    H1 3937   2.684   4.195  10.379  0.4755  0.3358 -1.0247
  256TMC3    H2 3938   2.626   4.464  10.704 -0.0715  2.4093 -0.4011
  256TMC3    C7 3939   2.513   4.317  10.530 -0.6219  0.3587  0.0312
  256TMC3    C8 3940   2.822   4.631  10.628  0.0150  0.4649  0.5105
  256TMC3    O1 3941   2.464   4.372  10.427 -0.2888 -0.0160  0.2195
  256TMC3    O2 3942   2.795   4.649  10.742  0.2497 -0.4171 -0.2484
  257MPD2     C 3943   1.339   2.214  13.069  0.6077  0.3859 -0.1325
  257MPD2    C1 3944   1.418   2.125  13.005 -0.4648 -0.1432  0.3964
  257MPD2    C2 3945   1.429   1.993  13.054  0.4500 -0.2337 -0.0083
  257MPD2    C3 3946   1.363   1.948  13.164 -0.4721 -0.1971 -0.0876
  257MPD2    C4 3947   1.275   2.039  13.226  0.6185  0.4064 -0.4997
  257MPD2    C5 3948   1.267   2.170  13.181  0.1238  0.4921 -0.5297
  257MPD2     H 3949   1.489   1.916  13.008 -1.6918 -1.0573 -1.4296
  257MPD2    H1 3950   1.209   2.010  13.307  1.6994  1.3185  0.7191
  257MPD2    H2 3951   1.325   2.315  13.031  0.7277 -0.4357 -2.3730
  257MPD2    H3 3952   1.197   2.237  13.229 -0.8643  0.4020 -1.8520
  257MPD2     N 3953   1.390   1.815  13.206 -0.1088 -0.6536  0.5692
  257MPD2    H5 3954   1.449   1.759  13.146 -1.2739 -1.1831 -0.0764
  257MPD2    N1 3955   1.481   2.161  12.885 -0.5903 -0.0869  0.3475
  257MPD2    H7 3956   1.496   2.260  12.863  1.9649 -0.5104  0.1610
  258TMC3    C1 3957   1.417   1.636  13.362 -0.1082  0.2894 -0.5510
  258TMC3    C2 3958   1.463   1.557  13.260 -0.1945  0.0336  0.0554
  258TMC3    C3 3959   1.544   1.448  13.286  0.5061  0.0815 -0.2397
  258TMC3    C4 3960   1.438   1.598  13.490  0.2835 -0.6003  0.8312
  258TMC3    C5 3961   1.512   1.489  13.515  0.5531 -0.4398 -0.0234
  258TMC3    C6 3962   1.563   1.409  13.417 -1.0194  0.1895  0.4862
  258TMC3     C 3963   1.351   1.764  13.325  0.5551  0.6399 -0.2491
  258TMC3     O 3964   1.277   1.813  13.408 -0.0501 -0.1437 -0.0326
  258TMC3     H 3965   1.428   1.569  13.158  2.5274  0.5582 -0.8055
  258TMC3    H1 3966   1.403   1.660  13.571  0.4859 -1.0612  1.2723
  258TMC3    H2 3967   1.597   1.309  13.443 -1.4175 -0.4622 -1.4769
  258TMC3    C7 3968   1.515   1.440  13.650 -0.5159  0.6169  1.1690
  258TMC3    C8 3969   1.603   1.393  13.170 -0.1474 -0.4094  0.5700
  258TMC3    O1 3970   1.416   1.473  13.720  0.2354 -0.5574 -0.6341
  258TMC3    O2 3971   1.556   1.417  13.062 -0.3126 -0.0842  0.3820
  259MPD2     C 3972   0.581   3.914   0.857 -0.7895 -0.0557 -0.3227
  259MPD2    C1 3973   0.532   3.794   0.821  0.2883  0.0273  0.6927
  259MPD2    C2 3974   0.490   3.771   0.694 -0.8547 -0.0553  0.4590
  259MPD2    C3 3975   0.451   3.872   0.607 -0.2596  0.3415 -0.3423
  259MPD2    C4 3976   0.471   4.003   0.654 -0.3857 -0.1302 -0.3263
  259MPD2    C5 3977   0.543   4.019   0.775 -0.1421  0.1957 -0.6319
  259MPD2     H 3978   0.458   3.670   0.674  2.9563 -1.1724  0.1509
  259MPD2    H1 3979   0.424   4.088   0.607 -0.1949 -0.0549 -0.3831
  259MPD2    H2 3980   0.617   3.928   0.958 -3.0270  1.3016  0.2948
  259MPD2    H3 3981   0.567   4.120   0.804  2.8999 -0.8122  0.3434
  259MPD2     N 3982   0.393   3.845   0.482  0.3779 -0.8355  0.7597
  259MPD2    H5 3983   0.376   3.746   0.472  0.7379 -0.7892 -0.2991
  259MPD2    N1 3984   0.531   3.690   0.916  0.5608 -0.0777 -0.3482
  259MPD2    H7 3985   0.584   3.702   1.002 -1.2221  2.7285  0.3599
  260TMC3    C1 3986   0.276   3.872   0.271  0.3705  0.1325  0.1848
  260TMC3    C2 3987   0.281   3.942   0.151  0.3375 -0.4174 -0.2156
  260TMC3    C3 3988   0.277   3.868   0.035  0.1148 -0.3826 -0.0557
  260TMC3    C4 3989   0.255   3.742   0.272  0.1707  0.1946 -0.9606
  260TMC3    C5 3990   0.227   3.677   0.154  0.1622  0.0967 -0.1608
  260TMC3    C6 3991   0.242   3.734   0.035 -0.7638  0.1203  0.5016
  260TMC3     C 3992   0.338   3.929   0.388  0.6565  0.2054  0.2889
  260TMC3     O 3993   0.348   4.052   0.377  0.4947  0.1520  0.1075
  260TMC3     H 3994   0.331   4.038   0.156 -0.1110 -0.1973  0.0494
  260TMC3    H1 3995   0.247   3.691   0.368 -1.8535  1.4552 -0.4513
  260TMC3    H2 3996   0.202   3.688  17.685  0.1297  1.3865 -0.5524
  260TMC3    C7 3997   0.229   3.535   0.143 -0.4826 -0.1559 -1.2116
  260TMC3    C8 3998   0.379   3.896  17.674 -0.5274  0.1315 -0.1318
  260TMC3    O1 3999   0.264   3.490   0.036  0.3579  0.4479  0.3374
  260TMC3    O2 4000   0.427   4.010  17.676  0.2093  0.0489  0.0248
  261MPD2     C 4001   2.234   1.719  12.240  0.0069  0.0722 -0.7372
  261MPD2    C1 4002   2.348   1.769  12.299  0.6729 -0.1199  0.7278
  261MPD2    C2 4003   2.366   1.908  12.303  0.5239  0.2298 -0.4287
  261MPD2    C3 4004   2.275   1.996  12.241 -1.0091 -0.0481  0.8017
  261MPD2    C4 4005   2.174   1.940  12.168 -0.5431 -0.0510 -0.1522
  261MPD2    C5 4006   2.151   1.803  12.170 -0.1425 -0.1249  0.0388
  261MPD2     H 4007   2.454   1.951  12.349 -0.0926  2.0543 -0.9708
  261MPD2    H1 4008   2.101   2.002  12.117  0.9086  1.2200 -0.6815
  261MPD2    H2 4009   2.215   1.613  12.228  1.0575 -0.2150  0.0475
  261MPD2    H3 4010   2.065   1.764  12.116  0.5113 -0.8515 -0.4655
  261MPD2     N 4011   2.304   2.133  12.227  0.3639  0.7384  0.1822
  261MPD2    H5 4012   2.397   2.163  12.255  0.9031 -0.0067 -0.7721
  261MPD2    N1 4013   2.442   1.684  12.364  0.2277 -0.3764 -0.5798
  261MPD2    H7 4014   2.513   1.737  12.414  1.6521 -0.1382 -2.8501
  262TMC3    C1 4015   2.262   2.359  12.187  0.5216 -0.3625  0.0225
  262TMC3    C2 4016   2.164   2.455  12.177  0.0710  0.2118  0.5393
  262TMC3    C3 4017   2.176   2.556  12.083 -0.2340  1.4308  0.0607
  262TMC3    C4 4018   2.381   2.373  12.113  0.0656  0.3460 -0.5085
  262TMC3    C5 4019   2.397   2.474  12.017 -0.7165  0.9861 -0.1200
  262TMC3    C6 4020   2.293   2.565  12.005 -0.0403 -0.1677 -0.7343
  262TMC3     C 4021   2.209   2.231  12.203 -0.3771  0.2857  0.1505
  262TMC3     O 4022   2.088   2.217  12.212  0.3319 -1.0066 -0.1249
  262TMC3     H 4023   2.076   2.456  12.240  0.0385  0.5972  0.4894
  262TMC3    H1 4024   2.456   2.295  12.107  0.3743  0.5691  0.5299
  262TMC3    H2 4025   2.294   2.638  11.925  0.0406  0.5904 -0.0398
  262TMC3    C7 4026   2.446   2.421  11.894  0.2755  0.0930  0.0487
  262TMC3    C8 4027   2.067   2.646  12.050 -0.1984 -0.1171 -0.8274
  262TMC3    O1 4028   2.547   2.355  11.901 -0.0205 -0.2166  0.0690
  262TMC3    O2 4029   2.087   2.725  11.961  0.5392  1.0424  0.5312
  263MPD2     C 4030   3.076   0.955  11.467 -0.1528  0.1562  0.3649
  263MPD2    C1 4031   3.198   0.934  11.410 -0.5450  0.7766 -0.6669
  263MPD2    C2 4032   3.236   1.017  11.300  0.1560 -0.1256 -0.1661
  263MPD2    C3 4033   3.146   1.103  11.242  1.0246  0.2872  0.1062
  263MPD2    C4 4034   3.025   1.122  11.306 -0.2019 -0.8167  0.3717
  263MPD2    C5 4035   2.993   1.049  11.418 -0.2465  0.1418 -0.1506
  263MPD2     H 4036   3.336   1.011  11.258 -0.8129 -2.6644 -2.1204
  263MPD2    H1 4037   2.949   1.174  11.248  1.1848 -1.2250 -1.8013
  263MPD2    H2 4038   3.051   0.900  11.557  1.6076  2.9251  2.5408
  263MPD2    H3 4039   2.900   1.069  11.469 -1.1512  4.7756 -3.6023
  263MPD2     N 4040   3.194   1.179  11.134  0.2339  0.2883 -0.5504
  263MPD2    H5 4041   3.289   1.163  11.105 -0.0278  1.0612 -1.8007
  263MPD2    N1 4042   3.297   0.855  11.475 -0.5119  0.4373  0.5393
  263MPD2    H7 4043   3.281   0.823  11.570 -0.2383 -0.4216  0.3013
  264TMC3    C1 4044   3.206   1.360  10.979  0.3684 -0.0138  0.1665
  264TMC3    C2 4045   3.181   1.492  10.991 -0.2025 -0.2061 -0.4610
  264TMC3    C3 4046   3.270   1.571  10.934  0.0901 -0.4411 -0.2470
  264TMC3    C4 4047   3.302   1.300  10.897 -0.3857  0.2899  0.2404
  264TMC3    C5 4048   3.380   1.391  10.824  0.2073  0.2545 -0.0752
  264TMC3    C6 4049   3.374   1.526  10.853  0.0179 -0.2263 -0.5126
  264TMC3     C 4050   3.122   1.279  11.065 -0.1223  0.0104  0.0524
  264TMC3     O 4051   3.004   1.316  11.072  0.1481  0.1428 -0.8798
  264TMC3     H 4052   3.108   1.522  11.066 -0.6050 -1.1009 -0.4817
  264TMC3    H1 4053   3.307   1.192  10.894 -1.7944  0.1774  2.1176
  264TMC3    H2 4054   3.431   1.597  10.795 -1.8231  0.6161 -1.2658
  264TMC3    C7 4055   3.481   1.337  10.740  0.3548 -0.0203 -0.0900
  264TMC3    C8 4056   3.269   1.712  10.956  0.1590 -0.4283 -0.0355
  264TMC3    O1 4057   3.568   1.414  10.702  0.1249  1.0296  0.0196
  264TMC3    O2 4058   3.347   1.778  10.891 -0.7270 -0.5889  0.1734
  265MPD2     C 4059   0.627   1.487  15.730  1.0175  0.7117  0.3480
  265MPD2    C1 4060   0.605   1.605  15.652 -0.4647 -0.0262 -0.5576
  265MPD2    C2 4061   0.648   1.603  15.518 -0.1070  0.2253  0.2640
  265MPD2    C3 4062   0.719   1.486  15.471 -0.4839  0.5722  1.5043
  265MPD2    C4 4063   0.748   1.383  15.554  0.1348 -0.3191 -0.3558
  265MPD2    C5 4064   0.704   1.382  15.680 -0.3213  0.3091 -0.7334
  265MPD2     H 4065   0.634   1.693  15.458  0.0233  0.1515  0.1220
  265MPD2    H1 4066   0.808   1.298  15.525 -0.3279 -0.5653 -0.5985
  265MPD2    H2 4067   0.575   1.466  15.823 -0.0057  1.2734 -0.0959
  265MPD2    H3 4068   0.736   1.300  15.744 -1.6259  0.6294  0.3308
  265MPD2     N 4069   0.764   1.479  15.337  0.2125  0.2675  0.4327
  265MPD2    H5 4070   0.800   1.388  15.309  3.9377  3.0576 -3.6868
  265MPD2    N1 4071   0.548   1.721  15.703 -0.2944 -0.7612  0.8229
  265MPD2    H7 4072   0.538   1.805  15.647  0.4490 -0.8964  0.4818
  266TMC3    C1 4073   0.457   1.879  15.856 -0.3503  0.7822  0.3434
  266TMC3    C2 4074   0.482   1.940  15.975  0.0238  0.3335  0.3880
  266TMC3    C3 4075   0.473   2.077  15.975  0.5981 -0.0380  0.3211
  266TMC3    C4 4076   0.395   1.949  15.756 -0.5142  0.8021 -0.0129
  266TMC3    C5 4077   0.364   2.084  15.774 -0.6811 -0.4236  0.5950
  266TMC3    C6 4078   0.433   2.153  15.873 -0.4373 -0.1220 -0.6021
  266TMC3     C 4079   0.509   1.745  15.831 -0.4567 -0.9672  1.2000
  266TMC3     O 4080   0.535   1.679  15.931 -0.1972 -0.6649  0.5266
  266TMC3     H 4081   0.528   1.879  16.052 -2.3136 -0.1779  1.3792
  266TMC3    H1 4082   0.357   1.893  15.672  1.2077  0.8359 -0.8272
  266TMC3    H2 4083   0.407   2.255  15.900 -0.2098 -0.4978  0.9892
  266TMC3    C7 4084   0.273   2.147  15.682 -0.0061 -0.7485 -0.2681
  266TMC3    C8 4085   0.573   2.136  16.060  0.2644 -0.7409  0.3410
  266TMC3    O1 4086   0.203   2.076  15.610 -0.2888  0.6985  0.3874
  266TMC3    O2 4087   0.652   2.053  16.099 -0.0548 -0.2478 -0.1562
  267MPD2     C 4088   2.449   3.063   0.658  0.5744  0.2457 -0.1790
  267MPD2    C1 4089   2.488   3.141   0.559 -0.5841  0.5497  0.3792
  267MPD2    C2 4090   2.396   3.175   0.464  0.0485  0.3433  0.4403
  267MPD2    C3 4091   2.269   3.111   0.471  0.0709 -0.0794  0.5565
  267MPD2    C4 4092   2.238   3.021   0.571  0.8717 -0.2500  0.0828
  267MPD2    C5 4093   2.328   2.998   0.669  0.2121 -0.0306 -0.1972
  267MPD2     H 4094   2.417   3.232   0.375  2.0338 -0.6554  0.2627
  267MPD2    H1 4095   2.143   2.968   0.573  1.7041 -1.7997 -1.4455
  267MPD2    H2 4096   2.527   3.029   0.724  0.6285  2.8275  1.0799
  267MPD2    H3 4097   2.310   2.924   0.746 -2.2851 -0.9715 -1.6991
  267MPD2     N 4098   2.166   3.120   0.374 -0.7924 -0.7570  0.7973
  267MPD2    H5 4099   2.087   3.059   0.390 -2.6007  1.6310  1.1104
  267MPD2    N1 4100   2.622   3.187   0.561  0.1081 -0.5062  0.1256
  267MPD2    H7 4101   2.673   3.189   0.649  0.2647  3.3109 -0.0451
  268TMC3    C1 4102   2.824   3.282   0.485  0.7111  0.0082 -0.7803
  268TMC3    C2 4103   2.883   3.379   0.418  0.0531  0.5152  0.4776
  268TMC3    C3 4104   3.014   3.411   0.437  0.1032  0.2735 -0.3827
  268TMC3    C4 4105   2.896   3.202   0.570 -0.4655 -0.2225  0.4033
  268TMC3    C5 4106   3.024   3.245   0.600 -0.8640 -0.0763  0.0981
  268TMC3    C6 4107   3.081   3.356   0.537 -0.9737  0.1090  0.0335
  268TMC3     C 4108   2.687   3.253   0.457  0.0210  0.6673  0.5089
  268TMC3     O 4109   2.635   3.309   0.360  0.3409  0.0605  0.6815
  268TMC3     H 4110   2.822   3.441   0.353 -1.5574 -1.3240  0.2277
  268TMC3    H1 4111   2.852   3.107   0.600 -0.9202 -0.2128 -0.2457
  268TMC3    H2 4112   3.187   3.375   0.540 -0.6396 -2.0215  1.8789
  268TMC3    C7 4113   3.091   3.164   0.700 -0.8918  0.3405 -0.7411
  268TMC3    C8 4114   3.063   3.541   0.382  0.1918 -0.0966 -0.1751
  268TMC3    O1 4115   3.046   3.056   0.724 -0.3064 -0.5564 -0.2592
  268TMC3    O2 4116   3.130   3.606   0.461  0.1674  0.2345 -0.4777
  269MPD2     C 4117   3.144   2.480  15.213  0.5813 -0.2579  0.2468
  269MPD2    C1 4118   3.015   2.528  15.237 -0.1661 -0.3027 -0.0722
  269MPD2    C2 4119   2.989   2.665  15.233 -0.2601 -0.5397 -0.6799
  269MPD2    C3 4120   3.087   2.754  15.212  0.0037  0.4031  0.3428
  269MPD2    C4 4121   3.219   2.703  15.187  0.2534 -0.6731 -0.1693
  269MPD2    C5 4122   3.242   2.571  15.186  0.2373 -0.2794 -0.4470
  269MPD2     H 4123   2.895   2.709  15.264 -0.5659 -0.2194 -2.0756
  269MPD2    H1 4124   3.303   2.768  15.169  0.5836 -1.5390 -1.7872
  269MPD2    H2 4125   3.162   2.373  15.218  0.2973 -0.2027  2.4829
  269MPD2    H3 4126   3.343   2.542  15.159 -0.6457 -1.5890 -2.4057
  269MPD2     N 4127   3.062   2.896  15.225 -0.1516 -0.0160 -0.2969
  269MPD2    H5 4128   2.968   2.925  15.250 -1.2050 -2.6321 -1.2574
  269MPD2    N1 4129   2.912   2.434  15.278 -0.1779 -0.4147 -0.7772
  269MPD2    H7 4130   2.937   2.338  15.299  2.4713  0.3352 -0.4250
  270TMC3    C1 4131   2.695   2.358  15.331 -0.2675  0.3761 -0.1608
  270TMC3    C2 4132   2.573   2.324  15.273 -0.0490 -0.6340 -0.6396
  270TMC3    C3 4133   2.510   2.216  15.337 -0.1346 -0.7406 -0.6195
  270TMC3    C4 4134   2.749   2.285  15.435  0.5376  0.4500 -0.7649
  270TMC3    C5 4135   2.677   2.185  15.497  0.4842  1.1905  0.1864
  270TMC3    C6 4136   2.559   2.149  15.445 -0.1751 -0.4382 -0.3903
  270TMC3     C 4137   2.777   2.463  15.264  0.6220  0.0827 -0.3295
  270TMC3     O 4138   2.726   2.546  15.193 -0.1188  0.5574 -0.2213
  270TMC3     H 4139   2.538   2.376  15.185  1.0262  1.3505  0.1085
  270TMC3    H1 4140   2.838   2.320  15.487  0.8723  0.1664 -1.1385
  270TMC3    H2 4141   2.498   2.062  15.470 -0.9915 -0.3257 -1.9614
  270TMC3    C7 4142   2.744   2.095  15.590 -0.3559 -0.0949  0.4699
  270TMC3    C8 4143   2.416   2.141  15.259  0.2452  0.0537  0.2358
  270TMC3    O1 4144   2.865   2.088  15.590 -0.0927  0.0995 -0.4459
  270TMC3    O2 4145   2.297   2.173  15.260 -0.4888  0.1615 -0.3120
  271MPD2     C 4146   2.070   2.075  13.645  0.2759 -0.0838 -0.3140
  271MPD2    C1 4147   2.034   2.003  13.757  1.1392 -0.6424  0.0905
  271MPD2    C2 4148   1.903   2.013  13.799  0.1443 -0.5360 -0.4950
  271MPD2    C3 4149   1.806   2.087  13.735 -0.1330  0.5376  0.0057
  271MPD2    C4 4150   1.839   2.142  13.614 -0.9812 -0.1212 -0.1910
  271MPD2    C5 4151   1.970   2.144  13.576  0.3753  0.1860  0.3284
  271MPD2     H 4152   1.877   1.954  13.886 -1.6688  0.9157 -0.0574
  271MPD2    H1 4153   1.762   2.183  13.550 -1.7348 -1.3734 -0.0972
  271MPD2    H2 4154   2.173   2.076  13.610  0.3509  2.2169 -0.0280
  271MPD2    H3 4155   1.992   2.189  13.480  1.6186  1.0081  0.9985
  271MPD2     N 4156   1.671   2.089  13.776  0.0589 -0.3551  0.0088
  271MPD2    H5 4157   1.612   2.144  13.714 -0.2306 -0.5533  0.1106
  271MPD2    N1 4158   2.119   1.925  13.841 -0.3381  0.2391 -0.5671
  271MPD2    H7 4159   2.085   1.866  13.916  1.3764 -0.2145 -0.1570
  272TMC3    C1 4160   2.307   1.842  13.938 -0.0931 -0.2968  0.4601
  272TMC3    C2 4161   2.445   1.818  13.936 -0.5621 -1.2756 -0.2158
  272TMC3    C3 4162   2.497   1.763  14.044 -0.5741 -0.0561  0.0189
  272TMC3    C4 4163   2.238   1.845  14.056  0.1564 -0.4244  0.3172
  272TMC3    C5 4164   2.302   1.791  14.171  0.2265 -0.1142 -0.9309
  272TMC3    C6 4165   2.430   1.745  14.166  0.3989 -0.1849  0.0433
  272TMC3     C 4166   2.251   1.908  13.824  0.0824  0.0850  0.4747
  272TMC3     O 4167   2.321   1.964  13.740 -0.2155  0.0772  0.2721
  272TMC3     H 4168   2.495   1.839  13.842 -0.1980  0.5124  0.3718
  272TMC3    H1 4169   2.134   1.873  14.066  0.3411  0.2434  0.3610
  272TMC3    H2 4170   2.469   1.688  14.250  1.2557 -0.4493 -0.5355
  272TMC3    C7 4171   2.228   1.808  14.296 -0.0915  1.1112  0.7790
  272TMC3    C8 4172   2.629   1.703  14.028  0.1795 -0.3343 -0.3208
  272TMC3    O1 4173   2.110   1.829  14.282 -0.1314  0.2114  0.6919
  272TMC3    O2 4174   2.681   1.711  13.916  0.1601 -0.2998 -0.1982
  273MPD2     C 4175   4.215   4.302  11.667  0.0998  0.3451 -0.9140
  273MPD2    C1 4176   4.316   4.397  11.657 -0.7139  0.3604 -0.6228
  273MPD2    C2 4177   4.336   4.465  11.535  0.5219  0.8623 -0.5544
  273MPD2    C3 4178   4.259   4.439  11.420 -0.4321 -0.7377  0.0984
  273MPD2    C4 4179   4.164   4.342  11.432  0.5648  0.1855  0.0926
  273MPD2    C5 4180   4.147   4.288  11.550 -0.1572 -0.0152 -0.1337
  273MPD2     H 4181   4.417   4.537  11.529  1.1505  0.2332  0.4685
  273MPD2    H1 4182   4.100   4.312  11.350 -1.2877 -0.7852  1.8853
  273MPD2    H2 4183   4.190   4.249  11.758 -1.7638  1.1846 -0.9515
  273MPD2    H3 4184   4.061   4.225  11.572  0.4099 -1.5959 -2.5011
  273MPD2     N 4185   4.262   4.520  11.308 -0.5690  0.2209  0.0054
  273MPD2    H5 4186   4.182   4.517  11.246 -1.4836 -0.2091  1.2271
  273MPD2    N1 4187   4.382   4.445  11.780  0.5029  0.3497  0.3191
  273MPD2    H7 4188   4.352   4.397  11.864  0.8043 -0.3376  0.0274
  274TMC3    C1 4189   4.295   4.733  11.202 -0.4939 -0.1788  0.3965
  274TMC3    C2 4190   4.205   4.707  11.107  0.2541 -0.2253  0.5831
  274TMC3    C3 4191   4.138   0.081  11.051  0.4464 -0.1163  0.4096
  274TMC3    C4 4192   4.303   0.118  11.267 -0.4158 -0.9958  0.0600
  274TMC3    C5 4193   4.229   0.223  11.220 -0.5365 -0.0153  0.0255
  274TMC3    C6 4194   4.154   0.205  11.110 -0.1464 -0.5988 -0.0155
  274TMC3     C 4195   4.351   4.623  11.280 -0.4331  0.6149 -0.0689
  274TMC3     O 4196   4.458   4.644  11.331  0.6460  0.4747  0.0831
  274TMC3     H 4197   4.180   4.612  11.061 -0.7820 -0.1494  0.9805
  274TMC3    H1 4198   4.350   0.130  11.364  0.7957  1.0049 -0.7862
  274TMC3    H2 4199   4.082   0.281  11.081  1.9906  1.2644 -0.3707
  274TMC3    C7 4200   4.181   0.321  11.311 -0.8466 -0.3212  0.6326
  274TMC3    C8 4201   4.070   0.064  10.930  0.3467  0.4383 -0.2574
  274TMC3    O1 4202   4.079   0.383  11.269 -0.4967 -0.0591 -0.0264
  274TMC3    O2 4203   3.998   4.702  10.926  0.7549  0.2334 -0.4382
  275MPD2     C 4204   3.980   2.555  14.399 -0.3268 -0.1007  0.2781
  275MPD2    C1 4205   3.908   2.670  14.399 -0.1361 -0.6181 -0.3209
  275MPD2    C2 4206   3.775   2.672  14.362  1.0919  0.0473  0.6597
  275MPD2    C3 4207   3.713   2.550  14.327 -0.3961  0.8140 -0.4693
  275MPD2    C4 4208   3.789   2.432  14.329 -0.9614  0.9855  0.3062
  275MPD2    C5 4209   3.919   2.437  14.362  0.5453 -0.1824 -0.6515
  275MPD2     H 4210   3.718   2.762  14.383  0.3348 -0.2634 -0.0729
  275MPD2    H1 4211   3.737   2.343  14.296  0.0299  0.0236  1.3363
  275MPD2    H2 4212   4.082   2.562  14.436  0.1909 -0.7745 -1.0182
  275MPD2    H3 4213   3.968   2.341  14.355 -4.1878 -2.6162 -0.9209
  275MPD2     N 4214   3.571   2.548  14.314 -0.6344 -0.1854  0.2032
  275MPD2    H5 4215   3.534   2.456  14.292 -0.7138  0.0786 -0.7455
  275MPD2    N1 4216   3.951   2.805  14.429 -0.6271 -0.0658 -0.0008
  275MPD2    H7 4217   3.897   2.882  14.390  0.8957 -0.5407 -3.0523
  276TMC3    C1 4218   4.087   2.969  14.525 -0.3728 -0.0118 -0.6376
  276TMC3    C2 4219   3.964   3.025  14.540 -0.1921 -0.0621 -0.0924
  276TMC3    C3 4220   3.940   3.095  14.653  0.3858 -0.8009 -0.6454
  276TMC3    C4 4221   4.199   2.997  14.597 -0.1770  0.0990 -0.6695
  276TMC3    C5 4222   4.172   3.074  14.710 -0.2161  0.3607  0.5750
  276TMC3    C6 4223   4.044   3.113  14.738  0.7672 -0.9479 -0.3793
  276TMC3     C 4224   4.079   2.831  14.474 -0.5603 -0.0390 -0.3998
  276TMC3     O 4225   4.169   2.753  14.508  0.0065  0.5910  0.5916
  276TMC3     H 4226   3.887   3.035  14.464 -0.7942 -0.0226  0.5306
  276TMC3    H1 4227   4.297   2.961  14.570 -1.1458  0.8839 -5.2262
  276TMC3    H2 4228   4.016   3.159  14.833  1.2543 -2.9078  0.7186
  276TMC3    C7 4229   4.258   3.086  14.820 -0.1987  0.2224  0.2251
  276TMC3    C8 4230   3.828   3.047  14.722 -0.0627 -0.6066 -0.0904
  276TMC3    O1 4231   4.222   3.159  14.913  0.3092 -0.2101  0.3475
  276TMC3    O2 4232   3.779   3.112  14.811 -0.0920 -0.0061  0.2973
  277MPD2     C 4233   0.806   1.573  13.307  0.2151  0.0858  0.6553
  277MPD2    C1 4234   0.715   1.646  13.382 -0.5880 -0.1054 -0.1153
  277MPD2    C2 4235   0.654   1.582  13.487 -0.0687 -0.1652  0.5113
  277MPD2    C3 4236   0.673   1.449  13.512  0.3646 -0.6322 -0.5754
  277MPD2    C4 4237   0.767   1.375  13.434  1.3289  0.3770 -0.3887
  277MPD2    C5 4238   0.829   1.443  13.330 -0.6228 -0.4291  0.1410
  277MPD2     H 4239   0.578   1.637  13.542 -2.3616 -1.1111 -1.6663
  277MPD2    H1 4240   0.786   1.269  13.441 -0.1845  0.0527 -1.2584
  277MPD2    H2 4241   0.858   1.610  13.220 -2.0726  2.7911  0.4346
  277MPD2    H3 4242   0.887   1.378  13.265  0.7475  0.6910  0.2492
  277MPD2     N 4243   0.590   1.389  13.620  0.1903  0.2600 -0.1768
  277MPD2    H5 4244   0.543   1.454  13.682  0.9018  2.1742 -1.6341
  277MPD2    N1 4245   0.683   1.776  13.341 -0.6937 -0.9739  0.1619
  277MPD2    H7 4246   0.727   1.808  13.256 -0.9958 -1.8101 -0.3034
  278TMC3    C1 4247   0.478   1.240  13.750 -0.1603 -0.5644  0.0009
  278TMC3    C2 4248   0.446   1.111  13.775 -0.3060  0.3395 -0.6551
  278TMC3    C3 4249   0.317   1.072  13.808 -0.3903  0.7858 -0.5515
  278TMC3    C4 4250   0.388   1.338  13.772 -0.8025  0.5366  0.4928
  278TMC3    C5 4251   0.264   1.295  13.797 -1.3797  0.2889 -0.4269
  278TMC3    C6 4252   0.219   1.162  13.812 -0.4347 -0.3548  0.4400
  278TMC3     C 4253   0.575   1.258  13.647 -0.7798  0.2553 -0.1444
  278TMC3     O 4254   0.614   1.162  13.579 -0.4402 -0.1661  0.5022
  278TMC3     H 4255   0.520   1.039  13.740 -2.0030 -0.7287 -2.0536
  278TMC3    H1 4256   0.393   1.446  13.762  1.2276  0.3364 -0.6549
  278TMC3    H2 4257   0.118   1.145  13.847 -0.1171 -0.4595  1.2945
  278TMC3    C7 4258   0.170   1.400  13.841  0.1505  0.5986 -0.3927
  278TMC3    C8 4259   0.292   0.931  13.810 -0.1932  0.5305 -0.4659
  278TMC3    O1 4260   0.228   1.502  13.884 -0.2234  0.1882  0.1787
  278TMC3    O2 4261   0.383   0.848  13.811  0.3089  0.2046 -0.8652
  279MPD2     C 4262   4.418   1.120   0.165 -0.3211 -0.1399 -0.3179
  279MPD2    C1 4263   4.345   1.234   0.182 -0.1360  0.3570 -0.6758
  279MPD2    C2 4264   4.396   1.346   0.123 -0.0242 -0.3673  0.6803
  279MPD2    C3 4265   4.519   1.348   0.064  0.0697  0.6305  0.0232
  279MPD2    C4 4266   4.597   1.235   0.061 -0.2253 -0.3896  0.6234
  279MPD2    C5 4267   4.541   1.122   0.108  0.1830  0.0842  1.2197
  279MPD2     H 4268   4.337   1.437   0.120  0.1668 -0.3448 -2.5540
  279MPD2    H1 4269   4.697   1.239   0.018 -0.9438 -2.3246 -1.2362
  279MPD2    H2 4270   4.387   1.022   0.199  0.5536 -0.5451 -0.6848
  279MPD2    H3 4271   4.586   1.024   0.103  0.3724  0.2346 -0.1158
  279MPD2     N 4272   4.564   1.464  17.734  0.1914  0.7622 -0.4655
  279MPD2    H5 4273   4.641   1.451  17.669 -0.0221 -0.0229 -0.5546
  279MPD2    N1 4274   4.211   1.232   0.227 -0.2205 -0.1233 -0.3394
  279MPD2    H7 4275   4.156   1.318   0.222  0.3769  0.2306 -0.7797
  280TMC3    C1 4276   4.002   1.140   0.296 -0.5400  0.5583 -0.3006
  280TMC3    C2 4277   3.928   1.114   0.186  1.2560  0.3885 -0.1932
  280TMC3    C3 4278   3.804   1.168   0.174 -0.3530  0.0741  0.6667
  280TMC3    C4 4279   3.953   1.211   0.395 -0.3228  0.2565 -0.9865
  280TMC3    C5 4280   3.826   1.254   0.389  0.3009 -0.2405 -0.0609
  280TMC3    C6 4281   3.745   1.224   0.281  0.1995  0.9319  0.0156
  280TMC3     C 4282   4.151   1.128   0.292  0.9278  0.3984  0.1995
  280TMC3     O 4283   4.205   1.026   0.325  0.5126 -0.3420  0.3157
  280TMC3     H 4284   3.967   1.045   0.113  2.4399 -0.5141  1.2842
  280TMC3    H1 4285   4.020   1.227   0.479 -1.9553  1.3945  0.0750
  280TMC3    H2 4286   3.642   1.258   0.276 -1.0076 -2.3114  2.9111
  280TMC3    C7 4287   3.779   1.336   0.498 -0.4075 -0.0052 -0.2929
  280TMC3    C8 4288   3.712   1.104   0.080 -0.7534  0.0407  0.0066
  280TMC3    O1 4289   3.837   1.337   0.603  0.0039  0.5198  0.1569
  280TMC3    O2 4290   3.589   1.098   0.101  0.3817  0.2617 -0.2310
  281TMC3    C1 4291   3.501   2.231  13.366 -0.4764 -0.2755 -0.7112
  281TMC3    C2 4292   3.589   2.328  13.320  0.5464 -0.2164  0.4601
  281TMC3    C3 4293   3.692   2.295  13.236 -0.0286 -0.2312  0.9758
  281TMC3    C4 4294   3.507   2.106  13.316 -0.0020  0.0627 -0.0898
  281TMC3    C5 4295   3.612   2.072  13.222  0.1945 -0.3490  0.2459
  281TMC3    C6 4296   3.699   2.168  13.181  0.5487 -0.1734 -0.3328
  281TMC3     C 4297   3.366   2.274  13.413 -0.0827  0.2560  0.1176
  281TMC3     O 4298   3.276   2.192  13.424  0.0933  0.3903  0.1312
  281TMC3     H 4299   3.595   2.421  13.376  1.3169  0.2811 -0.4421
  281TMC3    H1 4300   3.434   2.032  13.348 -0.6960  1.3411  1.2382
  281TMC3    H2 4301   3.791   2.137  13.134  1.4575 -2.6919  3.1240
  281TMC3    C7 4302   3.611   1.932  13.169  0.2552 -0.2951  0.3055
  281TMC3    C8 4303   3.788   2.392  13.189  0.1382 -0.4124 -0.0908
  281TMC3    O1 4304   3.697   1.898  13.090  0.0972  0.5638 -0.1944
  281TMC3    O2 4305   3.900   2.344  13.179 -0.3658  0.1201 -0.5577
  282MPD2     C 4306   0.569   3.205  15.300  0.7672  0.4421 -0.0837
  282MPD2    C1 4307   0.464   3.294  15.320 -0.8649  0.5209  0.2782
  282MPD2    C2 4308   0.401   3.349  15.205  0.6655  0.2452  0.6756
  282MPD2    C3 4309   0.447   3.320  15.080  0.0760 -0.0132 -0.2598
  282MPD2    C4 4310   0.557   3.248  15.056 -0.4114  0.4253 -0.0016
  282MPD2    C5 4311   0.614   3.186  15.171 -0.3717 -0.1263  0.1684
  282MPD2     H 4312   0.307   3.401  15.218 -0.2097 -1.8606  2.8546
  282MPD2    H1 4313   0.599   3.237  14.956  0.8397 -0.6857  0.6363
  282MPD2    H2 4314   0.621   3.156  15.381  1.8008 -0.5969 -1.3777
  282MPD2    H3 4315   0.691   3.111  15.156  0.8834  1.2700 -0.3951
  282MPD2     N 4316   0.368   3.359  14.973 -0.5572 -0.0639 -0.3473
  282MPD2    H5 4317   0.280   3.400  14.999 -0.1878  0.7373 -0.3599
  282MPD2    N1 4318   0.402   3.327  15.443  0.3176  0.2312 -0.5485
  282MPD2    H7 4319   0.323   3.391  15.445 -0.1209 -0.3371  0.1165
  283TMC3    C1 4320   0.361   3.306  15.665 -0.3206 -0.5241 -0.1092
  283TMC3    C2 4321   0.370   3.437  15.699  0.5181 -0.3179  0.1626
  283TMC3    C3 4322   0.281   3.485  15.789 -0.2156 -0.0033  0.7876
  283TMC3    C4 4323   0.263   3.225  15.716 -0.1252  0.0309 -0.0086
  283TMC3    C5 4324   0.182   3.275  15.813  0.0067  0.4444  0.4141
  283TMC3    C6 4325   0.182   3.409  15.851 -0.0089 -0.0114  0.4723
  283TMC3     C 4326   0.435   3.257  15.554 -0.8196 -0.0544 -0.2830
  283TMC3     O 4327   0.479   3.140  15.560  0.5725  0.1948 -0.3806
  283TMC3     H 4328   0.459   3.483  15.658  1.2474 -0.6130  1.4168
  283TMC3    H1 4329   0.261   3.122  15.683 -0.6135 -0.4506  1.5405
  283TMC3    H2 4330   0.110   3.453  15.920  0.7000  0.4704  0.9002
  283TMC3    C7 4331   0.066   3.202  15.854  0.1253 -0.6294  0.1113
  283TMC3    C8 4332   0.319   3.595  15.869 -0.5840  0.4633  0.0394
  283TMC3    O1 4333   4.728   3.248  15.942 -0.3725 -0.6628  0.3256
  283TMC3    O2 4334   0.288   3.585  15.986 -0.1415  0.0373 -0.3779
  284MPD2     C 4335   3.292   2.541  12.222  0.2303 -0.0653 -0.1058
  284MPD2    C1 4336   3.287   2.549  12.081 -0.6324 -0.3645  0.1046
  284MPD2    C2 4337   3.240   2.437  12.003 -0.6924 -0.4778 -0.3046
  284MPD2    C3 4338   3.187   2.324  12.069 -0.5913 -0.3535 -0.1358
  284MPD2    C4 4339   3.187   2.327  12.209  0.1533  0.2853  0.7069
  284MPD2    C5 4340   3.230   2.433  12.280  0.8656  0.0569 -0.0390
  284MPD2     H 4341   3.251   2.451  11.896 -3.0941  0.4408 -0.4275
  284MPD2    H1 4342   3.153   2.237  12.259 -0.6696 -0.2401 -0.8003
  284MPD2    H2 4343   3.315   2.620  12.292  1.8786  0.9375 -1.7774
  284MPD2    H3 4344   3.223   2.420  12.387  2.7332 -1.0281 -0.0485
  284MPD2     N 4345   3.132   2.207  12.002  0.0308 -0.5352  0.0401
  284MPD2    H5 4346   3.097   2.135  12.064 -1.0544 -0.1556 -0.1396
  284MPD2    N1 4347   3.330   2.660  12.010 -0.2472  0.1887 -0.3978
  284MPD2    H7 4348   3.340   2.645  11.910 -0.9406  0.2850 -0.4786
  285TMC3    C1 4349   3.424   2.870  11.962 -0.4090  0.2545 -0.0422
  285TMC3    C2 4350   3.477   2.837  11.839  0.3181 -0.5679  0.8791
  285TMC3    C3 4351   3.503   2.942  11.753  0.3775 -0.1830  0.2806
  285TMC3    C4 4352   3.393   3.000  11.989 -0.1275  0.1028  0.5408
  285TMC3    C5 4353   3.421   3.101  11.897 -0.6024 -0.1759  0.1144
  285TMC3    C6 4354   3.471   3.073  11.770  0.4505 -0.9870  0.6767
  285TMC3     C 4355   3.370   2.775  12.062  0.2363 -0.1259  0.2750
  285TMC3     O 4356   3.360   2.815  12.179  0.0391  0.2846 -0.3020
  285TMC3     H 4357   3.509   2.735  11.817  1.1887 -0.2497  0.6694
  285TMC3    H1 4358   3.364   3.037  12.087  0.3695  0.5076  0.5370
  285TMC3    H2 4359   3.468   3.161  11.708  2.2462 -1.7442 -0.4851
  285TMC3    C7 4360   3.364   3.232  11.914  0.1576 -0.3920  0.2776
  285TMC3    C8 4361   3.529   2.901  11.614  0.2715 -0.3252 -0.5209
  285TMC3    O1 4362   3.439   3.322  11.893 -0.9198  0.2662  0.4105
  285TMC3    O2 4363   3.495   2.786  11.588 -0.1704 -0.0402  0.2266
  286MPD2     C 4364   3.765   1.537   1.397  0.3889  0.0465  0.9323
  286MPD2    C1 4365   3.750   1.465   1.281 -0.1823 -0.6104  0.4261
  286MPD2    C2 4366   3.815   1.346   1.263  0.4595  0.1778 -0.2300
  286MPD2    C3 4367   3.887   1.285   1.368  0.2189  0.0339  0.4466
  286MPD2    C4 4368   3.905   1.358   1.481  0.4534 -0.3987  0.2145
  286MPD2    C5 4369   3.852   1.485   1.489  0.0770 -0.0017 -0.5522
  286MPD2     H 4370   3.796   1.290   1.172  2.9627 -0.4913 -0.3639
  286MPD2    H1 4371   3.968   1.331   1.564 -0.4859  1.1627  1.4315
  286MPD2    H2 4372   3.718   1.631   1.424 -0.7573 -0.5449  0.9805
  286MPD2    H3 4373   3.874   1.545   1.577 -1.1922 -1.0380  0.4547
  286MPD2     N 4374   3.935   1.153   1.365 -0.2195 -0.2616  0.2995
  286MPD2    H5 4375   3.990   1.125   1.446 -1.7041 -0.5353  1.2200
  286MPD2    N1 4376   3.657   1.492   1.182  0.3460  0.4950  0.2519
  286MPD2    H7 4377   3.659   1.425   1.106  0.8936 -0.2355  0.9110
  287TMC3    C1 4378   3.995   0.939   1.287 -0.2028 -0.1706 -0.6620
  287TMC3    C2 4379   3.957   0.836   1.212 -0.7114 -0.5596  0.2937
  287TMC3    C3 4380   4.049   0.742   1.180 -0.0925 -0.2524  0.1825
  287TMC3    C4 4381   4.115   0.945   1.351  0.4838 -0.1483  0.1521
  287TMC3    C5 4382   4.198   0.835   1.328 -0.9577 -0.6697 -0.2346
  287TMC3    C6 4383   4.172   0.731   1.240 -0.2539 -0.3323  0.7404
  287TMC3     C 4384   3.920   1.062   1.269 -0.6511 -0.4631  0.1082
  287TMC3     O 4385   3.833   1.062   1.182  0.1561 -0.4685 -0.5133
  287TMC3     H 4386   3.858   0.843   1.166 -0.1265 -0.2064 -0.9197
  287TMC3    H1 4387   4.156   1.026   1.409  0.6607 -0.3749  0.3450
  287TMC3    H2 4388   4.236   0.646   1.219  0.0492  0.9098 -3.3695
  287TMC3    C7 4389   4.309   0.824   1.421  0.2577  0.1791 -0.1971
  287TMC3    C8 4390   4.039   0.685   1.047  0.1575 -0.0497  0.4094
  287TMC3    O1 4391   4.329   0.907   1.509 -0.1070  0.2021  0.0804
  287TMC3    O2 4392   3.925   0.656   1.007  0.5533 -0.5009 -1.0440
  288TMC3    C1 4393   0.680   1.501  14.313  0.5316 -0.2916  0.5452
  288TMC3    C2 4394   0.652   1.523  14.440  0.2328 -0.9090 -0.1159
  288TMC3    C3 4395   0.572   1.625  14.483 -0.7399  0.1600 -0.1871
  288TMC3    C4 4396   0.636   1.589  14.219 -0.3644  0.0003  0.0795
  288TMC3    C5 4397   0.568   1.707  14.258 -0.0744  1.0079 -0.1568
  288TMC3    C6 4398   0.525   1.723  14.389  0.3258  0.9157  0.1265
  288TMC3     C 4399   0.730   1.366  14.269 -0.5357  0.4514 -0.3823
  288TMC3     O 4400   0.739   1.287  14.365  0.5615 -0.2700 -0.2260
  288TMC3     H 4401   0.697   1.458  14.514 -1.9804  0.7277  2.7170
  288TMC3    H1 4402   0.665   1.580  14.115  1.8188  1.8949  0.4999
  288TMC3    H2 4403   0.456   1.796  14.431 -0.6237  0.3641 -0.4855
  288TMC3    C7 4404   0.482   1.764  14.159 -0.4292  0.2886 -0.4155
  288TMC3    C8 4405   0.531   1.652  14.621  0.2189 -0.8707 -0.3516
  288TMC3    O1 4406   0.508   1.734  14.042  0.4152 -0.5391  0.8657
  288TMC3    O2 4407   0.498   1.761  14.654  0.7071  0.5059  0.3270
  289MPD2     C 4408   0.690   0.547  14.702 -0.0542  0.1918 -0.2330
  289MPD2    C1 4409   0.695   0.643  14.608  0.8095 -0.2289  0.3946
  289MPD2    C2 4410   0.600   0.641  14.502  0.3850  0.3823  0.1980
  289MPD2    C3 4411   0.509   0.536  14.489 -0.2045 -0.1950 -0.0206
  289MPD2    C4 4412   0.509   0.438  14.586 -0.4924 -0.1590 -0.5106
  289MPD2    C5 4413   0.600   0.439  14.689  0.5315 -0.1025 -0.2928
  289MPD2     H 4414   0.617   0.714  14.423 -0.0489 -1.8674 -1.9440
  289MPD2    H1 4415   0.443   0.352  14.587  0.8673 -1.1994 -0.5457
  289MPD2    H2 4416   0.757   0.545  14.787 -1.0865  0.9820  0.6030
  289MPD2    H3 4417   0.603   0.363  14.765  1.3824 -2.2579 -2.4951
  289MPD2     N 4418   0.421   0.526  14.376 -0.6600 -0.2935  0.0119
  289MPD2    H5 4419   0.362   0.443  14.374 -0.5383 -0.4029  0.8156
  289MPD2    N1 4420   0.798   0.743  14.624  0.3078  0.5494  0.3374
  289MPD2    H7 4421   0.866   0.733  14.699  0.1372 -0.5879  0.3423
  290TMC3    C1 4422   0.270   0.619  14.212 -0.2851  0.3649 -0.2863
  290TMC3    C2 4423   0.226   0.737  14.164  0.1161  0.1285  0.5427
  290TMC3    C3 4424   0.105   0.740  14.102  0.4698 -0.3939 -0.2493
  290TMC3    C4 4425   0.192   0.506  14.216 -0.2895  0.2948 -0.2090
  290TMC3    C5 4426   0.069   0.510  14.153 -0.4584  0.8044 -0.0717
  290TMC3    C6 4427   0.021   0.628  14.103 -0.6869 -0.1304  0.1222
  290TMC3     C 4428   0.399   0.623  14.279  0.4783  0.5109  0.2241
  290TMC3     O 4429   0.464   0.722  14.254  0.0457  0.5034 -0.3551
  290TMC3     H 4430   0.289   0.825  14.151 -1.4857  0.9727 -1.6291
  290TMC3    H1 4431   0.239   0.414  14.247 -1.4215  0.3612  1.7136
  290TMC3    H2 4432   4.655   0.632  14.065 -0.5134 -3.3057 -0.6651
  290TMC3    C7 4433   4.704   0.410  14.171  0.2456 -0.2937 -0.7220
  290TMC3    C8 4434   0.032   0.865  14.083  0.0359  0.6406 -0.5226
  290TMC3    O1 4435   4.585   0.432  14.145  0.2553  0.4089  0.2580
  290TMC3    O2 4436   4.662   0.849  14.021  0.3968 -0.3780  0.0941
  291MPD2     C 4437   4.446   0.552   0.318  0.2381  0.2980 -0.5946
  291MPD2    C1 4438   4.562   0.486   0.349  0.7630  0.1919  0.0704
  291MPD2    C2 4439   4.679   0.554   0.372  0.1286  0.1843 -0.3427
  291MPD2    C3 4440   4.681   0.692   0.350 -0.2335  0.3921  0.5758
  291MPD2    C4 4441   4.564   0.760   0.314 -0.1928 -0.2067  0.5207
  291MPD2    C5 4442   4.447   0.688   0.290 -0.0404  0.2156 -0.8834
  291MPD2     H 4443   0.031   0.493   0.389  0.7206  0.8489 -0.9951
  291MPD2    H1 4444   4.567   0.867   0.297  0.7761 -0.6239 -1.9411
  291MPD2    H2 4445   4.356   0.493   0.302  0.4211 -0.4710  1.1950
  291MPD2    H3 4446   4.356   0.744   0.273  0.5150  1.9926  1.9772
  291MPD2     N 4447   0.065   0.766   0.360  0.4331 -0.2899  0.0238
  291MPD2    H5 4448   0.059   0.862   0.326  0.7095 -0.1965  0.2377
  291MPD2    N1 4449   4.567   0.348   0.382  0.0446  0.2710 -0.6727
  291MPD2    H7 4450   4.658   0.317   0.415  0.3116  0.4207 -1.2722
  292TMC3    C1 4451   4.507   0.123   0.393  0.7813  0.3625 -0.5091
  292TMC3    C2 4452   4.505   0.108   0.528 -1.0937  0.0111  0.0296
  292TMC3    C3 4453   4.461   4.734   0.588  0.3411  1.0746  0.0058
  292TMC3    C4 4454   4.456   0.026   0.312 -0.0838 -0.1667  0.5449
  292TMC3    C5 4455   4.403   4.659   0.371  0.2247 -0.4130 -0.1024
  292TMC3    C6 4456   4.410   4.632   0.511  0.8206 -0.1115  0.2611
  292TMC3     C 4457   4.479   0.257   0.341  0.1714  0.1541 -0.1458
  292TMC3     O 4458   4.370   0.272   0.285 -0.0656  0.1055  0.8430
  292TMC3     H 4459   4.543   0.193   0.582 -3.8753  1.0128  0.4159
  292TMC3    H1 4460   4.444   0.046   0.207 -0.5669  0.2485  0.6757
  292TMC3    H2 4461   4.371   4.536   0.544  0.2716 -0.2367 -0.7396
  292TMC3    C7 4462   4.395   4.545   0.285 -0.3286  0.5615 -0.9355
  292TMC3    C8 4463   4.421   0.015   0.727  0.3291 -0.0955  0.1843
  292TMC3    O1 4464   4.448   4.439   0.313  0.0262 -0.6347  0.2297
  292TMC3    O2 4465   4.455   0.109   0.796  0.4872 -0.1628 -0.1451
  293MPD2     C 4466   1.876   1.816  12.400 -0.1952  0.5538  0.3939
  293MPD2    C1 4467   1.752   1.777  12.460  0.1853 -0.0705  0.7569
  293MPD2    C2 4468   1.735   1.790  12.596 -0.4198  0.6172 -0.3645
  293MPD2    C3 4469   1.827   1.861  12.663 -0.4311 -0.5192  0.6268
  293MPD2    C4 4470   1.947   1.886  12.602  0.3563  0.8280 -0.4500
  293MPD2    C5 4471   1.975   1.861  12.473 -0.3663 -0.2100  0.1301
  293MPD2     H 4472   1.639   1.766  12.642  0.0624 -1.0412 -0.1938
  293MPD2    H1 4473   2.027   1.934  12.656  1.1741  0.1937 -1.0883
  293MPD2    H2 4474   1.883   1.814  12.292 -0.4784 -1.0375  0.4037
  293MPD2    H3 4475   2.060   1.897  12.417 -0.2171 -0.6555  0.0695
  293MPD2     N 4476   1.805   1.893  12.797  0.4370  0.4090 -0.0130
  293MPD2    H5 4477   1.716   1.868  12.839 -0.8113  1.1550 -2.2734
  293MPD2    N1 4478   1.652   1.732  12.372  0.4949  0.0053  0.6953
  293MPD2    H7 4479   1.678   1.734  12.274  0.8638  4.6699  0.8845
  294TMC3    C1 4480   1.445   1.662  12.280  0.2421 -0.0362 -0.1387
  294TMC3    C2 4481   1.333   1.582  12.310  0.4892  0.2566  0.7343
  294TMC3    C3 4482   1.255   1.557  12.200 -0.7887  1.0562 -0.7076
  294TMC3    C4 4483   1.469   1.711  12.157 -0.5161  0.0047 -0.2510
  294TMC3    C5 4484   1.372   1.693  12.060  0.4745  0.5187 -0.4406
  294TMC3    C6 4485   1.272   1.608  12.078 -1.0182  0.8451  0.1149
  294TMC3     C 4486   1.524   1.696  12.400 -0.0984 -0.3388  0.0750
  294TMC3     O 4487   1.469   1.693  12.510  0.2136 -0.1086 -0.3041
  294TMC3     H 4488   1.320   1.550  12.413 -0.6154  0.7796  0.7583
  294TMC3    H1 4489   1.544   1.788  12.139 -0.4981 -0.1144 -0.6875
  294TMC3    H2 4490   1.196   1.585  12.004 -0.4516  1.2685 -0.6027
  294TMC3    C7 4491   1.399   1.737  11.925  0.7107  0.5548  0.1798
  294TMC3    C8 4492   1.224   1.418  12.188  0.1185  0.0710  0.1800
  294TMC3    O1 4493   1.308   1.753  11.837 -0.1292  0.0722 -0.0955
  294TMC3    O2 4494   1.258   1.373  12.077  0.4029  0.1415  0.4246
  295MPD2     C 4495   2.663   0.098   0.398 -0.1549 -1.0418 -0.7724
  295MPD2    C1 4496   2.539   0.084   0.458 -0.5228  0.1349 -0.4047
  295MPD2    C2 4497   2.529   4.719   0.559 -0.3504 -0.7361  0.2318
  295MPD2    C3 4498   2.633   4.631   0.595  0.4402 -0.2470  0.0964
  295MPD2    C4 4499   2.752   4.658   0.537 -0.0894  0.2713  0.1718
  295MPD2    C5 4500   2.764   0.015   0.434  0.1571 -0.9734 -0.2477
  295MPD2     H 4501   2.430   4.700   0.599 -1.3180  3.8801 -0.0117
  295MPD2    H1 4502   2.843   4.606   0.565  0.1019  1.1017  1.0867
  295MPD2    H2 4503   2.689   0.159   0.312 -2.3811 -0.6804 -1.1748
  295MPD2    H3 4504   2.867   0.029   0.403  0.3413  0.1289  0.8947
  295MPD2     N 4505   2.626   4.542   0.704  0.0947  0.5054  0.2486
  295MPD2    H5 4506   2.703   4.476   0.707  0.1425  0.7063  3.0767
  295MPD2    N1 4507   2.429   0.165   0.441 -0.3249  0.2479  0.0465
  295MPD2    H7 4508   2.342   0.131   0.481 -1.2191  0.8574 -1.3339
  296TMC3    C1 4509   2.527   4.435   0.900  0.4056  0.1318  0.5997
  296TMC3    C2 4510   2.427   4.439   0.993  0.9161  0.8515  0.1185
  296TMC3    C3 4511   2.393   4.337   1.072  0.2538 -0.0150 -0.2164
  296TMC3    C4 4512   2.595   4.320   0.886 -0.2218  1.0506  0.1681
  296TMC3    C5 4513   2.568   4.215   0.978  0.5773 -0.4442  0.2420
  296TMC3    C6 4514   2.461   4.221   1.066  0.3870  0.2883 -0.4051
  296TMC3     C 4515   2.528   4.550   0.806  0.2915 -0.5904  0.2435
  296TMC3     O 4516   2.471   4.651   0.836  0.8061 -0.1437  0.7917
  296TMC3     H 4517   2.384   4.538   0.999  2.7275  1.6273  0.1554
  296TMC3    H1 4518   2.686   4.317   0.827 -0.9795  0.8276 -0.9946
  296TMC3    H2 4519   2.432   4.141   1.134  2.3577  0.2938  0.4501
  296TMC3    C7 4520   2.635   4.090   0.949  0.2019 -0.0509 -0.1378
  296TMC3    C8 4521   2.286   4.349   1.177 -0.7070  0.4311  0.1200
  296TMC3    O1 4522   2.719   4.072   0.862 -0.0724  0.5629 -0.0294
  296TMC3    O2 4523   2.263   4.250   1.243  0.1002  0.4811  0.1673
  297MPD2     C 4524   3.992   2.656  15.684 -0.0590  0.0711  0.4666
  297MPD2    C1 4525   3.975   2.663  15.816 -0.0631 -0.4684 -0.6099
  297MPD2    C2 4526   4.068   2.619  15.903  0.1503 -0.6241 -0.5131
  297MPD2    C3 4527   4.186   2.570  15.860 -0.0082 -0.0813 -0.7802
  297MPD2    C4 4528   4.204   2.563  15.725  0.6557 -0.3548 -0.3689
  297MPD2    C5 4529   4.112   2.606  15.638 -0.4974 -0.2791 -0.5572
  297MPD2     H 4530   4.037   2.612  16.007  1.3010  1.5932 -0.0123
  297MPD2    H1 4531   4.291   2.509  15.689 -0.3190  0.5346 -4.0320
  297MPD2    H2 4532   3.919   2.690  15.612  0.3646  0.4019  0.1924
  297MPD2    H3 4533   4.136   2.602  15.532  2.6013 -1.4525  0.1765
  297MPD2     N 4534   4.284   2.543  15.952  0.4021  0.2189  0.3959
  297MPD2    H5 4535   4.271   2.582  16.045 -1.9773  0.0239  0.1387
  297MPD2    N1 4536   3.856   2.700  15.876  0.0603 -0.0779 -0.0954
  297MPD2    H7 4537   3.835   2.663  15.968 -0.4190  0.5245  0.0398
  298TMC3    C1 4538   3.674   2.822  15.926 -0.1649  0.7283  0.3329
  298TMC3    C2 4539   3.548   2.870  15.890  0.1880 -0.3465 -0.3542
  298TMC3    C3 4540   3.469   2.916  15.989 -0.5410 -0.1016  0.2470
  298TMC3    C4 4541   3.721   2.833  16.055  0.3960  0.1864  0.1814
  298TMC3    C5 4542   3.636   2.901  16.147 -0.2961  0.2863 -0.4443
  298TMC3    C6 4543   3.508   2.943  16.118 -0.1059  0.5813 -0.3606
  298TMC3     C 4544   3.764   2.780  15.821 -0.0731 -0.5682 -0.5844
  298TMC3     O 4545   3.756   2.837  15.712  0.4272  0.3186  0.7070
  298TMC3     H 4546   3.511   2.885  15.789  2.9315  1.0658 -1.1719
  298TMC3    H1 4547   3.824   2.808  16.077 -0.3189 -1.6809  1.3835
  298TMC3    H2 4548   3.448   2.989  16.196  1.7433 -1.8137  2.4770
  298TMC3    C7 4549   3.653   2.885  16.291  0.6139  0.3656  0.2704
  298TMC3    C8 4550   3.327   2.911  15.960  0.2679  0.1309 -0.5015
  298TMC3    O1 4551   3.601   2.968  16.366 -0.1022 -0.3432  0.4217
  298TMC3    O2 4552   3.295   2.882  15.847 -0.0970 -0.6079  0.7525
  299MPD2     C 4553   4.422   1.967  10.648  0.6865  0.1396 -0.5489
  299MPD2    C1 4554   4.531   2.045  10.634  0.0026 -0.9069  0.1135
  299MPD2    C2 4555   4.508   2.181  10.607 -0.5726 -0.6363 -0.3627
  299MPD2    C3 4556   4.378   2.234  10.587  0.0456  0.0798  0.0585
  299MPD2    C4 4557   4.272   2.154  10.607 -0.3353  0.2676  0.9984
  299MPD2    C5 4558   4.291   2.018  10.637 -0.7467 -0.3381  0.1264
  299MPD2     H 4559   4.590   2.250  10.590 -1.4630 -0.0043 -2.0576
  299MPD2    H1 4560   4.169   2.186  10.599 -0.3442 -0.2334 -1.0131
  299MPD2    H2 4561   4.430   1.864  10.679 -0.1951  0.5184  0.9093
  299MPD2    H3 4562   4.207   1.952  10.656  0.5836 -1.6069  1.6666
  299MPD2     N 4563   4.350   2.359  10.525  0.0108 -0.2285 -0.1743
  299MPD2    H5 4564   4.254   2.384  10.503 -0.2439 -1.2931 -0.3008
  299MPD2    N1 4565   4.659   1.983  10.654 -0.1648  0.3249  0.4095
  299MPD2    H7 4566   4.652   1.889  10.690  1.4219  0.3996  0.9233
  300TMC3    C1 4567   4.371   2.584  10.495  0.4322  0.3069  0.1479
  300TMC3    C2 4568   4.394   2.697  10.560 -0.7614  0.0010 -0.6601
  300TMC3    C3 4569   4.317   2.808  10.529  0.2969 -0.0582  0.0338
  300TMC3    C4 4570   4.277   2.570  10.396  0.1911  0.2850 -0.8418
  300TMC3    C5 4571   4.191   2.674  10.385  0.1210 -0.0546 -0.8937
  300TMC3    C6 4572   4.210   2.793  10.442  0.1636 -0.0519  0.7732
  300TMC3     C 4573   4.435   2.469  10.539  0.7490  0.6271  0.1926
  300TMC3     O 4574   4.546   2.480  10.594  0.0766  0.3577 -0.1655
  300TMC3     H 4575   4.480   2.708  10.626 -0.1959  1.9795 -1.7083
  300TMC3    H1 4576   4.273   2.488  10.325 -0.2149 -1.0758  0.7509
  300TMC3    H2 4577   4.139   2.872  10.420  0.5029  0.1755  0.4985
  300TMC3    C7 4578   4.055   2.632  10.379 -0.3069 -0.3827  0.3777
  300TMC3    C8 4579   4.311   2.922  10.626  0.2200 -0.5253 -0.5121
  300TMC3    O1 4580   3.971   2.710  10.422  0.2302  0.4981 -0.0568
  300TMC3    O2 4581   4.202   2.977  10.617  0.3408  0.6649 -0.6249
  301MPD2     C 4582   2.087   3.438   1.269  0.5142 -0.6969  0.0268
  301MPD2    C1 4583   1.992   3.412   1.171 -0.1146 -0.8956 -0.0480
  301MPD2    C2 4584   1.998   3.288   1.113 -0.5948  0.9844 -0.7245
  301MPD2    C3 4585   2.088   3.188   1.155 -0.2750  0.7103 -0.2228
  301MPD2    C4 4586   2.179   3.220   1.253 -0.0493  0.0750  0.1954
  301MPD2    C5 4587   2.173   3.341   1.309 -0.5855 -0.1923  0.3887
  301MPD2     H 4588   1.915   3.268   1.046 -0.9786 -1.3954  0.4729
  301MPD2    H1 4589   2.248   3.142   1.281 -1.0370 -1.1552 -0.8090
  301MPD2    H2 4590   2.093   3.534   1.319 -1.0160 -0.5252 -0.1267
  301MPD2    H3 4591   2.246   3.365   1.386 -0.1497  0.0313 -0.0995
  301MPD2     N 4592   2.102   3.060   1.088 -0.2884  0.2997  0.0102
  301MPD2    H5 4593   2.181   3.003   1.119 -0.7421 -1.1470 -1.5003
  301MPD2    N1 4594   1.902   3.503   1.120  0.2124  0.4492  0.7445
  301MPD2    H7 4595   1.857   3.482   1.031  0.9163 -0.3962  0.5865
  302TMC3    C1 4596   2.051   2.883   0.919 -0.1924  0.1501  0.1455
  302TMC3    C2 4597   2.094   2.783   0.997  0.6727 -0.1059  0.4757
  302TMC3    C3 4598   2.049   2.660   0.965 -0.0544  0.1472  0.1341
  302TMC3    C4 4599   1.973   2.860   0.806  0.4325  0.1778 -0.7703
  302TMC3    C5 4600   1.919   2.737   0.788  1.2104  0.0978 -0.3536
  302TMC3    C6 4601   1.956   2.634   0.867 -0.2482 -0.3655  0.6098
  302TMC3     C 4602   2.025   3.017   0.977 -0.0712  0.2096 -0.1106
  302TMC3     O 4603   1.939   3.076   0.916 -0.2378  0.1779  0.9265
  302TMC3     H 4604   2.158   2.799   1.083  1.7353  0.0349 -0.3404
  302TMC3    H1 4605   1.947   2.937   0.735 -3.2747  0.6259  1.1061
  302TMC3    H2 4606   1.941   2.530   0.841  0.2520 -0.2729 -0.0633
  302TMC3    C7 4607   1.832   2.701   0.676 -0.0841 -0.3099  0.4174
  302TMC3    C8 4608   2.097   2.543   1.038 -0.3889 -0.1717 -0.4840
  302TMC3    O1 4609   1.844   2.582   0.641 -0.0796 -0.6004 -0.4804
  302TMC3    O2 4610   2.209   2.553   1.082  0.2171  0.1551  0.6890
  303MPD2     C 4611   2.384   1.777  10.954 -0.4384  0.2340 -0.2267
  303MPD2    C1 4612   2.340   1.759  10.828 -0.6812 -0.0604 -0.0166
  303MPD2    C2 4613   2.382   1.848  10.721  0.4521 -0.2291 -0.0176
  303MPD2    C3 4614   2.471   1.956  10.753 -0.2515 -1.0084  0.1285
  303MPD2    C4 4615   2.500   1.976  10.882  0.1664  0.1680 -0.3896
  303MPD2    C5 4616   2.457   1.889  10.981  0.2155  0.5292 -0.2495
  303MPD2     H 4617   2.365   1.831  10.616 -1.2490 -2.1702  0.5693
  303MPD2    H1 4618   2.562   2.060  10.911 -0.9935  0.6123  0.7735
  303MPD2    H2 4619   2.351   1.705  11.028  3.0060 -1.9291 -0.7772
  303MPD2    H3 4620   2.483   1.906  11.085 -0.7353 -1.3918  0.3030
  303MPD2     N 4621   2.531   2.042  10.653 -0.2666  0.2101 -0.1939
  303MPD2    H5 4622   2.599   2.112  10.684  1.2168 -1.5492  0.5313
  303MPD2    N1 4623   2.265   1.644  10.806 -0.6238 -0.0667  0.0025
  303MPD2    H7 4624   2.254   1.575  10.879 -2.0773  2.0710  1.7903
  304TMC3    C1 4625   2.121   1.511  10.695  0.5868 -0.0234 -0.3142
  304TMC3    C2 4626   2.011   1.505  10.613 -0.0953 -0.1568  0.3123
  304TMC3    C3 4627   1.958   1.391  10.574  0.4860 -0.4455 -0.3596
  304TMC3    C4 4628   2.176   1.390  10.745  0.0327 -0.3733  0.3055
  304TMC3    C5 4629   2.130   1.269  10.698  0.2178 -0.3717 -0.7365
  304TMC3    C6 4630   2.013   1.267  10.613  0.1478  0.6422 -0.8160
  304TMC3     C 4631   2.189   1.635  10.695  0.7394 -0.2239 -0.0251
  304TMC3     O 4632   2.159   1.720  10.614 -0.2496 -0.1316  0.1634
  304TMC3     H 4633   1.966   1.602  10.594 -1.0866 -0.7743 -0.5103
  304TMC3    H1 4634   2.265   1.398  10.807  0.3111 -0.1268 -0.1182
  304TMC3    H2 4635   1.987   1.174  10.563 -1.1034  0.1428  0.7813
  304TMC3    C7 4636   2.226   1.192  10.626  0.2966 -0.0536 -0.4310
  304TMC3    C8 4637   1.915   1.408  10.435 -0.5369 -0.1461  0.1283
  304TMC3    O1 4638   2.213   1.207  10.506  0.5700  0.8003 -0.5171
  304TMC3    O2 4639   1.837   1.500  10.417  0.3671  0.0029 -0.5877
  305MPD2     C 4640   0.249   3.775  13.925  0.3117 -0.6832 -0.7887
  305MPD2    C1 4641   0.323   3.670  13.968 -0.1329  0.4441 -0.6120
  305MPD2    C2 4642   0.344   3.564  13.886  0.4604  0.1193 -0.3187
  305MPD2    C3 4643   0.295   3.556  13.755 -0.0981 -0.7900 -0.4028
  305MPD2    C4 4644   0.210   3.657  13.713  1.1952  0.0218  0.7557
  305MPD2    C5 4645   0.191   3.765  13.799  0.3445 -0.0977 -0.4879
  305MPD2     H 4646   0.415   3.489  13.918  1.5459  0.8721 -0.9985
  305MPD2    H1 4647   0.163   3.654  13.616 -0.0657  1.6119  1.3131
  305MPD2    H2 4648   0.237   3.864  13.984  0.3926 -0.6094 -0.8832
  305MPD2    H3 4649   0.131   3.847  13.760  0.7208 -1.6829 -4.4693
  305MPD2     N 4650   0.331   3.457  13.659 -0.8044 -0.1004 -0.0823
  305MPD2    H5 4651   0.290   3.467  13.566 -2.6028  1.2708  0.8531
  305MPD2    N1 4652   0.356   3.680  14.102 -0.2783  0.1051 -0.3302
  305MPD2    H7 4653   0.318   3.762  14.149  1.9724  0.5075  0.7909
  306TMC3    C1 4654   0.452   3.612  14.318  0.1038 -0.3899 -0.0335
  306TMC3    C2 4655   0.547   3.536  14.377 -0.6086 -0.2496 -0.2454
  306TMC3    C3 4656   0.554   3.535  14.515 -1.1033 -0.3269  0.1099
  306TMC3    C4 4657   0.384   3.709  14.391  0.7770  0.0343  0.1063
  306TMC3    C5 4658   0.394   3.702  14.528 -0.3833 -0.1396  0.1425
  306TMC3    C6 4659   0.478   3.610  14.591 -0.7373  0.3417 -0.2344
  306TMC3     C 4660   0.437   3.589  14.173  0.8237  0.0164 -0.4931
  306TMC3     O 4661   0.503   3.500  14.124  0.1926  0.3681  0.4587
  306TMC3     H 4662   0.614   3.476  14.316 -0.5752 -1.4653  0.9690
  306TMC3    H1 4663   0.314   3.772  14.337 -0.3609 -2.0807 -0.8792
  306TMC3    H2 4664   0.480   3.598  14.699  0.0492 -0.4731 -0.3436
  306TMC3    C7 4665   0.337   3.812  14.603  0.0787 -0.3718  0.4235
  306TMC3    C8 4666   0.681   3.491  14.567 -0.6679 -0.2379 -0.4304
  306TMC3    O1 4667   0.221   3.842  14.566  0.6737 -0.5727 -0.0921
  306TMC3    O2 4668   0.754   3.435  14.487 -0.1533 -0.6487 -0.0557
  307MPD2     C 4669   2.803   1.734   0.351 -0.0519  0.0903 -0.1453
  307MPD2    C1 4670   2.827   1.871   0.333  0.0527  0.0477 -0.6047
  307MPD2    C2 4671   2.783   1.955   0.428  1.0417 -0.0487  0.1415
  307MPD2    C3 4672   2.743   1.901   0.547  0.0958 -0.4612 -0.0967
  307MPD2    C4 4673   2.742   1.769   0.571 -0.5840 -0.2280 -0.3629
  307MPD2    C5 4674   2.762   1.686   0.467  0.2978  0.2494  0.9205
  307MPD2     H 4675   2.783   2.062   0.413 -0.5981 -0.1468 -0.6203
  307MPD2    H1 4676   2.729   1.717   0.665  1.8457 -0.2850 -0.0423
  307MPD2    H2 4677   2.829   1.662   0.275 -1.1680  0.1189 -0.5602
  307MPD2    H3 4678   2.779   1.582   0.495  1.4187 -0.0289 -0.7783
  307MPD2     N 4679   2.692   1.994   0.648  0.2021  0.4364  0.1784
  307MPD2    H5 4680   2.698   2.091   0.618  0.7218  0.1887 -0.5392
  307MPD2    N1 4681   2.891   1.938   0.224  0.4489  0.1395  0.2752
  307MPD2    H7 4682   2.909   2.038   0.224  0.5427  0.1233  0.0159
  308TMC3    C1 4683   2.395   2.155   0.940 -0.9557  0.1261  0.7849
  308TMC3    C2 4684   2.417   2.280   0.897 -0.2923  0.5784  0.2164
  308TMC3    C3 4685   2.542   2.302   0.848 -0.7875 -0.0271 -0.2274
  308TMC3    C4 4686   2.481   2.051   0.914  0.3949 -0.8338 -0.0075
  308TMC3    C5 4687   2.597   2.074   0.849  0.3734  0.6488  0.0682
  308TMC3    C6 4688   2.634   2.199   0.825  0.0944  0.0393  0.5162
  308TMC3     C 4689   2.262   2.095   0.934 -0.1872 -0.3199 -0.1768
  308TMC3     O 4690   2.244   1.996   1.002 -0.3625 -0.5180  0.9813
  308TMC3     H 4691   2.344   2.360   0.905 -0.1882  0.9933 -2.9485
  308TMC3    H1 4692   2.441   1.950   0.923  0.7540 -0.5258  4.8017
  308TMC3    H2 4693   2.723   2.222   0.768 -0.0415 -0.8022 -0.0365
  308TMC3    C7 4694   2.650   1.961   0.773 -0.6484  0.0637  0.1629
  308TMC3    C8 4695   2.569   2.444   0.816 -0.2854 -0.2378  0.5483
  308TMC3    O1 4696   2.627   1.850   0.819 -0.0154 -0.2195 -0.2129
  308TMC3    O2 4697   2.483   2.499   0.751 -0.0343 -0.1791 -0.1108
  309MPD2     C 4698   1.799   2.539  17.173 -0.8794 -0.1490 -0.2714
  309MPD2    C1 4699   1.762   2.431  17.090 -0.3397 -0.4369 -0.0462
  309MPD2    C2 4700   1.633   2.381  17.100 -0.1246 -0.4071  0.5434
  309MPD2    C3 4701   1.542   2.429  17.193  0.1623  0.7502 -0.3667
  309MPD2    C4 4702   1.579   2.534  17.269  0.1265 -0.6595  0.0004
  309MPD2    C5 4703   1.703   2.591  17.259 -0.2742  0.1493  0.4376
  309MPD2     H 4704   1.612   2.295  17.037  2.0780 -0.3721 -0.2287
  309MPD2    H1 4705   1.514   2.582  17.340  0.9135  0.1015  0.2044
  309MPD2    H2 4706   1.896   2.588  17.174 -0.0212 -1.8278 -1.4641
  309MPD2    H3 4707   1.719   2.686  17.311  3.2688 -0.0899 -0.2216
  309MPD2     N 4708   1.409   2.382  17.203  0.2415  0.3720  0.5202
  309MPD2    H5 4709   1.346   2.430  17.266  2.7797  0.2771  3.1228
  309MPD2    N1 4710   1.849   2.365  17.001 -0.1235 -0.2168  0.5734
  309MPD2    H7 4711   1.813   2.294  16.939 -1.6806 -0.5792  1.9071
  310TMC3    C1 4712   2.049   2.323  16.880  0.7149  0.7675  0.0411
  310TMC3    C2 4713   1.990   2.329  16.757 -1.0511  0.7638  0.6549
  310TMC3    C3 4714   2.070   2.313  16.648  0.0237 -0.3231  0.2591
  310TMC3    C4 4715   2.184   2.304  16.900 -0.2173  0.2113  0.3775
  310TMC3    C5 4716   2.263   2.307  16.790  0.6380 -0.4770 -0.4177
  310TMC3    C6 4717   2.208   2.305  16.667  0.5745  0.0071  0.1629
  310TMC3     C 4718   1.983   2.387  16.995 -0.8616 -0.0848 -1.2470
  310TMC3     O 4719   2.057   2.460  17.060  0.1880 -0.2798 -0.4102
  310TMC3     H 4720   1.882   2.339  16.753 -1.0595 -0.0708 -1.0627
  310TMC3    H1 4721   2.227   2.285  16.998  2.1789  0.5567 -0.6096
  310TMC3    H2 4722   2.282   2.309  16.588  1.9069 -0.3228  1.3987
  310TMC3    C7 4723   2.398   2.250  16.797 -0.1337 -0.9114 -0.3058
  310TMC3    C8 4724   2.024   2.298  16.507 -0.1144  0.0493  0.4520
  310TMC3    O1 4725   2.433   2.197  16.693  0.2130 -0.1523  0.0706
  310TMC3    O2 4726   1.923   2.355  16.472  0.1160 -0.0444  0.5608
  311MPD2     C 4727   4.371   3.194  12.531 -0.1736 -0.7081 -0.0659
  311MPD2    C1 4728   4.370   3.313  12.595 -0.0405  0.3304 -0.1787
  311MPD2    C2 4729   4.253   3.366  12.643  0.0138 -1.0637  0.1075
  311MPD2    C3 4730   4.139   3.290  12.643 -0.4007  0.2385 -0.7994
  311MPD2    C4 4731   4.134   3.168  12.582  0.0083  0.5658 -0.2265
  311MPD2    C5 4732   4.250   3.123  12.523  0.2004 -0.4698 -0.5882
  311MPD2     H 4733   4.249   3.462  12.693  0.3113 -1.4293  0.8460
  311MPD2    H1 4734   4.041   3.113  12.578 -0.1256  0.9802 -2.6297
  311MPD2    H2 4735   4.450   3.141  12.478 -1.5763 -1.9471 -0.9294
  311MPD2    H3 4736   4.263   3.024  12.480  3.7410 -0.2471  0.0018
  311MPD2     N 4737   4.025   3.346  12.717 -0.3658  0.1259  0.1967
  311MPD2    H5 4738   4.042   3.439  12.753  1.3189  0.8318 -2.4343
  311MPD2    N1 4739   4.483   3.395  12.630 -0.2452  0.1141 -0.0961
  311MPD2    H7 4740   4.471   3.488  12.668  2.0198  0.5275 -0.4143
  312TMC3    C1 4741   3.838   3.330  12.851  0.1361 -0.3002  0.3317
  312TMC3    C2 4742   3.749   3.244  12.900  0.2025  0.2962 -0.3641
  312TMC3    C3 4743   3.703   3.256  13.024 -0.1720 -0.2861 -0.5896
  312TMC3    C4 4744   3.866   3.454  12.914 -0.1247 -0.6501  0.5710
  312TMC3    C5 4745   3.815   3.469  13.042 -0.1268 -0.0209 -0.9196
  312TMC3    C6 4746   3.729   3.372  13.093  1.0502  0.1891 -0.1223
  312TMC3     C 4747   3.907   3.280  12.733  0.7876 -0.6444 -0.2740
  312TMC3     O 4748   3.849   3.208  12.656 -0.2237 -0.3925  0.0578
  312TMC3     H 4749   3.720   3.162  12.835 -0.3707 -0.6608  1.1270
  312TMC3    H1 4750   3.944   3.515  12.870 -0.3028 -1.0596 -0.3151
  312TMC3    H2 4751   3.680   3.387  13.188  1.6911  0.7148  0.1257
  312TMC3    C7 4752   3.899   3.545  13.139 -0.2822 -0.1612  0.3354
  312TMC3    C8 4753   3.585   3.174  13.053  0.4440 -0.4604 -0.1649
  312TMC3    O1 4754   3.993   3.606  13.088 -0.0488 -0.0026 -0.3329
  312TMC3    O2 4755   3.525   3.125  12.958  0.4551  0.2860 -0.3080
  313MPD2     C 4756   3.190   3.094  11.613 -0.7970 -0.0499 -0.1891
  313MPD2    C1 4757   3.210   3.097  11.475  0.7220  0.5773 -0.5112
  313MPD2    C2 4758   3.182   2.980  11.409  0.0775  0.3824  0.2401
  313MPD2    C3 4759   3.157   2.857  11.469 -0.3866  0.4747  0.2853
  313MPD2    C4 4760   3.149   2.853  11.607 -1.0404  0.8223 -0.0702
  313MPD2    C5 4761   3.158   2.975  11.671 -0.0201 -0.9257 -0.0177
  313MPD2     H 4762   3.216   2.985  11.306 -1.4792  1.8877 -0.1909
  313MPD2    H1 4763   3.156   2.763  11.667 -1.5323 -0.1903 -1.5207
  313MPD2    H2 4764   3.194   3.184  11.674 -1.9076 -0.3443  0.3262
  313MPD2    H3 4765   3.168   2.971  11.779  0.1322 -2.1077 -0.0691
  313MPD2     N 4766   3.158   2.745  11.382 -0.0469  0.3229 -0.4802
  313MPD2    H5 4767   3.172   2.766  11.284  0.2697  1.0254 -0.2893
  313MPD2    N1 4768   3.257   3.209  11.407 -0.3079 -0.1854  0.1568
  313MPD2    H7 4769   3.263   3.197  11.306  0.7475  1.0981  0.0636
  314TMC3    C1 4770   3.385   3.394  11.364  0.2671  0.4241  0.0830
  314TMC3    C2 4771   3.517   3.428  11.377 -0.2146  0.2785 -0.0779
  314TMC3    C3 4772   3.572   3.488  11.267 -0.1607  0.0539 -0.5809
  314TMC3    C4 4773   3.311   3.415  11.251  0.2684 -0.8642 -0.2723
  314TMC3    C5 4774   3.382   3.455  11.134 -0.3068  0.3261  0.1725
  314TMC3    C6 4775   3.510   3.508  11.145  0.1014 -0.3954 -0.5213
  314TMC3     C 4776   3.322   3.311  11.465 -0.2652  0.0113 -0.2635
  314TMC3     O 4777   3.352   3.331  11.585 -0.0174  0.8056 -0.0015
  314TMC3     H 4778   3.570   3.407  11.469  0.0610  1.8580  0.1188
  314TMC3    H1 4779   3.204   3.398  11.246 -0.5816  4.8544 -1.1719
  314TMC3    H2 4780   3.564   3.541  11.057 -1.1718 -2.0997 -1.9333
  314TMC3    C7 4781   3.329   3.420  11.005  0.2664  0.1919  0.1400
  314TMC3    C8 4782   3.707   3.546  11.276  0.3008  0.1638 -0.2266
  314TMC3    O1 4783   3.207   3.402  11.008  0.2985 -0.2211 -0.4689
  314TMC3    O2 4784   3.758   3.584  11.171 -0.1755  0.5161 -0.4761
  315MPD2     C 4785   3.267   1.749  17.304  0.3248  0.2299  0.0954
  315MPD2    C1 4786   3.262   1.677  17.423  0.6441 -0.2095  0.6054
  315MPD2    C2 4787   3.284   1.744  17.540  0.4422  0.3607 -0.0896
  315MPD2    C3 4788   3.319   1.875  17.541 -0.0256 -0.0992 -0.4075
  315MPD2    C4 4789   3.342   1.941  17.423 -0.2770 -0.2702  0.1746
  315MPD2    C5 4790   3.308   1.878  17.307 -0.1901 -0.1799 -0.0370
  315MPD2     H 4791   3.259   1.708  17.640  2.1935  1.2939  0.6852
  315MPD2    H1 4792   3.390   2.038  17.413  1.1885 -1.0741 -0.4320
  315MPD2    H2 4793   3.238   1.707  17.209 -0.4252  1.2092 -0.1171
  315MPD2    H3 4794   3.314   1.930  17.212 -1.1297 -1.7864 -0.9904
  315MPD2     N 4795   3.339   1.942  17.668 -1.1011  0.4699 -0.5029
  315MPD2    H5 4796   3.334   1.878   0.007  0.6517 -0.7141 -1.3793
  315MPD2    N1 4797   3.247   1.539  17.431 -0.1594 -0.1176 -0.4643
  315MPD2    H7 4798   3.246   1.498  17.524  0.5589  0.1464 -0.3420
  316TMC3    C1 4799   3.387   2.116   0.083  0.7911 -0.1205  0.0595
  316TMC3    C2 4800   3.431   2.031   0.184  0.4812  0.0230 -0.1139
  316TMC3    C3 4801   3.491   2.091   0.290 -0.1334 -0.3835  0.0921
  316TMC3    C4 4802   3.401   2.250   0.097 -0.3389  0.0174 -0.7465
  316TMC3    C5 4803   3.457   2.301   0.210 -0.1579 -0.0831  0.4613
  316TMC3    C6 4804   3.496   2.224   0.316  0.2357  0.1730 -0.6120
  316TMC3     C 4805   3.376   2.078  17.686 -0.0076  0.5976  0.4831
  316TMC3     O 4806   3.386   2.166  17.599 -0.1099  0.5125  0.1141
  316TMC3     H 4807   3.440   1.925   0.163  1.6616 -0.5042  3.0159
  316TMC3    H1 4808   3.340   2.317   0.038 -4.3933 -1.2735  1.9290
  316TMC3    H2 4809   3.513   2.276   0.410 -0.3583  1.0494 -0.9936
  316TMC3    C7 4810   3.477   2.449   0.226 -0.4706  0.4005  0.3609
  316TMC3    C8 4811   3.532   2.005   0.407 -0.5480 -0.5226  0.4105
  316TMC3    O1 4812   3.520   2.493   0.332 -0.6355 -0.0600 -0.0677
  316TMC3    O2 4813   3.546   2.077   0.510 -0.2897 -0.5135 -0.0741
  317MPD2     C 4814   0.835   0.592  13.210 -0.3302 -0.4902  0.3163
  317MPD2    C1 4815   0.915   0.484  13.185  0.1850 -0.1899 -0.2326
  317MPD2    C2 4816   0.942   0.400  13.294 -0.5493 -0.1006  0.4148
  317MPD2    C3 4817   0.902   0.430  13.422 -0.5860 -0.6672  0.2812
  317MPD2    C4 4818   0.839   0.549  13.444  0.5262  0.5042  0.0446
  317MPD2    C5 4819   0.814   0.635  13.342 -0.6220  0.2815  0.5509
  317MPD2     H 4820   1.007   0.315  13.278 -1.3708 -0.8813  1.2194
  317MPD2    H1 4821   0.825   0.591  13.542  1.8464 -2.9705  1.7440
  317MPD2    H2 4822   0.805   0.656  13.128 -1.3301 -0.2151  0.8984
  317MPD2    H3 4823   0.767   0.732  13.355 -0.1076  0.3149  2.1065
  317MPD2     N 4824   0.927   0.336  13.519 -0.2889  0.0466 -0.1575
  317MPD2    H5 4825   0.952   0.240  13.502 -2.1136 -0.0838 -2.2484
  317MPD2    N1 4826   0.965   0.445  13.058 -0.4182  0.0610 -0.2606
  317MPD2    H7 4827   1.010   0.354  13.056 -0.7551 -0.0443 -2.8839
  318TMC3    C1 4828   0.930   0.237  13.733  0.8492  0.6040 -0.2027
  318TMC3    C2 4829   0.859   0.132  13.676 -0.0185 -0.4062 -0.1249
  318TMC3    C3 4830   0.845   0.023  13.760  0.0503 -1.0688 -0.2705
  318TMC3    C4 4831   0.996   0.239  13.853 -0.2881  0.2050  0.0076
  318TMC3    C5 4832   0.990   0.122  13.922 -0.0518  0.0283  0.4312
  318TMC3    C6 4833   0.915   0.011  13.881 -0.4381  0.4056  0.3598
  318TMC3     C 4834   0.947   0.366  13.652 -0.2308  0.0128 -0.2319
  318TMC3     O 4835   0.959   0.469  13.718 -0.0295  0.0589 -0.2199
  318TMC3     H 4836   0.808   0.135  13.581  0.8615 -0.4904 -0.6083
  318TMC3    H1 4837   1.070   0.315  13.873 -0.0201 -0.0232 -0.1142
  318TMC3    H2 4838   0.921   4.656  13.940  0.4379  0.2220 -0.0020
  318TMC3    C7 4839   1.112   0.098  14.007  0.5565  0.5554 -0.7272
  318TMC3    C8 4840   0.774   4.642  13.711  0.2397  0.0466  0.0476
  318TMC3    O1 4841   1.173   4.725  13.991 -0.1960 -0.4544 -0.1322
  318TMC3    O2 4842   0.794   4.539  13.777  0.0928 -0.1244  0.2857
  319MPD2     C 4843   2.000   1.880  16.599 -0.0856  0.1737  0.2659
  319MPD2    C1 4844   1.888   1.828  16.657  0.5532 -0.0335  0.0091
  319MPD2    C2 4845   1.790   1.770  16.571  0.3073 -0.1790 -0.1190
  319MPD2    C3 4846   1.798   1.780  16.432 -1.0057  0.3858  0.4725
  319MPD2    C4 4847   1.901   1.847  16.376 -0.3970  0.1495  1.2275
  319MPD2    C5 4848   2.003   1.896  16.461 -0.6420 -0.3591  0.0420
  319MPD2     H 4849   1.701   1.731  16.619  0.5844  0.4790  0.9394
  319MPD2    H1 4850   1.901   1.878  16.273 -0.3461 -0.8879  0.9093
  319MPD2    H2 4851   2.081   1.926  16.654 -0.6284  1.3336  0.1055
  319MPD2    H3 4852   2.085   1.937  16.405 -1.4609  1.7617  0.3950
  319MPD2     N 4853   1.700   1.727  16.346 -0.9460  0.3403 -0.9312
  319MPD2    H5 4854   1.714   1.750  16.248  2.4391 -2.5869 -1.1304
  319MPD2    N1 4855   1.854   1.838  16.795 -0.2583 -0.4763  0.1400
  319MPD2    H7 4856   1.765   1.800  16.826  0.3618 -1.2136  1.0181
  320TMC3    C1 4857   1.523   1.583  16.271  0.2731  0.3253 -0.5575
  320TMC3    C2 4858   1.481   1.679  16.177  0.4107  0.1766  0.4153
  320TMC3    C3 4859   1.398   1.625  16.081 -0.0543 -0.1121 -0.2939
  320TMC3    C4 4860   1.487   1.453  16.271  0.4948  0.3380 -0.2320
  320TMC3    C5 4861   1.396   1.409  16.180  0.0629 -0.0681  0.0321
  320TMC3    C6 4862   1.357   1.492  16.076 -0.0765  0.7787 -0.4709
  320TMC3     C 4863   1.607   1.630  16.377 -0.0280  0.0581 -0.9080
  320TMC3     O 4864   1.603   1.565  16.481 -0.3465  0.8263 -0.1417
  320TMC3     H 4865   1.496   1.786  16.186  1.0495  0.2071 -0.9723
  320TMC3    H1 4866   1.527   1.385  16.345 -1.0574 -0.3219  0.0112
  320TMC3    H2 4867   1.277   1.454  16.012 -0.0278  0.2846 -0.2407
  320TMC3    C7 4868   1.359   1.274  16.172 -0.3864 -1.2744 -0.2491
  320TMC3    C8 4869   1.319   1.712  16.008  0.8143 -0.3918 -1.2120
  320TMC3    O1 4870   1.360   1.203  16.073  0.5136  0.2639 -0.1394
  320TMC3    O2 4871   1.313   1.827  16.061 -0.8122  0.5582 -0.4648
  321TMC3    C1 4872   1.878   1.892  17.023  0.6841  0.0937 -0.6675
  321TMC3    C2 4873   1.797   1.793  17.071 -0.6868 -0.5987 -0.1789
  321TMC3    C3 4874   1.760   1.783  17.201 -0.6893 -0.7324 -0.7332
  321TMC3    C4 4875   1.927   1.984  17.112  0.2906 -0.1929  0.9159
  321TMC3    C5 4876   1.892   1.972  17.247  0.1799 -0.0326 -0.4106
  321TMC3    C6 4877   1.804   1.872  17.294 -0.3179  0.2743 -0.1824
  321TMC3     C 4878   1.940   1.886  16.890 -0.3186  0.5397  0.8327
  321TMC3     O 4879   2.047   1.943  16.880  0.6731 -0.0695 -0.4505
  321TMC3     H 4880   1.774   1.704  17.013 -0.1120 -1.2182  0.5464
  321TMC3    H1 4881   1.999   2.056  17.074  0.8908 -1.5144 -0.4580
  321TMC3    H2 4882   1.776   1.866  17.399 -1.6956 -3.2019 -0.7441
  321TMC3    C7 4883   1.979   2.045  17.344 -0.5972  0.2349 -0.1619
  321TMC3    C8 4884   1.701   1.654  17.246  0.0206 -0.0234  0.2552
  321TMC3    O1 4885   2.076   2.110  17.311 -0.2821 -0.3374  0.6210
  321TMC3    O2 4886   1.610   1.599  17.179  0.2816  0.4413  0.0755
  322MPD2     C 4887   0.207   3.021  13.907 -0.1576  0.2870 -0.7863
  322MPD2    C1 4888   0.265   2.934  13.998 -0.7159 -0.4528  0.2306
  322MPD2    C2 4889   0.276   2.800  13.964 -0.3220  0.0303  0.0239
  322MPD2    C3 4890   0.228   2.750  13.845  0.2214  0.6575 -0.6395
  322MPD2    C4 4891   0.174   2.844  13.755 -0.9971 -0.5691  0.5015
  322MPD2    C5 4892   0.155   2.977  13.787 -1.1037 -0.1271  0.2178
  322MPD2     H 4893   0.320   2.734  14.037  0.9521 -1.8928 -2.4902
  322MPD2    H1 4894   0.137   2.817  13.657  0.4089 -0.5672 -0.0294
  322MPD2    H2 4895   0.201   3.126  13.933  1.0918  0.4338 -1.0820
  322MPD2    H3 4896   0.105   3.042  13.716 -1.7834 -0.3782  0.4777
  322MPD2     N 4897   0.220   2.618  13.816  0.0708 -0.2262 -0.3084
  322MPD2    H5 4898   0.283   2.557  13.868 -0.3040 -1.0370 -0.7966
  322MPD2    N1 4899   0.306   2.991  14.124 -0.0504 -0.0010  0.0185
  322MPD2    H7 4900   0.314   3.092  14.130 -1.9362  0.1055  0.9262
  323TMC3    C1 4901   0.412   3.003  14.323  0.1005  0.4973 -0.2894
  323TMC3    C2 4902   0.497   3.093  14.268 -0.6221  0.4053  0.2665
  323TMC3    C3 4903   0.578   3.153  14.357 -0.6144 -0.6776  0.2714
  323TMC3    C4 4904   0.407   2.965  14.454  0.4332 -0.1801 -0.4769
  323TMC3    C5 4905   0.489   3.027  14.542 -0.5016  0.5397 -0.9095
  323TMC3    C6 4906   0.574   3.124  14.492  0.0237 -0.2701 -0.5133
  323TMC3     C 4907   0.340   2.919  14.228 -0.4496 -0.2418 -0.1980
  323TMC3     O 4908   0.325   2.800  14.263  0.2154 -0.1317  0.2334
  323TMC3     H 4909   0.497   3.101  14.160 -0.3632 -2.0946  0.0895
  323TMC3    H1 4910   0.355   2.874  14.484  0.3105  0.0709  0.0797
  323TMC3    H2 4911   0.645   3.171  14.559  2.2426 -1.1431 -2.2564
  323TMC3    C7 4912   0.542   2.931  14.639  0.2546 -0.2208 -0.3856
  323TMC3    C8 4913   0.700   3.201  14.300 -0.1746 -0.6393  0.3615
  323TMC3    O1 4914   0.544   2.817  14.595 -0.1045  0.0104 -0.3005
  323TMC3    O2 4915   0.801   3.194  14.367 -0.2290  0.2231  0.1927
  324MPD2     C 4916   1.742   4.081  14.542 -0.1721 -0.9115  0.8495
  324MPD2    C1 4917   1.706   4.213  14.543 -0.4617  0.4863  0.3325
  324MPD2    C2 4918   1.568   4.236  14.547 -0.3517 -0.0521  0.1365
  324MPD2    C3 4919   1.469   4.136  14.541 -0.6029  0.6828 -0.9100
  324MPD2    C4 4920   1.513   4.008  14.540  0.2164  0.1720 -0.0964
  324MPD2    C5 4921   1.647   3.983  14.538  0.5074  0.2109 -0.4104
  324MPD2     H 4922   1.532   4.338  14.551 -0.1477  0.0485 -0.5729
  324MPD2    H1 4923   1.446   3.923  14.541  0.9502 -0.3976  1.1211
  324MPD2    H2 4924   1.843   4.043  14.538  0.5053  0.6983  2.6147
  324MPD2    H3 4925   1.692   3.885  14.544 -0.9460 -0.6165 -3.1405
  324MPD2     N 4926   1.329   4.160  14.528 -0.1178 -0.7507  0.4312
  324MPD2    H5 4927   1.267   4.083  14.504 -1.1500  0.5319 -0.9736
  324MPD2    N1 4928   1.787   4.326  14.562  0.1132  0.0658 -0.2284
  324MPD2    H7 4929   1.742   4.416  14.575 -0.4635 -0.1013 -1.1085
  325TMC3    C1 4930   1.122   4.279  14.489  0.7479 -0.3332  0.0037
  325TMC3    C2 4931   1.053   4.161  14.485  0.2255  1.2109  0.4505
  325TMC3    C3 4932   0.916   4.169  14.487  0.4274  0.2404 -0.0313
  325TMC3    C4 4933   1.060   4.398  14.481 -0.3581 -0.8825 -0.4333
  325TMC3    C5 4934   0.926   4.395  14.472  0.2013 -1.0557  1.3939
  325TMC3    C6 4935   0.850   4.287  14.487 -0.3387 -0.2514 -0.5610
  325TMC3     C 4936   1.265   4.279  14.517 -0.3782  0.2873 -0.1012
  325TMC3     O 4937   1.318   4.391  14.527  0.5467 -0.4029 -0.6624
  325TMC3     H 4938   1.106   4.069  14.502  0.2464  1.1786  0.2094
  325TMC3    H1 4939   1.117   4.487  14.458 -0.2421 -0.6180  0.8465
  325TMC3    H2 4940   0.743   4.297  14.500 -0.4178  0.9764 -2.1993
  325TMC3    C7 4941   0.853   4.520  14.458  0.1857  0.3792 -0.1517
  325TMC3    C8 4942   0.852   4.057  14.429 -0.9060 -0.2413 -0.3596
  325TMC3    O1 4943   0.747   4.509  14.401 -0.2200  0.0376  0.6851
  325TMC3    O2 4944   0.734   4.037  14.456  0.1904 -0.0137 -0.4017
  326MPD2     C 4945   3.607   0.137  11.054  0.0502 -0.4303 -0.7126
  326MPD2    C1 4946   3.612   0.244  10.971 -0.5845  0.4407  0.0467
  326MPD2    C2 4947   3.682   0.363  11.005 -0.0482  0.1472  0.3925
  326MPD2    C3 4948   3.773   0.354  11.109 -0.2871  0.0563  0.6099
  326MPD2    C4 4949   3.781   0.244  11.190  0.0692 -0.1177  0.2278
  326MPD2    C5 4950   3.695   0.137  11.158 -1.0549  0.1483  0.0672
  326MPD2     H 4951   3.690   0.445  10.934 -1.3036 -1.4904 -1.6550
  326MPD2    H1 4952   3.853   0.235  11.270 -1.4321 -2.6510  1.2565
  326MPD2    H2 4953   3.550   0.049  11.028 -1.7608  0.8060 -0.9336
  326MPD2    H3 4954   3.717   0.046  11.212 -2.3773  1.1838  2.3440
  326MPD2     N 4955   3.861   0.465  11.131 -0.0313 -0.4674  0.1939
  326MPD2    H5 4956   3.947   0.445  11.181  0.8043  0.1899 -0.9712
  326MPD2    N1 4957   3.538   0.247  10.853  0.4878 -0.5203  0.2232
  326MPD2    H7 4958   3.541   0.331  10.795  2.1387  0.4715  1.7265
  327TMC3    C1 4959   3.439   0.168  10.661  0.3963 -0.0945 -0.2030
  327TMC3    C2 4960   3.370   0.283  10.626  0.0435 -0.0741 -0.6049
  327TMC3    C3 4961   3.388   0.324  10.495  0.4897 -0.2909  0.2368
  327TMC3    C4 4962   3.507   0.083  10.573 -0.4518  0.5891 -0.1240
  327TMC3    C5 4963   3.532   0.142  10.449 -0.0685 -0.1537  0.2451
  327TMC3    C6 4964   3.460   0.252  10.405  0.2052  0.1460  0.1942
  327TMC3     C 4965   3.467   0.144  10.799  0.4614 -0.1981  0.1943
  327TMC3     O 4966   3.467   0.022  10.829  0.1357  0.2748 -0.0887
  327TMC3     H 4967   3.319   0.332  10.708  1.4229  1.3445 -0.6002
  327TMC3    H1 4968   3.559   4.734  10.617 -3.0366 -0.9163  0.0417
  327TMC3    H2 4969   3.460   0.283  10.301 -1.9709 -1.7119 -0.3689
  327TMC3    C7 4970   3.668   0.156  10.411 -0.7954 -0.6247 -0.3083
  327TMC3    C8 4971   3.353   0.461  10.461 -0.2003 -0.0235  0.9632
  327TMC3    O1 4972   3.694   0.215  10.307  0.7682 -0.0131  0.2418
  327TMC3    O2 4973   3.389   0.498  10.350 -0.0906  0.0700 -0.3942
  328MPD2     C 4974   1.230   0.497  17.280  0.3284  0.1701 -0.1941
  328MPD2    C1 4975   1.121   0.419  17.267  0.6544 -0.2178 -0.4779
  328MPD2    C2 4976   1.011   0.457  17.195 -0.2509  0.4520 -0.3285
  328MPD2    C3 4977   1.009   0.584  17.136  0.1470  0.1966  0.2483
  328MPD2    C4 4978   1.107   0.671  17.167  0.2730 -0.9571 -0.1458
  328MPD2    C5 4979   1.222   0.626  17.236 -0.4985 -0.0726 -0.6923
  328MPD2     H 4980   0.933   0.383  17.179  0.4682 -0.3881  0.0493
  328MPD2    H1 4981   1.098   0.770  17.124  2.6367 -0.0174  1.5498
  328MPD2    H2 4982   1.325   0.467  17.322  0.3081  0.0887 -0.2068
  328MPD2    H3 4983   1.306   0.694  17.239  0.3266 -0.9963 -3.0776
  328MPD2     N 4984   0.886   0.614  17.063 -0.1465 -0.4413 -0.3907
  328MPD2    H5 4985   0.871   0.710  17.034 -0.9580 -0.2175  0.7752
  328MPD2    N1 4986   1.112   0.290  17.324  0.2096  0.7431 -0.0291
  328MPD2    H7 4987   1.038   0.233  17.284  2.2645 -1.8624 -0.1296
  329TMC3    C1 4988   1.122   0.134  17.493 -0.2059  0.3592 -0.4246
  329TMC3    C2 4989   1.066   0.142  17.618  0.1543 -0.5204  0.3245
  329TMC3    C3 4990   0.979   0.045  17.656 -0.0575  0.3735  0.7739
  329TMC3    C4 4991   1.099   0.033  17.407 -0.6438  0.3117 -0.6605
  329TMC3    C5 4992   1.035   4.663  17.460 -0.0874 -0.7788  0.7252
  329TMC3    C6 4993   0.976   4.663  17.585 -0.2633 -0.3369 -0.1466
  329TMC3     C 4994   1.167   0.262  17.446 -0.4760 -0.2137  0.1084
  329TMC3     O 4995   1.225   0.328  17.528  0.2558  0.2619 -0.2445
  329TMC3     H 4996   1.075   0.234  17.676  0.0885 -0.6864  0.5964
  329TMC3    H1 4997   1.149   0.033  17.311  0.9328 -0.8485  0.1548
  329TMC3    H2 4998   0.915   4.584  17.627  1.2966 -1.5811 -0.2246
  329TMC3    C7 4999   1.003   4.552  17.373 -0.5431  0.7024 -0.1617
  329TMC3    C8 5000   0.840   0.088  17.653 -0.7118 -0.5499  0.4123
  329TMC3    O1 5001   0.975   4.446  17.430  0.0567 -0.3474  0.1785
  329TMC3    O2 5002   0.754   0.018  17.595 -0.1101 -0.2663  0.6234
  330TMC3    C1 5003   4.043   0.293   9.317  0.0495 -0.0287 -0.1350
  330TMC3    C2 5004   3.980   0.209   9.234 -0.5916 -0.6100 -0.5622
  330TMC3    C3 5005   4.036   0.084   9.212  0.2165 -0.2198  0.5294
  330TMC3    C4 5006   4.153   0.255   9.376  0.1595 -0.3806 -0.1711
  330TMC3    C5 5007   4.210   0.136   9.354  0.2032  0.8423  0.6027
  330TMC3    C6 5008   4.154   0.043   9.267 -0.2930 -0.7456  0.0620
  330TMC3     C 5009   3.983   0.415   9.361  0.4017  0.1766 -0.6216
  330TMC3     O 5010   4.066   0.500   9.392  0.3446  0.1836 -0.4216
  330TMC3     H 5011   3.885   0.235   9.189 -0.2017 -0.7206 -1.4590
  330TMC3    H1 5012   4.190   0.326   9.450  0.4955 -1.0704  0.3225
  330TMC3    H2 5013   4.187   4.679   9.240  2.0261 -0.4723  1.8686
  330TMC3    C7 5014   4.337   0.103   9.415 -0.5805 -0.0499 -0.4577
  330TMC3    C8 5015   3.938   4.725   9.164  0.5864  0.1389  0.1344
  330TMC3    O1 5016   4.378   0.183   9.496 -0.3452  0.3642 -0.2873
  330TMC3    O2 5017   3.846   0.030   9.095  0.7619  0.0862  0.1557
  331MPD2     C 5018   2.261   3.915  13.344  0.6095 -0.4874 -0.6425
  331MPD2    C1 5019   2.278   3.914  13.206  0.6025  0.6355  0.1938
  331MPD2    C2 5020   2.203   3.843  13.115 -0.4132 -0.5798  0.0794
  331MPD2    C3 5021   2.107   3.755  13.165 -0.0108  0.2079  0.0231
  331MPD2    C4 5022   2.102   3.735  13.302 -0.4922  0.5789 -0.3926
  331MPD2    C5 5023   2.174   3.818  13.383  0.2707  0.9103  0.3076
  331MPD2     H 5024   2.216   3.869  13.010  0.7435 -1.6934 -0.0605
  331MPD2    H1 5025   2.033   3.663  13.345 -2.5811  1.6760 -1.9003
  331MPD2    H2 5026   2.311   3.990  13.405 -1.5964  0.5527 -0.1178
  331MPD2    H3 5027   2.155   3.804  13.488  0.8967  1.2302  0.4645
  331MPD2     N 5028   2.027   3.686  13.075 -0.1587  0.1019  0.4086
  331MPD2    H5 5029   2.029   3.705  12.976 -0.3803  1.6404  0.6972
  331MPD2    N1 5030   2.350   4.030  13.157  0.3384 -0.6804  0.1215
  331MPD2    H7 5031   2.378   4.107  13.218  1.8118  0.3951 -1.9274
  332TMC3    C1 5032   1.881   3.526  12.980  0.2701 -0.2247 -0.7125
  332TMC3    C2 5033   1.905   3.583  12.862 -0.1655 -0.3002  0.3384
  332TMC3    C3 5034   1.868   3.513  12.750 -0.6643 -0.2980 -0.6311
  332TMC3    C4 5035   1.837   3.399  12.997 -0.0728  0.6660  0.2000
  332TMC3    C5 5036   1.809   3.327  12.887  0.5045 -0.2109  0.3900
  332TMC3    C6 5037   1.820   3.384  12.761 -0.6456  0.0614 -0.3454
  332TMC3     C 5038   1.949   3.578  13.098  0.2144  0.0860  1.2253
  332TMC3     O 5039   1.935   3.518  13.207 -0.0462  0.9307  0.4609
  332TMC3     H 5040   1.938   3.683  12.839 -0.6829 -0.7396 -2.3103
  332TMC3    H1 5041   1.819   3.364  13.098  0.5054 -2.7212 -0.8853
  332TMC3    H2 5042   1.796   3.324  12.675 -4.6501 -0.4742  1.1298
  332TMC3    C7 5043   1.845   3.191  12.892 -0.0359  0.4839 -0.4365
  332TMC3    C8 5044   1.865   3.582  12.624 -0.3583  0.0391  0.2941
  332TMC3    O1 5045   1.759   3.109  12.853  0.1499  0.1565  0.8440
  332TMC3    O2 5046   1.948   3.658  12.591  0.1876 -0.6208 -0.5181
  333MPD2     C 5047   1.862   4.221  11.101 -0.1488  0.6965  0.5259
  333MPD2    C1 5048   1.939   4.118  11.148 -0.4157 -0.0473  0.1243
  333MPD2    C2 5049   1.882   4.027  11.235 -0.6428  0.1738 -0.5493
  333MPD2    C3 5050   1.751   4.042  11.276  0.0731 -0.4358  0.3872
  333MPD2    C4 5051   1.678   4.155  11.236  0.1663 -0.3841 -0.2582
  333MPD2    C5 5052   1.734   4.236  11.141 -0.0180 -0.7426  0.7954
  333MPD2     H 5053   1.942   3.944  11.269  0.0842  0.5203 -0.9725
  333MPD2    H1 5054   1.579   4.175  11.275  0.4837 -1.1303  0.9414
  333MPD2    H2 5055   1.908   4.293  11.035 -0.2162 -0.4631 -0.7731
  333MPD2    H3 5056   1.680   4.320  11.099 -0.9224 -1.4225  0.6112
  333MPD2     N 5057   1.699   3.943  11.363 -0.7613 -0.1211  0.3529
  333MPD2    H5 5058   1.751   3.856  11.365  1.7022  1.3525  0.7668
  333MPD2    N1 5059   2.072   4.115  11.095  0.3034 -0.2013  0.4981
  333MPD2    H7 5060   2.096   4.190  11.031 -2.1421  1.1476  1.1498
  334TMC3    C1 5061   2.299   4.070  11.087 -0.0997  0.9332 -0.4607
  334TMC3    C2 5062   2.407   3.982  11.101 -0.0588  0.0232 -0.4433
  334TMC3    C3 5063   2.533   4.023  11.068 -0.0975 -0.4560 -0.0183
  334TMC3    C4 5064   2.312   4.197  11.024 -0.1067 -0.1391  0.0209
  334TMC3    C5 5065   2.446   4.236  11.000  0.5674  0.1540 -0.7126
  334TMC3    C6 5066   2.548   4.150  11.021  0.1479 -0.4675  0.1232
  334TMC3     C 5067   2.170   4.028  11.133  0.0717 -0.6660 -0.5327
  334TMC3     O 5068   2.159   3.924  11.198 -0.3370  0.5970  0.1307
  334TMC3     H 5069   2.387   3.891  11.156 -0.9833  0.8130  0.5209
  334TMC3    H1 5070   2.229   4.268  11.021 -1.4370 -1.7330 -0.6621
  334TMC3    H2 5071   2.648   4.191  11.010 -0.0250 -0.3729 -1.0883
  334TMC3    C7 5072   2.483   4.373  11.000 -0.1923 -0.3474  0.3171
  334TMC3    C8 5073   2.637   3.934  11.105 -0.2800 -0.9224  0.0292
  334TMC3    O1 5074   2.595   4.410  11.033 -0.3273 -0.1761 -0.2763
  334TMC3    O2 5075   2.598   3.838  11.172 -0.3856 -0.0966  0.4263
  335TMC3    C1 5076   1.723   0.360  17.592 -0.5591 -0.3059 -0.7375
  335TMC3    C2 5077   1.632   0.320  17.500 -0.0280  1.1656  0.1633
  335TMC3    C3 5078   1.667   0.351  17.377  0.1813  0.1613 -0.3549
  335TMC3    C4 5079   1.825   0.448  17.574 -0.5829  0.5573  0.0725
  335TMC3    C5 5080   1.858   0.469  17.446 -0.8896 -0.2395 -0.6851
  335TMC3    C6 5081   1.778   0.426  17.345  0.2711 -0.5040 -0.7677
  335TMC3     C 5082   1.684   0.346  17.731 -0.7517  0.2780 -0.8034
  335TMC3     O 5083   1.630   0.240   0.026  0.2852  0.1576 -0.0001
  335TMC3     H 5084   1.545   0.262  17.530 -0.5978  1.4480 -0.9484
  335TMC3    H1 5085   1.897   0.460  17.654 -1.2168  1.4132  0.5168
  335TMC3    H2 5086   1.790   0.448  17.239  1.0673  2.1066 -0.1350
  335TMC3    C7 5087   1.998   0.497  17.419 -0.0584  0.5654 -0.0749
  335TMC3    C8 5088   1.574   0.329  17.268  0.1643  0.0813  0.8900
  335TMC3    O1 5089   2.070   0.418  17.361  0.8605 -0.0160  0.2588
  335TMC3    O2 5090   1.577   0.407  17.174 -0.1808  0.2627  0.7243
  336MPD2     C 5091   1.455   2.962  16.111  0.2321 -0.9774  0.1675
  336MPD2    C1 5092   1.423   2.884  16.007  0.2972  0.2183 -0.3624
  336MPD2    C2 5093   1.446   2.745  16.012  0.2270 -0.0403  0.3790
  336MPD2    C3 5094   1.486   2.695  16.131 -0.4608  0.0359 -0.4135
  336MPD2    C4 5095   1.512   2.770  16.243 -0.1316  0.0039 -0.0067
  336MPD2    C5 5096   1.486   2.907  16.234  0.1252 -0.7205 -0.0065
  336MPD2     H 5097   1.404   2.685  15.932  0.3393  0.2138  0.1273
  336MPD2    H1 5098   1.548   2.738  16.340 -0.4484  0.2922  0.2043
  336MPD2    H2 5099   1.450   3.070  16.116 -0.8559 -0.8092 -4.3791
  336MPD2    H3 5100   1.503   2.972  16.319  2.2367 -0.5721 -0.5375
  336MPD2     N 5101   1.505   2.555  16.145  0.0421 -0.1523  0.8909
  336MPD2    H5 5102   1.524   2.516  16.237 -1.5338 -0.7445  0.9555
  336MPD2    N1 5103   1.356   2.940  15.892 -0.3310 -0.1457  0.2231
  336MPD2    H7 5104   1.342   2.868  15.822 -1.3812 -1.2378  1.5859
  337TMC3    C1 5105   1.233   3.061  15.751 -0.0933  0.2965  0.0879
  337TMC3    C2 5106   1.145   2.954  15.724  0.7698  0.0293 -0.8918
  337TMC3    C3 5107   1.054   2.972  15.625 -1.1465  0.3648 -0.0382
  337TMC3    C4 5108   1.241   3.174  15.670 -0.3143 -0.5064 -0.0551
  337TMC3    C5 5109   1.147   3.178  15.568  0.0920 -0.1363  0.6935
  337TMC3    C6 5110   1.054   3.078  15.541  0.0972  0.3582 -0.4207
  337TMC3     C 5111   1.311   3.067  15.876 -0.2195 -0.1289 -0.0082
  337TMC3     O 5112   1.327   3.172  15.937 -0.3459 -0.3078  0.0003
  337TMC3     H 5113   1.139   2.867  15.787 -0.7058  1.9974  1.6723
  337TMC3    H1 5114   1.291   3.265  15.701 -0.5649  0.3283 -2.0633
  337TMC3    H2 5115   0.970   3.089  15.473  0.2095  2.4739 -0.2205
  337TMC3    C7 5116   1.127   3.293  15.483 -0.4771  0.6136  0.2231
  337TMC3    C8 5117   0.934   2.891  15.617 -0.2036 -0.5354 -0.0018
  337TMC3    O1 5118   1.229   3.357  15.470  0.1771  0.4190 -0.2616
  337TMC3    O2 5119   0.897   2.830  15.717 -0.2965 -0.0256 -0.6750
  338MPD2     C 5120   1.153   2.608   0.953 -0.6709  0.1855 -1.1284
  338MPD2    C1 5121   1.114   2.579   0.827 -0.6438 -0.2323 -0.4663
  338MPD2    C2 5122   0.979   2.563   0.794 -0.1346 -0.3109  0.0833
  338MPD2    C3 5123   0.888   2.585   0.891 -0.9061  0.2225  0.2742
  338MPD2    C4 5124   0.928   2.614   1.016  0.0231 -0.2061 -0.5247
  338MPD2    C5 5125   1.059   2.629   1.045 -0.7068  0.1146  0.3831
  338MPD2     H 5126   0.942   2.546   0.693  1.1797 -2.9075  0.0355
  338MPD2    H1 5127   0.862   2.641   1.097  2.9500 -2.8341  2.7627
  338MPD2    H2 5128   1.259   2.616   0.978 -0.9813  0.1914  0.1907
  338MPD2    H3 5129   1.095   2.647   1.146  0.9403  3.4273 -0.7816
  338MPD2     N 5130   0.755   2.581   0.850  0.0378  0.1266 -0.3933
  338MPD2    H5 5131   0.740   2.538   0.759 -2.9363 -0.1731  0.2341
  338MPD2    N1 5132   1.203   2.552   0.714 -0.1785  0.4473  0.0957
  338MPD2    H7 5133   1.175   2.501   0.630 -0.7856 -0.2990  0.7536
  339TMC3    C1 5134   0.527   2.598   0.849  0.2315 -0.2868 -0.3077
  339TMC3    C2 5135   0.416   2.532   0.892  0.5433 -0.6361 -0.2964
  339TMC3    C3 5136   0.319   2.520   0.802  0.0038 -0.2990  0.8514
  339TMC3    C4 5137   0.538   2.660   0.726  0.1369 -0.3998 -0.2700
  339TMC3    C5 5138   0.433   2.653   0.639 -0.5890  0.1457 -0.3941
  339TMC3    C6 5139   0.324   2.583   0.681  0.0996  0.5546 -0.1169
  339TMC3     C 5140   0.647   2.604   0.934 -0.3050 -0.0562 -0.2255
  339TMC3     O 5141   0.642   2.615   1.058 -0.2410  0.5592 -0.0281
  339TMC3     H 5142   0.418   2.486   0.990 -0.3780 -0.3345 -0.1358
  339TMC3    H1 5143   0.622   2.724   0.701 -0.4009 -0.2797 -1.7548
  339TMC3    H2 5144   0.229   2.581   0.628  0.2423  0.6660 -0.3790
  339TMC3    C7 5145   0.446   2.731   0.518 -0.4865  0.6266 -0.4967
  339TMC3    C8 5146   0.212   2.428   0.833 -0.2276 -0.2011 -0.3752
  339TMC3    O1 5147   0.524   2.822   0.512  0.0627  0.2719  0.1156
  339TMC3    O2 5148   0.102   2.443   0.783 -0.0210  0.0800  0.1960
  340MPD2     C 5149   2.026   4.214  10.669 -0.2388 -0.6711  0.6316
  340MPD2    C1 5150   2.076   4.318  10.592 -1.1058 -0.2375 -1.3875
  340MPD2    C2 5151   2.213   4.319  10.565  0.3793 -0.3041  0.9753
  340MPD2    C3 5152   2.298   4.223  10.621  0.7067  0.3763  0.1165
  340MPD2    C4 5153   2.244   4.119  10.696 -0.1742  0.4049  0.6929
  340MPD2    C5 5154   2.108   4.115  10.715 -0.0890 -0.0966  0.1345
  340MPD2     H 5155   2.254   4.405  10.514  0.5018 -0.2577  1.1527
  340MPD2    H1 5156   2.295   4.042  10.753  0.9350  1.2342  0.8204
  340MPD2    H2 5157   1.920   4.214  10.692 -0.2225 -0.2603  0.6960
  340MPD2    H3 5158   2.077   4.037  10.783 -0.8933  0.2909  0.2113
  340MPD2     N 5159   2.443   4.230  10.616  0.7295 -0.1289 -0.4058
  340MPD2    H5 5160   2.495   4.179  10.686  1.5308  1.4531  0.1526
  340MPD2    N1 5161   1.992   4.418  10.536  0.2020  0.3231  0.3033
  340MPD2    H7 5162   1.894   4.405  10.559 -0.4455 -2.5056 -4.0235
  341TMC3    C1 5163   1.919   4.627  10.421  0.4151  0.0888 -0.6897
  341TMC3    C2 5164   1.804   4.558  10.381  0.8598  0.8220  0.2819
  341TMC3    C3 5165   1.735   4.608  10.271 -0.3790  0.2123 -0.5774
  341TMC3    C4 5166   1.956   4.735  10.351  0.3523  0.4035  0.0177
  341TMC3    C5 5167   1.892   0.041  10.239  0.0696  0.5922 -0.3993
  341TMC3    C6 5168   1.778   4.715  10.195  0.4205  0.3960  0.1540
  341TMC3     C 5169   2.021   4.542  10.481 -0.4807 -0.3720 -0.6421
  341TMC3     O 5170   2.131   4.590  10.462 -0.3094 -0.1950 -0.2443
  341TMC3     H 5171   1.767   4.465  10.423 -1.9886  2.3001  1.0324
  341TMC3    H1 5172   2.054   0.042  10.366  0.2434  1.5808 -2.6688
  341TMC3    H2 5173   1.726   0.027  10.112  0.1634 -0.8437 -0.3926
  341TMC3    C7 5174   1.928   0.160  10.177 -0.0997  0.0747 -0.3693
  341TMC3    C8 5175   1.641   4.521  10.207  0.1522 -0.2794 -0.4229
  341TMC3    O1 5176   1.902   0.154  10.059  0.6128 -0.5901  0.3982
  341TMC3    O2 5177   1.661   4.400  10.215 -0.1315 -0.0004 -0.1835
  342MPD2     C 5178   4.169   3.165  17.480  0.5029 -0.1212  0.9542
  342MPD2    C1 5179   4.251   3.203  17.379  0.6417  0.2090 -0.4550
  342MPD2    C2 5180   4.291   3.335  17.382  0.7564 -0.2187  0.0306
  342MPD2    C3 5181   4.252   3.424  17.483 -0.1604  0.6108 -0.4739
  342MPD2    C4 5182   4.164   3.380  17.581  0.2428 -0.1163 -0.4598
  342MPD2    C5 5183   4.133   3.247  17.587 -0.2975 -0.1023  0.6011
  342MPD2     H 5184   4.368   3.366  17.312 -0.6346 -0.4163 -1.5883
  342MPD2    H1 5185   4.130   3.452  17.654  0.1758 -0.7669  0.1489
  342MPD2    H2 5186   4.122   3.067  17.485  0.3747  0.0775  3.3563
  342MPD2    H3 5187   4.060   3.209  17.657 -1.3362 -0.4955 -0.6894
  342MPD2     N 5188   4.304   3.555  17.497  0.2296 -0.0223  0.3468
  342MPD2    H5 5189   4.269   3.604  17.578  0.0512 -1.2926  1.0385
  342MPD2    N1 5190   4.289   3.124  17.269 -0.4335 -0.7304  0.0337
  342MPD2    H7 5191   4.340   3.171  17.196 -2.4527 -1.1859 -1.6755
  343TMC3    C1 5192   4.318   2.931  17.135  0.4156  0.0397 -0.7785
  343TMC3    C2 5193   4.397   2.998  17.056  0.4147  0.6334 -0.4520
  343TMC3    C3 5194   4.470   2.930  16.961  0.8762 -0.8262 -0.1002
  343TMC3    C4 5195   4.298   2.795  17.123  0.7986 -0.2221  0.2255
  343TMC3    C5 5196   4.356   2.732  17.018 -0.1333  0.5525 -0.1216
  343TMC3    C6 5197   4.452   2.794  16.943 -0.3668  0.6357 -0.5685
  343TMC3     C 5198   4.267   2.989  17.256 -0.6843 -0.1887  0.7950
  343TMC3     O 5199   4.204   2.918  17.332 -0.1063 -0.5406  0.6308
  343TMC3     H 5200   4.405   3.106  17.065 -0.6093  0.6557  0.1959
  343TMC3    H1 5201   4.226   2.744  17.186  1.6110 -1.6031  0.0440
  343TMC3    H2 5202   4.497   2.743  16.859 -0.5257  1.4227 -1.1266
  343TMC3    C7 5203   4.366   2.592  17.026 -0.7743  0.4472  0.8343
  343TMC3    C8 5204   4.585   3.004  16.910 -0.1896 -0.8731 -0.4743
  343TMC3    O1 5205   4.375   2.529  16.922  0.3023 -0.3530  0.9052
  343TMC3    O2 5206   4.560   3.125  16.897  0.3458 -0.0193 -0.3775
  344MPD2     C 5207   0.697   2.193  10.978 -0.5213  0.1209 -0.8760
  344MPD2    C1 5208   0.639   2.215  10.860 -0.0128  0.3717  0.3387
  344MPD2    C2 5209   0.703   2.303  10.774 -0.1337 -0.5779 -0.2342
  344MPD2    C3 5210   0.819   2.375  10.811 -0.3847  0.2229 -0.3320
  344MPD2    C4 5211   0.877   2.342  10.928 -0.8603 -0.0942  0.1362
  344MPD2    C5 5212   0.817   2.253  11.014  0.4540 -0.1832 -0.5435
  344MPD2     H 5213   0.650   2.321  10.681  0.7922  0.2778 -0.5972
  344MPD2    H1 5214   0.969   2.389  10.961 -0.6100  1.2832 -2.5547
  344MPD2    H2 5215   0.660   2.126  11.055 -0.9890  1.6875  0.2680
  344MPD2    H3 5216   0.863   2.234  11.110 -0.0616  0.4808 -0.1563
  344MPD2     N 5217   0.888   2.469  10.727  0.6409 -0.2782  0.4907
  344MPD2    H5 5218   0.976   2.505  10.760  0.4659  0.4040  0.2128
  344MPD2    N1 5219   0.530   2.143  10.816  0.1984 -0.1807 -0.5448
  344MPD2    H7 5220   0.476   2.173  10.735  1.5674 -0.3595 -1.5187
  345TMC3    C1 5221   0.942   2.615  10.548  0.8222 -0.1472 -0.6373
  345TMC3    C2 5222   1.059   2.654  10.607 -0.4998 -0.0046  0.1632
  345TMC3    C3 5223   1.119   2.771  10.567 -0.4807  1.0778 -0.5174
  345TMC3    C4 5224   0.887   2.693  10.450 -0.0536 -0.0182 -0.1487
  345TMC3    C5 5225   0.958   2.808  10.410  0.0029 -0.0245 -0.0291
  345TMC3    C6 5226   1.078   2.842  10.460  0.3507 -0.2798  0.3823
  345TMC3     C 5227   0.849   2.513  10.604 -0.0045 -0.5374 -0.1995
  345TMC3     O 5228   0.742   2.509  10.544  0.9050  0.0831  0.4921
  345TMC3     H 5229   1.101   2.604  10.694 -0.2874  0.2587  0.2100
  345TMC3    H1 5230   0.789   2.672  10.410 -0.0855 -2.9116  1.4868
  345TMC3    H2 5231   1.122   2.932  10.418 -0.8040 -1.1760 -2.7299
  345TMC3    C7 5232   0.904   2.901  10.311  0.2414 -0.2861  0.4122
  345TMC3    C8 5233   1.187   2.838  10.676  0.0527  0.1527  0.1426
  345TMC3    O1 5234   0.970   3.000  10.274 -0.2445 -0.1319  0.4073
  345TMC3    O2 5235   1.167   2.793  10.789  0.2377  0.1501 -0.2914
  346MPD2     C 5236   0.351   0.004  14.542 -0.3866  0.1770  0.7288
  346MPD2    C1 5237   0.444   4.635  14.531  0.4963  0.1690  0.0813
  346MPD2    C2 5238   0.540   4.612  14.631  0.5692 -0.3819  0.1983
  346MPD2    C3 5239   0.547   4.695  14.739 -0.1923  0.3496  0.0979
  346MPD2    C4 5240   0.443   0.043  14.758 -0.0960 -0.3581  0.1409
  346MPD2    C5 5241   0.348   0.070  14.663 -0.1288 -0.5884  0.2669
  346MPD2     H 5242   0.625   4.547  14.616 -1.1936 -2.7898  0.6461
  346MPD2    H1 5243   0.430   0.108  14.844 -2.4692  1.2931 -1.4604
  346MPD2    H2 5244   0.270   0.017  14.470 -0.1876 -1.1293  0.2606
  346MPD2    H3 5245   0.268   0.142  14.678 -0.2286 -0.4071 -1.1478
  346MPD2     N 5246   0.657   4.705  14.826 -0.3811 -0.0869 -0.2469
  346MPD2    H5 5247   0.734   4.640  14.812 -0.5729 -0.1069 -1.2345
  346MPD2    N1 5248   0.451   4.553  14.416 -0.4638  0.0719 -0.0126
  346MPD2    H7 5249   0.538   4.503  14.405 -1.1590 -0.9648 -0.7778
  347TMC3    C1 5250   0.823   0.084  14.948 -0.0087  0.3152 -0.4363
  347TMC3    C2 5251   0.874   0.201  14.906  0.3427 -0.2095  0.3597
  347TMC3    C3 5252   1.010   0.205  14.884 -0.9519 -0.4377  0.3121
  347TMC3    C4 5253   0.897   4.709  14.978  1.3288 -0.5864  0.0649
  347TMC3    C5 5254   1.037   4.723  14.975  0.0914  0.1038  0.2239
  347TMC3    C6 5255   1.094   0.107  14.932  0.1546  0.3415 -0.7510
  347TMC3     C 5256   0.684   0.070  14.914  0.1635  0.0149 -0.0499
  347TMC3     O 5257   0.615   0.166  14.940  0.0917  0.2604 -0.2968
  347TMC3     H 5258   0.816   0.279  14.859  0.9660 -0.0332 -0.1202
  347TMC3    H1 5259   0.846   4.618  15.006  0.0632 -0.2060 -0.9977
  347TMC3    H2 5260   1.202   0.118  14.935  0.2379 -0.6962  0.3831
  347TMC3    C7 5261   1.115   4.632  15.055  1.1130 -0.3248  0.2659
  347TMC3    C8 5262   1.072   0.298  14.791  0.5898 -0.3567  0.9400
  347TMC3    O1 5263   1.072   4.520  15.056  0.4449 -0.0596 -0.2996
  347TMC3    O2 5264   1.182   0.347  14.819  0.2697  0.2313  0.1682
  348MPD2     C 5265   4.700   3.899  11.910  0.5326 -0.3822  0.5946
  348MPD2    C1 5266   4.566   3.927  11.873 -0.3394  0.2091  0.2136
  348MPD2    C2 5267   4.543   4.035  11.793 -0.0891  0.5951 -0.8572
  348MPD2    C3 5268   4.644   4.114  11.749 -0.0716 -0.2643 -0.4231
  348MPD2    C4 5269   0.041   4.100  11.797  0.1796  0.2390  0.3016
  348MPD2    C5 5270   0.063   3.986  11.880  0.4767 -0.4194  0.5924
  348MPD2     H 5271   4.441   4.054  11.760 -0.4101  0.1451 -0.1498
  348MPD2    H1 5272   0.126   4.158  11.761  0.3823  0.4730  1.1615
  348MPD2    H2 5273   4.714   3.816  11.978  1.1697 -1.8067 -1.2703
  348MPD2    H3 5274   0.160   3.957  11.919  2.1158  2.7367 -1.1195
  348MPD2     N 5275   4.610   4.199  11.641 -0.3309 -0.9360 -0.8270
  348MPD2    H5 5276   4.519   4.192  11.598 -0.7509  2.4778 -0.5029
  348MPD2    N1 5277   4.462   3.845  11.913  1.2353 -0.2424  0.1765
  348MPD2    H7 5278   4.370   3.880  11.889  0.6727 -2.2027 -0.5057
  349TMC3    C1 5279   4.336   3.682  12.028 -0.7838  0.8825 -0.4721
  349TMC3    C2 5280   4.318   3.548  12.040 -0.5852 -0.3174  0.5277
  349TMC3    C3 5281   4.194   3.497  12.038 -0.2824 -0.4784 -0.2529
  349TMC3    C4 5282   4.232   3.771  12.010  0.8742 -0.0600 -0.0468
  349TMC3    C5 5283   4.107   3.714  12.004 -0.7179 -0.0826  0.6782
  349TMC3    C6 5284   4.085   3.579  12.014 -0.0153 -0.2284  0.2922
  349TMC3     C 5285   4.468   3.725  11.986  0.6919 -0.0194 -0.4974
  349TMC3     O 5286   4.562   3.647  11.999  0.0555  0.1231 -0.2564
  349TMC3     H 5287   4.407   3.486  12.031 -1.2495 -1.3499  1.1332
  349TMC3    H1 5288   4.243   3.879  12.006 -1.7842  0.2405  0.7960
  349TMC3    H2 5289   3.992   3.533  11.984  0.4385 -2.3191  2.1125
  349TMC3    C7 5290   3.990   3.794  11.956  0.0342  0.3917  0.5299
  349TMC3    C8 5291   4.174   3.362  12.065  0.8469 -0.2575 -0.2202
  349TMC3    O1 5292   3.882   3.736  11.951  0.0718 -0.3180 -0.1282
  349TMC3    O2 5293   4.059   3.329  12.042 -0.7198 -0.4718 -0.1745
  350MPD2     C 5294   3.216   2.488  10.433 -0.6390  0.4899 -0.1843
  350MPD2    C1 5295   3.184   2.372  10.500  0.1377  0.0073  0.1319
  350MPD2    C2 5296   3.182   2.369  10.636  0.9546 -0.0961 -0.0248
  350MPD2    C3 5297   3.206   2.481  10.711 -0.0395 -0.0514  0.1116
  350MPD2    C4 5298   3.264   2.590  10.651  0.3189 -0.0946 -0.3998
  350MPD2    C5 5299   3.277   2.587  10.512  0.4520 -0.7567 -0.1798
  350MPD2     H 5300   3.155   2.279  10.691 -0.3597  0.5255  0.3388
  350MPD2    H1 5301   3.288   2.682  10.703  0.5896 -0.4316  0.0785
  350MPD2    H2 5302   3.213   2.492  10.324  2.6129  0.3727 -0.2574
  350MPD2    H3 5303   3.322   2.674  10.467 -0.8691  1.5851  3.0031
  350MPD2     N 5304   3.174   2.480  10.850 -0.2916  0.2798 -0.4651
  350MPD2    H5 5305   3.141   2.393  10.891  1.1069 -0.3027 -0.5619
  350MPD2    N1 5306   3.142   2.266  10.416 -0.6511  0.7842  0.2061
  350MPD2    H7 5307   3.143   2.273  10.315 -2.4745 -0.3126  0.1090
  351TMC3    C1 5308   3.059   2.051  10.366  0.4342 -0.8728  0.1142
  351TMC3    C2 5309   3.156   2.001  10.284  0.6740  0.2509  0.8828
  351TMC3    C3 5310   3.150   1.865  10.253  0.0224 -0.0106  0.4450
  351TMC3    C4 5311   2.963   1.974  10.415 -0.5729  0.3148 -1.2057
  351TMC3    C5 5312   2.956   1.844  10.377  0.2887  0.4244 -0.6253
  351TMC3    C6 5313   3.046   1.785  10.295  0.0621 -0.3916 -0.0942
  351TMC3     C 5314   3.102   2.142  10.466 -0.5260  1.2845 -0.2831
  351TMC3     O 5315   3.095   2.102  10.580 -0.1173 -0.1691  0.2582
  351TMC3     H 5316   3.242   2.064  10.264  0.3599  0.3115 -0.2800
  351TMC3    H1 5317   2.885   2.022  10.474  2.7305  2.3184  1.4936
  351TMC3    H2 5318   3.038   1.679  10.272 -2.2959 -0.9409  3.2853
  351TMC3    C7 5319   2.817   1.793  10.389 -0.1526  0.4849 -0.5726
  351TMC3    C8 5320   3.228   1.836  10.136 -0.3874 -0.2703 -0.0617
  351TMC3    O1 5321   2.730   1.871  10.421 -0.1268 -0.3416 -0.1574
  351TMC3    O2 5322   3.303   1.928  10.101 -0.6422  0.3410  0.1083
  352MPD2     C 5323   1.417   4.398   1.451  0.0652 -0.1202 -0.1761
  352MPD2    C1 5324   1.399   4.376   1.314 -0.4089 -0.2061 -0.5666
  352MPD2    C2 5325   1.448   4.257   1.259  0.5357  0.1172  0.1414
  352MPD2    C3 5326   1.521   4.165   1.329 -0.5522  0.0531  0.1629
  352MPD2    C4 5327   1.530   4.181   1.466 -0.1249 -0.5896 -0.4828
  352MPD2    C5 5328   1.470   4.295   1.518 -0.3072  0.5547  0.7723
  352MPD2     H 5329   1.443   4.245   1.152 -1.5531 -1.2538  0.3872
  352MPD2    H1 5330   1.573   4.104   1.530 -0.1835  0.9232  1.3837
  352MPD2    H2 5331   1.371   4.481   1.502  0.7844 -0.2120  0.6209
  352MPD2    H3 5332   1.463   4.301   1.626 -0.3608  1.0805  0.7371
  352MPD2     N 5333   1.574   4.045   1.271  0.3614 -0.5348  0.4092
  352MPD2    H5 5334   1.602   3.971   1.335  1.1420 -0.2857  0.3522
  352MPD2    N1 5335   1.325   4.478   1.244 -0.5638 -0.4425  1.0320
  352MPD2    H7 5336   1.297   4.563   1.293  0.1611  0.1801  0.3600
  353TMC3    C1 5337   1.604   3.864   1.113  0.4351 -0.2600  0.4933
  353TMC3    C2 5338   1.726   3.815   1.155 -0.3145 -0.1319  0.5260
  353TMC3    C3 5339   1.749   3.685   1.123  0.3291  0.2336 -0.2477
  353TMC3    C4 5340   1.519   3.800   1.024 -0.1780 -0.2512 -0.0309
  353TMC3    C5 5341   1.561   3.680   0.972  0.2855  0.7265 -0.2096
  353TMC3    C6 5342   1.668   3.621   1.025  0.2940 -0.4598 -0.2783
  353TMC3     C 5343   1.567   4.001   1.139 -0.2356 -0.1480 -0.0528
  353TMC3     O 5344   1.517   4.054   1.039 -0.6400  0.3314  0.7459
  353TMC3     H 5345   1.783   3.871   1.228  1.0369 -0.7743 -0.0369
  353TMC3    H1 5346   1.446   3.856   0.966  0.0463 -0.3699 -0.4195
  353TMC3    H2 5347   1.688   3.516   1.009 -2.9125 -1.0505 -0.3625
  353TMC3    C7 5348   1.458   3.595   0.909  0.0332  0.4552 -0.7484
  353TMC3    C8 5349   1.867   3.618   1.181  0.0376 -0.3327  0.3604
  353TMC3    O1 5350   1.490   3.480   0.876 -0.1235  0.1311 -0.4738
  353TMC3    O2 5351   1.912   3.680   1.277  0.0246 -0.7962  0.0870
  354TMC3    C1 5352   2.992   0.274  13.393 -0.6433  0.0360  0.2227
  354TMC3    C2 5353   2.959   0.390  13.330  1.0029  0.0690 -0.4906
  354TMC3    C3 5354   2.994   0.407  13.200  0.4513  0.6744 -0.3012
  354TMC3    C4 5355   3.070   0.178  13.329 -0.0771  0.4529 -0.0321
  354TMC3    C5 5356   3.101   0.204  13.203  0.1572 -0.2869  0.3380
  354TMC3    C6 5357   3.071   0.315  13.134 -0.5298  0.0451  0.4010
  354TMC3     C 5358   2.977   0.262  13.536 -0.1296  0.1315 -0.0546
  354TMC3     O 5359   2.880   0.325  13.581 -0.3704  0.2310 -0.2815
  354TMC3     H 5360   2.903   0.462  13.388  1.6471  1.0063 -1.0406
  354TMC3    H1 5361   3.080   0.081  13.377 -3.2596 -0.1723 -0.6228
  354TMC3    H2 5362   3.086   0.321  13.027  0.2006  3.5428  0.7075
  354TMC3    C7 5363   3.209   0.113  13.155  0.1660 -0.2484  0.0769
  354TMC3    C8 5364   3.005   0.539  13.141 -0.2301  0.1450  0.1306
  354TMC3    O1 5365   3.199   4.732  13.190  0.0578  0.6755 -0.5285
  354TMC3    O2 5366   3.023   0.546  13.020 -0.3285  0.1134  0.2497
  355MPD2     C 5367   3.923   0.975  12.584  0.1306 -0.8639 -0.0909
  355MPD2    C1 5368   3.896   1.020  12.457  0.1928  0.0354  0.8708
  355MPD2    C2 5369   3.999   1.073  12.381  0.1752 -0.3455  0.0233
  355MPD2    C3 5370   4.126   1.088  12.440 -0.4381 -0.1817  0.0795
  355MPD2    C4 5371   4.142   1.044  12.567 -0.4201 -0.0851 -0.1043
  355MPD2    C5 5372   4.043   0.981  12.639  0.4524  0.2194 -0.2109
  355MPD2     H 5373   3.989   1.113  12.280  2.8941 -1.6489 -0.7745
  355MPD2    H1 5374   4.232   1.063  12.625 -1.9373 -1.5708  2.7503
  355MPD2    H2 5375   3.854   0.920  12.647 -0.5845  0.5190  0.3187
  355MPD2    H3 5376   4.052   0.941  12.740  1.1060 -0.5270 -0.5605
  355MPD2     N 5377   4.236   1.166  12.383  0.4713 -0.3046 -0.8329
  355MPD2    H5 5378   4.314   1.182  12.446 -0.4320 -0.2072  0.2625
  355MPD2    N1 5379   3.768   1.030  12.405 -0.0663 -0.2870  0.0860
  355MPD2    H7 5380   3.701   1.034  12.481  1.3013  2.5933  1.1401
  356TMC3    C1 5381   4.319   1.357  12.262  0.0467 -0.6231 -0.7539
  356TMC3    C2 5382   4.312   1.431  12.154 -0.2412  0.1896  0.1113
  356TMC3    C3 5383   4.383   1.547  12.138  0.4026  0.3483  0.0363
  356TMC3    C4 5384   4.374   1.409  12.382  0.5051  0.2325  0.3506
  356TMC3    C5 5385   4.446   1.527  12.364 -0.7102  0.1259 -0.4554
  356TMC3    C6 5386   4.457   1.593  12.245 -0.0862 -0.0865 -0.1570
  356TMC3     C 5387   4.226   1.243  12.271  0.3021  0.1083 -0.2868
  356TMC3     O 5388   4.134   1.249  12.188  0.2885 -0.0672  0.5100
  356TMC3     H 5389   4.250   1.408  12.068  0.2189  0.0079 -0.1756
  356TMC3    H1 5390   4.376   1.351  12.473  0.2269 -2.9775 -1.6752
  356TMC3    H2 5391   4.532   1.669  12.225 -0.3137  0.4250  0.9561
  356TMC3    C7 5392   4.544   1.557  12.461  0.1747 -0.1089  0.3686
  356TMC3    C8 5393   4.408   1.601  12.001 -0.2468 -0.3491  0.8741
  356TMC3    O1 5394   4.596   1.466  12.528  0.0283  0.1731 -0.3767
  356TMC3    O2 5395   4.368   1.525  11.912 -0.5544 -0.2475 -0.1128
  357MPD2     C 5396   2.966   1.168   0.485  0.1209 -0.3564 -0.6651
  357MPD2    C1 5397   2.938   1.048   0.541  0.1453 -0.3656 -0.6188
  357MPD2    C2 5398   2.834   1.031   0.625  0.0906 -0.1822  0.8532
  357MPD2    C3 5399   2.749   1.129   0.646 -0.2837  0.4865 -0.3651
  357MPD2    C4 5400   2.762   1.250   0.580  0.3909 -0.7748  0.7153
  357MPD2    C5 5401   2.874   1.264   0.499  0.1521 -0.4653  0.1346
  357MPD2     H 5402   2.814   0.931   0.660  1.8920 -0.4695  1.0413
  357MPD2    H1 5403   2.691   1.329   0.600  1.8580  1.3294 -2.3576
  357MPD2    H2 5404   3.046   1.185   0.414  2.0218  1.8226  1.9837
  357MPD2    H3 5405   2.893   1.358   0.447 -0.9268  0.4098  1.3151
  357MPD2     N 5406   2.634   1.110   0.728  0.6486 -0.4167 -0.1936
  357MPD2    H5 5407   2.554   1.169   0.703  0.2129 -1.5290 -1.4075
  357MPD2    N1 5408   3.023   0.930   0.522  0.6222 -0.3670  0.3671
  357MPD2    H7 5409   3.000   0.852   0.583  2.3688 -1.0055  0.2028
  358TMC3    C1 5410   3.172   0.780   0.393  0.8137  0.7223 -0.7214
  358TMC3    C2 5411   3.077   0.680   0.389 -0.4071  0.1190  0.4837
  358TMC3    C3 5412   3.112   0.574   0.316 -0.4830 -0.2878 -0.1405
  358TMC3    C4 5413   3.300   0.767   0.355 -0.0249  0.2244 -0.8631
  358TMC3    C5 5414   3.337   0.647   0.312 -0.5876 -0.4986  0.5043
  358TMC3    C6 5415   3.244   0.550   0.291 -0.2072  0.2004  0.3781
  358TMC3     C 5416   3.127   0.917   0.424  0.1165  0.3739  0.1129
  358TMC3     O 5417   3.156   0.987   0.328 -0.2063  0.1659  0.3172
  358TMC3     H 5418   2.971   0.698   0.405 -0.1544  0.8404  1.3393
  358TMC3    H1 5419   3.371   0.847   0.371  0.4099 -0.5448  1.0758
  358TMC3    H2 5420   3.272   0.469   0.224  0.6751 -0.1019  1.1212
  358TMC3    C7 5421   3.466   0.632   0.250  0.1218 -0.5167  0.2693
  358TMC3    C8 5422   3.003   0.512   0.245 -0.0827  0.4849 -0.0214
  358TMC3    O1 5423   3.478   0.559   0.153 -0.2383  0.1367  0.2980
  358TMC3    O2 5424   2.923   0.590   0.204  0.4196  0.0820 -0.1746
  359MPD2     C 5425   3.999   0.023  12.277  0.1606  0.1619 -0.0927
  359MPD2    C1 5426   4.068   4.639  12.271 -0.4794  0.1161 -0.0335
  359MPD2    C2 5427   4.006   4.521  12.316 -0.4534  0.3526  0.1412
  359MPD2    C3 5428   3.874   4.529  12.364 -0.2558 -0.6476  0.6306
  359MPD2    C4 5429   3.804   4.642  12.364  0.5051 -0.0583  0.0884
  359MPD2    C5 5430   3.869   0.019  12.322 -0.5848  0.1267 -0.0912
  359MPD2     H 5431   4.061   4.428  12.318  0.1504  0.7298  0.9459
  359MPD2    H1 5432   3.700   4.646  12.393  0.1163 -0.4764 -1.2415
  359MPD2    H2 5433   4.042   0.118  12.246 -0.5955  1.2212  2.1251
  359MPD2    H3 5434   3.816   0.114  12.321  0.1485  0.5210 -0.6955
  359MPD2     N 5435   3.810   4.410  12.396  0.8838  0.3458  0.4169
  359MPD2    H5 5436   3.709   4.413  12.411  0.6216 -0.9713 -1.0899
  359MPD2    N1 5437   4.203   4.635  12.220 -0.5692 -0.6609 -0.1188
  359MPD2    H7 5438   4.248   4.545  12.203  0.1771 -0.0699 -1.3199
  360TMC3    C1 5439   4.397   4.711  12.101  0.3469  0.4990  0.6388
  360TMC3    C2 5440   4.506   0.061  12.107  0.5242 -0.2591  0.4721
  360TMC3    C3 5441   4.599   0.045  12.012  0.3923  0.7705 -0.0881
  360TMC3    C4 5442   4.382   4.610  12.007 -0.2248  0.5647  0.3525
  360TMC3    C5 5443   4.484   4.593  11.921  0.1478 -0.5355 -0.7710
  360TMC3    C6 5444   4.589   4.681  11.922 -0.6708 -0.3418 -0.0134
  360TMC3     C 5445   4.278   0.007  12.185 -0.3515 -0.1067 -0.3568
  360TMC3     O 5446   4.266   0.123  12.219  0.2642 -0.7163 -0.0312
  360TMC3     H 5447   4.505   0.138  12.184 -0.8269 -0.2124  0.4142
  360TMC3    H1 5448   4.288   4.558  11.990  0.5090 -1.8483  3.6491
  360TMC3    H2 5449   4.677   4.664  11.861  0.7914  0.2817  1.9520
  360TMC3    C7 5450   4.459   4.553  11.786 -0.9361 -0.3412  0.3601
  360TMC3    C8 5451   4.710   0.141  12.001 -0.3851  0.5700  0.0819
  360TMC3    O1 5452   4.497   4.633  11.705  0.5631  0.5126 -0.5142
  360TMC3    O2 5453   4.709   0.245  12.062  0.7479  0.2189 -0.3544
  361MPD2     C 5454   1.015   4.048  16.532  0.1516  0.3566 -0.2492
  361MPD2    C1 5455   0.938   4.038  16.648  0.5913 -0.2069  0.2229
  361MPD2    C2 5456   0.961   3.930  16.732  0.4904 -0.0561  0.1693
  361MPD2    C3 5457   1.067   3.840  16.711 -0.3462 -0.9992  0.3924
  361MPD2    C4 5458   1.147   3.851  16.599 -0.0426 -0.0447 -0.0252
  361MPD2    C5 5459   1.114   3.949  16.510 -0.2128 -0.5020  0.1817
  361MPD2     H 5460   0.891   3.913  16.813  0.4004  1.3080  0.3798
  361MPD2    H1 5461   1.238   3.797  16.577 -0.9886 -1.6359 -0.0648
  361MPD2    H2 5462   1.001   4.120  16.452 -2.4595  1.0431  0.8279
  361MPD2    H3 5463   1.176   3.965  16.422 -2.0193  1.2151 -0.7689
  361MPD2     N 5464   1.089   3.734  16.803  0.2897 -0.6562 -0.1548
  361MPD2    H5 5465   1.135   3.649  16.773  0.5322 -0.0965 -1.3586
  361MPD2    N1 5466   0.822   4.116  16.678  0.4819  0.1393 -0.3748
  361MPD2    H7 5467   0.773   4.103  16.766  0.1040  2.2985 -0.2814
  362TMC3    C1 5468   0.643   4.257  16.642  0.1553 -0.0021 -0.0801
  362TMC3    C2 5469   0.632   4.307  16.771  0.2026 -0.4798 -0.6762
  362TMC3    C3 5470   0.518   4.386  16.799 -0.6207  0.0739  0.0677
  362TMC3    C4 5471   0.542   4.282  16.550 -0.2336 -0.3763 -0.0300
  362TMC3    C5 5472   0.433   4.364  16.576 -0.3890  0.4012  0.2699
  362TMC3    C6 5473   0.417   4.405  16.708 -0.3511  0.9853 -0.1987
  362TMC3     C 5474   0.766   4.203  16.590 -0.2777 -0.2733 -0.9040
  362TMC3     O 5475   0.803   4.238  16.479 -0.1994 -0.1166 -0.1855
  362TMC3     H 5476   0.708   4.290  16.847 -0.6762  0.6186  0.4448
  362TMC3    H1 5477   0.562   4.261  16.446  1.5352  0.2999  0.1629
  362TMC3    H2 5478   0.332   4.471  16.724 -2.0836 -1.3642  0.2830
  362TMC3    C7 5479   0.367   4.426  16.466  0.2401  0.1763 -0.1462
  362TMC3    C8 5480   0.495   4.425  16.941 -0.5213  0.2165 -0.1042
  362TMC3    O1 5481   0.323   4.540  16.484  0.0294 -0.0963  0.1020
  362TMC3    O2 5482   0.585   4.426  17.024 -0.2344 -0.1171 -0.1243
  363TMC3    C1 5483   4.525   1.831   9.931  0.1264 -0.8976 -0.4162
  363TMC3    C2 5484   4.507   1.699   9.913 -0.2297 -1.0384  0.2202
  363TMC3    C3 5485   4.388   1.644   9.935  0.4298  0.1622  0.2078
  363TMC3    C4 5486   4.420   1.908   9.960  0.2825 -0.1228  0.1555
  363TMC3    C5 5487   4.295   1.852   9.970 -0.6042 -0.2901  0.3010
  363TMC3    C6 5488   4.274   1.721   9.970  0.4498  0.4787 -0.4181
  363TMC3     C 5489   4.660   1.887   9.946  0.0305 -0.5427  0.7299
  363TMC3     O 5490   0.006   1.800   9.976  0.6633  0.2236  0.3762
  363TMC3     H 5491   4.594   1.642   9.882  2.1811  3.2609 -0.8190
  363TMC3    H1 5492   4.431   2.016   9.962  0.5854 -0.1399 -0.5062
  363TMC3    H2 5493   4.182   1.669   9.989 -0.3960  2.1687  0.0734
  363TMC3    C7 5494   4.192   1.941  10.013 -0.7603 -0.3912  0.3989
  363TMC3    C8 5495   4.377   1.495   9.938  0.5888 -0.1235  0.1560
  363TMC3    O1 5496   4.236   2.045  10.054  0.4154 -0.1334 -0.2364
  363TMC3    O2 5497   4.264   1.452   9.935  0.3323  0.5693  0.0956
  364MPD2     C 5498   3.092   0.884  10.529 -0.1136 -0.2802  0.1941
  364MPD2    C1 5499   3.202   0.859  10.443 -0.0703 -0.1552  0.4984
  364MPD2    C2 5500   3.275   0.747  10.462 -0.4572  0.3607  0.2794
  364MPD2    C3 5501   3.226   0.651  10.551  0.3792 -0.0805  0.1492
  364MPD2    C4 5502   3.116   0.669  10.625 -0.3306 -0.2883 -0.0090
  364MPD2    C5 5503   3.047   0.788  10.615  0.2869  0.0757  0.7537
  364MPD2     H 5504   3.364   0.718  10.408 -0.6178  1.8073 -0.7377
  364MPD2    H1 5505   3.072   0.587  10.681 -0.8938 -0.2136 -0.3325
  364MPD2    H2 5506   3.042   0.980  10.530  0.6416  0.1439 -1.7553
  364MPD2    H3 5507   2.953   0.790  10.670 -0.8077  2.6640 -1.2069
  364MPD2     N 5508   3.277   0.522  10.559  0.8510 -0.3316  0.1770
  364MPD2    H5 5509   3.239   0.463  10.632  3.4424  1.8284  3.2698
  364MPD2    N1 5510   3.242   0.958  10.352  0.3151  0.4898  0.6592
  364MPD2    H7 5511   3.184   1.041  10.350  0.5782  0.6454 -0.6809
  365TMC3    C1 5512   3.372   1.068  10.195 -0.3023 -0.1498 -0.1663
  365TMC3    C2 5513   3.439   1.059  10.079 -0.2318  0.1152  0.5432
  365TMC3    C3 5514   3.480   1.170  10.013  0.1081 -0.0274  0.8174
  365TMC3    C4 5515   3.349   1.185  10.261 -0.6075  0.0535  0.0490
  365TMC3    C5 5516   3.387   1.295  10.191  0.0195 -0.1153  0.8269
  365TMC3    C6 5517   3.457   1.287  10.074 -0.4045 -0.3322 -0.2223
  365TMC3     C 5518   3.336   0.945  10.255  0.1984  0.1516 -0.1541
  365TMC3     O 5519   3.399   0.845  10.218 -0.5942  0.2078  0.0540
  365TMC3     H 5520   3.458   0.960  10.040 -0.0595  0.3456  0.0442
  365TMC3    H1 5521   3.339   1.193  10.368 -0.6946  1.5151 -0.0593
  365TMC3    H2 5522   3.489   1.382  10.031 -1.5540 -0.8622 -2.2242
  365TMC3    C7 5523   3.373   1.424  10.247 -1.6639  0.2719  0.1194
  365TMC3    C8 5524   3.590   1.172   9.919  0.0263  0.0447 -0.5617
  365TMC3    O1 5525   3.472   1.496  10.241  0.4328  0.4873  0.0082
  365TMC3    O2 5526   3.643   1.279   9.900  0.1478  0.8115 -0.1359
  366MPD2     C 5527   1.348   1.688  15.068  0.3159 -0.2574 -0.0920
  366MPD2    C1 5528   1.398   1.750  15.183 -0.4001  0.5169  0.0341
  366MPD2    C2 5529   1.534   1.775  15.198 -0.0712  0.5487  0.0048
  366MPD2    C3 5530   1.626   1.748  15.098 -0.3986 -0.2941  0.4296
  366MPD2    C4 5531   1.571   1.698  14.981 -0.2238 -0.3207  0.8603
  366MPD2    C5 5532   1.438   1.655  14.971  0.0790 -0.5726 -0.4010
  366MPD2     H 5533   1.564   1.831  15.286  1.4543  0.5026 -0.4871
  366MPD2    H1 5534   1.629   1.698  14.889  1.8488  0.3068  2.1459
  366MPD2    H2 5535   1.243   1.665  15.051  0.2266  0.0867 -0.0026
  366MPD2    H3 5536   1.396   1.617  14.879 -0.2112  3.2286 -1.8354
  366MPD2     N 5537   1.764   1.780  15.109 -0.1157 -0.4769 -0.4968
  366MPD2    H5 5538   1.817   1.768  15.023 -1.0028  1.3354 -1.2906
  366MPD2    N1 5539   1.322   1.812  15.288 -0.5041  0.2052  0.5486
  366MPD2    H7 5540   1.371   1.852  15.367  0.9901 -1.4111  0.4472
  367TMC3    C1 5541   1.124   1.918  15.365  0.6192  0.3804 -0.0768
  367TMC3    C2 5542   1.208   2.020  15.420 -0.2958 -0.8223  0.3032
  367TMC3    C3 5543   1.145   2.134  15.470 -0.1320 -0.0472  0.4533
  367TMC3    C4 5544   0.985   1.930  15.350 -0.4997  0.0469  0.7246
  367TMC3    C5 5545   0.934   2.055  15.389  0.2183 -0.1710 -0.0508
  367TMC3    C6 5546   1.015   2.153  15.453 -0.6050 -0.1092  0.0633
  367TMC3     C 5547   1.185   1.828  15.269  0.3694 -0.4552  0.2566
  367TMC3     O 5548   1.112   1.803  15.174  0.6774  0.6007 -0.0730
  367TMC3     H 5549   1.314   2.002  15.432 -0.2559 -1.3614 -0.8887
  367TMC3    H1 5550   0.929   1.846  15.312  0.6589 -0.1077 -0.6136
  367TMC3    H2 5551   0.966   2.236  15.504  3.2415  1.2921  1.4608
  367TMC3    C7 5552   0.823   2.114  15.323 -0.0427 -1.1385  0.2750
  367TMC3    C8 5553   1.237   2.241  15.506  0.0782 -0.0986  0.2661
  367TMC3    O1 5554   0.813   2.235  15.339  0.3094 -0.5984 -0.1218
  367TMC3    O2 5555   1.345   2.212  15.558  0.4984 -0.5063  0.0107
  368MPD2     C 5556   2.583   3.998  13.713  0.3114  0.9145  0.3627
  368MPD2    C1 5557   2.555   4.083  13.614 -0.3354 -0.3006 -0.0118
  368MPD2    C2 5558   2.644   4.094  13.513 -0.8615 -0.2199 -0.4118
  368MPD2    C3 5559   2.764   4.022  13.499  1.0954  0.0470 -0.5632
  368MPD2    C4 5560   2.788   3.939  13.615  0.8345 -0.6255  0.0456
  368MPD2    C5 5561   2.696   3.926  13.716  0.0820 -0.2052 -0.4562
  368MPD2     H 5562   2.627   4.165  13.433  2.1051  1.6420  0.5916
  368MPD2    H1 5563   2.880   3.881  13.621  1.4300  0.2647 -0.3826
  368MPD2    H2 5564   2.511   3.983  13.793 -0.1136 -0.4515 -0.2849
  368MPD2    H3 5565   2.718   3.853  13.794  0.0360  1.2662  0.9366
  368MPD2     N 5566   2.846   4.009  13.383 -0.1764 -0.3758  0.2241
  368MPD2    H5 5567   2.924   3.944  13.392 -0.1254 -0.2516  0.6660
  368MPD2    N1 5568   2.430   4.147  13.615  0.5574 -0.4973 -0.3436
  368MPD2    H7 5569   2.373   4.135  13.699  0.1787 -0.7644 -0.6372
  369TMC3    C1 5570   2.261   4.295  13.550 -0.4947 -0.4467 -0.7136
  369TMC3    C2 5571   2.268   4.403  13.462 -0.2483  0.0047 -0.1698
  369TMC3    C3 5572   2.176   4.422  13.360 -0.6690  0.2787  0.7186
  369TMC3    C4 5573   2.148   4.224  13.547  0.0125 -0.0337 -0.1446
  369TMC3    C5 5574   2.049   4.256  13.464 -0.0817 -0.1547  0.7225
  369TMC3    C6 5575   2.062   4.346  13.359 -0.4601  0.4552  0.4895
  369TMC3     C 5576   2.377   4.225  13.513 -0.3999 -0.1711 -0.4426
  369TMC3     O 5577   2.422   4.249  13.404  0.1513  0.1736  1.0699
  369TMC3     H 5578   2.354   4.468  13.467 -0.2006  0.0774 -1.9467
  369TMC3    H1 5579   2.134   4.144  13.619  0.2366  1.2182  1.2832
  369TMC3    H2 5580   1.982   4.383  13.295 -0.1292 -0.2794 -0.3503
  369TMC3    C7 5581   1.925   4.179  13.470 -0.1758  0.0584 -0.9788
  369TMC3    C8 5582   2.221   4.488  13.246  0.4064 -0.7162  0.0566
  369TMC3    O1 5583   1.894   4.143  13.583  0.0122 -0.4238 -0.7777
  369TMC3    O2 5584   2.147   4.545  13.168  0.0229 -0.0550  0.1164
  370TMC3    C1 5585   1.843   4.619  16.337 -0.2052  0.6875  0.3964
  370TMC3    C2 5586   1.769   4.542  16.422 -0.3408  0.2517 -0.3673
  370TMC3    C3 5587   1.686   4.439  16.373  0.0324 -0.5441  0.0649
  370TMC3    C4 5588   1.834   4.596  16.201 -0.7163 -0.2591 -0.5798
  370TMC3    C5 5589   1.758   4.491  16.156  0.3532  0.1400 -0.4102
  370TMC3    C6 5590   1.697   4.401  16.240 -0.5251 -0.5226 -0.6841
  370TMC3     C 5591   1.968   4.665  16.394  0.5531 -0.1388 -0.6268
  370TMC3     O 5592   1.992   4.636  16.513 -0.0151  0.3149 -0.1269
  370TMC3     H 5593   1.769   4.575  16.525  4.5571 -0.4552 -0.1845
  370TMC3    H1 5594   1.884   4.661  16.130  1.9582  0.2619  1.7824
  370TMC3    H2 5595   1.647   4.317  16.194  0.5161 -2.6761  2.1484
  370TMC3    C7 5596   1.796   4.448  16.020  0.8033  0.3842  1.0083
  370TMC3    C8 5597   1.676   4.326  16.468 -0.2234 -0.4749 -0.4585
  370TMC3    O1 5598   1.818   4.534  15.933  0.3995 -0.0193  0.0405
  370TMC3    O2 5599   1.692   4.211  16.433 -0.0752 -0.0993 -0.1980
  371TMC3    C1 5600   3.094   3.113  15.292  0.6901  0.5736  0.6603
  371TMC3    C2 5601   2.993   3.079  15.383 -0.6945 -0.1961 -0.2050
  371TMC3    C3 5602   2.909   3.180  15.422  0.2830  0.0807 -0.3775
  371TMC3    C4 5603   3.103   3.241  15.235  0.0815  0.5351  0.0512
  371TMC3    C5 5604   3.011   3.335  15.273 -0.0446 -0.9551 -0.1074
  371TMC3    C6 5605   2.912   3.306  15.361  0.0881 -0.2145  0.2095
  371TMC3     C 5606   3.158   2.999  15.225  0.5061 -0.6897 -0.6288
  371TMC3     O 5607   3.269   3.006  15.171  0.1680  0.4965 -0.3051
  371TMC3     H 5608   3.001   2.990  15.445 -1.7066  0.5763  1.0385
  371TMC3    H1 5609   3.189   3.268  15.176 -1.3269 -1.6153 -2.9799
  371TMC3    H2 5610   2.834   3.377  15.387  2.1325  2.1684 -0.1452
  371TMC3    C7 5611   3.014   3.467  15.212 -0.4668  0.1496 -0.3370
  371TMC3    C8 5612   2.803   3.143  15.514  0.1302 -0.1674  0.3808
  371TMC3    O1 5613   2.973   3.560  15.276 -0.2853  0.5803  0.2520
  371TMC3    O2 5614   2.821   3.033  15.565 -0.4162  0.0650  0.0976
  372MPD2     C 5615   2.328   4.417  13.886  0.2291 -0.1284 -0.4021
  372MPD2    C1 5616   2.472   4.398  13.895 -0.5368 -0.0701 -0.0768
  372MPD2    C2 5617   2.515   4.298  13.979 -0.8350 -0.6158  0.2457
  372MPD2    C3 5618   2.422   4.229  14.049  0.0045  0.0358  0.2503
  372MPD2    C4 5619   2.287   4.259  14.048 -0.3125 -0.2657  1.0102
  372MPD2    C5 5620   2.241   4.357  13.969 -0.1302 -0.2404  0.2956
  372MPD2     H 5621   2.622   4.288  13.992 -0.8482 -0.9811  0.0851
  372MPD2    H1 5622   2.213   4.210  14.112 -0.7916 -2.1185 -0.9505
  372MPD2    H2 5623   2.292   4.490  13.815 -1.1318 -0.7955 -0.3922
  372MPD2    H3 5624   2.134   4.380  13.969 -0.5883 -2.4202  1.7328
  372MPD2     N 5625   2.473   4.129  14.132  0.5208  0.0203 -0.5655
  372MPD2    H5 5626   2.571   4.105  14.124  0.7816  1.0201 -0.3817
  372MPD2    N1 5627   2.564   4.457  13.807 -0.3005 -0.5485  0.6585
  372MPD2    H7 5628   2.655   4.411  13.808  0.6236  1.2818  1.4056
  373TMC3    C1 5629   2.487   3.924  14.255 -0.3258 -0.1078  0.0443
  373TMC3    C2 5630   2.607   3.952  14.326 -0.3741  0.0287 -1.5472
  373TMC3    C3 5631   2.707   3.865  14.326 -0.3604  0.3306  0.3180
  373TMC3    C4 5632   2.490   3.826  14.161 -0.2259  0.1464 -0.0155
  373TMC3    C5 5633   2.597   3.745  14.155 -0.0031  0.2354  0.0276
  373TMC3    C6 5634   2.707   3.760  14.234  0.3662 -0.0211  0.5679
  373TMC3     C 5635   2.403   4.034  14.207  0.8018 -0.4642 -0.6531
  373TMC3     O 5636   2.283   4.011  14.217  0.9356 -0.5630  0.5443
  373TMC3     H 5637   2.612   4.041  14.388  2.0481 -0.5804 -0.8635
  373TMC3    H1 5638   2.397   3.809  14.107  1.3293 -0.6428 -2.4353
  373TMC3    H2 5639   2.797   3.701  14.222  0.2449 -0.6114  2.6017
  373TMC3    C7 5640   2.605   3.673  14.026  0.6746  0.2958 -0.2918
  373TMC3    C8 5641   2.831   3.903  14.386 -0.6229 -0.1906 -0.4083
  373TMC3    O1 5642   2.502   3.682  13.958  0.0157 -0.7976  0.3414
  373TMC3    O2 5643   2.853   4.021  14.409 -0.4897 -0.0490  0.2366
  374TMC3    C1 5644   3.075   4.098  10.039 -0.1384 -0.1928  0.3140
  374TMC3    C2 5645   3.195   4.157  10.006  0.5682 -0.1067 -0.5913
  374TMC3    C3 5646   3.196   4.250   9.897 -0.0202  0.5885  0.4459
  374TMC3    C4 5647   2.964   4.126   9.962  0.4469  0.4188  0.1554
  374TMC3    C5 5648   2.972   4.210   9.856 -0.0761  0.0316 -1.0573
  374TMC3    C6 5649   3.088   4.269   9.823 -0.0865 -0.2416 -0.5291
  374TMC3     C 5650   3.052   4.046  10.169 -0.1829 -0.0002  0.4014
  374TMC3     O 5651   2.945   4.066  10.225 -0.0254 -0.1189  0.3960
  374TMC3     H 5652   3.278   4.126  10.068 -1.0394 -1.2672  1.0190
  374TMC3    H1 5653   2.866   4.094   9.993 -0.2114  4.1081  1.9481
  374TMC3    H2 5654   3.098   4.327   9.733 -0.1980  0.2683 -0.2110
  374TMC3    C7 5655   2.866   4.211   9.765 -0.3103  0.1567  0.5751
  374TMC3    C8 5656   3.326   4.312   9.869 -0.2961  0.1674 -0.4710
  374TMC3    O1 5657   2.763   4.164   9.806 -0.1134  0.2191  0.2784
  374TMC3    O2 5658   3.323   4.381   9.769  0.3620  0.6045  0.6693
  375MPD2     C 5659   2.950   4.732  17.208 -0.6490 -0.6027 -0.4038
  375MPD2    C1 5660   2.975   0.097  17.119 -0.0970 -0.2539 -0.3446
  375MPD2    C2 5661   3.035   0.059  16.997  0.0961  0.4462 -0.3009
  375MPD2    C3 5662   3.063   4.664  16.963 -0.7743  0.6660  0.4359
  375MPD2    C4 5663   3.030   4.566  17.053  0.5553 -0.2084 -0.0684
  375MPD2    C5 5664   2.973   4.603  17.174 -0.3812  0.1924 -1.1515
  375MPD2     H 5665   3.065   0.137  16.927  1.2856 -1.3613 -1.8060
  375MPD2    H1 5666   3.038   4.458  17.041 -2.0123 -0.2769 -1.1839
  375MPD2    H2 5667   2.907   0.021  17.304 -0.6099  2.4778 -1.1568
  375MPD2    H3 5668   2.952   4.532  17.253  2.8470  0.2780 -0.2315
  375MPD2     N 5669   3.111   4.623  16.839 -0.3759 -0.1403  0.5728
  375MPD2    H5 5670   3.103   4.523  16.819  1.2979  0.0907 -1.2527
  375MPD2    N1 5671   2.928   0.232  17.142  0.1906 -0.5288 -0.1075
  375MPD2    H7 5672   2.937   0.298  17.065  0.2154  0.2476  0.5557
  376TMC3    C1 5673   3.154   4.630  16.612  0.2810 -0.2796 -0.2383
  376TMC3    C2 5674   3.178   4.496  16.634  0.1192 -0.0704  0.3804
  376TMC3    C3 5675   3.176   4.417  16.521 -0.3562 -0.7241  0.6187
  376TMC3    C4 5676   3.134   4.698  16.491  0.3385 -0.3633 -0.0294
  376TMC3    C5 5677   3.134   4.619  16.383  0.4298 -0.0174 -0.1329
  376TMC3    C6 5678   3.144   4.481  16.399  0.1768  0.1908 -0.2472
  376TMC3     C 5679   3.148   4.706  16.731  0.3111 -0.8889  0.8592
  376TMC3     O 5680   3.171   0.091  16.725 -0.1470 -0.3378 -0.4583
  376TMC3     H 5681   3.206   4.449  16.727 -2.3718 -0.8123  0.7323
  376TMC3    H1 5682   3.116   0.069  16.494 -1.8678 -0.7374  0.1137
  376TMC3    H2 5683   3.133   4.403  16.325  1.4751 -1.0448  0.8592
  376TMC3    C7 5684   3.143   4.677  16.253  0.1572  0.0895 -0.2751
  376TMC3    C8 5685   3.276   4.311  16.507  0.5566  0.6652 -0.3948
  376TMC3    O1 5686   3.151   0.061  16.240 -0.0625 -0.3259  0.3272
  376TMC3    O2 5687   3.285   4.257  16.396  0.3729  0.2625 -0.1369
  377MPD2     C 5688   1.723   4.465  13.216  0.2286  0.2485  0.4293
  377MPD2    C1 5689   1.627   4.440  13.126 -0.0612 -0.0998  0.0819
  377MPD2    C2 5690   1.516   4.367  13.166  0.4969 -0.8877 -0.3116
  377MPD2    C3 5691   1.498   4.319  13.296 -0.4284  0.2233 -0.2709
  377MPD2    C4 5692   1.594   4.355  13.389 -0.6928 -0.1839 -0.9838
  377MPD2    C5 5693   1.698   4.435  13.349 -0.6218 -0.6940  0.0655
  377MPD2     H 5694   1.440   4.354  13.089 -0.9901  1.1049  0.8194
  377MPD2    H1 5695   1.585   4.329  13.494 -1.3307  0.7287 -0.8088
  377MPD2    H2 5696   1.809   4.525  13.192 -0.4699  1.2588  0.4610
  377MPD2    H3 5697   1.781   4.459  13.415  1.2955 -0.5455 -2.4284
  377MPD2     N 5698   1.392   4.253  13.343  0.0439 -0.6399  0.0088
  377MPD2    H5 5699   1.385   4.226  13.441  4.0067 -1.7196  0.0000
  377MPD2    N1 5700   1.644   4.499  13.001 -0.3414  0.2108 -0.0996
  377MPD2    H7 5701   1.731   4.550  12.991 -1.7740  2.7139  0.1370
  378TMC3    C1 5702   1.637   4.603  12.547  0.8448 -0.2984 -0.8498
  378TMC3    C2 5703   1.577   4.544  12.655 -0.6533 -0.6297 -0.6734
  378TMC3    C3 5704   1.644   4.537  12.777  0.1634  0.1816 -0.7542
  378TMC3    C4 5705   1.767   4.620  12.549  0.1806  0.0907  0.3154
  378TMC3    C5 5706   1.833   4.602  12.667  0.2879  0.2727 -0.0458
  378TMC3    C6 5707   1.777   4.562  12.784 -0.4079 -0.1936 -0.0081
  378TMC3     C 5708   1.577   4.603  12.417  0.1711 -0.1613  0.5520
  378TMC3     O 5709   1.656   4.639  12.331  0.3294  0.2006  0.1160
  378TMC3     H 5710   1.472   4.520  12.652 -0.9886  0.5576  1.8421
  378TMC3    H1 5711   1.815   4.662  12.461 -0.4977  1.3777  0.5615
  378TMC3    H2 5712   1.845   4.559  12.868 -0.7789 -0.5703  0.2776
  378TMC3    C7 5713   1.975   4.609  12.666 -0.0055 -0.3052  0.4115
  378TMC3    C8 5714   1.567   4.496  12.887 -0.2361  0.7024  0.1003
  378TMC3    O1 5715   2.029   4.644  12.773  0.3160 -0.2523 -0.4325
  378TMC3    O2 5716   1.453   4.457  12.869  0.1090  0.4932 -0.6079
  379MPD2     C 5717   2.217   2.231  16.034  0.3956  0.3555  0.2820
  379MPD2    C1 5718   2.111   2.311  16.068 -0.5812 -0.0430 -0.5398
  379MPD2    C2 5719   2.071   2.306  16.200 -0.2522  0.5393 -0.0736
  379MPD2    C3 5720   2.129   2.221  16.290  0.4702  0.4839 -0.3852
  379MPD2    C4 5721   2.234   2.144  16.254  0.2819  0.6305 -0.1347
  379MPD2    C5 5722   2.279   2.151  16.129 -0.1381  0.3509 -0.1392
  379MPD2     H 5723   2.002   2.383  16.233  1.1482  2.1365 -0.9161
  379MPD2    H1 5724   2.273   2.065  16.318  1.2687  1.3571  0.1612
  379MPD2    H2 5725   2.254   2.214  15.934  0.5377 -1.8174  0.6978
  379MPD2    H3 5726   2.368   2.096  16.102 -1.0087 -0.9124 -0.4579
  379MPD2     N 5727   2.112   2.231  16.429  0.4657  0.6863  0.2623
  379MPD2    H5 5728   2.180   2.182  16.487 -0.2828 -0.1548  0.4295
  379MPD2    N1 5729   2.052   2.388  15.972 -0.0883 -0.3968  0.3439
  379MPD2    H7 5730   2.103   2.394  15.885 -0.6574 -0.2182  0.0220
  380TMC3    C1 5731   1.912   2.546  15.867 -0.2754 -0.3457  0.6220
  380TMC3    C2 5732   2.022   2.590  15.795  0.4418  0.0110 -0.4328
  380TMC3    C3 5733   2.001   2.693  15.707 -0.1176 -0.1811 -0.0213
  380TMC3    C4 5734   1.782   2.594  15.843  0.4923 -0.5625 -0.0551
  380TMC3    C5 5735   1.769   2.692  15.743 -0.3910  0.7481 -0.6371
  380TMC3    C6 5736   1.877   2.742  15.674 -0.2928 -0.7674 -0.6270
  380TMC3     C 5737   1.925   2.454  15.974  0.1718  0.4805  0.0360
  380TMC3     O 5738   1.849   2.475  16.066  0.4079  0.3061  0.4143
  380TMC3     H 5739   2.124   2.563  15.822  0.3564 -1.5970 -1.7854
  380TMC3    H1 5740   1.694   2.565  15.900  0.7055  0.5169  0.8190
  380TMC3    H2 5741   1.863   2.817  15.597  0.3961  1.9572  1.9085
  380TMC3    C7 5742   1.640   2.724  15.691 -0.4764 -0.4431  0.1634
  380TMC3    C8 5743   2.107   2.740  15.612 -0.1152  0.2897  0.3641
  380TMC3    O1 5744   1.618   2.838  15.649 -0.2887  0.3064 -0.3130
  380TMC3    O2 5745   2.069   2.815  15.523  0.1715 -0.6811  0.3586
  381TMC3    C1 5746   1.646   3.706  16.133 -0.1248  0.1650  0.2169
  381TMC3    C2 5747   1.736   3.812  16.142 -0.5567 -0.1042 -0.2212
  381TMC3    C3 5748   1.757   3.872  16.262 -0.3753  0.0415 -0.3295
  381TMC3    C4 5749   1.581   3.653  16.239  0.2641 -0.0708 -0.6348
  381TMC3    C5 5750   1.608   3.715  16.356 -0.0549  0.0162  0.2008
  381TMC3    C6 5751   1.704   3.810  16.369  0.0073 -0.0688  0.4454
  381TMC3     C 5752   1.642   3.629  16.017 -0.6823 -0.2809 -0.0966
  381TMC3     O 5753   1.648   3.692  15.913  0.4753  0.1798  0.0974
  381TMC3     H 5754   1.783   3.844  16.050 -0.8132 -1.1751 -0.7312
  381TMC3    H1 5755   1.495   3.587  16.231  0.6336 -0.5382 -0.7270
  381TMC3    H2 5756   1.750   3.825  16.466  0.7173 -1.3604  0.3049
  381TMC3    C7 5757   1.560   3.650  16.471  0.2223  0.4370 -0.5817
  381TMC3    C8 5758   1.894   3.913  16.270  0.1851  0.2655 -0.0519
  381TMC3    O1 5759   1.546   3.530  16.467 -0.1673  0.1610  0.4388
  381TMC3    O2 5760   1.972   3.856  16.190  0.3010  0.3052  0.1661
  382MPD2     C 5761   0.976   1.580  17.074 -0.6375 -0.1448  0.5391
  382MPD2    C1 5762   0.889   1.592  17.180  0.2304  0.1334  0.6953
  382MPD2    C2 5763   0.873   1.488  17.268 -0.4331 -0.1107  0.0642
  382MPD2    C3 5764   0.925   1.364  17.238 -0.5119  0.0234 -0.0173
  382MPD2    C4 5765   1.019   1.353  17.139 -0.6770 -0.1029  0.2314
  382MPD2    C5 5766   1.036   1.457  17.052  0.5582  0.1271 -0.0926
  382MPD2     H 5767   0.799   1.497  17.347 -1.4466 -0.8374 -0.8026
  382MPD2    H1 5768   1.076   1.263  17.119  0.8184  0.6745  0.9257
  382MPD2    H2 5769   0.996   1.655  16.998 -0.7527 -0.5062  0.1518
  382MPD2    H3 5770   1.104   1.451  16.968 -0.9925 -1.3761 -1.2325
  382MPD2     N 5771   0.908   1.253  17.328  0.6098  0.5513  0.5703
  382MPD2    H5 5772   0.953   1.166  17.303  1.7511  1.9379 -2.2150
  382MPD2    N1 5773   0.818   1.712  17.188 -0.0668 -0.4773  0.3211
  382MPD2    H7 5774   0.770   1.723  17.277  1.5806  1.9196  0.9308
  383TMC3    C1 5775   0.825   1.115  17.514 -0.1796 -0.3165 -0.7301
  383TMC3    C2 5776   0.798   1.012  17.424  0.2416  1.0744 -0.5178
  383TMC3    C3 5777   0.789   0.884  17.469 -0.9364  0.1788  0.1474
  383TMC3    C4 5778   0.838   1.097  17.652  0.5482  0.0258 -0.8878
  383TMC3    C5 5779   0.809   0.971  17.686 -0.0009  1.0565  0.2780
  383TMC3    C6 5780   0.790   0.861  17.597  0.5278  0.6326  0.3219
  383TMC3     C 5781   0.853   1.241  17.460 -0.5170 -0.2847 -0.5110
  383TMC3     O 5782   0.829   1.329  17.544 -0.3558  0.1819 -0.4135
  383TMC3     H 5783   0.785   1.028  17.318  0.2854 -0.8282 -0.8060
  383TMC3    H1 5784   0.874   1.180  17.713  2.6519 -1.6424  0.1413
  383TMC3    H2 5785   0.771   0.763  17.640 -0.2056  1.1733  1.2440
  383TMC3    C7 5786   0.764   0.942   0.077 -0.6098 -0.8356  0.7819
  383TMC3    C8 5787   0.699   0.799  17.392 -0.0325  0.0737  0.4283
  383TMC3    O1 5788   0.775   0.830   0.120 -0.1683  0.0038 -0.0919
  383TMC3    O2 5789   0.621   0.863  17.319  0.3825  0.2685 -0.4426
  384MPD2     C 5790   2.247   2.882  11.744 -0.6507 -0.1625  0.4572
  384MPD2    C1 5791   2.352   2.898  11.832 -0.3972  0.0190 -0.4685
  384MPD2    C2 5792   2.483   2.852  11.793 -0.2411 -0.9992  0.4206
  384MPD2    C3 5793   2.491   2.768  11.680  0.2365  0.4685 -0.0465
  384MPD2    C4 5794   2.384   2.744  11.599  0.3866  0.1190  0.4672
  384MPD2    C5 5795   2.265   2.800  11.631  0.3189 -0.3900 -0.4901
  384MPD2     H 5796   2.573   2.875  11.848  0.0044  1.3931 -0.9865
  384MPD2    H1 5797   2.385   2.688  11.506  4.3463  0.1655  0.4971
  384MPD2    H2 5798   2.149   2.920  11.768 -1.2582 -1.5305  0.1380
  384MPD2    H3 5799   2.182   2.789  11.562 -0.1964 -0.7442  0.1940
  384MPD2     N 5800   2.616   2.716  11.647  0.6416  0.1198 -0.0639
  384MPD2    H5 5801   2.686   2.726  11.720 -1.6043 -0.4006  2.1928
  384MPD2    N1 5802   2.342   2.975  11.948 -0.2073 -0.4303 -0.4214
  384MPD2    H7 5803   2.415   2.957  12.015 -0.7784  1.5036  0.7229
  385TMC3    C1 5804   2.778   2.581  11.559  0.5106 -0.2804 -0.5276
  385TMC3    C2 5805   2.776   2.442  11.554  0.2471 -0.3231  0.3750
  385TMC3    C3 5806   2.833   2.372  11.657  0.1375 -0.1315 -0.3650
  385TMC3    C4 5807   2.850   2.642  11.653  0.1711 -0.4896 -0.3870
  385TMC3    C5 5808   2.898   2.569  11.759  0.1202 -0.0239  0.6838
  385TMC3    C6 5809   2.893   2.430  11.763  0.2819 -0.0758 -0.1217
  385TMC3     C 5810   2.660   2.654  11.529  0.7155  0.0666  0.3316
  385TMC3     O 5811   2.602   2.624  11.421  0.6656  0.7023  0.2408
  385TMC3     H 5812   2.709   2.384  11.491  0.5742  1.5567 -1.7055
  385TMC3    H1 5813   2.860   2.750  11.657 -0.7276 -0.3678 -1.6104
  385TMC3    H2 5814   2.944   2.368  11.836  0.9195 -0.4356 -0.8801
  385TMC3    C7 5815   2.857   2.634  11.885  0.1438 -0.8032  0.2505
  385TMC3    C8 5816   2.833   2.230  11.662 -0.2930 -1.5142  0.2491
  385TMC3    O1 5817   2.797   2.740  11.882  0.4335  0.3156 -0.5609
  385TMC3    O2 5818   2.837   2.181  11.773 -0.2834  0.2071 -0.1420
  386TMC3    C1 5819   3.040   4.444  11.999 -0.3523 -0.4916 -0.0951
  386TMC3    C2 5820   3.092   4.536  11.918 -0.4188  0.6447 -0.6209
  386TMC3    C3 5821   3.022   4.650  11.898  0.2273  0.0802 -0.2440
  386TMC3    C4 5822   2.933   4.470  12.081 -0.4759  0.7259 -0.2930
  386TMC3    C5 5823   2.872   4.591  12.065  0.3771  0.3265 -0.0888
  386TMC3    C6 5824   2.910   4.674  11.967 -0.5875  0.0163  0.4327
  386TMC3     C 5825   3.099   4.314  11.993 -0.0068 -0.2932 -0.5326
  386TMC3     O 5826   3.217   4.309  11.957 -0.1555 -0.6302 -0.0974
  386TMC3     H 5827   3.172   4.514  11.848  1.0480  1.7881  0.6739
  386TMC3    H1 5828   2.902   4.411  12.166 -1.3831  1.4099 -0.1509
  386TMC3    H2 5829   2.860   0.035  11.961 -0.1721  0.3082  1.6667
  386TMC3    C7 5830   2.741   4.616  12.129 -0.2503 -0.0593 -0.1025
  386TMC3    C8 5831   3.030   4.720  11.775 -0.1795  0.3550  0.2991
  386TMC3    O1 5832   2.717   4.558  12.236  0.4056 -0.2948 -0.2247
  386TMC3    O2 5833   2.918   0.023  11.742 -0.2174 -0.4093  0.2289
  387MPD2     C 5834   0.608   4.302   9.872  0.4057  1.0923 -0.8594
  387MPD2    C1 5835   0.738   4.258   9.896 -0.3859 -0.0231 -0.6266
  387MPD2    C2 5836   0.769   4.126   9.859 -0.5183 -0.2801  0.1465
  387MPD2    C3 5837   0.677   4.032   9.818 -0.1317  0.2623  0.3171
  387MPD2    C4 5838   0.553   4.076   9.803 -0.2666 -0.8440 -0.8221
  387MPD2    C5 5839   0.517   4.207   9.826  0.4080 -0.0268  0.1928
  387MPD2     H 5840   0.870   4.089   9.873  0.2155  1.7342  0.2813
  387MPD2    H1 5841   0.472   4.007   9.782 -1.1087 -0.2179  0.3535
  387MPD2    H2 5842   0.573   4.402   9.895 -0.7493  0.2895  0.8827
  387MPD2    H3 5843   0.414   4.240   9.821  0.4168 -0.1109 -0.4957
  387MPD2     N 5844   0.723   3.905   9.802  0.2358 -0.3537 -0.0057
  387MPD2    H5 5845   0.823   3.888   9.807  0.1416 -0.7934  0.3822
  387MPD2    N1 5846   0.830   4.332   9.976  0.2505 -0.3005 -0.3116
  387MPD2    H7 5847   0.918   4.284   9.992 -1.8901 -4.5222 -1.3061
  388TMC3    C1 5848   0.933   4.482  10.098  0.4506  0.4295  0.5210
  388TMC3    C2 5849   1.003   4.604  10.085 -0.0715  0.0021  0.0293
  388TMC3    C3 5850   1.120   4.621  10.155 -0.3790  0.7681 -0.6327
  388TMC3    C4 5851   0.989   4.374  10.155 -0.3550 -0.1615 -0.9348
  388TMC3    C5 5852   1.116   4.385  10.201  0.4623 -0.2399 -0.0911
  388TMC3    C6 5853   1.179   4.512  10.215  0.2196 -0.2197 -0.2288
  388TMC3     C 5854   0.812   4.455  10.030 -0.0041 -0.3072 -0.0098
  388TMC3     O 5855   0.734   4.546  10.010  0.2316  0.4265  0.2470
  388TMC3     H 5856   0.958   4.690  10.037  0.9138 -0.7220 -2.1700
  388TMC3    H1 5857   0.927   4.288  10.178 -0.6173  0.3854  0.3822
  388TMC3    H2 5858   1.262   4.510  10.284  0.8611  1.9228 -0.9201
  388TMC3    C7 5859   1.190   4.263  10.238  0.1730 -0.1657 -0.6175
  388TMC3    C8 5860   1.149   0.016  10.214  0.1173 -0.2235 -0.2687
  388TMC3    O1 5861   1.237   4.249  10.351 -0.4625  0.6687  0.1698
  388TMC3    O2 5862   1.205   0.010  10.324 -0.2465  0.7186  0.0003
  389MPD2     C 5863   4.591   2.631  11.841  0.1039 -0.0344 -0.4494
  389MPD2    C1 5864   4.610   2.562  11.718  0.6006 -0.0974  0.1212
  389MPD2    C2 5865   4.546   2.443  11.697 -0.4086  0.1000  0.1011
  389MPD2    C3 5866   4.469   2.390  11.803 -0.1789 -0.1661 -0.5610
  389MPD2    C4 5867   4.453   2.457  11.923  0.0880 -0.4465 -0.0928
  389MPD2    C5 5868   4.514   2.577  11.938  0.3735 -0.4816  0.3621
  389MPD2     H 5869   4.558   2.394  11.602 -0.7187 -0.1358  0.1833
  389MPD2    H1 5870   4.401   2.416  12.009  1.7728 -0.5960  0.8512
  389MPD2    H2 5871   4.645   2.724  11.860 -2.2114  1.3242 -0.5438
  389MPD2    H3 5872   4.511   2.624  12.036  1.9904  0.9346 -0.2772
  389MPD2     N 5873   4.401   2.267  11.792  0.0482  0.1235  0.1188
  389MPD2    H5 5874   4.362   2.234  11.879  2.0090  1.0129  1.3346
  389MPD2    N1 5875   4.691   2.621  11.625 -0.0180 -0.4228  0.0277
  389MPD2    H7 5876   4.722   2.716  11.644  0.3398 -0.4698 -0.3303
  390TMC3    C1 5877   4.274   2.102  11.690  0.5587  0.1080  0.8449
  390TMC3    C2 5878   4.277   2.036  11.807  0.2560 -0.1954 -0.2915
  390TMC3    C3 5879   4.178   1.947  11.838  0.1544  0.4070 -0.3523
  390TMC3    C4 5880   4.183   2.075  11.591  0.3074 -0.2452  0.3521
  390TMC3    C5 5881   4.076   2.002  11.635  0.1081  0.7603  0.2111
  390TMC3    C6 5882   4.072   1.935  11.753  0.4109 -0.1557  0.1745
  390TMC3     C 5883   4.373   2.203  11.672  0.4309 -0.0572  0.3552
  390TMC3     O 5884   4.389   2.231  11.555  0.1401  0.0032  0.7578
  390TMC3     H 5885   4.359   2.052  11.877 -0.7129  0.7201  0.6310
  390TMC3    H1 5886   4.182   2.124  11.495  0.6038  1.1657  1.0590
  390TMC3    H2 5887   3.986   1.874  11.778 -0.6883  1.8562  1.3477
  390TMC3    C7 5888   3.988   1.953  11.535 -0.2981  0.4512 -0.0999
  390TMC3    C8 5889   4.169   1.892  11.968  0.1253 -0.3560  0.0648
  390TMC3    O1 5890   4.031   1.931  11.422 -0.1980 -0.3540 -0.0133
  390TMC3    O2 5891   4.222   1.953  12.055 -0.0810 -0.1096 -0.3421
  391MPD2     C 5892   4.207   4.063  11.183 -0.4135 -0.3219 -0.0537
  391MPD2    C1 5893   4.304   4.137  11.113 -0.0513 -0.8145  0.1225
  391MPD2    C2 5894   4.289   4.153  10.975 -0.2758  0.4104 -0.1272
  391MPD2    C3 5895   4.188   4.096  10.900  0.2722 -0.5241 -0.5137
  391MPD2    C4 5896   4.093   4.017  10.962  0.0982 -0.3540 -0.0229
  391MPD2    C5 5897   4.105   4.007  11.103  0.1196 -0.1804  0.5534
  391MPD2     H 5898   4.356   4.222  10.924 -0.5235 -0.4652 -1.6497
  391MPD2    H1 5899   4.018   3.966  10.904  0.8340  0.5436 -1.7791
  391MPD2    H2 5900   4.198   4.052  11.291 -0.7046  0.4477  0.0011
  391MPD2    H3 5901   4.029   3.960  11.165  0.9397 -0.7993  1.0953
  391MPD2     N 5902   4.179   4.129  10.762  0.2533  0.3168 -0.0583
  391MPD2    H5 5903   4.255   4.183  10.723 -0.5427  2.5063  1.4148
  391MPD2    N1 5904   4.410   4.192  11.183  0.5157  0.3775 -0.3754
  391MPD2    H7 5905   4.406   4.192  11.285  0.5927 -0.1089 -0.3728
  392TMC3    C1 5906   4.090   4.152  10.540 -0.3944  0.1685 -0.0099
  392TMC3    C2 5907   3.986   4.144  10.455  0.1860 -0.2853 -0.0442
  392TMC3    C3 5908   3.980   4.201  10.334  0.0217 -1.0007 -0.2894
  392TMC3    C4 5909   4.213   4.201  10.499 -0.2413  0.0538  0.6358
  392TMC3    C5 5910   4.210   4.245  10.370  0.8289  0.2800  0.2850
  392TMC3    C6 5911   4.103   4.258  10.290  0.0098  0.5120 -0.2610
  392TMC3     C 5912   4.068   4.107  10.677 -0.1023 -0.4267 -0.6813
  392TMC3     O 5913   3.956   4.072  10.713  0.6377 -0.0744 -0.2035
  392TMC3     H 5914   3.897   4.106  10.503  0.7479 -1.8072 -0.2212
  392TMC3    H1 5915   4.303   4.203  10.559  1.1920 -0.7847 -1.4937
  392TMC3    H2 5916   4.112   4.306  10.193 -0.6578 -1.7680 -1.4565
  392TMC3    C7 5917   4.322   4.329  10.334  0.1353  0.4135  0.1475
  392TMC3    C8 5918   3.855   4.216  10.259  0.3913 -0.0749 -0.2383
  392TMC3    O1 5919   4.387   4.364  10.432  0.4525 -0.2365 -0.0196
  392TMC3    O2 5920   3.759   4.152  10.298 -0.0054 -0.1406 -0.4502
  393TMC3    C1 5921   2.563   2.766  10.500  0.2625  0.3793  0.3840
  393TMC3    C2 5922   2.561   2.707  10.375  0.1297  0.1970 -0.4120
  393TMC3    C3 5923   2.471   2.608  10.346  0.6672 -0.4436  0.1853
  393TMC3    C4 5924   2.479   2.719  10.598  0.8760 -0.0254 -0.1882
  393TMC3    C5 5925   2.396   2.621  10.566  0.1125 -0.0542 -0.1088
  393TMC3    C6 5926   2.388   2.563  10.442  0.1083 -0.2760 -1.1184
  393TMC3     C 5927   2.618   2.904  10.513  0.4283  0.2961 -0.4549
  393TMC3     O 5928   2.676   2.946  10.416 -0.2625 -0.0430 -0.7695
  393TMC3     H 5929   2.624   2.753  10.300 -0.0084  0.3791 -0.4173
  393TMC3    H1 5930   2.471   2.758  10.699  1.1557  2.2952 -1.0593
  393TMC3    H2 5931   2.333   2.475  10.414 -1.4683  0.5199 -0.5640
  393TMC3    C7 5932   2.386   2.518  10.663 -0.2327  0.0502 -0.3569
  393TMC3    C8 5933   2.503   2.511  10.240 -0.0361 -0.0186  0.6676
  393TMC3    O1 5934   2.300   2.432  10.642 -0.0525  0.4708  0.6403
  393TMC3    O2 5935   2.467   2.394  10.260 -0.2175 -0.1083 -0.0043
  394TMC3    C1 5936   0.032   2.681  11.416  0.0724  0.3031 -0.0904
  394TMC3    C2 5937   4.691   2.797  11.422  0.7387  0.0363 -0.3591
  394TMC3    C3 5938   0.000   2.899  11.350 -0.2053  0.0292  0.1930
  394TMC3    C4 5939   0.142   2.671  11.336 -0.2249 -0.5313 -0.2278
  394TMC3    C5 5940   0.183   2.780  11.268  1.1832 -0.7600  0.2001
  394TMC3    C6 5941   0.111   2.894  11.266 -0.9178 -0.2343  0.1877
  394TMC3     C 5942   4.715   2.575  11.498 -1.0122  0.1940  0.5220
  394TMC3     O 5943   4.735   2.462  11.459  0.0854  0.0982 -0.4021
  394TMC3     H 5944   4.596   2.800  11.475  0.5469  0.0701 -0.7096
  394TMC3    H1 5945   0.203   2.582  11.341  0.7035  0.2063  1.4097
  394TMC3    H2 5946   0.117   2.961  11.181  1.4355 -2.6206 -1.5361
  394TMC3    C7 5947   0.295   2.783  11.174  0.9429 -0.0545 -0.0265
  394TMC3    C8 5948   4.621   2.964  11.293 -0.1234  0.5006  0.7307
  394TMC3    O1 5949   0.348   2.894  11.155 -0.3212  0.2925 -0.1985
  394TMC3    O2 5950   4.538   3.016  11.366  0.1452 -0.1849  0.3668
  395TMC3    C1 5951   4.581   4.579  15.022 -0.6557  0.2887 -0.5317
  395TMC3    C2 5952   4.471   4.604  14.943  0.1140  0.5264 -0.1756
  395TMC3    C3 5953   4.465   4.722  14.873 -0.4713  0.7361 -0.3756
  395TMC3    C4 5954   4.676   4.675  15.030  0.5508  0.2190  0.2889
  395TMC3    C5 5955   4.674   0.045  14.945  0.2925 -0.6109  0.3179
  395TMC3    C6 5956   4.564   0.071  14.871 -0.3383  0.2587 -0.6976
  395TMC3     C 5957   4.571   4.472  15.117 -0.0117  0.2909 -0.3789
  395TMC3     O 5958   4.669   4.402  15.142  0.1027  0.2765  0.0749
  395TMC3     H 5959   4.394   4.528  14.933 -0.5941  1.1155  0.8058
  395TMC3    H1 5960   0.014   4.662  15.108 -1.8763  0.7618  2.6609
  395TMC3    H2 5961   4.545   0.170  14.832  4.9499  0.7253 -2.0902
  395TMC3    C7 5962   0.034   0.161  14.951 -0.4548 -0.1759  0.1874
  395TMC3    C8 5963   4.344   0.021  14.799  0.1229  0.3694 -0.2400
  395TMC3    O1 5964   0.053   0.206  15.061 -0.4983  0.1643  0.7444
  395TMC3    O2 5965   4.318   0.140  14.799  0.3190  0.3591 -0.5007
  396MPD2     C 5966   4.050   0.983  16.692 -0.7259  0.4627 -0.3757
  396MPD2    C1 5967   4.131   1.029  16.789 -0.2374  0.1262 -0.2574
  396MPD2    C2 5968   4.219   1.132  16.760  0.5400 -0.7293 -0.3374
  396MPD2    C3 5969   4.222   1.191  16.640 -0.5113 -0.2059 -0.1015
  396MPD2    C4 5970   4.139   1.152  16.539  0.0553 -0.3400 -0.2688
  396MPD2    C5 5971   4.042   1.059  16.576 -0.3830  0.2202 -0.1934
  396MPD2     H 5972   4.283   1.167  16.840 -0.5362  1.1708 -0.2919
  396MPD2    H1 5973   4.137   1.199  16.441 -0.2772 -1.3423 -0.7448
  396MPD2    H2 5974   3.978   0.901  16.695 -1.9098  1.5110  0.0470
  396MPD2    H3 5975   3.966   1.030  16.504  0.1458  2.5882 -1.6985
  396MPD2     N 5976   4.325   1.295  16.625 -0.2469 -0.4882 -0.2323
  396MPD2    H5 5977   4.381   1.321  16.706  1.4013  0.9533 -1.8099
  396MPD2    N1 5978   4.115   0.966  16.917  0.1803 -0.5191 -0.1333
  396MPD2    H7 5979   4.044   0.894  16.928 -0.9664  0.4891 -0.8695
  397TMC3    C1 5980   4.155   0.903  17.136  0.6205  1.1121  0.4426
  397TMC3    C2 5981   4.264   0.859  17.201  0.2443  0.6603 -0.6017
  397TMC3    C3 5982   4.291   0.722  17.198  0.3189  0.0426  0.3718
  397TMC3    C4 5983   4.056   0.819  17.109 -0.8482 -0.3562 -0.3017
  397TMC3    C5 5984   4.068   0.687  17.135 -0.2963 -0.1135  1.2641
  397TMC3    C6 5985   4.187   0.633  17.180 -0.8827  0.1241 -0.0963
  397TMC3     C 5986   4.189   0.997  17.033  0.4663 -0.2820 -0.3738
  397TMC3     O 5987   4.293   1.058  17.048 -0.2373 -0.3961 -0.1530
  397TMC3     H 5988   4.345   0.929  17.220  0.7914 -0.1411  0.0438
  397TMC3    H1 5989   3.962   0.865  17.081  0.3838 -0.1816 -4.0769
  397TMC3    H2 5990   4.204   0.526  17.182 -1.1167  0.0604 -1.2547
  397TMC3    C7 5991   3.941   0.620  17.176 -0.7362 -0.4723  0.4264
  397TMC3    C8 5992   4.409   0.669  17.261 -0.8593  0.1166  0.4160
  397TMC3    O1 5993   3.841   0.663  17.127  0.6364 -0.4770 -0.0348
  397TMC3    O2 5994   4.393   0.558  17.313  0.1196 -0.0762 -0.3006
  398MPD2     C 5995   1.977   2.803  17.705 -0.6457 -0.5499  0.3196
  398MPD2    C1 5996   2.029   2.736   0.072  1.0175 -0.6593 -0.3696
  398MPD2    C2 5997   2.152   2.774   0.118  0.3320 -0.2569  1.0587
  398MPD2    C3 5998   2.205   2.889   0.074 -0.5335 -0.1017  1.0449
  398MPD2    C4 5999   2.153   2.963  17.713 -0.1700 -0.3681 -0.1990
  398MPD2    C5 6000   2.037   2.914  17.657  0.4099 -0.1257 -0.9547
  398MPD2     H 6001   2.198   2.734   0.208  1.7473  0.3515  0.6089
  398MPD2    H1 6002   2.197   3.053  17.673  0.3403 -0.7985 -0.6171
  398MPD2    H2 6003   1.877   2.788  17.665 -0.4974  0.8078 -0.5759
  398MPD2    H3 6004   1.994   2.977  17.580 -0.9866 -1.1176 -0.9941
  398MPD2     N 6005   2.331   2.919   0.128 -0.4700 -0.3623 -0.1672
  398MPD2    H5 6006   2.365   2.866   0.208  0.3401 -0.8387 -0.8282
  398MPD2    N1 6007   1.973   2.618   0.134  0.1063 -0.2617 -0.1495
  398MPD2    H7 6008   2.011   2.591   0.224  0.4561  0.6429 -0.0198
  399TMC3    C1 6009   1.828   2.429   0.152  0.2204  0.1351  0.5686
  399TMC3    C2 6010   1.892   2.393   0.271  0.3520 -0.8360  0.0776
  399TMC3    C3 6011   1.881   2.266   0.315  0.0406  0.1954  0.5013
  399TMC3    C4 6012   1.741   2.344   0.075  0.0098 -0.1331 -0.7107
  399TMC3    C5 6013   1.742   2.215   0.126  0.5952 -0.5908 -0.4117
  399TMC3    C6 6014   1.802   2.179   0.243  0.0248 -0.2076 -0.0137
  399TMC3     C 6015   1.862   2.553   0.084 -0.0637 -0.2084  0.0630
  399TMC3     O 6016   1.809   2.576  17.716  0.1097  0.9191 -0.1118
  399TMC3     H 6017   1.926   2.466   0.343  2.4468  1.0168 -2.8051
  399TMC3    H1 6018   1.670   2.372  17.737 -0.3396  0.0626 -0.3250
  399TMC3    H2 6019   1.814   2.072   0.252 -1.0631 -0.1922  1.4495
  399TMC3    C7 6020   1.685   2.115   0.047  0.0356  0.1075  0.1468
  399TMC3    C8 6021   1.992   2.227   0.403  0.0346  0.0824 -0.2162
  399TMC3    O1 6022   1.645   2.008   0.094  0.3033 -0.4366  0.6599
  399TMC3    O2 6023   2.076   2.309   0.434 -0.0274 -0.7129 -0.1850
  400TMC3    C1 6024   0.692   0.579  16.932 -0.2536  0.2564 -0.4779
  400TMC3    C2 6025   0.633   0.505  16.833 -0.1400  0.0443  0.5041
  400TMC3    C3 6026   0.546   0.560  16.747 -0.5480  0.0659  0.0142
  400TMC3    C4 6027   0.658   0.716  16.946 -0.5716  0.0229 -0.0785
  400TMC3    C5 6028   0.562   0.769  16.861 -0.4026 -0.0029  0.2144
  400TMC3    C6 6029   0.510   0.692  16.757  0.6169  0.8273 -0.5561
  400TMC3     C 6030   0.796   0.522  17.015 -0.1119 -0.6100  0.1026
  400TMC3     O 6031   0.800   0.401  17.001  1.0994  0.3403  0.6687
  400TMC3     H 6032   0.658   0.399  16.829 -1.9476 -0.3419 -0.2471
  400TMC3    H1 6033   0.680   0.777  17.033 -2.1480 -0.4619  0.6604
  400TMC3    H2 6034   0.442   0.724  16.679 -1.7212 -1.1906  0.6713
  400TMC3    C7 6035   0.546   0.909  16.846 -0.0450 -0.0935 -0.2704
  400TMC3    C8 6036   0.447   0.471  16.703 -0.3159 -0.2603 -0.1445
  400TMC3    O1 6037   0.509   0.951  16.737  0.8481 -0.2371  0.1307
  400TMC3    O2 6038   0.413   0.380  16.773 -0.1796  0.1111  0.5828
  401MPD2     C 6039   3.529   3.989   0.537 -1.0696  0.4936  0.5300
  401MPD2    C1 6040   3.579   3.933   0.646  0.4171  0.1490  0.0219
  401MPD2    C2 6041   3.602   3.795   0.645  0.0384 -0.3104 -0.3404
  401MPD2    C3 6042   3.557   3.704   0.553 -0.5798 -0.3251  0.4470
  401MPD2    C4 6043   3.486   3.764   0.449  0.4514 -0.4082 -0.4397
  401MPD2    C5 6044   3.484   3.901   0.440  0.2436 -0.5939  0.2944
  401MPD2     H 6045   3.660   3.749   0.724  1.6571  2.8569  0.3403
  401MPD2    H1 6046   3.444   3.705   0.368 -0.2812 -1.3421  0.6149
  401MPD2    H2 6047   3.532   4.097   0.533 -0.6994  0.4865  0.6677
  401MPD2    H3 6048   3.441   3.944   0.351  1.8752  1.8443  0.6800
  401MPD2     N 6049   3.591   3.571   0.565 -0.0706 -0.4704 -0.3354
  401MPD2    H5 6050   3.669   3.560   0.629  0.7762 -0.9750 -1.4835
  401MPD2    N1 6051   3.614   4.020   0.755 -0.0880  0.3857  0.0403
  401MPD2    H7 6052   3.624   4.119   0.733  2.6923 -0.1579 -1.1043
  402TMC3    C1 6053   3.630   3.350   0.495 -0.2212  0.5404  0.8584
  402TMC3    C2 6054   3.705   3.333   0.611 -0.5236  0.0272 -0.2198
  402TMC3    C3 6055   3.773   3.217   0.617  0.1682 -0.4298 -0.0388
  402TMC3    C4 6056   3.644   3.267   0.387  0.3967 -0.1272  0.1699
  402TMC3    C5 6057   3.719   3.155   0.401  1.0241  0.4946  0.1286
  402TMC3    C6 6058   3.781   3.127   0.517 -0.3294 -0.6752  0.6933
  402TMC3     C 6059   3.558   3.470   0.470  0.2874  0.6693 -0.4582
  402TMC3     O 6060   3.479   3.480   0.378 -0.6962  0.2460 -0.3196
  402TMC3     H 6061   3.672   3.382   0.702 -1.0740 -1.6401  0.4810
  402TMC3    H1 6062   3.580   3.288   0.301 -1.4391 -2.1572  1.0344
  402TMC3    H2 6063   3.842   3.038   0.523  0.0607 -0.4869 -0.4068
  402TMC3    C7 6064   3.767   3.097   0.274  0.3064  0.0558  0.1441
  402TMC3    C8 6065   3.841   3.179   0.736 -0.2351  0.1003 -0.9712
  402TMC3    O1 6066   3.754   3.169   0.175 -0.1343  0.5508  0.2817
  402TMC3    O2 6067   3.879   3.063   0.750  0.6359  0.6782  0.1816
  403MPD2     C 6068   1.740   2.443  13.450 -0.3649  0.2400 -0.3685
  403MPD2    C1 6069   1.849   2.393  13.371  0.2651  0.4119 -0.5951
  403MPD2    C2 6070   1.980   2.454  13.374 -0.8730  0.1862  0.6444
  403MPD2    C3 6071   1.995   2.549  13.470  0.3745  0.5928  0.1299
  403MPD2    C4 6072   1.896   2.585  13.558  0.1665  0.1778 -0.1978
  403MPD2    C5 6073   1.767   2.538  13.541  0.2076 -0.0617  0.4411
  403MPD2     H 6074   2.063   2.413  13.318 -1.9090  1.2967 -1.6883
  403MPD2    H1 6075   1.905   2.667  13.629  2.4892 -1.0674  0.9320
  403MPD2    H2 6076   1.642   2.398  13.445 -0.1248 -0.3942  0.6966
  403MPD2    H3 6077   1.686   2.578  13.602 -0.8396 -0.0917 -0.9261
  403MPD2     N 6078   2.122   2.605  13.471 -0.2022  0.9761  0.0033
  403MPD2    H5 6079   2.180   2.574  13.394  0.8531  0.2923  1.0690
  403MPD2    N1 6080   1.833   2.292  13.275 -0.2019  0.6787  0.1404
  403MPD2    H7 6081   1.910   2.274  13.211 -0.6908 -1.7418  0.2378
  404TMC3    C1 6082   1.752   2.095  13.177  0.5255 -0.5372  0.7742
  404TMC3    C2 6083   1.724   1.981  13.243 -0.3610 -0.2075 -0.7910
  404TMC3    C3 6084   1.742   1.862  13.184  0.0597  0.1401  0.3595
  404TMC3    C4 6085   1.815   2.108  13.056  0.5507  0.0240 -0.3449
  404TMC3    C5 6086   1.838   1.985  13.006 -0.3203  0.1452 -0.7280
  404TMC3    C6 6087   1.813   1.864  13.066  0.5305 -0.4513 -0.1179
  404TMC3     C 6088   1.728   2.211  13.263 -0.8132  0.1635 -0.3673
  404TMC3     O 6089   1.621   2.208  13.322  0.1622 -0.4940  0.4572
  404TMC3     H 6090   1.668   1.991  13.335  0.6563  0.5834 -0.2572
  404TMC3    H1 6091   1.848   2.201  13.011  0.7473 -0.4112 -1.1067
  404TMC3    H2 6092   1.856   1.775  13.021 -1.6158 -1.5599  0.0184
  404TMC3    C7 6093   1.884   1.974  12.871 -0.2287 -0.2009  0.1965
  404TMC3    C8 6094   1.783   1.759  13.272  0.5345  0.6084  0.1283
  404TMC3    O1 6095   1.965   2.054  12.831  0.3084 -0.4022  0.5650
  404TMC3    O2 6096   1.859   1.677  13.228  0.4426  0.2164  0.1310
  405MPD2     C 6097   2.404   2.534  14.458 -0.6083  0.6475  0.8592
  405MPD2    C1 6098   2.389   2.498  14.329  0.6056  0.0412  0.1562
  405MPD2    C2 6099   2.350   2.593  14.230 -0.5537 -0.4466  0.1872
  405MPD2    C3 6100   2.320   2.727  14.268 -0.5592  0.4584  0.0249
  405MPD2    C4 6101   2.338   2.764  14.401  0.3469  1.2349 -0.3434
  405MPD2    C5 6102   2.383   2.667  14.490  0.2146  0.1906  0.0844
  405MPD2     H 6103   2.346   2.564  14.126  0.2809  1.8025 -0.4661
  405MPD2    H1 6104   2.324   2.866  14.433  1.2587  0.8552  1.2487
  405MPD2    H2 6105   2.439   2.473  14.541  0.7012 -0.1285 -0.2599
  405MPD2    H3 6106   2.390   2.692  14.595  2.9528  1.1879 -0.3225
  405MPD2     N 6107   2.288   2.817  14.163 -0.0411  0.0633  0.2283
  405MPD2    H5 6108   2.248   2.777  14.079 -2.1149  0.9449  0.8135
  405MPD2    N1 6109   2.400   2.360  14.301  0.7036 -0.0949 -0.1309
  405MPD2    H7 6110   2.417   2.301  14.382 -1.5789  0.6023  0.8509
  406TMC3    C1 6111   2.053   3.206  14.042 -0.5840 -0.7197  0.3529
  406TMC3    C2 6112   1.986   3.134  13.947  0.3123 -0.1539 -0.3087
  406TMC3    C3 6113   2.020   3.003  13.917 -0.2529 -0.2856 -0.1893
  406TMC3    C4 6114   2.158   3.153  14.112 -0.0209 -0.1354  0.2543
  406TMC3    C5 6115   2.192   3.024  14.076  0.9318  0.7092  0.3337
  406TMC3    C6 6116   2.130   2.947  13.977 -0.1876 -0.0113  0.4756
  406TMC3     C 6117   1.988   3.316  14.109 -0.0264 -0.3081  0.5274
  406TMC3     O 6118   2.050   3.413  14.148 -0.7723  0.2465  0.5923
  406TMC3     H 6119   1.908   3.184  13.891  0.8887  0.0935 -0.8862
  406TMC3    H1 6120   2.219   3.209  14.182  0.5655  0.5300 -0.7981
  406TMC3    H2 6121   2.153   2.843  13.958  0.8168  0.1203  0.9774
  406TMC3    C7 6122   2.286   2.960  14.171 -1.0574 -0.4245 -0.6938
  406TMC3    C8 6123   1.903   2.922  13.896  0.0141  0.5223  0.2581
  406TMC3    O1 6124   2.345   3.029  14.255  0.2983  0.2972  0.1733
  406TMC3    O2 6125   1.795   2.976  13.914 -0.4887 -0.1430 -0.1178
  407MPD2     C 6126   4.675   4.005   9.694  0.2068 -0.2640  0.0396
  407MPD2    C1 6127   0.028   4.102   9.646 -0.0141  0.0005 -0.1578
  407MPD2    C2 6128   0.065   4.206   9.734  0.1775 -0.4883 -0.7358
  407MPD2    C3 6129   0.027   4.202   9.867 -0.0005 -0.0260 -0.1705
  407MPD2    C4 6130   4.686   4.100   9.915  0.5395 -0.4356 -0.2180
  407MPD2    C5 6131   4.643   4.001   9.826 -0.4718  0.4716 -0.4745
  407MPD2     H 6132   0.123   4.287   9.690 -0.0196 -0.1095 -0.2882
  407MPD2    H1 6133   4.655   4.098  10.019 -2.5609 -2.0544 -1.1587
  407MPD2    H2 6134   4.646   3.929   9.622  3.1587 -0.8105 -0.5672
  407MPD2    H3 6135   4.581   3.918   9.859  2.2393 -1.2158  0.3946
  407MPD2     N 6136   0.070   4.302   9.953  0.3924  0.6177 -0.1942
  407MPD2    H5 6137   0.054   4.270  10.047  3.2682 -0.1477  0.0464
  407MPD2    N1 6138   0.077   4.110   9.513 -0.5981  0.2440  0.0818
  407MPD2    H7 6139   0.153   4.172   9.489  0.1411 -0.5472  0.3946
  408TMC3    C1 6140   0.122   4.027   9.297  0.4188  0.5884  0.3082
  408TMC3    C2 6141   0.253   3.994   9.325 -0.5742  0.5995  0.1174
  408TMC3    C3 6142   0.328   3.953   9.223  0.0235  0.0765  0.0569
  408TMC3    C4 6143   0.064   4.002   9.176  0.0604  0.7546  0.0659
  408TMC3    C5 6144   0.144   3.950   9.076 -0.4781  0.0712 -0.2822
  408TMC3    C6 6145   0.272   3.920   9.101  0.6079  0.0424  0.3319
  408TMC3     C 6146   0.030   4.032   9.410 -0.4904  0.6118 -0.1955
  408TMC3     O 6147   4.668   3.958   9.403  0.3217 -0.7944 -0.3385
  408TMC3     H 6148   0.295   4.014   9.423 -1.0808 -1.8025  0.8273
  408TMC3    H1 6149   4.693   4.019   9.165 -0.3075 -3.6247 -3.0029
  408TMC3    H2 6150   0.328   3.908   9.009  1.1602  1.8937  0.4234
  408TMC3    C7 6151   0.103   3.938   8.940  0.1056 -1.0389 -0.1240
  408TMC3    C8 6152   0.470   3.963   9.238 -0.1189  0.3489  0.1824
  408TMC3    O1 6153   0.188   3.943   8.857  0.1494 -0.0280  0.0138
  408TMC3    O2 6154   0.548   3.912   9.159 -0.4818 -0.3288 -0.1804
  409MPD2     C 6155   4.176   0.209  16.824  0.4048 -0.1147 -0.4341
  409MPD2    C1 6156   4.290   0.168  16.900  0.1747  0.2105  0.2010
  409MPD2    C2 6157   4.392   0.259  16.913 -0.3054  0.6720  0.0502
  409MPD2    C3 6158   4.383   0.386  16.861  0.2886 -0.8911 -0.3487
  409MPD2    C4 6159   4.262   0.431  16.807 -0.5488 -0.4429 -0.5016
  409MPD2    C5 6160   4.162   0.341  16.785  0.1816  0.1658 -0.4392
  409MPD2     H 6161   4.470   0.215  16.973 -1.2387 -1.1302 -0.0455
  409MPD2    H1 6162   4.255   0.534  16.774  1.3675 -0.9256 -2.4086
  409MPD2    H2 6163   4.091   0.144  16.809 -1.1741  2.1668 -1.3529
  409MPD2    H3 6164   4.071   0.378  16.739  0.5818  0.4897 -0.9642
  409MPD2     N 6165   4.489   0.479  16.874 -1.0343 -0.8898  0.2476
  409MPD2    H5 6166   4.471   0.573  16.840 -1.8061 -0.8244  0.8370
  409MPD2    N1 6167   4.302   0.044  16.955  0.3655 -0.4820 -0.2149
  409MPD2    H7 6168   4.393   0.042  17.001  0.9448  0.2617 -1.3080
  410TMC3    C1 6169   4.708   0.561  16.934 -1.1194 -0.0905  0.0210
  410TMC3    C2 6170   0.062   0.571  17.040 -0.6229  0.2399  0.3178
  410TMC3    C3 6171   0.164   0.657  17.014  0.4809  0.3218 -0.6991
  410TMC3    C4 6172   4.716   0.623  16.816 -0.0984 -0.2765 -0.3599
  410TMC3    C5 6173   0.080   0.717  16.800 -0.0703  0.0269  0.7071
  410TMC3    C6 6174   0.175   0.741  16.900  0.3829 -0.0879 -0.5555
  410TMC3     C 6175   4.608   0.455  16.939 -0.2815 -0.0128 -0.5921
  410TMC3     O 6176   4.654   0.356  16.997  0.1727 -0.9143 -0.0490
  410TMC3     H 6177   0.062   0.498  17.120 -1.2928 -0.5749 -0.4258
  410TMC3    H1 6178   4.648   0.612  16.733  0.9464  0.5879 -1.3394
  410TMC3    H2 6179   0.267   0.795  16.883 -0.0619  1.5054  2.1154
  410TMC3    C7 6180   0.088   0.786  16.671 -1.1992 -0.2410  0.0835
  410TMC3    C8 6181   0.271   0.654  17.103  0.0889 -0.5227  0.2181
  410TMC3    O1 6182   0.018   0.752  16.582  0.2548  0.1853 -0.2623
  410TMC3    O2 6183   0.344   0.753  17.094  0.2302  0.2288 -0.0582
  411MPD2     C 6184   4.629   1.238  14.638  0.0701 -0.0775  0.2298
  411MPD2    C1 6185   4.541   1.235  14.749  0.0432  0.7059 -0.0915
  411MPD2    C2 6186   4.532   1.117  14.825  0.8832  0.9246  0.7770
  411MPD2    C3 6187   4.603   1.007  14.791 -0.0831  0.4373  0.1185
  411MPD2    C4 6188   4.700   1.015  14.693 -0.6805 -0.3230  0.4174
  411MPD2    C5 6189   4.700   1.121  14.613 -0.2249 -0.4851 -0.0504
  411MPD2     H 6190   4.459   1.110  14.905 -0.9855 -0.3903 -1.0535
  411MPD2    H1 6191   0.021   0.926  14.668  0.2159  1.1266 -2.6398
  411MPD2    H2 6192   4.648   1.329  14.582  2.9662 -0.6119  0.3275
  411MPD2    H3 6193   0.024   1.113  14.522  0.4560  1.5504  0.2139
  411MPD2     N 6194   4.594   0.883  14.862  0.3641  0.3295  0.0992
  411MPD2    H5 6195   4.664   0.817  14.830 -1.0771 -0.5622 -1.2041
  411MPD2    N1 6196   4.456   1.340  14.771 -0.4941 -0.1097 -0.1457
  411MPD2    H7 6197   4.453   1.401  14.690 -1.4913 -0.5668 -0.4463
  412TMC3    C1 6198   4.480   0.693  14.957  0.0516 -0.4234  0.4509
  412TMC3    C2 6199   4.349   0.659  14.984  0.6259 -0.0035 -0.3331
  412TMC3    C3 6200   4.302   0.547  14.929 -0.4771 -0.0694  0.2961
  412TMC3    C4 6201   4.548   0.610  14.864 -0.0717 -0.0195  0.0212
  412TMC3    C5 6202   4.495   0.500  14.809  0.1530  0.0590  0.1535
  412TMC3    C6 6203   4.370   0.459  14.853 -0.3987  0.3556  0.5282
  412TMC3     C 6204   4.490   0.837  14.941  0.2217  0.1457  0.3455
  412TMC3     O 6205   4.396   0.904  14.987  0.0301  0.0801 -0.0642
  412TMC3     H 6206   4.277   0.727  15.029  2.5288  1.6877  0.1228
  412TMC3    H1 6207   4.655   0.611  14.878 -0.0850  1.0137  0.0704
  412TMC3    H2 6208   4.308   0.382  14.809  0.3157  0.0175  0.1105
  412TMC3    C7 6209   4.500   0.490  14.663  0.5530 -0.1857  0.5062
  412TMC3    C8 6210   4.178   0.580  14.854 -0.0917  0.4747  0.8075
  412TMC3    O1 6211   4.410   0.436  14.602  0.1300  0.3431  0.1626
  412TMC3    O2 6212   4.175   0.697  14.820  0.5574 -0.8714  0.1857
  413MPD2     C 6213   1.217   4.214  15.601 -0.2253  0.2231  0.0298
  413MPD2    C1 6214   1.170   4.143  15.494 -0.1106  0.5672  0.0638
  413MPD2    C2 6215   1.258   4.091  15.398 -0.6609  0.2143 -0.0848
  413MPD2    C3 6216   1.394   4.121  15.411  0.1775 -0.2936  0.2838
  413MPD2    C4 6217   1.437   4.184  15.527  0.2751 -0.8113  0.3468
  413MPD2    C5 6218   1.349   4.236  15.622 -0.6963  0.5338 -0.0528
  413MPD2     H 6219   1.224   4.018  15.326  0.1888  2.4386 -2.7512
  413MPD2    H1 6220   1.543   4.185  15.551 -0.3710 -1.2558  3.2096
  413MPD2    H2 6221   1.154   4.246  15.683 -1.9433 -1.5016 -0.6362
  413MPD2    H3 6222   1.393   4.283  15.710  0.5493 -1.0188  0.1575
  413MPD2     N 6223   1.482   4.062  15.311  0.0102  0.4156 -0.8506
  413MPD2    H5 6224   1.429   4.008  15.243  1.2035 -2.1862  0.2898
  413MPD2    N1 6225   1.032   4.110  15.496 -0.3242 -0.6554  0.3550
  413MPD2    H7 6226   0.983   4.118  15.584 -0.3433  2.3441  0.0751
  414TMC3    C1 6227   1.677   3.978  15.211  0.1276 -1.0115 -0.4880
  414TMC3    C2 6228   1.779   3.893  15.254 -0.4734  0.0202  0.3079
  414TMC3    C3 6229   1.811   3.789  15.176 -0.3114  0.7587 -0.3600
  414TMC3    C4 6230   1.607   3.952  15.089 -0.2323  0.3493 -0.4118
  414TMC3    C5 6231   1.646   3.846  15.018 -0.1401 -0.5811 -0.7171
  414TMC3    C6 6232   1.746   3.759  15.056  0.1927 -0.8920 -0.2876
  414TMC3     C 6233   1.617   4.057  15.313 -0.1688  0.0831  0.7673
  414TMC3     O 6234   1.692   4.131  15.382  0.1684  0.1044 -0.3987
  414TMC3     H 6235   1.807   3.896  15.359  1.9009 -0.6914 -0.3135
  414TMC3    H1 6236   1.539   4.028  15.052  2.5459  2.8429 -0.4903
  414TMC3    H2 6237   1.767   3.672  14.995  0.7148 -0.9879  0.0347
  414TMC3    C7 6238   1.565   3.818  14.898  0.0770 -0.2618  0.9478
  414TMC3    C8 6239   1.939   3.715  15.188 -0.2513  0.2093  0.6179
  414TMC3    O1 6240   1.453   3.862  14.909  0.3676 -0.3256  0.5611
  414TMC3    O2 6241   1.972   3.635  15.102  0.6089  0.3598 -0.3111
  415TMC3    C1 6242   2.589   2.137  10.456  0.4800 -0.0920  0.0217
  415TMC3    C2 6243   2.637   2.248  10.524 -0.1833  0.0536  0.6877
  415TMC3    C3 6244   2.721   2.327  10.450 -0.4317  0.1011  0.5976
  415TMC3    C4 6245   2.604   2.115  10.324 -0.0848  0.9649  0.4206
  415TMC3    C5 6246   2.701   2.183  10.259 -0.3054  0.9032 -0.7057
  415TMC3    C6 6247   2.757   2.291  10.319 -0.2068  0.2481  0.4682
  415TMC3     C 6248   2.496   2.053  10.522  1.1497 -0.2995  0.3650
  415TMC3     O 6249   2.420   1.992  10.448  0.2274  0.1473 -0.3459
  415TMC3     H 6250   2.613   2.268  10.627  0.3679  0.7420  0.6836
  415TMC3    H1 6251   2.544   2.041  10.272 -1.3260  1.6613  0.8622
  415TMC3    H2 6252   2.837   2.344  10.269  0.1511  0.2184  1.0145
  415TMC3    C7 6253   2.760   2.123  10.145 -0.7988 -0.3506 -0.0717
  415TMC3    C8 6254   2.799   2.412  10.539 -0.3172  0.7360 -0.3328
  415TMC3    O1 6255   2.845   2.188  10.088  0.0452  0.3698 -0.6986
  415TMC3    O2 6256   2.817   2.371  10.656  0.1919  0.2913  0.4374
  416MPD2     C 6257   4.084   0.535  11.765  0.1503  0.5930 -0.2426
  416MPD2    C1 6258   4.000   0.504  11.661 -0.0009  0.7486 -0.5989
  416MPD2    C2 6259   4.054   0.449  11.546 -0.4131 -0.0494  0.5783
  416MPD2    C3 6260   4.185   0.413  11.538 -0.4298  0.1377 -0.2026
  416MPD2    C4 6261   4.263   0.437  11.651 -0.2182  0.1427  0.9379
  416MPD2    C5 6262   4.217   0.496  11.758  0.1154  0.0044  0.0632
  416MPD2     H 6263   3.985   0.434  11.464  0.1249  1.2882 -0.1172
  416MPD2    H1 6264   4.365   0.400  11.663  0.0958  1.0877  1.2205
  416MPD2    H2 6265   4.056   0.591  11.854 -1.1036  0.0035 -0.2756
  416MPD2    H3 6266   4.286   0.511  11.840  0.4129  0.5666 -0.2881
  416MPD2     N 6267   4.246   0.339  11.428  0.1290 -1.1016  0.3816
  416MPD2    H5 6268   4.343   0.310  11.437  0.0963 -1.2858  0.1375
  416MPD2    N1 6269   3.862   0.545  11.671  0.9890  0.1970  0.2904
  416MPD2    H7 6270   3.852   0.588  11.763 -1.8209 -0.0905  0.1242
  417TMC3    C1 6271   3.640   0.597  11.606 -0.0603 -0.5246 -0.7384
  417TMC3    C2 6272   3.616   0.641  11.727 -0.3100 -0.5223  0.1120
  417TMC3    C3 6273   3.540   0.750  11.753 -0.8408  0.1796  0.1568
  417TMC3    C4 6274   3.582   0.657  11.497 -0.4575 -0.4488  1.1012
  417TMC3    C5 6275   3.505   0.767  11.528  0.4503 -0.1163  0.8357
  417TMC3    C6 6276   3.485   0.821  11.649  0.4050 -0.3720  0.0735
  417TMC3     C 6277   3.765   0.531  11.577 -0.4373 -0.0969  0.3622
  417TMC3     O 6278   3.762   0.479  11.466  0.5687  0.5155  0.0419
  417TMC3     H 6279   3.654   0.582  11.809 -2.8154 -0.9906  0.9243
  417TMC3    H1 6280   3.583   0.624  11.394 -1.9127 -0.1066  0.9876
  417TMC3    H2 6281   3.454   0.925  11.650  1.5859 -0.0192  0.6112
  417TMC3    C7 6282   3.421   0.818  11.420  0.3351  0.2896 -0.2455
  417TMC3    C8 6283   3.498   0.773  11.892 -0.2874  0.5818 -0.3429
  417TMC3    O1 6284   3.452   0.810  11.303 -0.7651  0.2639 -0.0734
  417TMC3    O2 6285   3.417   0.863  11.910 -0.2617  0.2709  0.1730
  418TMC3    C1 6286   2.748   2.980   0.144  0.0243  0.7738  0.0552
  418TMC3    C2 6287   2.638   3.050   0.104  0.0779 -0.7184  0.3021
  418TMC3    C3 6288   2.525   3.032   0.183  0.3109  0.4646 -0.7116
  418TMC3    C4 6289   2.761   2.900   0.254 -0.1531  0.0633 -0.6269
  418TMC3    C5 6290   2.649   2.900   0.333  0.5589  0.0768 -0.1315
  418TMC3    C6 6291   2.529   2.951   0.292 -0.7674 -0.2773 -0.3510
  418TMC3     C 6292   2.860   2.965   0.051 -0.4172 -0.2263 -0.1521
  418TMC3     O 6293   2.880   3.052  17.700  0.5011 -0.0151 -0.4096
  418TMC3     H 6294   2.637   3.093   0.005  0.3154 -2.5755 -0.5167
  418TMC3    H1 6295   2.863   2.874   0.280 -0.2552 -0.3237 -0.6035
  418TMC3    H2 6296   2.441   2.933   0.354 -1.0229  0.0440 -0.6227
  418TMC3    C7 6297   2.657   2.839   0.464 -0.0123 -0.2658  0.6444
  418TMC3    C8 6298   2.407   3.033   0.108 -0.4112 -0.2258 -0.0482
  418TMC3    O1 6299   2.548   2.815   0.511  0.2751 -0.2154  0.0686
  418TMC3    O2 6300   2.390   3.132   0.044 -0.3352  0.1323  0.1580
  419MPD2     C 6301   1.638   0.491  12.512  0.4348  0.3563 -0.1586
  419MPD2    C1 6302   1.535   0.572  12.470 -0.4952  0.1392 -0.2203
  419MPD2    C2 6303   1.446   0.630  12.557 -0.9239 -0.4224  0.3446
  419MPD2    C3 6304   1.450   0.612  12.688  0.5880 -0.7609  0.0295
  419MPD2    C4 6305   1.557   0.532  12.734  0.3684  0.0293 -0.4231
  419MPD2    C5 6306   1.645   0.470  12.649  0.0518  0.5805  0.4455
  419MPD2     H 6307   1.377   0.710  12.530 -2.1219 -1.6063 -0.1104
  419MPD2    H1 6308   1.574   0.512  12.840  1.4085 -2.3695 -1.0594
  419MPD2    H2 6309   1.709   0.443  12.446  0.8382 -0.1232  0.6252
  419MPD2    H3 6310   1.721   0.402  12.685  0.8761  0.3215 -1.7903
  419MPD2     N 6311   1.364   0.683  12.770  0.1089 -0.0712 -0.2132
  419MPD2    H5 6312   1.304   0.746  12.717 -0.9064 -1.7092 -1.0198
  419MPD2    N1 6313   1.518   0.596  12.329  0.6901 -0.3312 -0.0180
  419MPD2    H7 6314   1.449   0.670  12.324  1.9609  0.6131 -3.3264
  420TMC3    C1 6315   1.246   0.764  12.963  0.2029  0.4146 -0.8641
  420TMC3    C2 6316   1.162   0.844  12.893 -0.5938 -0.9700 -0.6697
  420TMC3    C3 6317   1.049   0.892  12.959  0.3449 -0.2937  0.0755
  420TMC3    C4 6318   1.231   0.745  13.096  0.0819 -0.5141 -0.2589
  420TMC3    C5 6319   1.120   0.797  13.154 -0.3194 -0.3552 -0.4461
  420TMC3    C6 6320   1.021   0.859  13.087 -0.4766  0.6750 -0.1672
  420TMC3     C 6321   1.350   0.679  12.904  0.1716  0.0323  0.0066
  420TMC3     O 6322   1.398   0.589  12.973  0.1315 -0.0536  0.1101
  420TMC3     H 6323   1.186   0.866  12.790  0.2836  1.5450  0.0613
  420TMC3    H1 6324   1.304   0.697  13.160  0.0471 -0.7439 -0.3899
  420TMC3    H2 6325   0.935   0.894  13.143  2.3276  1.7549  3.3764
  420TMC3    C7 6326   1.109   0.789  13.298 -0.0758  0.2632 -0.9888
  420TMC3    C8 6327   0.954   0.951  12.867  0.3340 -0.0523  0.1022
  420TMC3    O1 6328   1.174   0.701  13.352  0.5125  0.2058 -0.2171
  420TMC3    O2 6329   0.997   1.023  12.777 -0.2151 -0.0127  0.2722
  421TMC3    C1 6330   2.300   2.745  13.522  0.0028 -0.3444  0.0825
  421TMC3    C2 6331   2.342   2.866  13.576 -0.6019 -0.7858  0.3960
  421TMC3    C3 6332   2.479   2.891  13.592  0.2916  0.2040  0.5362
  421TMC3    C4 6333   2.385   2.648  13.476 -0.0941  0.3835  0.0372
  421TMC3    C5 6334   2.518   2.675  13.498 -0.1173  1.0385 -0.4087
  421TMC3    C6 6335   2.565   2.791  13.560 -0.3475 -0.2018 -0.3823
  421TMC3     C 6336   2.159   2.709  13.550  0.2271 -0.0669 -0.0689
  421TMC3     O 6337   2.097   2.775  13.629 -0.1093 -0.4932 -0.2678
  421TMC3     H 6338   2.271   2.935  13.620 -0.8159 -0.6254 -0.1937
  421TMC3    H1 6339   2.357   2.549  13.443 -2.1202  1.1459 -0.5493
  421TMC3    H2 6340   2.671   2.798  13.583 -0.7788 -0.3426  1.6395
  421TMC3    C7 6341   2.603   2.558  13.493  0.7535  1.0479  0.4141
  421TMC3    C8 6342   2.519   2.962  13.715  0.1876  0.3239 -0.6327
  421TMC3    O1 6343   2.673   2.553  13.597 -0.0348 -0.5741  0.0930
  421TMC3    O2 6344   2.622   2.922  13.771  0.2471 -0.0256  0.4261
  422TMC3    C1 6345   0.183   3.548  12.656  0.4524  0.6436 -0.0609
  422TMC3    C2 6346   0.148   3.633  12.756  0.6410 -0.4318  0.4663
  422TMC3    C3 6347   0.031   3.607  12.824  0.4626  0.4679  0.2308
  422TMC3    C4 6348   0.091   3.453  12.610 -0.1589  0.8367 -0.1673
  422TMC3    C5 6349   4.711   3.435  12.679  0.5959  0.1333 -0.2962
  422TMC3    C6 6350   4.675   3.511  12.786  0.5823 -0.1512  0.4535
  422TMC3     C 6351   0.284   3.597  12.572  0.1439 -0.4521 -0.8448
  422TMC3     O 6352   0.335   3.704  12.603 -0.2353 -0.1390  0.0370
  422TMC3     H 6353   0.225   3.703  12.787  1.5087 -0.5700 -1.3988
  422TMC3    H1 6354   0.128   3.385  12.534 -1.0914  1.6032 -1.3030
  422TMC3    H2 6355   4.580   3.501  12.837 -0.1167  1.1116 -0.5771
  422TMC3    C7 6356   4.609   3.355  12.619  0.0575 -0.0872  0.1677
  422TMC3    C8 6357   4.731   3.724  12.906  0.3557 -0.3711  0.2739
  422TMC3    O1 6358   4.655   3.265  12.551  0.3738 -0.0245 -0.3867
  422TMC3    O2 6359   0.089   3.798  12.935  0.5386  0.0986  0.3705
  423MPD2     C 6360   1.321   0.099   0.481 -0.5589 -0.0400 -0.0063
  423MPD2    C1 6361   1.314   4.712   0.546 -0.6234 -0.0504  0.3751
  423MPD2    C2 6362   1.357   4.597   0.475  0.6569  0.3388 -0.0781
  423MPD2    C3 6363   1.383   4.605   0.338 -0.3693  0.0084  0.1023
  423MPD2    C4 6364   1.383   4.728   0.280 -0.6161  0.4454  0.4030
  423MPD2    C5 6365   1.357   0.109   0.352 -0.7154  0.4474  0.0672
  423MPD2     H 6366   1.362   4.501   0.523  2.3839 -0.5082 -1.9209
  423MPD2    H1 6367   1.417   4.734   0.177 -1.3113  2.5898  0.3175
  423MPD2    H2 6368   1.313   0.190   0.540  2.0932  0.3022 -0.1803
  423MPD2    H3 6369   1.381   0.207   0.314  0.8799  0.4836  1.1495
  423MPD2     N 6370   1.423   4.498   0.252 -0.2036 -0.0793  0.0236
  423MPD2    H5 6371   1.448   4.524   0.157  1.5795 -0.6816  0.3314
  423MPD2    N1 6372   1.275   4.700   0.682 -0.2595  0.6518 -0.6175
  423MPD2    H7 6373   1.274   4.608   0.724 -1.1191 -0.0620 -2.1890
  424TMC3    C1 6374   1.220   0.030   0.901 -0.4436 -0.3820  0.7637
  424TMC3    C2 6375   1.286   4.655   0.943  0.0847  0.2919  0.0649
  424TMC3    C3 6376   1.237   4.599   1.060 -0.4723 -0.2836  0.0151
  424TMC3    C4 6377   1.116   0.085   0.969 -0.4001 -0.3853 -0.0180
  424TMC3    C5 6378   1.070   0.028   1.077 -0.4537 -0.3114  0.0472
  424TMC3    C6 6379   1.130   4.654   1.130  0.2603  0.3006  0.0208
  424TMC3     C 6380   1.233   0.068   0.759  0.0097  0.3725 -0.0328
  424TMC3     O 6381   1.179   0.168   0.722 -0.1716 -0.2821  0.5946
  424TMC3     H 6382   1.371   4.612   0.892  1.1277 -2.2460  3.9190
  424TMC3    H1 6383   1.057   0.167   0.931  0.9970 -0.6713 -2.8381
  424TMC3    H2 6384   1.096   4.598   1.216  0.2669 -1.2262 -0.9652
  424TMC3    C7 6385   0.941   0.070   1.122  0.0240 -0.3650 -0.4122
  424TMC3    C8 6386   1.308   4.480   1.107 -1.0975 -0.0035 -0.1115
  424TMC3    O1 6387   0.877   0.138   1.048  0.3799  0.1382 -0.3823
  424TMC3    O2 6388   1.373   4.420   1.024 -0.0985  0.3909 -0.1430
  425MPD2     C 6389   0.466   4.002  17.302  0.6985  0.5431 -0.2596
  425MPD2    C1 6390   0.419   3.873  17.288  0.0110  0.2608 -0.0961
  425MPD2    C2 6391   0.292   3.850  17.335  0.2524 -0.1526 -0.7166
  425MPD2    C3 6392   0.214   3.943  17.392  0.3388 -0.2501  0.3674
  425MPD2    C4 6393   0.262   4.072  17.394 -0.2468  0.9016  0.7264
  425MPD2    C5 6394   0.389   4.099  17.354 -0.8410 -0.4959 -0.1619
  425MPD2     H 6395   0.255   3.748  17.339  0.3259  0.0288  3.9820
  425MPD2    H1 6396   0.200   4.154  17.430  0.7903  2.2198 -0.4609
  425MPD2    H2 6397   0.565   4.034  17.269 -0.2424  2.8139 -0.8727
  425MPD2    H3 6398   0.417   4.203  17.365 -2.2395  0.0295 -1.6623
  425MPD2     N 6399   0.089   3.897  17.446  0.0661  0.2846 -0.1404
  425MPD2    H5 6400   0.065   3.800  17.428 -1.4602  0.2744  2.0213
  425MPD2    N1 6401   0.518   3.776  17.237  0.2316  0.6229 -0.1836
  425MPD2    H7 6402   0.611   3.811  17.219  0.5456 -1.1093 -1.9045
  426TMC3    C1 6403   0.584   3.573  17.137 -0.0145  0.3240 -0.1332
  426TMC3    C2 6404   0.622   3.611  17.015  0.5480  0.3018 -0.2440
  426TMC3    C3 6405   0.674   3.518  16.924 -0.2294  0.7931  0.7904
  426TMC3    C4 6406   0.592   3.446  17.170  0.7233 -0.6669  0.3711
  426TMC3    C5 6407   0.625   3.357  17.074 -0.4218 -0.4309  0.2973
  426TMC3    C6 6408   0.674   3.388  16.954  0.0071 -0.1837 -0.3388
  426TMC3     C 6409   0.482   3.646  17.208 -0.8153  0.0064 -0.6517
  426TMC3     O 6410   0.379   3.581  17.224  0.8727  0.1710 -0.1574
  426TMC3     H 6411   0.604   3.709  16.973 -0.6508  1.5004  3.0927
  426TMC3    H1 6412   0.572   3.419  17.273  1.7004 -0.0159  0.7325
  426TMC3    H2 6413   0.704   3.314  16.881  1.1285 -0.4059  0.3444
  426TMC3    C7 6414   0.524   3.251  17.056  0.1629  0.0624  0.1023
  426TMC3    C8 6415   0.635   3.536  16.785 -0.1440  1.0348 -0.4867
  426TMC3    O1 6416   0.542   3.163  16.969  0.1497 -0.4635 -0.0741
  426TMC3    O2 6417   0.726   3.495  16.715 -0.4252 -0.1793 -0.0339
  427MPD2     C 6418   3.743   0.932  14.641 -0.4041  0.7391  0.2262
  427MPD2    C1 6419   3.653   0.850  14.708 -0.2632 -0.2785 -0.4011
  427MPD2    C2 6420   3.519   0.871  14.673  0.1447 -0.4108  0.1597
  427MPD2    C3 6421   3.472   0.956  14.571  0.4677 -0.3580  0.9219
  427MPD2    C4 6422   3.567   1.030  14.510 -0.2439 -0.3786 -0.1129
  427MPD2    C5 6423   3.702   1.015  14.539  0.4085  0.7360 -0.3236
  427MPD2     H 6424   3.448   0.814  14.732 -0.2961 -1.7741 -1.7089
  427MPD2    H1 6425   3.532   1.094  14.430 -1.5113 -2.2516 -1.0643
  427MPD2    H2 6426   3.848   0.934  14.667 -0.8506  0.3240  2.0406
  427MPD2    H3 6427   3.769   1.086  14.492 -0.1247  1.7396  0.3999
  427MPD2     N 6428   3.331   0.983  14.551 -0.4272  0.0307  0.1637
  427MPD2    H5 6429   3.310   1.033  14.465 -2.0380 -4.3756 -2.0100
  427MPD2    N1 6430   3.696   0.770  14.813 -0.0696  0.0142 -0.1802
  427MPD2    H7 6431   3.789   0.789  14.848  0.1679 -1.7043  0.1331
  428TMC3    C1 6432   3.691   0.649  15.004  0.5751  0.0274 -0.3288
  428TMC3    C2 6433   3.658   0.522  15.040  0.2120 -0.0938  1.3856
  428TMC3    C3 6434   3.755   0.440  15.088  0.6176 -0.3177 -0.3469
  428TMC3    C4 6435   3.812   0.701  15.022 -0.0575  0.9816  1.1445
  428TMC3    C5 6436   3.898   0.626  15.101  0.0120  0.4664 -0.3184
  428TMC3    C6 6437   3.878   0.491  15.116 -0.7631  0.3192 -0.4242
  428TMC3     C 6438   3.611   0.696  14.889  0.4862 -0.2097 -0.2799
  428TMC3     O 6439   3.498   0.652  14.872 -0.6072  0.2488 -0.0242
  428TMC3     H 6440   3.557   0.488  15.019 -0.7911  3.1051  0.9358
  428TMC3    H1 6441   3.834   0.807  15.009 -2.8046  1.5532  1.2060
  428TMC3    H2 6442   3.961   0.428  15.145 -1.2641 -1.1288 -2.1577
  428TMC3    C7 6443   4.022   0.688  15.150 -0.2937 -0.5533  0.3087
  428TMC3    C8 6444   3.720   0.330  15.180  0.0746 -0.0369  0.3704
  428TMC3    O1 6445   4.092   0.615  15.218 -0.0059 -0.2288  0.7972
  428TMC3    O2 6446   3.805   0.258  15.229 -0.1207 -0.0123  0.1570
  429MPD2     C 6447   4.509   0.959  17.503  0.4812 -0.2106  0.0702
  429MPD2    C1 6448   4.626   0.898  17.540  0.1736 -0.4306 -0.2007
  429MPD2    C2 6449   0.011   0.976  17.539 -0.8227  0.6114 -0.1653
  429MPD2    C3 6450   0.004   1.117  17.516  0.9013  0.1148  0.0131
  429MPD2    C4 6451   4.616   1.170  17.489  0.1792  0.2671 -0.2834
  429MPD2    C5 6452   4.501   1.097  17.481 -0.3650  0.4290 -0.0737
  429MPD2     H 6453   0.111   0.935  17.549 -1.1060 -0.7914 -3.3063
  429MPD2    H1 6454   4.600   1.274  17.464 -1.2191  0.0612 -0.2573
  429MPD2    H2 6455   4.411   0.915  17.488 -1.0308  2.6281  1.5971
  429MPD2    H3 6456   4.401   1.135  17.464 -0.0874  0.0235 -2.4948
  429MPD2     N 6457   0.114   1.199  17.534  0.3798 -0.0373  0.0861
  429MPD2    H5 6458   0.202   1.147  17.539 -0.5337 -1.8893 -3.2114
  429MPD2    N1 6459   4.631   0.767  17.593 -0.2786  0.6512 -0.4318
  429MPD2    H7 6460   4.729   0.746  17.610 -0.0796  0.6920 -1.5288
  430TMC3    C1 6461   0.269   1.377  17.539  0.3872 -0.6006 -0.0013
  430TMC3    C2 6462   0.289   1.507  17.504  0.4543  0.4890 -0.1569
  430TMC3    C3 6463   0.415   1.560  17.486 -0.4051 -0.1859 -0.3115
  430TMC3    C4 6464   0.371   1.290  17.535 -0.0930  0.2405  0.3312
  430TMC3    C5 6465   0.488   1.339  17.497 -0.3537  0.2881  0.2865
  430TMC3    C6 6466   0.516   1.470  17.484 -0.0789  0.4406  0.3496
  430TMC3     C 6467   0.132   1.332  17.536  0.8876  0.5434 -1.0348
  430TMC3     O 6468   0.050   1.419  17.551  0.2990  0.4090 -0.5878
  430TMC3     H 6469   0.210   1.580  17.489  1.0941  1.9964  4.0858
  430TMC3    H1 6470   0.345   1.188  17.560  0.2169  0.0342 -0.2219
  430TMC3    H2 6471   0.618   1.503  17.472  0.2567 -0.6629  0.2034
  430TMC3    C7 6472   0.529   1.263  17.384  0.9675 -0.4107  0.4305
  430TMC3    C8 6473   0.434   1.656  17.378 -0.0956 -0.2022  0.2247
  430TMC3    O1 6474   0.511   1.147  17.394  0.0668 -0.5755  0.2179
  430TMC3    O2 6475   0.534   1.640  17.305  0.6077  0.0072 -0.5895
  431MPD2     C 6476   1.068   1.167  12.391  0.2325 -0.1279 -0.3376
  431MPD2    C1 6477   1.148   1.215  12.293  0.6938 -0.5763 -0.9591
  431MPD2    C2 6478   1.201   1.127  12.204 -0.2364 -0.5196  0.1043
  431MPD2    C3 6479   1.159   0.989  12.206 -0.0135 -0.4773  0.5536
  431MPD2    C4 6480   1.064   0.953  12.300 -0.4607  0.1326  0.3352
  431MPD2    C5 6481   1.023   1.040  12.399  0.3592  0.6790  0.7329
  431MPD2     H 6482   1.271   1.156  12.127 -0.7043  1.5261  0.4641
  431MPD2    H1 6483   1.032   0.850  12.312  0.3459 -0.0627  0.8158
  431MPD2    H2 6484   1.020   1.235  12.460  0.6864  0.4539 -0.5911
  431MPD2    H3 6485   0.946   1.014  12.470  0.2302  0.3100  0.4529
  431MPD2     N 6486   1.218   0.876  12.133  0.1833 -0.5745 -0.2945
  431MPD2    H5 6487   1.189   0.780  12.151 -3.9207  0.5962 -0.6897
  431MPD2    N1 6488   1.169   1.358  12.295 -0.2815  0.1440  0.1379
  431MPD2    H7 6489   1.136   1.405  12.378  1.0259  1.2696  0.0078
  432TMC3    C1 6490   1.390   0.760  12.020  0.5799 -0.3542 -0.5721
  432TMC3    C2 6491   1.474   0.774  11.917 -0.4211  0.2666 -0.0884
  432TMC3    C3 6492   1.575   0.689  11.897 -0.0651 -0.1027 -0.6141
  432TMC3    C4 6493   1.400   0.659  12.111 -0.2437  0.5260 -0.1558
  432TMC3    C5 6494   1.515   0.583  12.100 -0.1728  0.2630 -0.1349
  432TMC3    C6 6495   1.603   0.595  11.993  0.6450 -0.3454 -0.5344
  432TMC3     C 6496   1.329   0.886  12.053 -0.1891 -0.1068 -0.0588
  432TMC3     O 6497   1.382   0.986  12.011 -0.1382 -0.0894 -0.1815
  432TMC3     H 6498   1.442   0.844  11.842  0.6483  0.9542  0.0958
  432TMC3    H1 6499   1.334   0.662  12.197  1.5816  0.2370  1.2494
  432TMC3    H2 6500   1.678   0.519  11.974 -1.3450 -2.3756 -0.2798
  432TMC3    C7 6501   1.582   0.543  12.226  1.0198  0.3994  0.4406
  432TMC3    C8 6502   1.687   0.736  11.816  0.6474 -0.4669 -0.1268
  432TMC3    O1 6503   1.695   0.500  12.213  0.5170  0.3980  0.9990
  432TMC3    O2 6504   1.802   0.736  11.858  0.4052 -0.1767  0.3303
  433MPD2     C 6505   0.404   0.010  10.673 -0.4027  0.1751 -0.0199
  433MPD2    C1 6506   0.435   4.631  10.740 -0.3316 -0.0654  0.2913
  433MPD2    C2 6507   0.513   4.643  10.859 -0.5582 -0.2337  0.6099
  433MPD2    C3 6508   0.555   0.030  10.909 -0.3471 -0.0890 -0.0492
  433MPD2    C4 6509   0.512   0.141  10.843  0.0021  0.6102  0.4817
  433MPD2    C5 6510   0.437   0.130  10.732  0.1921 -0.3588 -0.2687
  433MPD2     H 6511   0.544   4.554  10.913  2.1433  1.2392  1.4725
  433MPD2    H1 6512   0.531   0.241  10.881  1.3644  0.2736  0.6740
  433MPD2    H2 6513   0.369   0.013  10.571 -3.0572  4.5729  1.0020
  433MPD2    H3 6514   0.401   0.220  10.683 -1.0918 -0.7558 -0.0561
  433MPD2     N 6515   0.621   0.033  11.032 -0.3308 -0.0507  0.4546
  433MPD2    H5 6516   0.662   4.682  11.066 -0.9196  0.1581  1.6981
  433MPD2    N1 6517   0.412   4.506  10.687 -0.0350 -0.1767  0.8680
  433MPD2    H7 6518   0.476   4.438  10.728  1.7173  0.0397 -1.4813
  434TMC3    C1 6519   0.319   4.318  10.579  1.1605  0.6470 -0.3819
  434TMC3    C2 6520   0.368   4.246  10.681 -0.2284 -0.0137 -0.2480
  434TMC3    C3 6521   0.408   4.118  10.644 -0.2450 -0.5915 -0.7658
  434TMC3    C4 6522   0.281   4.274  10.461 -0.2390 -0.0547 -0.4063
  434TMC3    C5 6523   0.311   4.145  10.433  0.3375  0.4305 -0.0098
  434TMC3    C6 6524   0.380   4.066  10.516  0.6425 -0.1427  0.6163
  434TMC3     C 6525   0.325   4.470  10.586  0.4962 -0.7552  0.6823
  434TMC3     O 6526   0.247   4.542  10.526 -0.7634 -0.6666  0.1775
  434TMC3     H 6527   0.387   4.287  10.780  2.0995  1.8673 -1.4695
  434TMC3    H1 6528   0.240   4.338  10.383  0.0633  0.3324 -0.2401
  434TMC3    H2 6529   0.427   3.974  10.482  0.4605  1.0578 -2.8068
  434TMC3    C7 6530   0.216   4.081  10.346 -0.4040 -0.0073  0.0187
  434TMC3    C8 6531   0.449   4.033  10.756 -0.0652  0.0326 -0.6983
  434TMC3    O1 6532   0.142   4.154  10.284  0.0336 -0.0761 -0.3407
  434TMC3    O2 6533   0.408   4.065  10.865  0.2049 -0.3781  0.6681
  435MPD2     C 6534   1.984   0.030  15.534 -0.3997 -0.1122 -0.1721
  435MPD2    C1 6535   1.953   4.711  15.661 -0.5269 -0.0559 -0.5779
  435MPD2    C2 6536   2.046   4.621  15.714 -0.7516  0.4892  0.3907
  435MPD2    C3 6537   2.155   4.579  15.645 -0.3315  0.2832 -0.1287
  435MPD2    C4 6538   2.182   4.635  15.514 -0.3359  0.2303  0.4725
  435MPD2    C5 6539   2.085   4.718  15.463  0.6557  0.2167  0.1783
  435MPD2     H 6540   2.028   4.582  15.813 -0.9298 -2.0381 -0.6259
  435MPD2    H1 6541   2.260   4.613  15.442 -0.2621 -0.7456  0.8528
  435MPD2    H2 6542   1.927   0.103  15.479  1.9887  3.1641  1.7042
  435MPD2    H3 6543   2.091   0.029  15.365  1.3179 -2.9236 -1.2377
  435MPD2     N 6544   2.246   4.483  15.711  0.3998  0.6648  0.3422
  435MPD2    H5 6545   2.210   4.450  15.800  0.7999  2.2056  1.0725
  435MPD2    N1 6546   1.835   0.011  15.736 -0.3284 -0.2350 -0.4217
  435MPD2    H7 6547   1.819   4.690  15.819 -1.9621  0.3049 -0.3722
  436TMC3    C1 6548   1.583   0.114  16.040  0.0484 -0.8037 -0.1011
  436TMC3    C2 6549   1.667   0.075  15.940 -0.5832  0.3568 -0.0237
  436TMC3    C3 6550   1.631   0.089  15.810 -0.2548 -1.0522  0.3126
  436TMC3    C4 6551   1.461   0.179  16.012  0.1758 -0.2133  0.2382
  436TMC3    C5 6552   1.431   0.198  15.878  0.3317 -0.2604  0.0896
  436TMC3    C6 6553   1.515   0.149  15.779 -0.2303 -0.0626  0.2877
  436TMC3     C 6554   1.643   0.143  16.166  0.0289 -0.6884 -0.9110
  436TMC3     O 6555   1.766   0.141  16.159  0.1291  0.2263 -0.7868
  436TMC3     H 6556   1.763   0.035  15.971  0.4696  0.3291 -3.2886
  436TMC3    H1 6557   1.411   0.233  16.091 -2.9468 -2.5211 -0.1645
  436TMC3    H2 6558   1.492   0.164  15.674 -0.7604  1.4641  0.6341
  436TMC3    C7 6559   1.290   0.226  15.842 -0.5335 -0.4989  0.1357
  436TMC3    C8 6560   1.726   0.085  15.699  0.4483 -0.1812  0.0884
  436TMC3    O1 6561   1.267   0.257  15.725 -0.4805 -0.3432  1.0522
  436TMC3    O2 6562   1.711   0.158  15.602 -0.5526  0.1146 -0.0488
  437TMC3    C1 6563   1.098   2.397  11.767 -0.4291  0.0325  0.0843
  437TMC3    C2 6564   1.083   2.460  11.645 -0.4098  0.6214  0.3421
  437TMC3    C3 6565   1.191   2.470  11.559  0.1286 -0.3338 -0.2619
  437TMC3    C4 6566   1.221   2.338  11.797  0.4428 -0.1557  0.0294
  437TMC3    C5 6567   1.328   2.370  11.714  0.2011 -0.6841  0.4939
  437TMC3    C6 6568   1.319   2.431  11.592 -0.0049 -0.1354  0.3592
  437TMC3     C 6569   0.987   2.407  11.861 -0.0486 -0.0601  0.1146
  437TMC3     O 6570   0.879   2.440  11.813  0.2106 -0.0919  0.1685
  437TMC3     H 6571   0.996   2.517  11.614 -0.7991  0.3304  0.8981
  437TMC3    H1 6572   1.240   2.269  11.879 -0.7270 -1.8803 -1.1730
  437TMC3    H2 6573   1.401   2.448  11.524 -2.3687 -0.1665 -2.5182
  437TMC3    C7 6574   1.460   2.315  11.744 -0.5328 -1.1468 -0.2323
  437TMC3    C8 6575   1.174   2.556  11.449  0.5262 -0.0869 -0.2749
  437TMC3    O1 6576   1.548   2.342  11.667 -0.6653 -0.4324 -0.1399
  437TMC3    O2 6577   1.270   2.629  11.433 -0.3905 -0.1954  0.2699
  438MPD2     C 6578   3.264   2.776  16.855  0.0909  0.9104 -0.1671
  438MPD2    C1 6579   3.209   2.655  16.866 -0.0655  0.5116 -0.3327
  438MPD2    C2 6580   3.130   2.622  16.974 -0.4263  0.3630 -0.8346
  438MPD2    C3 6581   3.108   2.714  17.075 -0.9697  0.5728  0.6972
  438MPD2    C4 6582   3.175   2.834  17.068  0.3023  0.3562 -0.0970
  438MPD2    C5 6583   3.246   2.874  16.954  0.1856 -0.0843  0.0443
  438MPD2     H 6584   3.076   2.527  16.972  1.3579 -0.6762  0.2479
  438MPD2    H1 6585   3.171   2.906  17.149  4.1867  1.8882 -1.2820
  438MPD2    H2 6586   3.332   2.803  16.775 -0.1774 -0.3959 -0.8307
  438MPD2    H3 6587   3.299   2.968  16.948 -1.3333  0.6727 -1.6150
  438MPD2     N 6588   3.014   2.691  17.180  0.0619 -0.3159  0.1554
  438MPD2    H5 6589   2.995   2.766  17.246 -3.0083 -0.8792 -0.1038
  438MPD2    N1 6590   3.226   2.565  16.764 -0.1423  0.5303  0.5603
  438MPD2    H7 6591   3.187   2.472  16.776  0.1888  0.1280 -1.3803
  439TMC3    C1 6592   3.325   2.467  16.567 -0.1645 -0.2302 -0.2863
  439TMC3    C2 6593   3.315   2.466  16.428  0.5860 -0.3548  0.9129
  439TMC3    C3 6594   3.328   2.348  16.361 -0.0866 -0.1570 -0.1349
  439TMC3    C4 6595   3.349   2.344  16.627 -0.2948  0.6316 -0.1445
  439TMC3    C5 6596   3.372   2.235  16.555 -0.1867  0.1047 -0.0136
  439TMC3    C6 6597   3.351   2.227  16.421  0.5690  0.0474  0.1909
  439TMC3     C 6598   3.285   2.591  16.640 -0.4361  0.3035  0.1912
  439TMC3     O 6599   3.289   2.699  16.581 -0.3536 -0.0607  0.2751
  439TMC3     H 6600   3.298   2.562  16.379  2.6032  0.4972  1.8683
  439TMC3    H1 6601   3.376   2.345  16.732 -0.1840  1.2506 -0.1743
  439TMC3    H2 6602   3.377   2.138  16.364  0.0607 -0.2581  0.4354
  439TMC3    C7 6603   3.493   2.168  16.602 -0.3925 -0.1163 -0.0190
  439TMC3    C8 6604   3.410   2.361  16.245  0.5039  0.1203  0.3799
  439TMC3    O1 6605   3.504   2.148  16.721 -0.0121 -0.2836  0.3715
  439TMC3    O2 6606   3.508   2.292  16.250  0.0539  0.2454  0.5261
  440MPD2     C 6607   1.812   3.259  14.676  0.6265  0.1520 -0.3323
  440MPD2    C1 6608   1.819   3.294  14.808 -0.1996  0.7544 -0.3996
  440MPD2    C2 6609   1.945   3.281  14.871 -0.6921 -0.0985 -0.3654
  440MPD2    C3 6610   2.056   3.232  14.795  0.0393  0.3454  0.1084
  440MPD2    C4 6611   2.037   3.189  14.665  0.0720  0.5189  0.5900
  440MPD2    C5 6612   1.914   3.205  14.605 -0.2021  1.0141  0.0857
  440MPD2     H 6613   1.958   3.305  14.976  0.7727  0.3210 -0.6482
  440MPD2    H1 6614   2.120   3.155  14.604  0.6003  0.7794  1.1671
  440MPD2    H2 6615   1.727   3.284  14.614  1.4380  0.2674 -1.3937
  440MPD2    H3 6616   1.897   3.178  14.502 -0.3850  1.9805 -0.1375
  440MPD2     N 6617   2.188   3.223  14.849  0.1454  0.5483  0.0182
  440MPD2    H5 6618   2.261   3.175  14.798  2.2435  2.5947  1.0897
  440MPD2    N1 6619   1.720   3.348  14.889 -0.5417 -0.0448  0.4037
  440MPD2    H7 6620   1.746   3.373  14.984  0.8765  0.7932 -0.2074
  441TMC3    C1 6621   2.365   3.228  14.997 -0.2810  0.1096  0.4747
  441TMC3    C2 6622   2.444   3.324  15.042 -0.1388  0.4908  0.2868
  441TMC3    C3 6623   2.523   3.295  15.156 -0.0599 -0.0458  0.1733
  441TMC3    C4 6624   2.360   3.109  15.053 -0.4538  0.1506 -0.1101
  441TMC3    C5 6625   2.437   3.078  15.155 -0.5459 -0.1298  0.1250
  441TMC3    C6 6626   2.517   3.174  15.214  0.5957 -0.3828 -0.1094
  441TMC3     C 6627   2.227   3.269  14.972  0.0250 -0.4091  0.5853
  441TMC3     O 6628   2.181   3.359  15.042 -0.0856  0.4726 -0.5509
  441TMC3     H 6629   2.455   3.424  15.002 -2.4193  0.5248 -0.2423
  441TMC3    H1 6630   2.291   3.036  15.011  1.2083 -0.4590 -1.7900
  441TMC3    H2 6631   2.562   3.148  15.309 -1.8122  0.9829  1.4111
  441TMC3    C7 6632   2.397   2.954  15.226 -0.2638 -0.8657  0.4865
  441TMC3    C8 6633   2.514   3.401  15.250  0.4826 -0.7338 -0.1478
  441TMC3    O1 6634   2.281   2.912  15.203  0.2424 -0.1320 -0.3406
  441TMC3    O2 6635   2.596   3.410  15.341 -0.2648 -0.5249  0.4110
  442MPD2     C 6636   4.569   3.211  16.565  0.5913  0.1835  0.7878
  442MPD2    C1 6637   4.460   3.139  16.538 -0.2976  0.2331  0.0018
  442MPD2    C2 6638   4.466   3.034  16.450  0.7465 -0.1194  0.0553
  442MPD2    C3 6639   4.588   3.003  16.384  0.7201  0.2496  0.5385
  442MPD2    C4 6640   4.702   3.070  16.423 -0.2564  0.0622 -0.1753
  442MPD2    C5 6641   4.686   3.178  16.505 -0.3136 -0.1361 -0.6008
  442MPD2     H 6642   4.377   2.986  16.412  0.4510  0.8292 -0.4488
  442MPD2    H1 6643   0.068   3.054  16.387  0.0544  2.0446 -0.1550
  442MPD2    H2 6644   4.580   3.289  16.640  0.9261 -1.9101  2.8999
  442MPD2    H3 6645   0.042   3.224  16.541 -1.4399  0.7203  1.1237
  442MPD2     N 6646   4.605   2.899  16.293  0.4845  0.0020 -0.1177
  442MPD2    H5 6647   4.701   2.888  16.262  0.2172 -2.3951 -0.0898
  442MPD2    N1 6648   4.346   3.177  16.601  0.1556  0.2607  0.3362
  442MPD2    H7 6649   4.278   3.101  16.601 -3.3412  3.3567  2.0742
  443TMC3    C1 6650   4.196   3.325  16.717 -0.2813 -0.6172  0.3612
  443TMC3    C2 6651   4.124   3.439  16.708  1.2087 -0.6094  0.2050
  443TMC3    C3 6652   4.014   3.451  16.787  0.6365 -0.2951  0.3358
  443TMC3    C4 6653   4.175   3.232  16.808  0.0862 -0.0121  0.1120
  443TMC3    C5 6654   4.084   3.266  16.904  0.4205 -0.3530  0.4141
  443TMC3    C6 6655   3.998   3.369  16.891  0.2808  0.4785 -0.2649
  443TMC3     C 6656   4.310   3.308  16.635 -0.5529 -0.0133 -0.9120
  443TMC3     O 6657   4.365   3.411  16.590  0.1888 -0.5755 -0.6408
  443TMC3     H 6658   4.153   3.506  16.628 -0.6043  0.3726  0.3688
  443TMC3    H1 6659   4.250   3.154  16.814 -0.5061 -0.6331 -0.4986
  443TMC3    H2 6660   3.919   3.387  16.963  1.2151  0.9565  0.6521
  443TMC3    C7 6661   4.041   3.152  16.985  0.0833 -0.2380 -0.1112
  443TMC3    C8 6662   3.929   3.565  16.785 -0.4259 -0.4431 -0.1923
  443TMC3    O1 6663   4.088   3.041  16.963 -0.1895 -0.1584  0.1249
  443TMC3    O2 6664   3.893   3.606  16.893 -0.1592  0.1107  0.7016
  444MPD2     C 6665   0.105   3.075  16.775 -0.0112 -0.8311 -0.2639
  444MPD2    C1 6666   0.063   2.950  16.795  0.3924  0.3087  0.4049
  444MPD2    C2 6667   0.153   2.852  16.765  0.8664  0.4214 -0.0905
  444MPD2    C3 6668   0.277   2.877  16.709 -0.1999  0.5727  0.0598
  444MPD2    C4 6669   0.321   3.004  16.692  0.1403 -0.1180  0.3176
  444MPD2    C5 6670   0.233   3.103  16.727  0.3967  0.6361 -0.6551
  444MPD2     H 6671   0.124   2.748  16.780  0.5663  0.2499 -1.8084
  444MPD2    H1 6672   0.415   3.031  16.647 -0.6944  0.2970 -1.1806
  444MPD2    H2 6673   0.044   3.155  16.815  0.4139  0.4475 -2.1747
  444MPD2    H3 6674   0.267   3.206  16.713  0.7918  0.7278  0.9882
  444MPD2     N 6675   0.359   2.760  16.695  0.1225 -0.2385 -0.4066
  444MPD2    H5 6676   0.318   2.670  16.719  0.4363 -0.6728 -1.5158
  444MPD2    N1 6677   4.678   2.915  16.864  0.1220 -0.3429 -0.3995
  444MPD2    H7 6678   4.666   2.822  16.904 -2.4468 -0.3725 -1.2967
  445TMC3    C1 6679   0.531   2.639  16.580 -0.2334 -0.1924 -0.3790
  445TMC3    C2 6680   0.430   2.542  16.582  0.1248 -0.2724 -0.7124
  445TMC3    C3 6681   0.470   2.412  16.585 -0.3587 -0.4686 -0.1389
  445TMC3    C4 6682   0.667   2.610  16.587  0.1907  0.1007  0.3737
  445TMC3    C5 6683   0.697   2.479  16.606 -0.2201 -0.6084 -0.1064
  445TMC3    C6 6684   0.603   2.380  16.601 -0.1227  0.1683 -0.6335
  445TMC3     C 6685   0.487   2.769  16.636  0.4374  0.7854 -0.4816
  445TMC3     O 6686   0.579   2.855  16.638  0.0034  0.4442 -0.0892
  445TMC3     H 6687   0.325   2.567  16.574 -0.2565 -1.9740 -1.0667
  445TMC3    H1 6688   0.738   2.691  16.579 -0.6769  1.0141  2.0563
  445TMC3    H2 6689   0.631   2.275  16.606  0.6894  0.4586  0.9608
  445TMC3    C7 6690   0.835   2.444  16.589 -0.1137 -0.3676 -0.3194
  445TMC3    C8 6691   0.363   2.309  16.580 -0.1188  0.5197 -0.4495
  445TMC3    O1 6692   0.913   2.513  16.528  0.2523  0.2011 -0.1578
  445TMC3    O2 6693   0.392   2.200  16.619  0.4949  0.7674  0.0956
  446MPD2     C 6694   0.097   4.043  11.344 -0.6027  0.6907  0.1613
  446MPD2    C1 6695   0.105   4.012  11.210  0.1187  0.2958  0.3834
  446MPD2    C2 6696   0.214   4.055  11.139  0.1786 -0.7732  0.5328
  446MPD2    C3 6697   0.319   4.112  11.204 -0.7795 -0.4479  0.3177
  446MPD2    C4 6698   0.299   4.153  11.330  0.3876  0.5347  0.9945
  446MPD2    C5 6699   0.194   4.113  11.402 -0.3549 -0.7787 -0.1964
  446MPD2     H 6700   0.231   4.033  11.034  0.0006  0.2110  0.3012
  446MPD2    H1 6701   0.375   4.214  11.377  1.7814 -0.1664 -0.3575
  446MPD2    H2 6702   0.025   4.000  11.413 -0.1068  0.2742  0.4157
  446MPD2    H3 6703   0.203   4.136  11.508  0.6534 -1.9387 -0.0330
  446MPD2     N 6704   0.436   4.145  11.133  0.6413  0.1170 -0.0034
  446MPD2    H5 6705   0.433   4.135  11.032 -0.4036  3.0780 -0.2364
  446MPD2    N1 6706   4.733   3.942  11.145 -0.0779  0.4688 -0.2560
  446MPD2    H7 6707   0.017   3.909  11.052 -0.1189  3.6803 -1.4073
  447TMC3    C1 6708   0.668   4.178  11.101 -0.1080 -0.2867 -0.6363
  447TMC3    C2 6709   0.642   4.234  10.984 -0.1450  0.1224  0.0564
  447TMC3    C3 6710   0.750   4.248  10.894 -0.0852  0.1514  0.0866
  447TMC3    C4 6711   0.792   4.132  11.136  0.4612  0.2891  0.0367
  447TMC3    C5 6712   0.892   4.133  11.045 -0.1834  0.9941  0.0343
  447TMC3    C6 6713   0.873   4.202  10.930  0.2195  0.0080 -0.2160
  447TMC3     C 6714   0.562   4.164  11.196 -0.2980  0.9736  0.8751
  447TMC3     O 6715   0.586   4.128  11.310  0.4422 -0.4060 -0.2718
  447TMC3     H 6716   0.543   4.262  10.950 -0.6466 -0.8883  0.6953
  447TMC3    H1 6717   0.805   4.081  11.231  0.7412  0.1553 -0.0758
  447TMC3    H2 6718   0.962   4.225  10.872  0.5155  2.1647  1.0614
  447TMC3    C7 6719   1.016   4.070  11.062  0.4464  0.5193  0.4523
  447TMC3    C8 6720   0.731   4.291  10.762  0.3419  0.5129 -0.4204
  447TMC3    O1 6721   1.105   4.107  10.984  0.2676 -0.1125 -0.0675
  447TMC3    O2 6722   0.628   4.347  10.734  0.0276 -0.0345  0.4222
  448TMC3    C1 6723   3.011   3.898  17.119 -0.3408  0.0186 -0.7555
  448TMC3    C2 6724   3.109   3.805  17.076 -0.1215  0.1972  0.5454
  448TMC3    C3 6725   3.189   3.745  17.168  0.0983 -0.8144  0.2260
  448TMC3    C4 6726   2.983   3.916  17.248 -0.2167  0.2045 -0.0739
  448TMC3    C5 6727   3.071   3.853  17.333  0.2558 -0.5083  0.0387
  448TMC3    C6 6728   3.168   3.764  17.301  0.4633 -0.1184 -0.4267
  448TMC3     C 6729   2.903   3.917  17.028 -0.3588 -1.4444 -0.3077
  448TMC3     O 6730   2.840   4.020  17.041 -0.1556 -0.3383 -0.3572
  448TMC3     H 6731   3.127   3.798  16.970 -1.7387 -0.3919  0.3045
  448TMC3    H1 6732   2.906   3.985  17.280 -0.4168 -0.3689  0.6781
  448TMC3    H2 6733   3.237   3.718  17.371  0.9129 -0.3797 -1.0336
  448TMC3    C7 6734   3.063   3.890  17.474  0.1686  0.6590  0.2433
  448TMC3    C8 6735   3.289   3.640  17.127 -0.3649  0.0915  0.6247
  448TMC3    O1 6736   3.043   4.008  17.496  0.5906 -0.5538  0.0255
  448TMC3    O2 6737   3.316   3.564  17.217  0.0156  0.1954 -0.0200
  449MPD2     C 6738   4.419   2.092  13.963  0.3685  1.0509  0.2921
  449MPD2    C1 6739   4.321   2.172  13.915  0.4219 -0.2357 -0.5043
  449MPD2    C2 6740   4.187   2.137  13.904  0.7121  0.4934 -0.1978
  449MPD2    C3 6741   4.154   2.008  13.945  0.2706 -0.5226  0.1068
  449MPD2    C4 6742   4.249   1.924  14.003 -0.6999  0.1335 -0.4888
  449MPD2    C5 6743   4.379   1.973  14.018 -0.0836 -0.5176 -0.2954
  449MPD2     H 6744   4.117   2.204  13.856 -0.0262  0.0118  0.2182
  449MPD2    H1 6745   4.220   1.830  14.048 -2.7772  0.3471 -1.3983
  449MPD2    H2 6746   4.519   2.133  13.968  0.6484  0.4774 -0.5630
  449MPD2    H3 6747   4.454   1.915  14.070 -1.6090 -1.3965  0.9387
  449MPD2     N 6748   4.017   1.979  13.942 -0.7308  0.0332  0.6492
  449MPD2    H5 6749   3.965   2.056  13.902 -0.6029 -0.2321 -0.0338
  449MPD2    N1 6750   4.354   2.296  13.858 -0.1333  0.3156 -0.2630
  449MPD2    H7 6751   4.277   2.359  13.837 -0.0501  1.4131  2.7996
  450TMC3    C1 6752   4.458   2.473  13.754 -0.4038  0.3752  0.2416
  450TMC3    C2 6753   4.517   2.459  13.625 -0.8207 -0.4490 -0.1172
  450TMC3    C3 6754   4.450   2.524  13.524 -0.3889  0.2138 -0.7341
  450TMC3    C4 6755   4.340   2.537  13.768  0.8540 -0.3642 -0.0837
  450TMC3    C5 6756   4.268   2.573  13.660 -0.0968  0.9156  0.3317
  450TMC3    C6 6757   4.321   2.581  13.536 -0.5908  0.5316 -0.4086
  450TMC3     C 6758   4.478   2.354  13.833  0.0218  0.4071 -0.0039
  450TMC3     O 6759   4.592   2.325  13.860 -0.5996 -0.4246 -0.2178
  450TMC3     H 6760   4.600   2.392  13.606  0.8903  1.8147 -0.5588
  450TMC3    H1 6761   4.296   2.544  13.867  2.7515 -2.1150  0.8818
  450TMC3    H2 6762   4.260   2.598  13.448  0.0868  1.6758 -0.6680
  450TMC3    C7 6763   4.130   2.526  13.675  0.2922  0.0163  0.4887
  450TMC3    C8 6764   4.509   2.539  13.393  0.7134  0.2494 -0.8511
  450TMC3    O1 6765   4.110   2.453  13.773  0.2472  0.5228  0.0189
  450TMC3    O2 6766   4.442   2.597  13.310 -0.6803 -0.7671 -0.6618
  451MPD2     C 6767   1.262   0.546   1.003 -0.4047  1.6086 -0.8196
  451MPD2    C1 6768   1.230   0.652   0.914  0.1062 -0.0837 -0.3975
  451MPD2    C2 6769   1.258   0.627   0.780  0.0690 -0.1499 -0.9151
  451MPD2    C3 6770   1.317   0.510   0.737 -0.5556 -0.2873 -0.0481
  451MPD2    C4 6771   1.353   0.418   0.828 -0.1200  0.3765  0.0135
  451MPD2    C5 6772   1.318   0.428   0.959  0.1010  0.0636 -0.4330
  451MPD2     H 6773   1.225   0.700   0.707  0.1791 -0.7396 -1.5591
  451MPD2    H1 6774   1.410   0.329   0.801 -0.0404  0.3255  0.3536
  451MPD2    H2 6775   1.226   0.550   1.106 -0.0619  0.4650 -0.6533
  451MPD2    H3 6776   1.345   0.360   1.039 -0.5342 -0.1934 -0.4323
  451MPD2     N 6777   1.350   0.488   0.603  0.3072  0.6329 -0.1358
  451MPD2    H5 6778   1.391   0.400   0.573 -1.7596 -1.1168  2.1031
  451MPD2    N1 6779   1.159   0.763   0.964  0.4477 -0.8857  0.5609
  451MPD2    H7 6780   1.116   0.752   1.055  0.6497 -0.0496  0.7528
  452TMC3    C1 6781   1.309   0.515   0.383 -0.4982  0.1306  0.0180
  452TMC3    C2 6782   1.224   0.403   0.370 -0.3585  0.7824  0.6231
  452TMC3    C3 6783   1.155   0.395   0.248 -0.2984 -0.1027  0.0062
  452TMC3    C4 6784   1.327   0.596   0.272  0.2933 -0.0589  0.0830
  452TMC3    C5 6785   1.257   0.582   0.155 -0.0340 -0.3257 -0.1312
  452TMC3    C6 6786   1.165   0.488   0.149  0.5905 -0.0795  0.3251
  452TMC3     C 6787   1.330   0.580   0.504  0.0766  0.2730  0.0625
  452TMC3     O 6788   1.325   0.701   0.511  0.1623  0.4645  0.0853
  452TMC3     H 6789   1.203   0.338   0.454 -1.2687  1.9834  1.3239
  452TMC3    H1 6790   1.394   0.680   0.287  3.0105 -1.8175 -2.1218
  452TMC3    H2 6791   1.099   0.495   0.063 -0.1052  0.5566  0.9082
  452TMC3    C7 6792   1.212   0.708   0.109 -0.4726 -0.3162  0.2369
  452TMC3    C8 6793   1.043   0.298   0.247  0.6932  0.9222 -0.1813
  452TMC3    O1 6794   1.234   0.723  17.734 -0.0233  0.0674 -0.1550
  452TMC3    O2 6795   0.961   0.313   0.160 -0.4341  0.5741  0.0325
  453TMC3    C1 6796   1.981   3.413  12.096  0.6753 -0.4230 -0.6917
  453TMC3    C2 6797   1.866   3.347  12.121  0.3718 -0.6055 -0.2770
  453TMC3    C3 6798   1.794   3.290  12.011 -0.1357 -0.1963  0.0982
  453TMC3    C4 6799   2.027   3.425  11.970  0.1750 -0.5798  0.5081
  453TMC3    C5 6800   1.968   3.347  11.874 -0.5734  0.6264 -0.3915
  453TMC3    C6 6801   1.842   3.282  11.885 -0.8224 -0.0816 -1.0082
  453TMC3     C 6802   2.086   3.432  12.204 -0.8724 -0.3920 -0.0064
  453TMC3     O 6803   2.183   3.494  12.168  0.0186 -0.2271 -0.7500
  453TMC3     H 6804   1.824   3.348  12.221 -2.0957 -1.9449 -1.2872
  453TMC3    H1 6805   2.112   3.484  11.940 -0.9244  0.7918  0.0806
  453TMC3    H2 6806   1.796   3.229  11.803 -0.7810  1.0878 -1.7849
  453TMC3    C7 6807   2.021   3.367  11.737  0.5051 -0.8357 -0.2355
  453TMC3    C8 6808   1.722   3.177  12.052 -1.0178 -0.3182 -0.8296
  453TMC3    O1 6809   2.051   3.486  11.720  0.2300 -0.2924 -0.0648
  453TMC3    O2 6810   1.625   3.190  12.128 -0.2015 -0.2796  0.3749
  454MPD2     C 6811   1.161   2.657  16.099  0.6026 -0.4454 -0.1143
  454MPD2    C1 6812   1.059   2.693  16.018 -0.4396  0.5273  0.4890
  454MPD2    C2 6813   0.982   2.800  16.053 -0.2409  0.2962  0.0881
  454MPD2    C3 6814   1.006   2.873  16.170  0.4351  0.2803 -0.7373
  454MPD2    C4 6815   1.103   2.832  16.256 -0.4434  0.5070 -0.8827
  454MPD2    C5 6816   1.179   2.720  16.219 -0.6645  0.0247  0.0692
  454MPD2     H 6817   0.896   2.817  15.990 -1.1849  0.6622  1.4606
  454MPD2    H1 6818   1.108   2.869  16.358  0.1929 -1.8835 -0.0386
  454MPD2    H2 6819   1.224   2.573  16.071 -0.0640 -0.3193 -1.9803
  454MPD2    H3 6820   1.256   2.680  16.283 -0.3910  1.3987  0.5977
  454MPD2     N 6821   0.927   2.983  16.215  0.2262 -0.3315 -0.6934
  454MPD2    H5 6822   0.937   3.007  16.314  0.6273 -2.2918 -0.2579
  454MPD2    N1 6823   1.019   2.626  15.900  0.1455  0.5230 -0.2557
  454MPD2    H7 6824   0.949   2.678  15.847  1.2337  2.5015  0.2118
  455TMC3    C1 6825   0.717   3.057  16.239 -0.0120  0.1409  0.3953
  455TMC3    C2 6826   0.611   3.138  16.207 -0.8286  0.2394  0.4675
  455TMC3    C3 6827   0.480   3.094  16.214  0.3782  0.0313 -0.5946
  455TMC3    C4 6828   0.683   2.941  16.296 -0.4297 -0.1387 -0.5255
  455TMC3    C5 6829   0.555   2.898  16.293  0.3246 -0.3808  0.0844
  455TMC3    C6 6830   0.450   2.964  16.242  0.1000 -0.0962 -0.5538
  455TMC3     C 6831   0.817   3.031  16.147 -0.7827  0.5768  0.1407
  455TMC3     O 6832   0.785   3.033  16.024  0.6022  0.1906  0.3742
  455TMC3     H 6833   0.643   3.228  16.155  0.1082 -0.8235 -0.7924
  455TMC3    H1 6834   0.743   2.903  16.377 -2.9518 -1.0131  0.9353
  455TMC3    H2 6835   0.353   2.917  16.247 -0.2102  0.5184 -0.8689
  455TMC3    C7 6836   0.550   2.757  16.256 -0.1667  0.4710  0.0665
  455TMC3    C8 6837   0.393   3.180  16.286  0.0494  0.2121 -0.4091
  455TMC3    O1 6838   0.436   2.716  16.244  0.0623 -0.3824  0.4973
  455TMC3    O2 6839   0.279   3.137  16.302  0.0098  0.0774  0.0946
  456MPD2     C 6840   3.701   2.562  16.446  0.2418  0.2782  0.3097
  456MPD2    C1 6841   3.685   2.700  16.447 -0.4899 -0.3966 -0.4859
  456MPD2    C2 6842   3.650   2.764  16.561 -0.3418  0.2148  0.0150
  456MPD2    C3 6843   3.663   2.696  16.682 -0.0743 -0.4242 -0.7272
  456MPD2    C4 6844   3.690   2.560  16.677  0.1877 -0.9923 -0.3784
  456MPD2    C5 6845   3.704   2.491  16.560  0.1626 -0.0232 -0.4159
  456MPD2     H 6846   3.621   2.868  16.566  1.5845  0.8597 -2.7986
  456MPD2    H1 6847   3.683   2.496  16.764  0.3140 -0.5900 -0.0758
  456MPD2    H2 6848   3.697   2.509  16.352  1.6864 -3.0181  2.1210
  456MPD2    H3 6849   3.737   2.388  16.551 -1.2046 -0.4576 -0.4511
  456MPD2     N 6850   3.630   2.771  16.794 -0.0102 -0.3796  0.2310
  456MPD2    H5 6851   3.607   2.870  16.785 -0.9744 -0.6360 -0.1334
  456MPD2    N1 6852   3.691   2.755  16.319  0.0694 -0.3324 -0.0402
  456MPD2    H7 6853   3.720   2.705  16.235  2.0555  1.2361 -0.3120
  457TMC3    C1 6854   3.574   2.819  17.026  0.3987  0.2671  0.4580
  457TMC3    C2 6855   3.603   2.951  17.010 -0.1293  0.2606  0.3861
  457TMC3    C3 6856   3.578   3.028  17.122  0.3602 -0.1374  0.8898
  457TMC3    C4 6857   3.527   2.765  17.143  1.0747  0.1476 -0.3313
  457TMC3    C5 6858   3.515   2.846  17.252 -0.2886 -0.0280  0.4928
  457TMC3    C6 6859   3.523   2.978  17.241 -0.5038  0.6057 -0.0688
  457TMC3     C 6860   3.620   2.718  16.924  0.1392 -0.3805  0.8312
  457TMC3     O 6861   3.617   2.601  16.957 -0.1924  0.1115  0.0054
  457TMC3     H 6862   3.664   2.987  16.928  1.1112 -0.7291  0.8684
  457TMC3    H1 6863   3.531   2.658  17.163  0.7705  0.1227 -0.3949
  457TMC3    H2 6864   3.510   3.046  17.325 -1.1655  0.5764 -0.1440
  457TMC3    C7 6865   3.518   2.778  17.387 -0.0123 -0.1983  0.1422
  457TMC3    C8 6866   3.546   3.171  17.103 -0.0238 -0.6346  0.0443
  457TMC3    O1 6867   3.534   2.654  17.392 -0.2667 -0.1754 -0.1723
  457TMC3    O2 6868   3.454   3.214  17.173  0.1059  0.0277 -0.0235
  458MPD2     C 6869   1.789   2.038  12.005  0.1447  0.1436  0.7002
  458MPD2    C1 6870   1.689   2.072  12.092  0.0317 -0.1936  0.0229
  458MPD2    C2 6871   1.580   2.142  12.043  0.4803 -0.3674  0.0368
  458MPD2    C3 6872   1.581   2.186  11.909  0.7338  0.1697  0.2837
  458MPD2    C4 6873   1.679   2.140  11.823 -0.4176  0.6457 -0.7242
  458MPD2    C5 6874   1.782   2.067  11.871  0.1893 -0.5892 -0.7313
  458MPD2     H 6875   1.501   2.170  12.112  0.7911  0.7366 -0.0472
  458MPD2    H1 6876   1.680   2.158  11.717 -0.8611  0.3601 -0.7783
  458MPD2    H2 6877   1.874   1.979  12.038  1.3464  1.0137 -0.8021
  458MPD2    H3 6878   1.862   2.041  11.803  1.1854 -0.9677  0.5889
  458MPD2     N 6879   1.473   2.265  11.865 -0.3146 -0.1926 -0.3918
  458MPD2    H5 6880   1.399   2.283  11.932  1.2963 -0.4282  1.4533
  458MPD2    N1 6881   1.723   2.065  12.232 -0.0482 -0.1400 -0.0172
  458MPD2    H7 6882   1.819   2.048  12.257  0.3031  1.9041  0.0498
  459TMC3    C1 6883   1.662   2.105  12.457 -0.2220 -0.0114 -0.5394
  459TMC3    C2 6884   1.764   2.193  12.476  0.3988 -0.3202 -0.4485
  459TMC3    C3 6885   1.760   2.259  12.594  0.3241  0.0991  0.2930
  459TMC3    C4 6886   1.574   2.072  12.554 -0.6671 -0.0923  0.4892
  459TMC3    C5 6887   1.583   2.135  12.675  0.2338  0.3739  0.7507
  459TMC3    C6 6888   1.675   2.233  12.694  0.5494 -0.1421 -0.0569
  459TMC3     C 6889   1.621   2.074  12.321 -0.0397 -0.0621  0.5641
  459TMC3     O 6890   1.504   2.055  12.293  0.8886  0.0482  0.4680
  459TMC3     H 6891   1.820   2.239  12.396  0.3842  0.0040 -0.2700
  459TMC3    H1 6892   1.500   1.996  12.531  0.6582 -1.0366 -0.6602
  459TMC3    H2 6893   1.702   2.267  12.793  0.5421  2.5599 -0.9823
  459TMC3    C7 6894   1.509   2.075  12.780 -0.6439 -0.4873  0.7909
  459TMC3    C8 6895   1.834   2.386  12.598  1.2334 -0.2903  0.6057
  459TMC3    O1 6896   1.478   1.960  12.768  0.2211 -0.1207 -0.4590
  459TMC3    O2 6897   1.932   2.379  12.527 -0.3083  0.1192  0.0098
  460MPD2     C 6898   0.843   4.115  10.456  0.3662  0.5651  0.4250
  460MPD2    C1 6899   0.782   4.218  10.530 -0.0221  0.5987  0.1585
  460MPD2    C2 6900   0.689   4.291  10.461 -1.0325 -0.4694  0.4000
  460MPD2    C3 6901   0.672   4.270  10.322 -0.1088 -0.9573  0.4640
  460MPD2    C4 6902   0.726   4.158  10.261  0.0909  0.3647 -0.1595
  460MPD2    C5 6903   0.815   4.081  10.327 -0.2823  0.4844 -0.3250
  460MPD2     H 6904   0.636   4.370  10.513 -1.3466  0.8457 -1.9291
  460MPD2    H1 6905   0.693   4.120  10.165 -0.3862 -2.5838  1.1472
  460MPD2    H2 6906   0.917   4.057  10.510  0.7157  1.2609  0.7015
  460MPD2    H3 6907   0.859   3.996  10.276 -0.8533  0.6308 -1.0657
  460MPD2     N 6908   0.575   4.354  10.263 -0.1307  0.0799 -0.3120
  460MPD2    H5 6909   0.555   4.444  10.307 -1.2549 -0.0934 -0.4787
  460MPD2    N1 6910   0.811   4.223  10.668 -0.3010  0.2919 -0.1755
  460MPD2    H7 6911   0.878   4.155  10.702 -0.1029  0.9312  0.7171
  461TMC3    C1 6912   0.396   4.418  10.130  0.0384 -0.6500 -0.2544
  461TMC3    C2 6913   0.275   4.381  10.084  0.0462 -0.1419 -0.4220
  461TMC3    C3 6914   0.202   4.472  10.027 -0.7242 -0.5924 -0.4349
  461TMC3    C4 6915   0.451   4.540  10.109  0.7663  0.2999  0.0234
  461TMC3    C5 6916   0.370   4.626  10.042 -1.0427 -0.4831  0.1839
  461TMC3    C6 6917   0.245   4.597  10.006  0.9347  0.3859 -0.2897
  461TMC3     C 6918   0.485   4.310  10.173 -0.8687  0.0609 -0.8555
  461TMC3     O 6919   0.445   4.195  10.151  0.1672  0.1259 -0.2623
  461TMC3     H 6920   0.248   4.277  10.100 -0.5724 -0.0153 -0.6536
  461TMC3    H1 6921   0.544   4.566  10.157  0.0598  1.5089  0.7379
  461TMC3    H2 6922   0.184   4.664   9.946  0.8146  1.3965  0.9768
  461TMC3    C7 6923   0.406   0.026  10.016  0.3917  0.0092 -0.0609
  461TMC3    C8 6924   0.133   4.416   9.919 -0.1229  0.1835 -0.4620
  461TMC3    O1 6925   0.317   0.095   9.977 -0.2592  0.0816  0.2021
  461TMC3    O2 6926   0.142   4.474   9.813 -0.2649 -0.1431  0.8299
  462TMC3    C1 6927   0.323   0.985   0.194 -1.0263  0.2948 -0.0503
  462TMC3    C2 6928   0.409   0.918   0.108 -0.2003  0.0817  0.3031
  462TMC3    C3 6929   0.438   0.790   0.155  0.1001  0.4271  0.0890
  462TMC3    C4 6930   0.260   0.935   0.307 -0.4067 -0.3504  0.0244
  462TMC3    C5 6931   0.299   0.806   0.345  0.0022  0.4318  0.7112
  462TMC3    C6 6932   0.386   0.739   0.268 -0.3237  0.0988  0.0702
  462TMC3     C 6933   0.305   1.123   0.162 -0.1970  0.1261 -0.2320
  462TMC3     O 6934   0.396   1.169   0.092  0.4787 -0.0484  0.5586
  462TMC3     H 6935   0.468   0.968   0.032  0.5989  0.1574  0.9761
  462TMC3    H1 6936   0.193   0.993   0.369  0.3921 -0.1308  0.6814
  462TMC3    H2 6937   0.412   0.641   0.306  0.1467  0.4488  0.6512
  462TMC3    C7 6938   0.187   0.717   0.392 -0.1664  0.4425  0.1475
  462TMC3    C8 6939   0.468   0.703   0.044 -0.4538  0.4666  0.4386
  462TMC3    O1 6940   0.217   0.608   0.435  0.2404 -1.0113 -0.5000
  462TMC3    O2 6941   0.419   0.735  17.677 -0.1844 -0.5558  0.5844
  463MPD2     C 6942   2.058   2.881   1.368 -0.3859 -0.8869  0.1368
  463MPD2    C1 6943   2.017   3.000   1.428 -0.5821 -0.1059 -0.9125
  463MPD2    C2 6944   2.099   3.069   1.523 -0.0415 -0.1369  0.2305
  463MPD2    C3 6945   2.233   3.033   1.529  0.4743  0.2079  0.0190
  463MPD2    C4 6946   2.265   2.917   1.463 -0.3363 -0.0163 -0.5313
  463MPD2    C5 6947   2.181   2.836   1.390 -0.0009 -0.0512 -0.3980
  463MPD2     H 6948   2.075   3.166   1.565 -0.1828 -0.8232  1.7274
  463MPD2    H1 6949   2.369   2.888   1.473 -0.7238 -0.4807  2.0877
  463MPD2    H2 6950   1.990   2.817   1.313  0.8095 -2.5727  0.6240
  463MPD2    H3 6951   2.211   2.744   1.341  1.2369 -1.5220  3.1479
  463MPD2     N 6952   2.344   3.109   1.578 -0.5305  0.3218  0.5260
  463MPD2    H5 6953   2.439   3.081   1.556 -0.2835  1.0283  0.6837
  463MPD2    N1 6954   1.891   3.064   1.404  0.0689 -0.1205  0.3509
  463MPD2    H7 6955   1.861   3.142   1.461  2.7753  0.2837  1.2042
  464TMC3    C1 6956   1.677   3.091   1.298 -0.5022  0.7022 -0.1955
  464TMC3    C2 6957   1.682   3.225   1.318  0.5363 -0.9910 -0.2863
  464TMC3    C3 6958   1.588   3.299   1.256  0.1499 -0.8613 -0.5601
  464TMC3    C4 6959   1.582   3.027   1.221  0.5617 -0.5231 -0.5294
  464TMC3    C5 6960   1.500   3.111   1.149 -0.6952 -0.3261 -0.4300
  464TMC3    C6 6961   1.509   3.250   1.153  0.1869  0.3182  0.5450
  464TMC3     C 6962   1.800   3.018   1.311  0.3545 -0.1124 -0.2109
  464TMC3     O 6963   1.814   2.944   1.218  0.4547  0.0389 -0.4055
  464TMC3     H 6964   1.769   3.274   1.360 -0.1398  0.7838 -0.9899
  464TMC3    H1 6965   1.585   2.922   1.196 -1.9041 -0.6708 -0.2835
  464TMC3    H2 6966   1.433   3.312   1.106 -0.2084  0.6019  1.5670
  464TMC3    C7 6967   1.395   3.056   1.063 -0.5615 -0.2219 -0.2389
  464TMC3    C8 6968   1.552   3.434   1.300 -0.1984  0.7758 -0.1176
  464TMC3    O1 6969   1.413   2.948   1.009  0.4614  0.4827  1.1195
  464TMC3    O2 6970   1.454   3.492   1.257  0.4275 -0.1930  0.1742
  465MPD2     C 6971   2.637   2.449  16.512  0.1871  0.0807  0.5472
  465MPD2    C1 6972   2.562   2.515  16.601  0.1196 -0.8808  0.0828
  465MPD2    C2 6973   2.428   2.530  16.573 -0.1672  0.1987  0.1038
  465MPD2    C3 6974   2.379   2.524  16.444 -0.4661  0.0104  0.4792
  465MPD2    C4 6975   2.462   2.457  16.361 -0.4394  0.0979  0.1413
  465MPD2    C5 6976   2.587   2.411  16.397  0.4054  0.9877 -0.5866
  465MPD2     H 6977   2.368   2.570  16.654 -1.0127  0.1166 -0.4878
  465MPD2    H1 6978   2.424   2.423  16.265  2.9580 -3.9873  0.2078
  465MPD2    H2 6979   2.744   2.445  16.531 -0.0623  1.7564  2.3386
  465MPD2    H3 6980   2.656   2.363  16.328 -1.6289 -0.3007 -1.7061
  465MPD2     N 6981   2.249   2.571  16.413 -0.3321  0.6579  0.2214
  465MPD2    H5 6982   2.193   2.612  16.486 -0.5366  0.6041  0.0950
  465MPD2    N1 6983   2.597   2.558  16.733 -0.3564  0.2002  0.5384
  465MPD2    H7 6984   2.523   2.593  16.793 -1.2059 -1.4225  0.4067
  466TMC3    C1 6985   1.880   2.719  16.415 -0.3590 -0.3483 -0.4698
  466TMC3    C2 6986   1.851   2.819  16.329 -0.1709 -0.3422 -0.2810
  466TMC3    C3 6987   1.936   2.840  16.219 -0.3130 -0.1893 -0.1371
  466TMC3    C4 6988   1.991   2.638  16.406 -0.1941  0.2386  0.5174
  466TMC3    C5 6989   2.073   2.663  16.299 -0.6737  0.1073  0.2014
  466TMC3    C6 6990   2.040   2.754  16.196  0.1974 -0.3329  0.7972
  466TMC3     C 6991   1.781   2.705  16.526  0.1744  0.1618  0.1025
  466TMC3     O 6992   1.710   2.805  16.553  0.8055 -0.3872  0.3038
  466TMC3     H 6993   1.756   2.871  16.326  0.0554 -0.0500 -2.0136
  466TMC3    H1 6994   2.007   2.568  16.486 -0.7026 -0.2511  0.1884
  466TMC3    H2 6995   2.093   2.770  16.104  0.8085 -1.6300  0.9217
  466TMC3    C7 6996   2.200   2.599  16.285  0.1156 -0.3281 -0.1458
  466TMC3    C8 6997   1.936   2.972  16.161 -0.5218  0.0823  0.2922
  466TMC3    O1 6998   2.258   2.616  16.179  0.5221 -1.3253 -0.0226
  466TMC3    O2 6999   1.989   2.998  16.054  0.4768  0.2161  0.4081
  467TMC3    C1 7000   3.138   1.131  13.449  0.1108  0.2561  0.3282
  467TMC3    C2 7001   3.135   1.230  13.355  0.0599  0.7495  0.7903
  467TMC3    C3 7002   3.108   1.355  13.410 -0.9539 -0.5223  0.6228
  467TMC3    C4 7003   3.087   1.149  13.571 -0.6606  0.1796 -0.2397
  467TMC3    C5 7004   3.046   1.266  13.616  0.0072  0.1674 -0.0572
  467TMC3    C6 7005   3.063   1.374  13.531 -0.6394  0.2329  0.7549
  467TMC3     C 7006   3.267   1.067  13.453  0.7110  0.1171 -0.2264
  467TMC3     O 7007   3.353   1.133  13.392 -0.3920  0.5339  1.1538
  467TMC3     H 7008   3.181   1.208  13.260 -0.8148 -1.3635  0.8656
  467TMC3    H1 7009   3.074   1.068  13.642 -1.1008  0.3226 -0.1596
  467TMC3    H2 7010   3.011   1.465  13.560 -3.9763 -1.3535 -0.3174
  467TMC3    C7 7011   2.940   1.264  13.718  0.1902  0.8815 -0.0549
  467TMC3    C8 7012   3.180   1.471  13.357  0.6961  0.6911 -0.1517
  467TMC3    O1 7013   2.831   1.302  13.684 -0.0663  0.8142 -0.3003
  467TMC3    O2 7014   3.158   1.583  13.404  0.0373 -0.1987  0.5305
  468MPD2     C 7015   2.403   0.104  10.797  1.1799  0.5259 -0.1068
  468MPD2    C1 7016   2.493   0.063  10.887  0.4812  0.6830  0.3769
  468MPD2    C2 7017   2.503   4.661  10.919 -0.7442  1.3569 -0.4005
  468MPD2    C3 7018   2.414   4.571  10.863  0.3416  0.3227  0.2047
  468MPD2    C4 7019   2.313   4.620  10.780  0.0693  0.2847  0.6596
  468MPD2    C5 7020   2.312   0.014  10.749  0.4570 -0.1474 -0.0909
  468MPD2     H 7021   2.578   4.640  10.994  0.6698  0.9944 -1.8884
  468MPD2    H1 7022   2.240   4.556  10.733 -0.4992  1.6467 -0.2960
  468MPD2    H2 7023   2.409   0.208  10.765  1.6536  0.9284  1.2793
  468MPD2    H3 7024   2.247   0.052  10.671  3.0823  2.0218 -1.2444
  468MPD2     N 7025   2.398   4.438  10.911 -0.1165  0.1626 -0.3122
  468MPD2    H5 7026   2.309   4.391  10.900 -0.9972  1.9189 -0.6357
  468MPD2    N1 7027   2.585   0.153  10.947  0.1452 -0.1849 -0.0257
  468MPD2    H7 7028   2.654   0.110  11.007 -0.9275 -2.7304 -0.6321
  469TMC3    C1 7029   2.671   0.339  11.061  0.4496  0.1737  0.1167
  469TMC3    C2 7030   2.796   0.300  11.052 -0.6093 -0.2042  0.0386
  469TMC3    C3 7031   2.879   0.311  11.160  0.0899 -0.2588  0.2789
  469TMC3    C4 7032   2.630   0.432  11.161  0.5849  0.2033  0.0578
  469TMC3    C5 7033   2.719   0.452  11.259  0.0404 -0.4849 -0.4431
  469TMC3    C6 7034   2.841   0.393  11.261  0.1813 -0.3911  0.1423
  469TMC3     C 7035   2.572   0.292  10.972 -0.4701 -0.2166 -0.7929
  469TMC3     O 7036   2.475   0.370  10.950 -0.4426 -0.4714 -0.1230
  469TMC3     H 7037   2.824   0.236  10.969 -0.2313 -1.6684  1.2957
  469TMC3    H1 7038   2.535   0.484  11.154  0.8222  0.4955 -1.0218
  469TMC3    H2 7039   2.898   0.425  11.347  0.2889 -0.4624  0.0977
  469TMC3    C7 7040   2.692   0.548  11.367 -0.1196 -0.4371 -0.0932
  469TMC3    C8 7041   2.999   0.248  11.174 -0.7979 -0.1137  0.4366
  469TMC3    O1 7042   2.783   0.636  11.381  0.0972 -0.1784 -0.1278
  469TMC3    O2 7043   3.063   0.211  11.075  0.4719 -0.7265  0.2811
  470TMC3    C1 7044   4.050   0.279   0.876  0.2076  0.3972  0.3209
  470TMC3    C2 7045   4.178   0.244   0.897  0.7864  0.3028 -0.3461
  470TMC3    C3 7046   4.224   0.267   1.024 -0.3383 -0.2011 -0.8388
  470TMC3    C4 7047   3.955   0.297   0.976  0.0558 -0.2697 -0.1499
  470TMC3    C5 7048   4.000   0.289   1.104  0.6786 -0.2218  0.1237
  470TMC3    C6 7049   4.137   0.286   1.129 -0.0937  0.2266  0.4007
  470TMC3     C 7050   3.990   0.233   0.752  0.3390  0.6223  0.7664
  470TMC3     O 7051   3.867   0.239   0.750 -0.5590  0.2571 -0.4505
  470TMC3     H 7052   4.250   0.235   0.816  1.3830 -0.4150  0.2788
  470TMC3    H1 7053   3.848   0.301   0.961 -0.0613 -2.2405  0.2183
  470TMC3    H2 7054   4.180   0.275   1.228 -1.5016  0.3061  1.0160
  470TMC3    C7 7055   3.911   0.358   1.196  0.4582  0.0714  0.3614
  470TMC3    C8 7056   4.331   0.366   1.038  0.2623  0.1574  0.3347
  470TMC3    O1 7057   3.794   0.369   1.164  0.9470  0.7796  0.3141
  470TMC3    O2 7058   4.314   0.447   1.131 -0.7546 -0.0564 -0.1293
  471MPD2     C 7059   0.165   1.910  17.047  0.0933 -0.0684 -0.3852
  471MPD2    C1 7060   0.267   1.827  17.020 -0.5028  0.0052 -0.1852
  471MPD2    C2 7061   0.326   1.779  17.130  0.3698 -1.2240  0.3431
  471MPD2    C3 7062   0.286   1.814  17.257  0.3025 -0.0796 -0.2372
  471MPD2    C4 7063   0.183   1.904  17.279 -0.1686  0.4540 -0.4461
  471MPD2    C5 7064   0.122   1.954  17.166  0.0149  0.2963  0.2527
  471MPD2     H 7065   0.406   1.706  17.118  2.1248  0.6164  0.7196
  471MPD2    H1 7066   0.152   1.926  17.381 -2.4269  0.1099 -1.0504
  471MPD2    H2 7067   0.116   1.940  16.955 -1.3969  2.1621  1.1278
  471MPD2    H3 7068   0.043   2.028  17.174 -0.3861 -0.0229 -0.7179
  471MPD2     N 7069   0.339   1.759  17.374  0.0627 -0.1183 -0.2815
  471MPD2    H5 7070   0.287   1.781  17.458 -1.2649 -3.1164 -0.3476
  471MPD2    N1 7071   0.307   1.776  16.891 -0.1455 -0.8344  0.0156
  471MPD2    H7 7072   0.394   1.725  16.888 -1.2230 -2.6440 -0.2850
  472TMC3    C1 7073   0.319   1.737  16.655  0.4952 -0.4992  0.0297
  472TMC3    C2 7074   0.269   1.776  16.536  0.7657 -0.2382  0.5276
  472TMC3    C3 7075   0.265   1.687  16.431  1.0848 -0.2585  0.3340
  472TMC3    C4 7076   0.360   1.604  16.668 -1.1428  0.5221  0.1672
  472TMC3    C5 7077   0.357   1.524  16.558  0.3894 -0.2268  0.2198
  472TMC3    C6 7078   0.310   1.557  16.438  0.6127 -0.5023  0.1469
  472TMC3     C 7079   0.257   1.808  16.767  0.7295  0.7454 -0.6386
  472TMC3     O 7080   0.166   1.891  16.744  0.0285 -0.0237 -0.7198
  472TMC3     H 7081   0.213   1.866  16.516  0.9968 -0.4035 -0.8458
  472TMC3    H1 7082   0.377   1.566  16.768 -1.8879  0.5051  0.2894
  472TMC3    H2 7083   0.336   1.499  16.350 -0.7533  0.0916 -0.6425
  472TMC3    C7 7084   0.358   1.380  16.590  0.3043  0.0856  0.0613
  472TMC3    C8 7085   0.139   1.688  16.356  0.5329 -0.1701  0.0342
  472TMC3    O1 7086   0.307   1.366  16.699 -0.4045 -0.3537 -0.3606
  472TMC3    O2 7087   0.084   1.797  16.327 -0.5122 -0.2461 -0.7355
  473MPD2     C 7088   4.677   3.693  14.129  0.9616  0.2143  0.0406
  473MPD2    C1 7089   4.665   3.819  14.077 -0.1655 -0.6354 -0.4818
  473MPD2    C2 7090   4.705   3.929  14.160 -0.2810 -0.4909 -0.3726
  473MPD2    C3 7091   0.020   3.903  14.281  0.4780 -0.0824  0.1280
  473MPD2    C4 7092   0.030   3.779  14.335 -0.2705  0.1090  0.3945
  473MPD2    C5 7093   4.731   3.678  14.250  0.3517  0.0147 -0.7733
  473MPD2     H 7094   4.718   4.030  14.121  0.7718 -1.1983 -1.8652
  473MPD2    H1 7095   0.059   3.750  14.435  1.6616  0.9995  0.0818
  473MPD2    H2 7096   4.652   3.603  14.073  1.4676  1.8885 -2.8978
  473MPD2    H3 7097   0.019   3.582  14.294  1.7495  0.2158 -1.0925
  473MPD2     N 7098   0.066   4.006  14.365 -0.0959 -0.0415  0.4269
  473MPD2    H5 7099   0.114   3.974  14.448  1.3911 -1.5567 -1.0294
  473MPD2    N1 7100   4.617   3.847  13.950  0.5955 -0.2827 -0.3094
  473MPD2    H7 7101   4.634   3.940  13.913  1.2150  0.3831  1.6845
  474TMC3    C1 7102   0.099   4.222  14.454  0.4409  0.6157 -0.4892
  474TMC3    C2 7103   0.043   4.349  14.455 -0.1717 -0.4065  0.1455
  474TMC3    C3 7104   0.070   4.421  14.564 -0.2172  0.5420  0.1299
  474TMC3    C4 7105   0.193   4.180  14.554  0.0352 -0.1539  0.1118
  474TMC3    C5 7106   0.242   4.280  14.631  0.3064 -0.2758  0.5527
  474TMC3    C6 7107   0.174   4.395  14.645  0.7775  0.2651  0.2555
  474TMC3     C 7108   0.052   4.141  14.344 -0.0414 -0.4117  0.5604
  474TMC3     O 7109   4.728   4.196  14.252 -0.5169  0.3322 -0.0395
  474TMC3     H 7110   4.701   4.380  14.385  0.2204  0.4593  0.1037
  474TMC3    H1 7111   0.240   4.082  14.553  1.1706  0.3882 -0.8250
  474TMC3    H2 7112   0.231   4.473  14.694  1.4937 -0.5621  0.7613
  474TMC3    C7 7113   0.379   4.283  14.646 -0.2260  0.2506 -0.4707
  474TMC3    C8 7114   0.003   4.546  14.575  0.4395  0.2406  0.1524
  474TMC3    O1 7115   0.447   4.228  14.560  0.3204 -0.2182  0.1646
  474TMC3    O2 7116   4.680   4.577  14.681 -0.5161  0.4498  0.3008
  475MPD2     C 7117   2.585   2.276  11.079  0.2437  0.7367  0.0207
  475MPD2    C1 7118   2.679   2.365  11.022  0.0876 -0.0204 -0.3231
  475MPD2    C2 7119   2.640   2.446  10.921  0.6779  0.5976 -0.2113
  475MPD2    C3 7120   2.518   2.435  10.859  0.0449  0.0899  0.0901
  475MPD2    C4 7121   2.426   2.352  10.915  0.5114  0.1033  0.3591
  475MPD2    C5 7122   2.461   2.273  11.022  0.1459  0.1121 -0.5531
  475MPD2     H 7123   2.701   2.526  10.880 -0.0208  1.4472  0.3818
  475MPD2    H1 7124   2.323   2.357  10.880  1.1945 -0.3560 -1.7325
  475MPD2    H2 7125   2.610   2.219  11.168  1.2997 -1.6928 -1.8358
  475MPD2    H3 7126   2.386   2.212  11.071  2.2545 -1.5722  0.5858
  475MPD2     N 7127   2.488   2.527  10.759 -0.2320  0.0311 -0.0013
  475MPD2    H5 7128   2.551   2.606  10.749  1.6133 -1.6111 -1.4144
  475MPD2    N1 7129   2.805   2.392  11.074 -0.3462  0.3033  0.6160
  475MPD2    H7 7130   2.864   2.458  11.024  0.1825 -1.6660 -1.4048
  476TMC3    C1 7131   3.005   2.365  11.194 -0.2686  0.4026  0.1792
  476TMC3    C2 7132   3.054   2.413  11.079 -0.3073 -0.1406  0.2386
  476TMC3    C3 7133   3.146   2.519  11.073  0.3623  0.1021 -0.0285
  476TMC3    C4 7134   3.045   2.424  11.309  0.6010  0.1811 -0.6876
  476TMC3    C5 7135   3.144   2.523  11.304 -1.0091 -0.2025 -0.5529
  476TMC3    C6 7136   3.189   2.579  11.189 -0.1246  0.0912 -0.1006
  476TMC3     C 7137   2.863   2.334  11.185 -0.0490  0.9390  0.5519
  476TMC3     O 7138   2.813   2.282  11.283  0.2181 -0.5034 -0.9261
  476TMC3     H 7139   3.021   2.354  10.994 -0.9714 -1.4368  1.3925
  476TMC3    H1 7140   2.997   2.397  11.403  1.4864 -0.2154 -0.3520
  476TMC3    H2 7141   3.273   2.647  11.192  1.3806 -1.7402 -1.1321
  476TMC3    C7 7142   3.152   2.611  11.426 -0.1779 -1.0167  0.9493
  476TMC3    C8 7143   3.193   2.577  10.947 -0.5907 -0.1316 -0.2175
  476TMC3    O1 7144   3.132   2.565  11.537 -0.4363 -0.2101 -0.2994
  476TMC3    O2 7145   3.271   2.671  10.949 -0.5241 -0.1441 -0.0395
  477MPD2     C 7146   0.584   3.130  11.660 -0.5035  0.2054 -0.7802
  477MPD2    C1 7147   0.615   3.255  11.708 -0.0750  0.1445  0.0470
  477MPD2    C2 7148   0.661   3.260  11.832  0.5007 -0.1987  0.1948
  477MPD2    C3 7149   0.675   3.153  11.918  0.0016 -0.5645  0.1980
  477MPD2    C4 7150   0.645   3.025  11.871 -0.2241  0.7171  0.7894
  477MPD2    C5 7151   0.599   3.017  11.744  0.5122  0.0568 -0.2765
  477MPD2     H 7152   0.685   3.357  11.875  2.5186 -0.2010 -0.9158
  477MPD2    H1 7153   0.632   2.940  11.936  3.8623  1.0805  2.0860
  477MPD2    H2 7154   0.551   3.122  11.557 -0.1522  0.4985 -0.9177
  477MPD2    H3 7155   0.562   2.923  11.705  2.7361 -0.7643 -0.4456
  477MPD2     N 7156   0.724   3.184  12.048 -0.1561 -0.0181 -0.5749
  477MPD2    H5 7157   0.770   3.274  12.053 -0.9470  0.3368  0.2638
  477MPD2    N1 7158   0.584   3.362  11.631 -0.0369 -0.2914  0.8246
  477MPD2    H7 7159   0.531   3.347  11.546  0.7344 -3.0389  0.8301
  478TMC3    C1 7160   0.556   3.589  11.566 -0.2702  0.4618 -0.8434
  478TMC3    C2 7161   0.529   3.708  11.624 -0.0947  0.4896  0.6596
  478TMC3    C3 7162   0.524   3.822  11.543 -0.2785 -0.1481 -0.0023
  478TMC3    C4 7163   0.595   3.586  11.433  0.7104 -0.5049 -0.2342
  478TMC3    C5 7164   0.585   3.700  11.355  0.2130 -0.1789 -0.0905
  478TMC3    C6 7165   0.552   3.823  11.407 -0.1239 -0.2913 -0.1158
  478TMC3     C 7166   0.608   3.492  11.664 -0.4533 -0.1250 -1.0293
  478TMC3     O 7167   0.658   3.540  11.765 -0.5202 -0.3967  0.0561
  478TMC3     H 7168   0.505   3.722  11.729  0.2391  1.2804  0.6314
  478TMC3    H1 7169   0.630   3.496  11.385 -1.0940 -0.0668 -2.3846
  478TMC3    H2 7170   0.543   3.916  11.353 -1.0477  0.1353  0.7707
  478TMC3    C7 7171   0.671   3.692  11.238  1.1085 -0.1620  0.5096
  478TMC3    C8 7172   0.487   3.943  11.616  0.2232 -0.0704 -0.3366
  478TMC3    O1 7173   0.770   3.625  11.237 -0.4205  0.3797 -0.6040
  478TMC3    O2 7174   0.423   3.927  11.717 -0.1983  0.0268 -0.0589
  479MPD2     C 7175   4.155   1.031  15.178 -0.4161 -0.1516 -0.1185
  479MPD2    C1 7176   4.128   0.904  15.217  0.1647  0.0108  0.3318
  479MPD2    C2 7177   4.158   0.861  15.347 -0.5595  0.2192  0.2555
  479MPD2    C3 7178   4.221   0.946  15.439  0.2285 -0.7384 -0.2027
  479MPD2    C4 7179   4.246   1.077  15.397  0.3462  0.4273  0.0890
  479MPD2    C5 7180   4.217   1.115  15.266 -0.0411  0.0196 -0.8967
  479MPD2     H 7181   4.135   0.760  15.379 -2.5334  1.3125  2.3008
  479MPD2    H1 7182   4.292   1.151  15.461  0.3468  0.3062  0.2290
  479MPD2    H2 7183   4.128   1.074  15.082 -0.1264 -0.9094 -0.5418
  479MPD2    H3 7184   4.236   1.216  15.233 -2.8437  1.0285  0.6097
  479MPD2     N 7185   4.233   0.908  15.577  0.0093 -0.4444  0.3282
  479MPD2    H5 7186   4.285   0.971  15.638 -1.6055  0.8787  0.3367
  479MPD2    N1 7187   4.042   0.824  15.132 -0.2507  0.1013 -0.6478
  479MPD2    H7 7188   4.009   0.865  15.046 -1.7134  0.5700  0.1386
  480TMC3    C1 7189   3.903   0.566  15.635 -0.3345  0.5235  0.6503
  480TMC3    C2 7190   3.799   0.626  15.563  0.7313  0.0646  0.2743
  480TMC3    C3 7191   3.825   0.752  15.516 -0.0413  0.9525 -0.1707
  480TMC3    C4 7192   4.023   0.624  15.657 -1.2912  0.3651 -0.2298
  480TMC3    C5 7193   4.040   0.746  15.613  0.4297  0.5724  0.5323
  480TMC3    C6 7194   3.941   0.822  15.550 -0.3899 -0.8719  0.3952
  480TMC3     C 7195   3.877   0.439  15.703 -0.9729 -0.3686  0.0745
  480TMC3     O 7196   3.969   0.379  15.759 -0.1939 -0.2835 -0.6046
  480TMC3     H 7197   3.707   0.577  15.532 -0.8443  3.3393 -0.2622
  480TMC3    H1 7198   4.084   0.572  15.730 -1.4643 -0.3635 -0.6005
  480TMC3    H2 7199   3.969   0.915  15.501  0.6438 -0.9763  0.7858
  480TMC3    C7 7200   4.176   0.801  15.640 -0.0572  0.3537  0.7439
  480TMC3    C8 7201   3.742   0.788  15.402  1.0551 -0.5403  0.0239
  480TMC3    O1 7202   4.230   0.755  15.742 -0.2522 -0.3803  0.0874
  480TMC3    O2 7203   3.663   0.711  15.355  0.2095  0.2142  0.2054
  481MPD2     C 7204   1.301   0.850  14.523 -0.5482 -0.0562  0.3136
  481MPD2    C1 7205   1.205   0.752  14.522  0.1099 -0.3546 -0.5294
  481MPD2    C2 7206   1.164   0.713  14.648  0.2005  0.0304 -0.1723
  481MPD2    C3 7207   1.215   0.758  14.765 -0.1861 -0.0072 -0.3465
  481MPD2    C4 7208   1.318   0.849  14.760 -0.7552  0.6750  0.0056
  481MPD2    C5 7209   1.360   0.892  14.639 -0.1427  0.2094 -0.4290
  481MPD2     H 7210   1.074   0.653  14.647  0.1443  0.1192 -0.6315
  481MPD2    H1 7211   1.354   0.900  14.848 -2.1888  0.2530  0.8387
  481MPD2    H2 7212   1.335   0.893  14.429  0.7183 -0.8449  0.4123
  481MPD2    H3 7213   1.421   0.980  14.626 -1.4814  1.3591  1.1573
  481MPD2     N 7214   1.172   0.724  14.893 -0.3318  0.0490 -0.0890
  481MPD2    H5 7215   1.238   0.752  14.964 -0.9425 -0.3966  0.6521
  481MPD2    N1 7216   1.151   0.703  14.402 -0.2691  0.2867  0.9011
  481MPD2    H7 7217   1.198   0.748  14.325  2.5484  0.0979  2.4936
  482TMC3    C1 7218   1.057   0.558  14.232 -0.2000  0.6496 -0.1349
  482TMC3    C2 7219   0.956   0.472  14.203  0.6523 -0.3172  0.2322
  482TMC3    C3 7220   0.894   0.487  14.086 -0.0894  0.8050  0.3491
  482TMC3    C4 7221   1.122   0.631  14.137  0.5086  0.0045  0.5757
  482TMC3    C5 7222   1.056   0.640  14.014 -1.3602 -0.1085 -0.5061
  482TMC3    C6 7223   0.928   0.578  13.992  0.0053 -0.1585  0.4913
  482TMC3     C 7224   1.080   0.590  14.371 -0.6206  0.4271  0.3170
  482TMC3     O 7225   1.029   0.512  14.450 -0.0908  0.1579  0.3473
  482TMC3     H 7226   0.907   0.413  14.280  1.1029  0.6318  1.2398
  482TMC3    H1 7227   1.204   0.697  14.164 -2.1854  3.1115  1.0366
  482TMC3    H2 7228   0.862   0.602  13.909 -0.7907 -0.3850  1.0558
  482TMC3    C7 7229   1.086   0.761  13.937 -0.2532 -0.3819  0.5315
  482TMC3    C8 7230   0.796   0.386  14.063  0.4651  0.0032  0.7356
  482TMC3    O1 7231   1.163   0.837  13.989  0.1396 -0.3263  0.8273
  482TMC3    O2 7232   0.828   0.279  14.116  0.5414 -0.2979 -0.6820
  483TMC3    C1 7233   3.737   4.042   0.960  0.1720 -0.1237  0.2470
  483TMC3    C2 7234   3.811   4.150   0.913 -0.3801 -0.5803  0.3110
  483TMC3    C3 7235   3.911   4.193   0.992 -0.1567 -1.2104 -0.8290
  483TMC3    C4 7236   3.771   3.982   1.081  0.3107 -0.7601  0.6306
  483TMC3    C5 7237   3.874   4.035   1.158 -0.4536  0.1732 -0.3282
  483TMC3    C6 7238   3.941   4.147   1.119 -0.0929 -0.0663  0.8333
  483TMC3     C 7239   3.644   3.967   0.874  0.3168 -0.7982  0.1958
  483TMC3     O 7240   3.591   3.867   0.915  0.5134 -0.0719 -0.1892
  483TMC3     H 7241   3.784   4.204   0.823 -1.8800 -2.8013 -0.5669
  483TMC3    H1 7242   3.725   3.891   1.119  1.5628 -1.1629  1.1539
  483TMC3    H2 7243   4.020   4.195   1.176 -0.0944 -0.1855  0.9358
  483TMC3    C7 7244   3.953   3.931   1.218 -0.1207  0.3951 -0.7464
  483TMC3    C8 7245   3.985   4.310   0.942  0.2474  0.4700 -0.8275
  483TMC3    O1 7246   3.933   3.819   1.178  0.1456 -0.1251 -0.2271
  483TMC3    O2 7247   3.990   4.326   0.821 -0.2370 -0.1460  0.1390
  484MPD2     C 7248   1.688   2.724  12.660 -0.0306  0.2650  1.2284
  484MPD2    C1 7249   1.780   2.635  12.612 -0.1720  0.2958 -0.3936
  484MPD2    C2 7250   1.890   2.681  12.541 -0.4499 -0.1592  0.4498
  484MPD2    C3 7251   1.908   2.819  12.512  0.8852 -0.3707 -0.7117
  484MPD2    C4 7252   1.805   2.898  12.557 -0.4320  0.1021  0.1759
  484MPD2    C5 7253   1.700   2.855  12.629  0.6321 -0.9074  0.3467
  484MPD2     H 7254   1.963   2.609  12.507  0.0091  1.1253 -1.2837
  484MPD2    H1 7255   1.807   3.006  12.543 -2.4883  0.0487 -0.5208
  484MPD2    H2 7256   1.604   2.698  12.725 -0.9023  0.1207  0.0440
  484MPD2    H3 7257   1.641   2.931  12.677  1.2580 -0.1023 -0.1668
  484MPD2     N 7258   2.012   2.873  12.439  0.3428  1.1688  0.3152
  484MPD2    H5 7259   1.999   2.969  12.408 -1.6651  0.8009  0.0535
  484MPD2    N1 7260   1.758   2.498  12.641  0.6929  0.1936 -0.2058
  484MPD2    H7 7261   1.673   2.472  12.690 -0.9180  1.5391 -2.2744
  485TMC3    C1 7262   2.220   2.884  12.332  0.9458  0.1971  0.1645
  485TMC3    C2 7263   2.356   2.882  12.359  0.3692 -0.2551 -0.4433
  485TMC3    C3 7264   2.438   2.956  12.276  0.3877  0.2232  0.5941
  485TMC3    C4 7265   2.168   2.957  12.229  1.2437  0.5270  1.0746
  485TMC3    C5 7266   2.254   3.030  12.154 -0.3658  0.2915 -0.2351
  485TMC3    C6 7267   2.390   3.035  12.178 -0.0007 -0.2825 -0.8628
  485TMC3     C 7268   2.133   2.816  12.425 -0.3758 -0.0735 -0.5402
  485TMC3     O 7269   2.189   2.730  12.494 -0.0397  0.1501  0.2661
  485TMC3     H 7270   2.384   2.831  12.451  1.5423  0.1933 -0.5486
  485TMC3    H1 7271   2.063   2.964  12.202  1.1956  1.9884  1.6264
  485TMC3    H2 7272   2.449   3.112  12.130  1.8695 -0.2449  1.5084
  485TMC3    C7 7273   2.226   3.017  12.010  0.7084 -0.1334 -0.0076
  485TMC3    C8 7274   2.547   2.882  12.226  0.0646  0.9515 -0.6395
  485TMC3    O1 7275   2.120   3.048  11.964  0.3409 -0.9175  0.1995
  485TMC3    O2 7276   2.572   2.914  12.108  0.0925  0.2636 -0.2786
  486MPD2     C 7277   4.049   1.168  12.985 -0.2970 -0.5695  0.2697
  486MPD2    C1 7278   3.935   1.097  12.950  0.5653  0.5584  0.2959
  486MPD2    C2 7279   3.829   1.169  12.887 -0.1987  0.1999  0.1371
  486MPD2    C3 7280   3.838   1.301  12.864 -0.2788  0.0658  1.0090
  486MPD2    C4 7281   3.959   1.365  12.890 -0.2211  0.0114 -0.0075
  486MPD2    C5 7282   4.057   1.295  12.951  0.2338 -0.3641  0.2090
  486MPD2     H 7283   3.740   1.124  12.844 -0.7471  0.7133  0.7378
  486MPD2    H1 7284   3.986   1.467  12.867 -2.3580  0.1883 -1.7621
  486MPD2    H2 7285   4.144   1.126  13.018 -0.4108 -2.4947 -1.9092
  486MPD2    H3 7286   4.145   1.350  12.983 -1.0855  1.5815  0.4615
  486MPD2     N 7287   3.727   1.370  12.806  0.1684  0.1363 -0.1598
  486MPD2    H5 7288   3.647   1.313  12.781  0.5050 -0.2621 -0.3239
  486MPD2    N1 7289   3.921   0.956  12.987  0.0927 -0.4726  0.3055
  486MPD2    H7 7290   3.988   0.912  13.049  0.7056 -0.0210 -0.0451
  487TMC3    C1 7291   3.844   0.743  12.997  0.3418 -0.3379  0.6812
  487TMC3    C2 7292   3.796   0.632  12.933 -0.5319  0.2392 -0.9973
  487TMC3    C3 7293   3.824   0.513  12.980  0.0723  0.4870 -0.0723
  487TMC3    C4 7294   3.915   0.734  13.117  0.0442  0.1003 -0.3180
  487TMC3    C5 7295   3.926   0.605  13.168 -0.3971 -0.1515 -0.1294
  487TMC3    C6 7296   3.881   0.492  13.101  0.3964  0.3533 -0.3535
  487TMC3     C 7297   3.824   0.871  12.941 -0.0257  0.4313  0.3035
  487TMC3     O 7298   3.744   0.895  12.856  0.3595  0.3652 -0.0844
  487TMC3     H 7299   3.769   0.651  12.829 -1.5503 -1.2937 -1.0218
  487TMC3    H1 7300   3.949   0.817  13.177 -1.9618  0.8734 -0.2444
  487TMC3    H2 7301   3.902   0.393  13.139  1.5461  0.1132 -1.6195
  487TMC3    C7 7302   3.930   0.599  13.315 -0.0450 -0.3116 -0.2042
  487TMC3    C8 7303   3.748   0.399  12.925  0.2016 -0.3883 -0.6145
  487TMC3    O1 7304   3.976   0.696  13.376  0.1085  0.2677  0.2696
  487TMC3    O2 7305   3.665   0.425  12.842 -0.4121  0.1246 -0.3745
  488MPD2     C 7306   4.123   2.444  16.506 -0.6832  0.2290 -0.3129
  488MPD2    C1 7307   4.052   2.552  16.553  0.5782  0.5363  0.3719
  488MPD2    C2 7308   4.012   2.550  16.688  0.2678  0.5975 -0.7258
  488MPD2    C3 7309   4.047   2.446  16.776  0.1118 -1.0054  0.6862
  488MPD2    C4 7310   4.120   2.344  16.719  0.6868 -0.2550  1.1401
  488MPD2    C5 7311   4.151   2.339  16.588 -0.0806  0.0113 -0.4249
  488MPD2     H 7312   3.939   2.627  16.712 -1.5995 -1.1632 -0.8105
  488MPD2    H1 7313   4.143   2.259  16.782  1.3697 -1.2970 -0.5045
  488MPD2    H2 7314   4.168   2.435  16.408  0.3843  0.3232  0.1725
  488MPD2    H3 7315   4.200   2.250  16.550 -0.5442  0.0439 -1.0946
  488MPD2     N 7316   3.995   2.444  16.906  0.1640 -0.0151 -0.2064
  488MPD2    H5 7317   3.950   2.530  16.934  1.7637  0.9212 -0.5446
  488MPD2    N1 7318   4.031   2.672  16.473 -0.0906  0.5254 -0.6025
  488MPD2    H7 7319   3.994   2.750  16.526 -0.1834  1.0628 -1.4648
  489TMC3    C1 7320   3.935   2.370  17.127 -0.2310 -0.2973 -0.4129
  489TMC3    C2 7321   3.856   2.482  17.128 -0.1120 -0.2608 -0.0347
  489TMC3    C3 7322   3.860   2.555  17.242  0.2917  0.0521  0.6726
  489TMC3    C4 7323   4.008   2.326  17.236  0.0569  0.2300  0.4392
  489TMC3    C5 7324   4.007   2.407  17.350  0.3393  0.1187 -0.2909
  489TMC3    C6 7325   3.940   2.525  17.347 -0.2373  0.2596  0.1821
  489TMC3     C 7326   4.008   2.344  17.004  0.3957  0.1601  0.1237
  489TMC3     O 7327   4.070   2.239  16.997 -1.0238  0.2564 -0.1490
  489TMC3     H 7328   3.812   2.513  17.034 -0.0021  1.4603  0.4812
  489TMC3    H1 7329   4.052   2.227  17.233 -1.1925 -0.3207  0.2702
  489TMC3    H2 7330   3.941   2.587  17.436  0.2974  1.1107 -0.4121
  489TMC3    C7 7331   4.067   2.367  17.472 -0.7090  0.2337  0.5272
  489TMC3    C8 7332   3.863   2.692  17.203  0.1265  0.0074  0.0298
  489TMC3    O1 7333   4.041   2.436  17.566  0.5169 -0.4644  0.3789
  489TMC3    O2 7334   3.878   2.719  17.085 -0.3604  0.1613 -0.4393
  490MPD2     C 7335   4.595   2.210   0.209  0.0352  0.0933  0.0481
  490MPD2    C1 7336   4.611   2.208   0.073 -0.1884  0.0860  0.4876
  490MPD2    C2 7337   4.639   2.326   0.004 -0.1194 -0.5062  0.7392
  490MPD2    C3 7338   4.654   2.448   0.067  0.9366  0.8156  0.1241
  490MPD2    C4 7339   4.637   2.450   0.202  0.0784 -0.8545  0.0912
  490MPD2    C5 7340   4.622   2.331   0.268  0.3110  0.2578  0.0527
  490MPD2     H 7341   4.665   2.317  17.639 -1.0790  1.0337  0.3676
  490MPD2    H1 7342   4.640   2.538   0.265 -0.8249  0.7862 -2.1745
  490MPD2    H2 7343   4.586   2.121   0.270 -0.9866  0.3583  0.2845
  490MPD2    H3 7344   4.614   2.343   0.376 -0.0140  0.3818  0.0163
  490MPD2     N 7345   4.694   2.567   0.001  0.6132 -0.5660 -0.2746
  490MPD2    H5 7346   4.728   2.642   0.061 -0.4017 -1.1321  1.0256
  490MPD2    N1 7347   4.606   2.076   0.017  0.7974 -0.4144  0.0119
  490MPD2    H7 7348   4.587   1.994   0.073  0.1172  0.3163  0.8407
  491TMC3    C1 7349   4.614   1.912  17.593 -0.0222  0.5131  0.6697
  491TMC3    C2 7350   4.594   1.820  17.699  0.5249 -0.3533  0.4833
  491TMC3    C3 7351   4.580   1.692  17.658 -0.0135 -0.4671  0.4264
  491TMC3    C4 7352   4.644   1.871  17.465 -0.0316 -0.3348 -0.0562
  491TMC3    C5 7353   4.651   1.735  17.448  0.2950  0.0811  0.4592
  491TMC3    C6 7354   4.614   1.645  17.540  0.2477 -0.4287  0.6428
  491TMC3     C 7355   4.630   2.052  17.621  0.3994  0.4857 -0.4323
  491TMC3     O 7356   4.662   2.132  17.531 -0.5504 -0.5434  0.1526
  491TMC3     H 7357   4.561   1.838   0.061 -0.2540  0.7716  0.0232
  491TMC3    H1 7358   4.669   1.942  17.387 -1.3598 -0.0759 -0.2551
  491TMC3    H2 7359   4.594   1.540  17.520  1.3490 -0.5379  0.0568
  491TMC3    C7 7360   4.659   1.694  17.310  0.0432 -0.0566 -0.6485
  491TMC3    C8 7361   4.512   1.595   0.009  0.5920  0.2204  0.1112
  491TMC3    O1 7362   4.614   1.769  17.224  0.4524 -0.3849  0.3878
  491TMC3    O2 7363   4.426   1.638   0.082  0.1843 -0.0045  0.3583
  492MPD2     C 7364   4.648   1.401  10.818 -0.1074 -0.3581 -1.1327
  492MPD2    C1 7365   0.019   1.466  10.887 -0.0614 -0.7728 -0.5684
  492MPD2    C2 7366   0.034   1.432  11.023 -0.2956  0.4256 -0.2618
  492MPD2    C3 7367   4.687   1.332  11.080  1.0906  0.0618 -0.7059
  492MPD2    C4 7368   4.578   1.281  11.007 -0.6742  0.4525  0.3735
  492MPD2    C5 7369   4.560   1.313  10.870  0.0802  0.7419  0.0089
  492MPD2     H 7370   0.104   1.490  11.081  1.1578  2.1784 -3.7169
  492MPD2    H1 7371   4.518   1.206  11.057 -0.8184  0.6017  0.4274
  492MPD2    H2 7372   4.620   1.430  10.717  3.0642  0.3224 -1.8270
  492MPD2    H3 7373   4.482   1.270  10.809  0.0162 -1.1597  1.4334
  492MPD2     N 7374   4.675   1.316  11.220 -0.0738 -0.7969  0.9278
  492MPD2    H5 7375   4.592   1.276  11.261  0.3077 -2.5472 -0.0190
  492MPD2    N1 7376   0.094   1.569  10.823  0.1621  0.2366  0.2111
  492MPD2    H7 7377   0.069   1.597  10.729 -1.3927  0.2222  0.6177
  493TMC3    C1 7378   0.224   1.769  10.813 -0.3604 -0.6429 -0.4224
  493TMC3    C2 7379   0.339   1.829  10.848 -0.2899  0.3075 -0.0657
  493TMC3    C3 7380   0.362   1.955  10.805 -0.4502 -0.1300 -0.2950
  493TMC3    C4 7381   0.133   1.824  10.729 -0.0155  0.0322  0.0541
  493TMC3    C5 7382   0.156   1.955  10.698  0.2418 -0.0190 -0.1451
  493TMC3    C6 7383   0.272   2.024  10.726 -0.2948 -0.4812  0.3330
  493TMC3     C 7384   0.200   1.641  10.880  0.3420 -0.9249  0.8070
  493TMC3     O 7385   0.276   1.602  10.965  0.0225 -0.3778  0.4616
  493TMC3     H 7386   0.400   1.795  10.930  0.8329  1.0784 -0.5809
  493TMC3    H1 7387   0.035   1.777  10.723  0.8462 -1.7084 -0.4047
  493TMC3    H2 7388   0.268   2.132  10.731 -0.0662 -0.4420 -0.3527
  493TMC3    C7 7389   0.045   2.042  10.658 -0.1499 -0.4745  0.1438
  493TMC3    C8 7390   0.491   2.019  10.865 -0.3614 -0.5887  0.0189
  493TMC3    O1 7391   0.073   2.155  10.628 -1.0262 -0.7747  0.1970
  493TMC3    O2 7392   0.553   1.946  10.947  0.5316  0.0848 -0.1798
  494TMC3    C1 7393   0.875   3.994   0.602  0.2406 -0.5487  0.5058
  494TMC3    C2 7394   0.823   3.871   0.595  0.5465 -0.4629 -0.1397
  494TMC3    C3 7395   0.807   3.823   0.466 -0.1850 -0.4961  0.1238
  494TMC3    C4 7396   0.927   4.063   0.499 -0.0689  0.2623 -0.8774
  494TMC3    C5 7397   0.926   4.001   0.378  0.1347  0.1615 -0.3816
  494TMC3    C6 7398   0.863   3.880   0.362  0.1465 -0.6226 -0.7368
  494TMC3     C 7399   0.901   4.043   0.734  0.2805  0.2903  0.3462
  494TMC3     O 7400   0.893   3.967   0.829 -0.2218  0.1799 -0.4099
  494TMC3     H 7401   0.792   3.820   0.685  0.3973 -3.0310 -1.6496
  494TMC3    H1 7402   0.996   4.145   0.514 -1.4870  1.5144 -1.2178
  494TMC3    H2 7403   0.854   3.847   0.259  0.4962 -1.3724 -0.5249
  494TMC3    C7 7404   0.981   4.063   0.259  0.2078  0.0023 -0.4910
  494TMC3    C8 7405   0.756   3.685   0.457  0.8718 -0.3732 -0.2388
  494TMC3    O1 7406   0.984   3.995   0.157 -0.1610 -0.2727 -0.3189
  494TMC3    O2 7407   0.773   3.621   0.557 -0.0248 -0.4511 -0.4345
  495TMC3    C1 7408   4.234   1.401  14.842  0.1982 -0.0519 -0.3855
  495TMC3    C2 7409   4.195   1.383  14.709 -0.6498  0.1934  0.3104
  495TMC3    C3 7410   4.063   1.355  14.686  0.0320 -0.0934  0.4636
  495TMC3    C4 7411   4.145   1.381  14.943  0.1321  0.0153  0.0386
  495TMC3    C5 7412   4.013   1.355  14.912  0.1158 -0.1280 -0.4181
  495TMC3    C6 7413   3.976   1.353  14.783  0.1402 -0.5213 -0.4868
  495TMC3     C 7414   4.369   1.353  14.878  0.0437  0.1313  0.0724
  495TMC3     O 7415   4.385   1.301  14.989  0.3517  0.3154 -0.1021
  495TMC3     H 7416   4.257   1.409  14.624 -0.4430  2.8046  1.2779
  495TMC3    H1 7417   4.178   1.367  15.045 -1.4533 -0.7919  0.4283
  495TMC3    H2 7418   3.872   1.340  14.756  0.7604  0.6686 -3.4668
  495TMC3    C7 7419   3.939   1.294  15.021 -0.2002 -0.4806  0.5500
  495TMC3    C8 7420   4.007   1.313  14.557 -0.6568  0.4388  0.3143
  495TMC3    O1 7421   3.998   1.293  15.128  0.5110  0.3821  0.0970
  495TMC3    O2 7422   3.883   1.312  14.543 -0.4059  0.7621 -0.3861
  496MPD2     C 7423   1.566   1.323  15.086  0.2071 -0.2812 -0.1927
  496MPD2    C1 7424   1.620   1.344  15.208 -0.0079  0.6562  0.7809
  496MPD2    C2 7425   1.576   1.282  15.322  0.4573  0.0914  0.1577
  496MPD2    C3 7426   1.485   1.175  15.315 -0.2119 -0.2516 -0.1041
  496MPD2    C4 7427   1.441   1.152  15.195  0.1704 -0.1392 -0.4892
  496MPD2    C5 7428   1.473   1.223  15.082  0.6293  0.2932 -0.9893
  496MPD2     H 7429   1.623   1.303  15.417 -0.1908 -1.8426  0.9069
  496MPD2    H1 7430   1.366   1.076  15.175  0.4967 -0.7961  0.7848
  496MPD2    H2 7431   1.606   1.367  14.995  2.8053  1.2548  1.6904
  496MPD2    H3 7432   1.420   1.199  14.990  1.5967 -0.2949 -1.3887
  496MPD2     N 7433   1.450   1.091  15.419  0.4475  0.3186 -0.6629
  496MPD2    H5 7434   1.402   1.006  15.392 -1.0451  0.7734  0.5629
  496MPD2    N1 7435   1.731   1.439  15.216  0.4348  0.3546  0.0683
  496MPD2    H7 7436   1.775   1.459  15.127  1.8427 -3.6093 -0.1255
  497TMC3    C1 7437   1.471   1.004  15.641 -0.8205  0.3384  0.3075
  497TMC3    C2 7438   1.511   0.883  15.585  0.4322  0.0115 -0.6455
  497TMC3    C3 7439   1.555   0.785  15.674  0.9480 -0.5344 -0.2766
  497TMC3    C4 7440   1.493   1.028  15.775  0.3858 -0.1046  0.0036
  497TMC3    C5 7441   1.547   0.928  15.853  0.1425 -0.1476  0.4997
  497TMC3    C6 7442   1.573   0.803  15.806  0.6714  0.3634  0.6859
  497TMC3     C 7443   1.476   1.122  15.554 -0.0840 -0.1571 -0.0286
  497TMC3     O 7444   1.527   1.222  15.610 -0.1482  0.3098  0.7504
  497TMC3     H 7445   1.517   0.864  15.479 -2.1644  0.2409 -0.8338
  497TMC3    H1 7446   1.456   1.117  15.825 -2.2842 -1.1919 -0.0200
  497TMC3    H2 7447   1.606   0.730  15.879 -1.4277  0.2844  1.5556
  497TMC3    C7 7448   1.553   0.923  16.002 -0.6519 -0.5429  0.4413
  497TMC3    C8 7449   1.615   0.665  15.624  0.1830  0.3326  0.0354
  497TMC3    O1 7450   1.463   0.863  16.059  0.1449 -0.7768  0.2321
  497TMC3    O2 7451   1.627   0.575  15.706  0.2389 -0.0417  0.2184
  498MPD2     C 7452   3.014   2.844  10.685  0.2003 -0.7496 -1.3063
  498MPD2    C1 7453   3.041   2.828  10.555 -0.0399  0.2001 -0.1373
  498MPD2    C2 7454   2.978   2.727  10.483 -0.1071  0.8463 -0.3584
  498MPD2    C3 7455   2.900   2.639  10.550  0.4830  0.4869 -0.0633
  498MPD2    C4 7456   2.884   2.656  10.684  0.0936 -0.1670  0.1257
  498MPD2    C5 7457   2.926   2.761  10.752  0.2829 -0.2387 -0.1902
  498MPD2     H 7458   2.994   2.727  10.375  1.1224  0.0250 -0.1808
  498MPD2    H1 7459   2.824   2.592  10.748 -1.5697 -0.0583 -1.3201
  498MPD2    H2 7460   3.068   2.917  10.745  0.4839 -1.2139 -0.9988
  498MPD2    H3 7461   2.903   2.776  10.857 -1.0467 -0.3410 -0.4663
  498MPD2     N 7462   2.840   2.526  10.476 -0.2133  0.1356 -0.1703
  498MPD2    H5 7463   2.840   2.516  10.375  0.0478  0.9978 -0.2573
  498MPD2    N1 7464   3.131   2.917  10.482 -0.5590 -0.0249 -0.2812
  498MPD2    H7 7465   3.149   2.903  10.383  1.3929 -0.6980  0.1718
  499TMC3    C1 7466   3.290   3.076  10.447  0.1202 -0.2076 -0.1862
  499TMC3    C2 7467   3.425   3.084  10.451 -0.6829 -0.1710 -0.1425
  499TMC3    C3 7468   3.496   3.146  10.349 -0.9443 -0.4563  0.4145
  499TMC3    C4 7469   3.224   3.142  10.348 -0.0757  0.0845 -0.0016
  499TMC3    C5 7470   3.299   3.208  10.252 -0.1668  0.1254 -0.0754
  499TMC3    C6 7471   3.436   3.205  10.244 -0.2225 -0.7038  0.3671
  499TMC3     C 7472   3.222   2.995  10.540 -0.2226  0.6204  0.1091
  499TMC3     O 7473   3.270   2.976  10.648  0.3641  0.5235 -0.4904
  499TMC3     H 7474   3.478   3.040  10.535 -2.0055 -2.7405 -0.6823
  499TMC3    H1 7475   3.118   3.155  10.365  0.2912 -0.6981  2.9924
  499TMC3    H2 7476   3.505   3.257  10.179 -1.3223  0.7430  0.3471
  499TMC3    C7 7477   3.238   3.282  10.138  1.0112 -0.1640 -0.3600
  499TMC3    C8 7478   3.640   3.118  10.339 -0.7714  0.0497  0.3305
  499TMC3    O1 7479   3.307   3.354  10.073  0.9064 -0.3521 -0.8874
  499TMC3    O2 7480   3.695   3.088  10.442  0.2200 -0.1798  0.0331
  500MPD2     C 7481   4.371   3.327  10.787 -0.2291  0.3922  0.0041
  500MPD2    C1 7482   4.392   3.318  10.653  0.3602 -0.5427  0.7146
  500MPD2    C2 7483   4.288   3.348  10.568  0.2436 -0.1708 -0.7142
  500MPD2    C3 7484   4.170   3.403  10.611 -0.2226 -0.1265 -0.2570
  500MPD2    C4 7485   4.152   3.406  10.746  0.0537  0.0497  0.4537
  500MPD2    C5 7486   4.253   3.378  10.835 -0.1675 -0.0728  0.6548
  500MPD2     H 7487   4.311   3.328  10.464  1.0893  2.2449 -0.9976
  500MPD2    H1 7488   4.061   3.447  10.787  1.7974  2.9571  1.4032
  500MPD2    H2 7489   4.446   3.295  10.858  1.7894  0.6269 -2.0414
  500MPD2    H3 7490   4.233   3.413  10.936  1.5545  0.9492  0.6454
  500MPD2     N 7491   4.073   3.453  10.528  0.2994  0.6668 -0.0119
  500MPD2    H5 7492   3.991   3.491  10.574 -1.1889 -1.7587 -0.6682
  500MPD2    N1 7493   4.508   3.260  10.592  0.4320 -0.2624  0.0479
  500MPD2    H7 7494   4.507   3.255  10.491 -0.3600  2.4024 -0.0933
  501TMC3    C1 7495   0.002   3.191  10.570 -0.4686 -0.4422 -1.0237
  501TMC3    C2 7496   0.018   3.281  10.473  0.3364 -0.2498 -0.8182
  501TMC3    C3 7497   0.140   3.300  10.425  0.4981  0.6873  0.4509
  501TMC3    C4 7498   0.107   3.125  10.635  0.1689 -0.1166 -0.0982
  501TMC3    C5 7499   0.234   3.151  10.583  0.1514  0.5240 -0.5115
  501TMC3    C6 7500   0.254   3.236  10.479 -0.0150 -0.2507 -0.8413
  501TMC3     C 7501   4.619   3.216  10.657 -0.4937  0.5441  0.3724
  501TMC3     O 7502   4.639   3.207  10.778  0.6701 -0.1438 -0.6044
  501TMC3     H 7503   4.669   3.344  10.446  1.7812  1.3792 -1.5021
  501TMC3    H1 7504   0.086   3.060  10.719  1.3778 -0.2819  0.0718
  501TMC3    H2 7505   0.354   3.243  10.436  1.0237 -1.0916  1.4599
  501TMC3    C7 7506   0.340   3.153  10.685  0.1549 -0.1675 -0.3524
  501TMC3    C8 7507   0.166   3.427  10.368  0.9126  0.1113 -0.5628
  501TMC3    O1 7508   0.351   3.060  10.768 -0.2616  0.1501  0.1279
  501TMC3    O2 7509   0.280   3.468  10.373 -0.5332  0.1819 -0.0543
  502TMC3    C1 7510   3.933   2.075  14.845 -0.2918  0.1621 -0.2153
  502TMC3    C2 7511   3.923   2.191  14.779 -0.2712 -0.0691 -0.2882
  502TMC3    C3 7512   3.802   2.251  14.778 -0.2605 -0.0368  0.1863
  502TMC3    C4 7513   3.833   2.014  14.905  0.1630  0.7343 -0.4948
  502TMC3    C5 7514   3.705   2.066  14.881 -0.0807  0.3057 -0.4697
  502TMC3    C6 7515   3.687   2.173  14.811 -0.2760  0.4075  0.1942
  502TMC3     C 7516   4.062   2.054  14.911 -0.2059 -0.7578  0.2817
  502TMC3     O 7517   4.160   2.095  14.849  0.6577 -0.1586 -0.2637
  502TMC3     H 7518   4.016   2.246  14.764 -0.7865  1.4277  2.0219
  502TMC3    H1 7519   3.852   1.920  14.954  0.3865  0.3787 -1.2684
  502TMC3    H2 7520   3.593   2.219  14.783  0.2205  1.2454 -0.1140
  502TMC3    C7 7521   3.601   1.983  14.928  0.5379 -0.3168 -0.2367
  502TMC3    C8 7522   3.797   2.395  14.756 -0.3040  0.2037  0.1419
  502TMC3    O1 7523   3.630   1.866  14.944  0.2548  1.0719  0.0722
  502TMC3    O2 7524   3.892   2.444  14.698 -0.0583  0.2081  0.4564
  503MPD2     C 7525   0.943   3.012  16.782  0.5319  0.6540 -0.2608
  503MPD2    C1 7526   0.941   3.026  16.922 -0.6271 -0.0750  0.0192
  503MPD2    C2 7527   0.950   2.905  16.992 -0.0781  0.5951 -0.1825
  503MPD2    C3 7528   0.959   2.782  16.926 -0.5836 -0.3767  0.3679
  503MPD2    C4 7529   0.946   2.772  16.789 -0.1409 -0.2183  0.0966
  503MPD2    C5 7530   0.944   2.892  16.720 -0.0348 -0.4126 -0.6545
  503MPD2     H 7531   0.975   2.911  17.098  1.6572  0.4231 -0.5919
  503MPD2    H1 7532   0.945   2.678  16.735  0.7356  0.2626 -0.7412
  503MPD2    H2 7533   0.946   3.102  16.722 -3.7082  0.2411 -1.0730
  503MPD2    H3 7534   0.942   2.878  16.612  0.3734 -0.7875 -0.6135
  503MPD2     N 7535   0.984   2.662  17.005  0.1088  0.2522 -0.1914
  503MPD2    H5 7536   0.959   2.672  17.103 -0.4410  1.2784 -0.4310
  503MPD2    N1 7537   0.955   3.151  16.989 -0.0090 -0.7058  0.0887
  503MPD2    H7 7538   0.922   3.148  17.085 -0.2182  1.9008  0.0945
  504TMC3    C1 7539   1.042   2.436  17.057 -0.1614 -0.0163  0.1935
  504TMC3    C2 7540   0.992   2.464  17.178  0.0593 -0.2471 -0.2796
  504TMC3    C3 7541   1.068   2.419  17.286 -0.2893  0.4981 -0.3889
  504TMC3    C4 7542   1.147   2.352  17.037 -0.1629 -0.0708  0.7183
  504TMC3    C5 7543   1.214   2.301  17.142  0.0780 -0.3524  0.7717
  504TMC3    C6 7544   1.174   2.340  17.263 -0.0401  0.6702 -0.0538
  504TMC3     C 7545   1.025   2.541  16.952 -0.4176 -0.3005  0.0316
  504TMC3     O 7546   1.079   2.514  16.845 -0.1911 -0.3427 -0.5712
  504TMC3     H 7547   0.899   2.515  17.198 -0.8260 -1.7352 -0.6535
  504TMC3    H1 7548   1.180   2.324  16.938 -0.8892  1.7777 -0.0563
  504TMC3    H2 7549   1.229   2.294  17.345  1.4178 -0.1022 -1.4545
  504TMC3    C7 7550   1.349   2.286  17.125 -0.0596 -0.2392  0.0783
  504TMC3    C8 7551   0.998   2.414  17.411  0.6183  0.6949  0.4310
  504TMC3    O1 7552   1.388   2.213  17.034  0.4714 -0.6275  0.1864
  504TMC3    O2 7553   0.876   2.416  17.409 -0.3628 -0.3832  0.0058
  505MPD2     C 7554   2.123   1.417   9.969  0.0074  0.5101  0.6011
  505MPD2    C1 7555   2.198   1.336  10.050  0.6873 -0.4774  0.1967
  505MPD2    C2 7556   2.157   1.315  10.183  0.3948  0.4963 -0.4075
  505MPD2    C3 7557   2.038   1.365  10.225 -0.2956 -0.1160  0.3040
  505MPD2    C4 7558   1.957   1.439  10.136  0.4388 -0.6438  0.0742
  505MPD2    C5 7559   1.999   1.459  10.009 -0.3229  0.2274  0.0566
  505MPD2     H 7560   2.206   1.255  10.259  0.7331 -0.4502 -1.3600
  505MPD2    H1 7561   1.860   1.480  10.162  0.1212 -1.2990 -0.0623
  505MPD2    H2 7562   2.161   1.437   9.869  1.3095  0.8451  1.1627
  505MPD2    H3 7563   1.946   1.523   9.940  1.4032  1.2925 -0.2791
  505MPD2     N 7564   2.010   1.342  10.360 -0.2328 -0.4884  0.6117
  505MPD2    H5 7565   2.074   1.277  10.405  2.1710  2.4287  1.3870
  505MPD2    N1 7566   2.318   1.283   9.995  0.0036 -0.1913 -0.1371
  505MPD2    H7 7567   2.348   1.296   9.899  0.1556 -1.4158 -0.2558
  506TMC3    C1 7568   2.530   1.168   9.994  0.4914  0.5654  0.3521
  506TMC3    C2 7569   2.595   1.288   9.964  0.4759 -0.2367  0.0175
  506TMC3    C3 7570   2.720   1.307  10.005 -0.1158  0.4428 -0.5961
  506TMC3    C4 7571   2.598   1.073  10.063 -0.1286 -0.5551 -0.1659
  506TMC3    C5 7572   2.717   1.096  10.117 -0.1225 -0.4676  0.3105
  506TMC3    C6 7573   2.781   1.213  10.081 -0.3756  0.0439 -0.2019
  506TMC3     C 7574   2.401   1.191  10.059 -0.6390  0.0273 -0.5978
  506TMC3     O 7575   2.398   1.145  10.168  0.8239  0.2509 -0.6366
  506TMC3     H 7576   2.543   1.373   9.919 -0.7794 -0.6621  0.6504
  506TMC3    H1 7577   2.542   0.987  10.100 -1.2516  0.6558  0.9373
  506TMC3    H2 7578   2.888   1.222  10.101 -0.3713  1.8445 -1.1335
  506TMC3    C7 7579   2.737   1.062  10.252 -0.0960  1.0115  0.4862
  506TMC3    C8 7580   2.798   1.431   9.977 -0.7365  0.6565 -0.7227
  506TMC3    O1 7581   2.844   1.090  10.300  0.3230 -0.0856  0.2561
  506TMC3    O2 7582   2.919   1.423   9.972  0.2333 -0.0981 -0.0326
  507TMC3    C1 7583   2.120   2.139  14.287  0.0677 -0.0662 -0.0625
  507TMC3    C2 7584   2.045   2.150  14.169  0.4831 -0.0582 -0.0934
  507TMC3    C3 7585   2.112   2.176  14.049 -0.6258 -0.1416  0.5326
  507TMC3    C4 7586   2.257   2.162  14.289  0.2809  0.1154  0.3081
  507TMC3    C5 7587   2.320   2.185  14.168 -0.0466 -0.2591 -0.5777
  507TMC3    C6 7588   2.250   2.184  14.051 -0.1695 -0.0779  0.3759
  507TMC3     C 7589   2.055   2.218  14.388 -0.4903  0.2190  0.3762
  507TMC3     O 7590   1.944   2.260  14.351  0.2799 -0.1770  0.1083
  507TMC3     H 7591   1.936   2.146  14.169  0.5143 -0.8863  0.9734
  507TMC3    H1 7592   2.308   2.147  14.383  0.8885  2.8294  0.4288
  507TMC3    H2 7593   2.297   2.204  13.956  0.4034  0.0235  0.6763
  507TMC3    C7 7594   2.409   2.296  14.174  0.3874  0.5336  0.9105
  507TMC3    C8 7595   2.055   2.281  13.961 -0.0773  0.3481  0.4023
  507TMC3    O1 7596   2.446   2.337  14.067  0.6755  0.0667  0.8354
  507TMC3    O2 7597   2.139   2.354  13.913 -0.2010  0.0938  0.7155
  508MPD2     C 7598   3.172   4.487  15.926  0.2430 -0.2773 -0.7324
  508MPD2    C1 7599   3.149   4.596  16.009  0.9083 -0.3756  0.5005
  508MPD2    C2 7600   3.135   4.724  15.947  0.2829  0.1066 -0.1699
  508MPD2    C3 7601   3.134   0.002  15.812 -0.3204  0.6140  0.1200
  508MPD2    C4 7602   3.143   4.628  15.732 -0.7434 -0.2944 -0.2831
  508MPD2    C5 7603   3.166   4.505  15.791 -0.0660 -0.7090  0.0510
  508MPD2     H 7604   3.130   0.075  16.012  2.3626  0.8192 -0.9599
  508MPD2    H1 7605   3.123   4.627  15.626 -0.0263 -0.8960 -0.4121
  508MPD2    H2 7606   3.183   4.386  15.965  0.0367  0.1146  0.3316
  508MPD2    H3 7607   3.170   4.417  15.727 -1.0559 -2.2308  2.0741
  508MPD2     N 7608   3.117   0.128  15.759 -0.1006 -0.0019 -0.6578
  508MPD2    H5 7609   3.119   0.199  15.831  0.2618 -2.2986  1.6036
  508MPD2    N1 7610   3.147   4.582  16.152  0.8319 -0.6510  1.0779
  508MPD2    H7 7611   3.148   4.482  16.170 -0.4240 -0.6948  0.8993
  509TMC3    C1 7612   2.950   0.461  15.478 -0.5453 -0.1669 -0.3311
  509TMC3    C2 7613   3.045   0.549  15.510 -0.4195  0.8357 -0.1460
  509TMC3    C3 7614   3.159   0.498  15.572 -0.1335 -0.5144  0.2133
  509TMC3    C4 7615   2.953   0.335  15.530 -0.0055 -0.2927  0.0144
  509TMC3    C5 7616   3.055   0.295  15.615  0.0390  0.2181 -0.7072
  509TMC3    C6 7617   3.166   0.372  15.625 -0.4079  0.0415  0.1175
  509TMC3     C 7618   2.831   0.492  15.396  0.0870 -0.4404 -0.4048
  509TMC3     O 7619   2.730   0.426  15.414  0.4764 -0.5994  0.2157
  509TMC3     H 7620   3.043   0.652  15.477 -0.4737  1.1081  0.7206
  509TMC3    H1 7621   2.880   0.261  15.500 -0.0942 -0.1504 -0.1197
  509TMC3    H2 7622   3.258   0.335  15.668 -0.8533 -0.6968  0.4343
  509TMC3    C7 7623   3.067   0.158  15.630 -0.0894 -0.0766  0.0383
  509TMC3    C8 7624   3.271   0.589  15.607 -0.3204  0.3575  0.1073
  509TMC3    O1 7625   3.023   0.087  15.540  0.2909  0.1195 -0.0505
  509TMC3    O2 7626   3.378   0.536  15.616 -0.1754 -0.0537 -0.5785
  510MPD2     C 7627   0.978   1.833  14.555  0.7789 -0.3876 -0.4060
  510MPD2    C1 7628   1.045   1.730  14.607  0.3198 -0.2769  0.0703
  510MPD2    C2 7629   1.158   1.682  14.537  0.7577 -0.4621  0.2395
  510MPD2    C3 7630   1.206   1.735  14.425  0.1321  1.2041 -0.3141
  510MPD2    C4 7631   1.128   1.828  14.357 -0.0258  0.1442 -0.5960
  510MPD2    C5 7632   1.011   1.867  14.423 -0.1011 -0.8751  0.6348
  510MPD2     H 7633   1.220   1.606  14.584  2.1774 -0.1824 -1.2028
  510MPD2    H1 7634   1.137   1.857  14.253  1.2573  1.1736 -0.1997
  510MPD2    H2 7635   0.877   1.855  14.589  0.9929  0.1612 -0.1227
  510MPD2    H3 7636   0.942   1.939  14.379  0.8775 -0.8851 -0.8849
  510MPD2     N 7637   1.332   1.692  14.375 -0.3121  0.3072  0.1456
  510MPD2    H5 7638   1.390   1.638  14.439  1.0882  1.1470 -0.4220
  510MPD2    N1 7639   1.008   1.664  14.725 -0.4099 -0.2366  0.1654
  510MPD2    H7 7640   1.067   1.588  14.755 -0.4778 -0.4876 -0.3376
  511TMC3    C1 7641   0.895   1.591  14.910 -0.2682  0.0429 -0.4398
  511TMC3    C2 7642   0.852   1.632  15.031 -0.0628  0.1785 -0.4998
  511TMC3    C3 7643   0.795   1.539  15.116  0.0473  0.5005  0.4268
  511TMC3    C4 7644   0.855   1.464  14.862 -0.6109 -0.3029 -0.9044
  511TMC3    C5 7645   0.792   1.378  14.946 -0.4860 -0.1553 -0.1202
  511TMC3    C6 7646   0.755   1.422  15.072  0.2010 -0.8427 -0.0280
  511TMC3     C 7647   0.912   1.696  14.811 -0.9319  0.4746 -0.4044
  511TMC3     O 7648   0.845   1.800  14.817 -0.3397  0.2425  0.2348
  511TMC3     H 7649   0.882   1.729  15.070  0.4248  0.6210 -1.9797
  511TMC3    H1 7650   0.851   1.447  14.755  1.8722 -1.0251 -0.8994
  511TMC3    H2 7651   0.685   1.363  15.130 -1.3520  2.3749  1.3769
  511TMC3    C7 7652   0.733   1.261  14.888 -0.2999  0.1728 -0.4553
  511TMC3    C8 7653   0.754   1.583  15.251  0.3338  0.0983  0.9821
  511TMC3    O1 7654   0.709   1.253  14.770  0.9779 -0.4926 -0.0099
  511TMC3    O2 7655   0.740   1.702  15.268  0.2216  0.4802 -0.0612
  512TMC3    C1 7656   4.259   0.808  13.315 -0.2510  0.0930  0.6220
  512TMC3    C2 7657   4.324   0.770  13.433  1.0522 -0.1455  0.2048
  512TMC3    C3 7658   4.354   0.635  13.441  0.2003  0.1323 -0.0653
  512TMC3    C4 7659   4.222   0.728  13.211  0.3396  0.3887 -0.2905
  512TMC3    C5 7660   4.267   0.597  13.219  0.3039 -0.2645  0.0119
  512TMC3    C6 7661   4.326   0.552  13.333  0.5663  0.3461 -0.2456
  512TMC3     C 7662   4.204   0.944  13.303  0.0527  0.1762  0.3564
  512TMC3     O 7663   4.119   0.963  13.216 -0.1249  0.0867  0.1368
  512TMC3     H 7664   4.341   0.843  13.511 -1.1417 -1.3153  1.7980
  512TMC3    H1 7665   4.182   0.776  13.122  0.1912 -1.3646 -1.1742
  512TMC3    H2 7666   4.338   0.446  13.350  3.1327  0.6445 -0.1955
  512TMC3    C7 7667   4.281   0.522  13.096  0.1159 -0.3059 -0.1072
  512TMC3    C8 7668   4.457   0.584  13.523  0.1541 -0.2349  0.1879
  512TMC3    O1 7669   4.202   0.557  13.009  0.0434 -0.1566 -0.1027
  512TMC3    O2 7670   4.474   0.465  13.537  0.5594 -0.3921 -0.0849
  513MPD2     C 7671   1.184   1.411  13.267 -0.3868 -0.5903 -0.0346
  513MPD2    C1 7672   1.240   1.313  13.190 -0.2405  0.7949  0.5118
  513MPD2    C2 7673   1.291   1.202  13.255 -0.3419  0.1737 -0.6230
  513MPD2    C3 7674   1.285   1.192  13.395  0.6787  0.6510 -0.2533
  513MPD2    C4 7675   1.230   1.287  13.469  0.9621 -0.0523 -0.6423
  513MPD2    C5 7676   1.179   1.399  13.403  0.1557  0.6758  0.5435
  513MPD2     H 7677   1.337   1.122  13.197  0.7888  0.4323 -0.0826
  513MPD2    H1 7678   1.228   1.278  13.577  1.6006  0.2925 -0.6023
  513MPD2    H2 7679   1.156   1.507  13.224  0.2595  0.3264  1.6014
  513MPD2    H3 7680   1.147   1.491  13.450 -1.5297  0.2979  0.1243
  513MPD2     N 7681   1.352   1.074  13.442 -1.2585 -0.3114 -0.2971
  513MPD2    H5 7682   1.376   1.011  13.366  0.7913  1.9562 -1.5098
  513MPD2    N1 7683   1.266   1.319  13.048  0.0446  0.2104 -0.3516
  513MPD2    H7 7684   1.300   1.233  13.007 -0.4023 -0.2421  0.2290
  514TMC3    C1 7685   1.278   1.399  12.836 -0.5733 -0.5803  0.7272
  514TMC3    C2 7686   1.369   1.475  12.773  0.3161  0.4922  0.3738
  514TMC3    C3 7687   1.455   1.411  12.680 -0.8041  0.1008 -0.4392
  514TMC3    C4 7688   1.262   1.264  12.810 -1.0862 -0.3167  0.3720
  514TMC3    C5 7689   1.361   1.199  12.735 -0.3125 -0.4268  0.4346
  514TMC3    C6 7690   1.449   1.273  12.659 -0.0713  0.7342 -0.0253
  514TMC3     C 7691   1.247   1.429  12.969  0.5981  0.0001  0.9585
  514TMC3     O 7692   1.223   1.545  13.001 -0.3358  0.3766 -0.0161
  514TMC3     H 7693   1.381   1.579  12.802  1.7076 -0.0309  1.7060
  514TMC3    H1 7694   1.180   1.206  12.851 -0.4760 -1.5784 -0.1843
  514TMC3    H2 7695   1.533   1.223  12.612  1.5743  0.4289  3.1747
  514TMC3    C7 7696   1.417   1.091  12.818  0.5231  0.1979  0.1163
  514TMC3    C8 7697   1.591   1.465  12.680  0.1110  0.2382 -0.2517
  514TMC3    O1 7698   1.376   1.098  12.933  0.0901 -0.3951  0.2968
  514TMC3    O2 7699   1.609   1.553  12.764 -0.5108  0.6270 -0.1006
  515MPD2     C 7700   4.735   2.074  14.963  0.8759  0.4891  0.1691
  515MPD2    C1 7701   4.705   2.154  14.857 -0.2929 -0.7240 -0.0994
  515MPD2    C2 7702   0.015   2.286  14.858 -0.2346 -0.3181  0.9954
  515MPD2    C3 7703   0.082   2.334  14.968  0.1507  0.2795  0.3162
  515MPD2    C4 7704   0.115   2.246  15.078 -0.1158 -0.3337  0.5771
  515MPD2    C5 7705   0.076   2.112  15.067 -0.1398  0.7963 -0.6440
  515MPD2     H 7706   4.725   2.339  14.767 -1.3561 -1.7086  0.4794
  515MPD2    H1 7707   0.169   2.279  15.166  2.2520  1.5294 -1.6053
  515MPD2    H2 7708   4.696   1.973  14.961  1.0591  0.3685  1.9817
  515MPD2    H3 7709   0.092   2.043  15.150 -1.4517 -0.6941 -1.6402
  515MPD2     N 7710   0.151   2.460  14.965 -0.5995  0.3388  0.1023
  515MPD2    H5 7711   0.213   2.475  15.044 -1.4232  2.4426  0.3528
  515MPD2    N1 7712   4.631   2.114  14.743  0.5982  0.3411 -0.3829
  515MPD2    H7 7713   4.606   2.185  14.675 -1.2495 -0.3484 -0.4126
  516TMC3    C1 7714   4.516   1.965  14.597  0.6203 -0.3190  0.4750
  516TMC3    C2 7715   4.455   2.076  14.538  0.2938 -0.1793  1.5343
  516TMC3    C3 7716   4.333   2.048  14.479  0.2844  1.1777 -0.2928
  516TMC3    C4 7717   4.463   1.840  14.602 -0.4922  0.4767  0.3451
  516TMC3    C5 7718   4.337   1.823  14.552 -0.1450  0.5876  0.1459
  516TMC3    C6 7719   4.271   1.924  14.488 -0.7124 -0.4344  1.0685
  516TMC3     C 7720   4.604   1.988  14.708  0.1201 -0.8654  0.9057
  516TMC3     O 7721   4.657   1.888  14.756 -0.0278 -0.0941  0.8695
  516TMC3     H 7722   4.487   2.180  14.547 -0.9953  0.3355  0.2676
  516TMC3    H1 7723   4.522   1.758  14.642 -1.6149 -0.4049  0.2059
  516TMC3    H2 7724   4.177   1.902  14.439 -0.4047  0.5374  0.0407
  516TMC3    C7 7725   4.268   1.740  14.650 -0.0447 -0.2076  1.0058
  516TMC3    C8 7726   4.292   2.128  14.366  0.1267  0.0511 -0.5771
  516TMC3    O1 7727   4.334   1.683  14.737 -0.5090  0.4711 -0.3069
  516TMC3    O2 7728   4.172   2.139  14.346 -0.5914 -0.0700  0.0716
  517MPD2     C 7729   4.128   4.317  17.642 -0.3299 -0.3814  0.5614
  517MPD2    C1 7730   4.233   4.273  17.716  0.2494 -0.3584 -0.2591
  517MPD2    C2 7731   4.300   4.357   0.064  0.1160 -0.3037  0.1681
  517MPD2    C3 7732   4.246   4.478   0.092  0.0039  0.7075  0.0849
  517MPD2    C4 7733   4.141   4.519   0.015 -0.6662 -0.2328  0.3310
  517MPD2    C5 7734   4.079   4.442  17.667  0.0873  0.3068  0.5761
  517MPD2     H 7735   4.375   4.312   0.127 -1.3577 -0.9596  1.4432
  517MPD2    H1 7736   4.113   4.622   0.035 -0.0529  0.2248 -1.1830
  517MPD2    H2 7737   4.070   4.262  17.569 -1.2745 -0.5902  1.4692
  517MPD2    H3 7738   3.982   4.477  17.631 -0.3160  1.4496  2.7545
  517MPD2     N 7739   4.303   4.574   0.185 -0.0879 -0.5747 -0.8488
  517MPD2    H5 7740   4.254   4.662   0.198  0.5218 -0.2138 -0.9877
  517MPD2    N1 7741   4.304   4.146  17.683 -0.0716 -0.3206 -0.3484
  517MPD2    H7 7742   4.381   4.128   0.007 -1.0478 -1.4453  0.4900
  518TMC3    C1 7743   4.367   3.955  17.564  0.0747  0.1489  0.5251
  518TMC3    C2 7744   4.333   3.833  17.517  0.0146  0.2163 -0.4382
  518TMC3    C3 7745   4.435   3.756  17.463  0.6053 -0.1334 -0.7578
  518TMC3    C4 7746   4.495   3.997  17.576  0.6016 -0.0982  0.2231
  518TMC3    C5 7747   4.594   3.920  17.517  0.2741  0.0649  0.6152
  518TMC3    C6 7748   4.566   3.802  17.454  0.5097  0.1201 -0.4932
  518TMC3     C 7749   4.259   4.047  17.603 -0.3040 -0.1312  0.1003
  518TMC3     O 7750   4.148   4.019  17.559 -0.0844 -0.0450 -0.2768
  518TMC3     H 7751   4.232   3.794  17.513 -0.2121  0.6871  0.7795
  518TMC3    H1 7752   4.513   4.096  17.615  2.0990  0.3198 -1.5997
  518TMC3    H2 7753   4.643   3.742  17.406  0.9140  0.8240 -0.7146
  518TMC3    C7 7754   4.729   3.976  17.513 -0.0068 -0.0787 -0.9170
  518TMC3    C8 7755   4.404   3.617  17.420 -0.2048 -0.1827  0.2161
  518TMC3    O1 7756   0.010   4.093  17.556  0.2221  0.3247  0.1321
  518TMC3    O2 7757   4.468   3.575  17.326 -0.2329 -0.4803 -0.4932
  519MPD2     C 7758   1.336   2.617  14.561  0.3157 -0.5074  0.1979
  519MPD2    C1 7759   1.278   2.647  14.437 -0.6543  0.2825 -0.0100
  519MPD2    C2 7760   1.295   2.560  14.340  0.0248 -0.0991  0.1340
  519MPD2    C3 7761   1.378   2.448  14.348  0.2678 -0.1383  0.4423
  519MPD2    C4 7762   1.443   2.430  14.465  0.0329 -0.8570  0.6619
  519MPD2    C5 7763   1.430   2.513  14.571 -0.1054  0.2615 -0.1799
  519MPD2     H 7764   1.230   2.573  14.255  1.2466  1.0422 -0.6244
  519MPD2    H1 7765   1.500   2.340  14.482 -1.6113 -2.1534 -0.6886
  519MPD2    H2 7766   1.316   2.675  14.650 -2.0429  3.4178 -2.9344
  519MPD2    H3 7767   1.474   2.481  14.665 -1.1664 -0.4229  0.0875
  519MPD2     N 7768   1.399   2.345  14.243 -0.2351 -0.1603 -0.4326
  519MPD2    H5 7769   1.455   2.264  14.265 -0.6266  0.0226  1.2796
  519MPD2    N1 7770   1.177   2.749  14.437 -0.1363  0.0121 -0.5011
  519MPD2    H7 7771   1.150   2.809  14.515  0.4832  0.2525 -0.4722
  520TMC3    C1 7772   1.346   2.231  14.044  0.0824  0.9126  0.0823
  520TMC3    C2 7773   1.265   2.223  13.930 -0.2268  0.1985 -0.1931
  520TMC3    C3 7774   1.285   2.133  13.831  0.6319 -0.1255 -0.0380
  520TMC3    C4 7775   1.466   2.169  14.041  0.1628 -0.8015 -0.2192
  520TMC3    C5 7776   1.492   2.099  13.934 -0.3305  0.1297  0.0739
  520TMC3    C6 7777   1.399   2.070  13.833  0.5575 -0.1992 -0.2150
  520TMC3     C 7778   1.329   2.349  14.126 -0.5496 -0.2963  0.7092
  520TMC3     O 7779   1.240   2.422  14.083  0.4621  0.2767 -0.4711
  520TMC3     H 7780   1.181   2.290  13.914 -2.2670 -2.3092  0.0287
  520TMC3    H1 7781   1.541   2.199  14.114  0.5134  0.8968 -1.2753
  520TMC3    H2 7782   1.429   2.001  13.755 -0.5496  0.7248 -1.4474
  520TMC3    C7 7783   1.630   2.073  13.905 -0.1499  0.0216  0.3694
  520TMC3    C8 7784   1.227   2.168  13.701 -0.4328  0.1840 -0.6495
  520TMC3    O1 7785   1.704   2.051  14.001  0.0450 -0.1407 -0.2363
  520TMC3    O2 7786   1.295   2.146  13.603 -0.4328  0.2321  0.3957
  521MPD2     C 7787   2.151   0.814  17.522  0.4696 -0.0363  0.3932
  521MPD2    C1 7788   2.147   0.684  17.474  0.3922  0.2231  0.1476
  521MPD2    C2 7789   2.265   0.624  17.426  0.4555 -0.3275 -0.3717
  521MPD2    C3 7790   2.379   0.692  17.422  0.9796  0.7416 -0.7833
  521MPD2    C4 7791   2.383   0.824  17.462  0.7792  0.1986 -0.0820
  521MPD2    C5 7792   2.264   0.884  17.506  0.3778 -0.4434 -0.0033
  521MPD2     H 7793   2.259   0.520  17.398 -0.3023 -0.3086 -0.2769
  521MPD2    H1 7794   2.472   0.886  17.455  0.3550  0.7750 -0.3728
  521MPD2    H2 7795   2.057   0.866  17.537  0.4283  0.1333 -0.4274
  521MPD2    H3 7796   2.265   0.992  17.519  1.1657 -0.4528  0.0117
  521MPD2     N 7797   2.493   0.637  17.359 -0.1566  0.6338 -0.3828
  521MPD2    H5 7798   2.489   0.545  17.316 -0.8448 -0.8723  2.9128
  521MPD2    N1 7799   2.027   0.620  17.477 -0.4959  0.2590 -0.5046
  521MPD2    H7 7800   1.950   0.666  17.526  2.2609  3.0778  1.1991
  522TMC3    C1 7801   2.720   0.621  17.277 -0.0585  0.4866  0.0208
  522TMC3    C2 7802   2.736   0.489  17.295  0.1418 -0.2893 -0.1148
  522TMC3    C3 7803   2.827   0.429  17.223  0.7982 -0.1366 -0.0574
  522TMC3    C4 7804   2.798   0.696  17.196  0.0270  0.5614 -0.3086
  522TMC3    C5 7805   2.896   0.632  17.128  0.0668  0.0832  0.0590
  522TMC3    C6 7806   2.907   0.495  17.134  0.1616 -0.9572  0.3902
  522TMC3     C 7807   2.616   0.694  17.353  0.1337 -1.0250  0.6230
  522TMC3     O 7808   2.661   0.802  17.396 -0.5416 -0.0579 -0.1217
  522TMC3     H 7809   2.667   0.431  17.356 -0.2493 -0.3017 -0.5692
  522TMC3    H1 7810   2.780   0.800  17.174 -0.3977  0.9939  2.1287
  522TMC3    H2 7811   2.967   0.440  17.062  1.3249 -0.1359  0.7305
  522TMC3    C7 7812   2.918   0.689  16.996 -1.0061 -0.3970 -0.5286
  522TMC3    C8 7813   2.849   0.284  17.244 -0.1952 -0.0720 -0.2156
  522TMC3    O1 7814   3.035   0.703  16.961  0.2424 -0.2497  0.1408
  522TMC3    O2 7815   2.785   0.227  17.332  0.0380  0.2556 -0.6880
  523MPD2     C 7816   0.739   0.175  10.062  0.1930  0.4962 -0.3347
  523MPD2    C1 7817   0.608   0.174  10.026  0.0373  0.5619  0.0683
  523MPD2    C2 7818   0.544   0.289   9.974 -0.0770  0.0655 -0.1341
  523MPD2    C3 7819   0.610   0.408   9.956 -0.0522  0.6169 -0.6979
  523MPD2    C4 7820   0.745   0.402   9.982 -0.3395  0.3681 -0.0193
  523MPD2    C5 7821   0.802   0.288  10.030 -0.2781 -0.3780 -0.0896
  523MPD2     H 7822   0.437   0.296   9.958  0.2859 -1.6290 -3.4495
  523MPD2    H1 7823   0.815   0.484   9.968 -0.8693  0.6132 -1.1687
  523MPD2    H2 7824   0.787   0.091  10.111  0.3000  1.7140  1.6776
  523MPD2    H3 7825   0.907   0.286  10.053 -0.0934  0.4855 -0.8458
  523MPD2     N 7826   0.543   0.537   9.922 -0.7993 -0.0194  0.4693
  523MPD2    H5 7827   0.616   0.604   9.899 -0.4588 -0.4842  0.2049
  523MPD2    N1 7828   0.539   0.051  10.045 -0.2551 -0.0183 -0.4459
  523MPD2    H7 7829   0.593   4.709  10.082  0.8223  0.8161 -0.2436
  524TMC3    C1 7830   0.379   0.703   9.926  1.2211  0.6308  0.2977
  524TMC3    C2 7831   0.474   0.802   9.945  0.6879 -0.7102  0.5768
  524TMC3    C3 7832   0.429   0.929   9.966  0.2723  0.2719 -0.2990
  524TMC3    C4 7833   0.249   0.739   9.909 -0.0793 -0.7324  0.1118
  524TMC3    C5 7834   0.210   0.869   9.924 -0.2089  0.7228 -0.0834
  524TMC3    C6 7835   0.300   0.964   9.948 -0.7054  0.2621 -0.1193
  524TMC3     C 7836   0.408   0.567   9.924 -0.7338  0.1399  0.6289
  524TMC3     O 7837   0.313   0.490   9.947  0.0692 -1.0810 -0.2282
  524TMC3     H 7838   0.575   0.778   9.978 -0.0942  0.1904  3.6639
  524TMC3    H1 7839   0.174   0.669   9.873 -1.7719  0.7497  0.7519
  524TMC3    H2 7840   0.285   1.070   9.930 -0.1677  0.5377  1.0627
  524TMC3    C7 7841   0.070   0.905   9.907  0.2099  0.0891  0.3754
  524TMC3    C8 7842   0.521   1.032  10.011  0.2873  0.3362  0.3145
  524TMC3    O1 7843   4.734   0.803   9.893 -0.1605 -0.3380  0.6976
  524TMC3    O2 7844   0.637   1.028   9.973  0.2552  0.4136  0.2288
  525MPD2     C 7845   2.712   2.044  14.221  0.8128  0.5497 -0.4202
  525MPD2    C1 7846   2.824   2.019  14.296 -0.2617 -0.1699  0.2144
  525MPD2    C2 7847   2.934   2.108  14.281 -0.0221  0.1793  0.3197
  525MPD2    C3 7848   2.926   2.215  14.193  0.2321 -0.6535 -0.3012
  525MPD2    C4 7849   2.814   2.228  14.111  0.2290 -0.3032  0.0137
  525MPD2    C5 7850   2.712   2.138  14.125  0.6654 -0.0999  0.4659
  525MPD2     H 7851   3.012   2.096  14.355 -1.4939  1.4921  2.0711
  525MPD2    H1 7852   2.797   2.309  14.041 -2.0892 -1.6561 -0.9678
  525MPD2    H2 7853   2.624   1.980  14.218 -0.2810  2.0366  0.5854
  525MPD2    H3 7854   2.632   2.128  14.053 -0.9816  0.7925  2.1756
  525MPD2     N 7855   3.024   2.317  14.176 -0.1079  0.2213 -0.2226
  525MPD2    H5 7856   2.992   2.397  14.122  0.0295  0.6376  0.3036
  525MPD2    N1 7857   2.824   1.912  14.389 -0.0487  0.1500 -0.4494
  525MPD2    H7 7858   2.910   1.894  14.440 -0.5557 -0.8209  0.0636
  526TMC3    C1 7859   2.766   1.720  14.501 -0.5313  0.1484  0.9406
  526TMC3    C2 7860   2.681   1.699  14.610 -0.3014  0.0369  0.5478
  526TMC3    C3 7861   2.751   1.674  14.731  0.1721  0.3470  0.0918
  526TMC3    C4 7862   2.903   1.701  14.503  0.3237  0.1614  0.4973
  526TMC3    C5 7863   2.958   1.657  14.624  0.0523 -0.2991 -0.1317
  526TMC3    C6 7864   2.886   1.656  14.742  0.7614 -0.2275  0.0724
  526TMC3     C 7865   2.721   1.829  14.423 -0.9196  0.9345 -0.2982
  526TMC3     O 7866   2.602   1.839  14.396 -0.3979  0.0488 -0.0599
  526TMC3     H 7867   2.574   1.711  14.603 -0.1884  0.6205 -0.1905
  526TMC3    H1 7868   2.962   1.716  14.413  3.1010 -0.1280  2.2765
  526TMC3    H2 7869   2.946   1.647  14.831  2.2043  0.3178 -0.8403
  526TMC3    C7 7870   3.099   1.619  14.641  0.4641  0.0172 -0.4007
  526TMC3    C8 7871   2.688   1.707  14.859 -0.1278  0.4749  0.7622
  526TMC3    O1 7872   3.163   1.649  14.743  0.1036  0.6177 -0.3251
  526TMC3    O2 7873   2.757   1.738  14.951  0.5888 -0.0973  0.5051
  527MPD2     C 7874   0.594   0.071   1.506  0.4902 -0.7830 -0.5066
  527MPD2    C1 7875   0.578   0.096   1.368 -1.6427  0.3381 -0.0324
  527MPD2    C2 7876   0.688   0.101   1.280 -0.4790 -0.5944 -0.1543
  527MPD2    C3 7877   0.808   0.064   1.332 -0.0403 -0.2293 -0.1603
  527MPD2    C4 7878   0.826   0.047   1.466 -0.0499 -0.3170 -0.1242
  527MPD2    C5 7879   0.720   0.049   1.550  0.6324 -0.8982  0.0789
  527MPD2     H 7880   0.673   0.106   1.173 -2.2478 -0.1755  0.1039
  527MPD2    H1 7881   0.920   0.007   1.501  0.0264 -0.0403 -0.0090
  527MPD2    H2 7882   0.523   0.074   1.588  0.4388  0.6873 -0.5909
  527MPD2    H3 7883   0.730   0.013   1.652 -0.8260  1.3112  1.0142
  527MPD2     N 7884   0.917   0.037   1.251  0.3811 -0.2155  0.0595
  527MPD2    H5 7885   1.001   4.731   1.291  1.0205  0.1860 -0.8657
  527MPD2    N1 7886   0.454   0.108   1.310  0.7688  0.4427  0.0955
  527MPD2    H7 7887   0.457   0.128   1.210  0.7325 -0.3887 -0.0754
  528TMC3    C1 7888   0.228   0.114   1.276 -0.5774 -0.1350  0.1079
  528TMC3    C2 7889   0.236   0.049   1.155 -0.2318  0.0407  0.6903
  528TMC3    C3 7890   0.121   0.017   1.088 -0.3512  0.0354 -0.0218
  528TMC3    C4 7891   0.111   0.163   1.323  0.4624 -0.0244  0.4627
  528TMC3    C5 7892   4.730   0.131   1.249 -0.1790  0.1213 -0.9697
  528TMC3    C6 7893   4.733   0.042   1.141 -0.4741  0.1014 -0.1837
  528TMC3     C 7894   0.332   0.111   1.372  0.6935 -0.2158  1.3553
  528TMC3     O 7895   0.307   0.125   1.489 -0.6011 -0.0197  0.1196
  528TMC3     H 7896   0.329   0.004   1.122 -1.8352 -0.4583 -3.1258
  528TMC3    H1 7897   0.122   0.227   1.410 -0.0367  0.9978 -0.2153
  528TMC3    H2 7898   4.645   0.010   1.089 -0.9381  0.8849  0.1116
  528TMC3    C7 7899   4.603   0.168   1.294  0.1822 -0.2147 -0.3635
  528TMC3    C8 7900   0.133   4.689   0.963 -0.4563 -1.1995  0.0685
  528TMC3    O1 7901   4.506   0.125   1.234  0.1792 -0.4055  0.1734
  528TMC3    O2 7902   0.239   4.715   0.903 -0.2428  0.3488  0.1658
  529MPD2     C 7903   3.538   3.056   0.939 -0.5997  0.3842  0.0847
  529MPD2    C1 7904   3.419   2.981   0.945  0.3494 -1.8647 -0.2253
  529MPD2    C2 7905   3.306   3.028   0.874 -0.7298 -0.1971 -0.0342
  529MPD2    C3 7906   3.309   3.156   0.813 -0.0558  0.5091 -0.0821
  529MPD2    C4 7907   3.425   3.223   0.819  0.4113  0.5384 -0.0113
  529MPD2    C5 7908   3.537   3.172   0.876  0.2225  0.1335  0.2396
  529MPD2     H 7909   3.221   2.965   0.849  0.4170 -1.0496 -1.8000
  529MPD2    H1 7910   3.441   3.319   0.771 -0.6019  0.2154 -0.9859
  529MPD2    H2 7911   3.631   3.036   0.991 -1.5608 -0.5054  1.4678
  529MPD2    H3 7912   3.633   3.223   0.868  1.1352 -1.0610  3.7308
  529MPD2     N 7913   3.212   3.221   0.733 -0.3220 -0.2306 -0.0041
  529MPD2    H5 7914   3.235   3.314   0.698 -2.7561  0.7566  1.0570
  529MPD2    N1 7915   3.405   2.864   1.026  0.5185  0.6023 -0.0296
  529MPD2    H7 7916   3.318   2.813   1.031  0.7567  0.5965  3.5718
  530TMC3    C1 7917   3.470   2.678   1.151  0.0594 -0.1301  0.3310
  530TMC3    C2 7918   3.542   2.630   1.254 -0.7149 -0.0486  0.1282
  530TMC3    C3 7919   3.536   2.499   1.280  0.2321 -0.6806 -0.7079
  530TMC3    C4 7920   3.388   2.600   1.075 -0.0008 -0.0742 -0.5289
  530TMC3    C5 7921   3.378   2.466   1.107  0.1787  0.1571 -0.7057
  530TMC3    C6 7922   3.443   2.410   1.221  0.7227  0.1034 -0.6447
  530TMC3     C 7923   3.500   2.812   1.103  0.2907 -0.0545 -0.4476
  530TMC3     O 7924   3.614   2.853   1.127 -0.2418  0.8914  0.1933
  530TMC3     H 7925   3.614   2.694   1.303 -0.3315 -2.5924  2.8866
  530TMC3    H1 7926   3.348   2.635   0.981  1.5395 -1.4431 -1.6800
  530TMC3    H2 7927   3.439   2.310   1.263 -2.2984 -1.0227 -3.6174
  530TMC3    C7 7928   3.272   2.387   1.044 -0.1601  0.1084  0.0527
  530TMC3    C8 7929   3.630   2.448   1.378 -0.2201 -0.2504  0.4889
  530TMC3    O1 7930   3.250   2.420   0.925 -0.2393 -0.0128 -0.2889
  530TMC3    O2 7931   3.692   2.530   1.440 -0.5417 -0.0441  0.2418
  531MPD2     C 7932   1.784   0.769  12.969  0.0323 -0.6248 -0.4160
  531MPD2    C1 7933   1.684   0.833  13.042  0.3993 -0.6863 -0.6212
  531MPD2    C2 7934   1.597   0.912  12.967 -0.5311  0.2473 -0.4899
  531MPD2    C3 7935   1.609   0.945  12.836 -0.3007 -0.2085  0.0037
  531MPD2    C4 7936   1.717   0.885  12.773  0.8388 -0.1372  0.0850
  531MPD2    C5 7937   1.803   0.805  12.841  0.5287  0.8112  0.1913
  531MPD2     H 7938   1.512   0.954  13.019 -0.3251  0.0957 -0.0365
  531MPD2    H1 7939   1.734   0.901  12.667  0.3516  1.7335  0.2859
  531MPD2    H2 7940   1.853   0.703  13.020  1.3872  1.4268  0.4088
  531MPD2    H3 7941   1.884   0.754  12.790  1.3507 -0.8145  3.1128
  531MPD2     N 7942   1.514   1.026  12.761  0.6402  0.4812 -0.1729
  531MPD2    H5 7943   1.524   1.028  12.660 -1.2314 -4.2309 -0.4254
  531MPD2    N1 7944   1.656   0.790  13.173  0.0096 -0.0233 -0.1051
  531MPD2    H7 7945   1.718   0.718  13.208  0.5790  0.4928 -0.0550
  532TMC3    C1 7946   1.585   0.820  13.382  0.0905  0.2665  0.7638
  532TMC3    C2 7947   1.479   0.867  13.449  0.4819 -0.3554  0.1193
  532TMC3    C3 7948   1.486   0.935  13.566 -0.1082 -0.1828 -0.1640
  532TMC3    C4 7949   1.712   0.852  13.421 -0.5229  0.1552  0.0510
  532TMC3    C5 7950   1.720   0.919  13.545 -0.1905 -0.2440 -0.2460
  532TMC3    C6 7951   1.613   0.963  13.620  0.1860 -0.5751 -0.2234
  532TMC3     C 7952   1.549   0.836  13.244 -0.0629 -0.2209  0.1568
  532TMC3     O 7953   1.450   0.905  13.226 -0.4877 -0.0147 -0.0172
  532TMC3     H 7954   1.384   0.825  13.418  0.5785 -1.0798  0.8300
  532TMC3    H1 7955   1.799   0.829  13.361  0.4695 -0.0031  1.5483
  532TMC3    H2 7956   1.632   1.010  13.716  1.6446 -1.5834 -0.0057
  532TMC3    C7 7957   1.850   0.965  13.590 -0.2320 -0.4123  0.3482
  532TMC3    C8 7958   1.400   1.044  13.573  0.2327 -0.0713 -0.0510
  532TMC3    O1 7959   1.862   1.084  13.619 -0.3112 -0.0506 -0.2025
  532TMC3    O2 7960   1.387   1.113  13.675 -0.0764  0.3353 -0.2307
  533TMC3    C1 7961   3.199   2.456  14.246  0.0731 -0.4203 -0.5881
  533TMC3    C2 7962   3.325   2.478  14.285 -0.6385 -0.8270 -0.5128
  533TMC3    C3 7963   3.353   2.608  14.330  0.4515 -0.6651 -0.1506
  533TMC3    C4 7964   3.104   2.551  14.230 -0.5092  0.2582 -0.0069
  533TMC3    C5 7965   3.135   2.682  14.261  0.4887 -0.5571  0.3025
  533TMC3    C6 7966   3.256   2.706  14.318 -0.0403 -0.2035 -0.5121
  533TMC3     C 7967   3.146   2.321  14.238  0.0709 -0.5823  0.1207
  533TMC3     O 7968   3.197   2.231  14.305  0.2531 -0.0789  0.1331
  533TMC3     H 7969   3.381   2.390  14.314 -0.1933 -0.2874  0.2872
  533TMC3    H1 7970   2.998   2.532  14.216 -0.7667  1.1357  0.6870
  533TMC3    H2 7971   3.272   2.799  14.371 -0.9940 -0.6241  0.5224
  533TMC3    C7 7972   3.023   2.751  14.319 -0.2243  0.5526  0.2096
  533TMC3    C8 7973   3.488   2.655  14.312  0.3840  0.3630  0.1799
  533TMC3    O1 7974   2.941   2.794  14.238 -0.8789 -0.0725 -0.0673
  533TMC3    O2 7975   3.508   2.778  14.308 -0.1197  0.0952 -0.0293
  534MPD2     C 7976   1.133   2.974   0.958  0.1118  0.6170 -0.1703
  534MPD2    C1 7977   1.156   3.087   1.038 -0.8301  0.1957  0.3510
  534MPD2    C2 7978   1.038   3.155   1.068  1.0272  0.0356 -0.3243
  534MPD2    C3 7979   0.922   3.109   1.027  0.2631  0.1559 -0.2627
  534MPD2    C4 7980   0.909   2.990   0.962 -0.0815  0.1534  0.6004
  534MPD2    C5 7981   1.011   2.930   0.928  0.5370  0.9919 -0.1216
  534MPD2     H 7982   1.047   3.248   1.122  0.9470 -0.8228  1.1526
  534MPD2    H1 7983   0.811   2.950   0.940  0.3454  0.8426 -2.5903
  534MPD2    H2 7984   1.213   2.909   0.924  1.7515  1.7074  1.5564
  534MPD2    H3 7985   1.004   2.836   0.874  0.2741  0.6087  0.5650
  534MPD2     N 7986   0.797   3.169   1.040  0.1208  0.0888  0.4577
  534MPD2    H5 7987   0.711   3.126   1.010  1.0469  0.9431 -3.3828
  534MPD2    N1 7988   1.279   3.123   1.087  0.0806  0.3405  0.3702
  534MPD2    H7 7989   1.279   3.201   1.152  0.2259  0.3327  0.3804
  535TMC3    C1 7990   0.635   3.330   1.088  0.0057  0.1098 -0.4687
  535TMC3    C2 7991   0.546   3.232   1.125 -0.5484  0.2733 -0.2769
  535TMC3    C3 7992   0.413   3.269   1.105  0.6480 -0.4000  0.4004
  535TMC3    C4 7993   0.594   3.453   1.049 -0.2044 -0.2961 -0.6656
  535TMC3    C5 7994   0.465   3.482   1.011  0.0319  0.7480 -0.1718
  535TMC3    C6 7995   0.371   3.387   1.038  0.5446  0.3720 -0.7775
  535TMC3     C 7996   0.776   3.300   1.080  0.2046 -0.1925 -0.0744
  535TMC3     O 7997   0.863   3.379   1.090  0.2799 -0.3924 -0.1580
  535TMC3     H 7998   0.584   3.135   1.155 -1.3631 -0.3396 -1.2473
  535TMC3    H1 7999   0.678   3.519   1.033  1.4104 -2.0438  0.5279
  535TMC3    H2 8000   0.265   3.397   1.019  0.4344 -2.8013 -1.6694
  535TMC3    C7 8001   0.445   3.578   0.904 -0.0150  0.0454  0.2149
  535TMC3    C8 8002   0.309   3.185   1.170  0.0179 -0.0114 -0.4940
  535TMC3    O1 8003   0.346   3.571   0.831 -0.2458  0.0351 -0.1210
  535TMC3    O2 8004   0.194   3.215   1.137 -0.6842 -0.1989  0.1163
  536MPD2     C 8005   4.690   2.033  16.199 -0.3062  0.3468  0.6818
  536MPD2    C1 8006   4.567   1.978  16.226  0.0276  0.1188  0.4543
  536MPD2    C2 8007   4.463   2.007  16.138  0.4428 -0.4195  0.7254
  536MPD2    C3 8008   4.472   2.099  16.035  0.4532 -0.0061 -0.4268
  536MPD2    C4 8009   4.595   2.148  16.008  0.1697 -0.1967  0.1203
  536MPD2    C5 8010   4.701   2.115  16.091 -0.3586 -0.1180  0.3442
  536MPD2     H 8011   4.368   1.958  16.156 -0.6796  1.2508 -0.6473
  536MPD2    H1 8012   4.614   2.222  15.932 -1.1820 -1.0982 -1.0794
  536MPD2    H2 8013   0.044   2.017  16.259  0.8856 -0.5235 -1.3365
  536MPD2    H3 8014   0.064   2.147  16.060 -0.8828  0.7125 -0.4680
  536MPD2     N 8015   4.363   2.144  15.956  0.3920  0.3959 -0.4429
  536MPD2    H5 8016   4.376   2.214  15.883 -1.2186  2.4359  1.2114
  536MPD2    N1 8017   4.548   1.889  16.335  0.4646  0.2479  0.3294
  536MPD2    H7 8018   4.633   1.860  16.382  0.2137 -1.2501 -0.1520
  537TMC3    C1 8019   4.476   1.718  16.478  0.3623  0.0806 -0.6204
  537TMC3    C2 8020   4.592   1.717  16.546 -0.0735 -0.1744  0.1768
  537TMC3    C3 8021   4.613   1.609  16.630 -0.3489  0.1856 -0.2682
  537TMC3    C4 8022   4.392   1.605  16.467  0.0067  0.3963  0.6023
  537TMC3    C5 8023   4.419   1.496  16.549  0.1743 -0.2564 -0.0164
  537TMC3    C6 8024   4.529   1.497  16.631 -0.3994  0.5504 -0.0501
  537TMC3     C 8025   4.443   1.823  16.378 -0.1180  0.5366 -1.0412
  537TMC3     O 8026   4.328   1.815  16.334  0.4654 -0.2827 -0.0563
  537TMC3     H 8027   4.651   1.807  16.561  1.6436 -1.0893 -0.9906
  537TMC3    H1 8028   4.308   1.596  16.399  1.0808  0.6966 -0.7532
  537TMC3    H2 8029   4.546   1.412  16.696 -0.0091 -0.4845 -1.5292
  537TMC3    C7 8030   4.337   1.380  16.524  0.2296 -0.2732 -0.1631
  537TMC3    C8 8031   4.673   1.630  16.757  0.4747 -0.1899  0.0382
  537TMC3    O1 8032   4.283   1.372  16.412  0.7065  0.6131 -0.0141
  537TMC3    O2 8033   4.653   1.731  16.816 -0.0381 -0.3016  0.1014
  538TMC3    C1 8034   0.970   4.568  10.825  0.1505 -1.5675  0.1275
  538TMC3    C2 8035   1.107   4.582  10.802 -0.4079  0.1148  0.5402
  538TMC3    C3 8036   1.155   4.656  10.692  0.0570  0.1112  0.2704
  538TMC3    C4 8037   0.883   4.633  10.743  0.6652 -0.1734  0.0476
  538TMC3    C5 8038   0.936   4.706  10.636  0.2642  0.5593 -0.0465
  538TMC3    C6 8039   1.067   4.725  10.612  0.6879 -0.4089  0.3796
  538TMC3     C 8040   0.922   4.538  10.957 -0.4437 -0.6738 -0.0099
  538TMC3     O 8041   0.799   4.536  10.975 -0.0048 -0.4087 -0.7336
  538TMC3     H 8042   1.175   4.515  10.853  1.1997  2.2805  1.2266
  538TMC3    H1 8043   0.777   4.632  10.766  1.0305  0.9532  1.7636
  538TMC3    H2 8044   1.093   0.030  10.515  0.6784  0.9208  0.9298
  538TMC3    C7 8045   0.839   0.044  10.557  0.6357 -0.0011 -0.1824
  538TMC3    C8 8046   1.296   4.689  10.705 -0.6402  0.2667 -0.2119
  538TMC3    O1 8047   0.736   4.721  10.534  0.1041  0.0852 -0.0091
  538TMC3    O2 8048   1.358   4.661  10.813  0.4981 -0.5408 -0.0471
  539MPD2     C 8049   0.523   4.189  11.776  0.6869 -0.3923 -0.0610
  539MPD2    C1 8050   0.547   4.183  11.645  0.3484 -0.1635 -0.1354
  539MPD2    C2 8051   0.576   4.303  11.574  0.3730  0.3297  0.4207
  539MPD2    C3 8052   0.596   4.426  11.644 -0.4524  1.2373 -0.0261
  539MPD2    C4 8053   0.599   4.421  11.779  1.1108  0.4546  0.7617
  539MPD2    C5 8054   0.552   4.304  11.840  1.1146 -0.4181  0.4569
  539MPD2     H 8055   0.600   4.294  11.469 -1.5100  0.1988  0.0106
  539MPD2    H1 8056   0.617   4.505  11.845 -0.9466  0.9305  0.7137
  539MPD2    H2 8057   0.493   4.104  11.836  3.2700 -0.8720  0.5836
  539MPD2    H3 8058   0.545   4.300  11.949  0.4249  1.3770  0.4785
  539MPD2     N 8059   0.630   4.544  11.586 -0.6310  0.0606  0.1610
  539MPD2    H5 8060   0.655   4.622  11.646 -3.6623  0.4964  0.8811
  539MPD2    N1 8061   0.541   4.065  11.568 -0.4304  1.0323  0.0102
  539MPD2    H7 8062   0.581   4.061  11.475  1.3325  0.4983  0.7849
  540TMC3    C1 8063   0.679   4.700  11.415  0.4169  0.1448 -0.0021
  540TMC3    C2 8064   0.701   4.728  11.284  0.2524  0.0815  0.4223
  540TMC3    C3 8065   0.680   0.120  11.237 -0.5963 -0.1459  0.4920
  540TMC3    C4 8066   0.636   0.068  11.500 -1.2942 -0.8508  0.4987
  540TMC3    C5 8067   0.610   0.196  11.450 -0.6372 -0.3135 -0.1613
  540TMC3    C6 8068   0.640   0.223  11.317 -0.1982  0.1147 -0.4123
  540TMC3     C 8069   0.647   4.565  11.451  0.6458 -0.2476  0.3921
  540TMC3     O 8070   0.606   4.501  11.355 -0.4896  0.8096 -0.4615
  540TMC3     H 8071   0.728   4.649  11.215  0.2429 -0.9982  1.6578
  540TMC3    H1 8072   0.600   0.053  11.602 -2.0847  0.1949  0.3719
  540TMC3    H2 8073   0.614   0.321  11.278  0.2333 -0.1668 -1.3918
  540TMC3    C7 8074   0.515   0.282  11.524  0.5849  0.0644  0.8346
  540TMC3    C8 8075   0.657   0.149  11.097 -0.5377 -0.3154  0.9847
  540TMC3    O1 8076   0.516   0.403  11.503  0.0700  0.4441 -0.8207
  540TMC3    O2 8077   0.673   0.255  11.051  0.0300 -0.1316  0.8285
  541MPD2     C 8078   2.929   0.861  13.274 -0.0138  1.0718  0.4503
  541MPD2    C1 8079   2.991   0.772  13.187  0.5140 -0.1126 -0.1326
  541MPD2    C2 8080   3.051   0.821  13.071  0.2951 -0.5548 -0.3112
  541MPD2    C3 8081   3.042   0.960  13.046  0.0339 -0.6804  0.2590
  541MPD2    C4 8082   2.983   1.043  13.136  0.5234  0.0096  0.3120
  541MPD2    C5 8083   2.925   0.997  13.247 -0.7430 -0.9495  0.2340
  541MPD2     H 8084   3.094   0.747  13.004 -0.1463 -0.0376 -1.1695
  541MPD2    H1 8085   2.973   1.150  13.119 -0.3775 -0.2571 -0.8572
  541MPD2    H2 8086   2.894   0.827  13.370 -0.0604  0.7336  0.3147
  541MPD2    H3 8087   2.882   1.071  13.314 -0.7122 -0.4257 -0.3275
  541MPD2     N 8088   3.092   1.014  12.927  0.4229  0.3248 -0.0207
  541MPD2    H5 8089   3.058   1.108  12.911 -0.5689  0.1354  0.9523
  541MPD2    N1 8090   2.991   0.639  13.229  0.7825 -0.6659 -0.1440
  541MPD2    H7 8091   2.978   0.616  13.327 -1.8171 -0.3609 -0.4338
  542TMC3    C1 8092   3.145   1.003  12.694  0.2013  0.3474 -0.4233
  542TMC3    C2 8093   3.190   0.924  12.588  0.3754  0.0291 -0.2821
  542TMC3    C3 8094   3.163   0.963  12.456  0.2078  0.1943 -0.0971
  542TMC3    C4 8095   3.077   1.120  12.665 -0.1500 -0.4406 -1.2714
  542TMC3    C5 8096   3.040   1.147  12.534  0.9917  1.0119 -0.7600
  542TMC3    C6 8097   3.091   1.074  12.428 -0.2184  0.4799 -0.9047
  542TMC3     C 8098   3.168   0.949  12.828 -0.7121 -0.5955 -0.7706
  542TMC3     O 8099   3.210   0.829  12.829  0.0132 -0.5661  0.0575
  542TMC3     H 8100   3.234   0.827  12.610  0.6674  0.4491  0.9779
  542TMC3    H1 8101   3.054   1.191  12.744  1.1863  1.2678 -2.4163
  542TMC3    H2 8102   3.077   1.103  12.324  0.1210  0.8945 -0.8338
  542TMC3    C7 8103   2.980   1.280  12.506 -0.1372 -0.2925  0.5666
  542TMC3    C8 8104   3.240   0.899  12.359  0.9141  0.2476 -0.0061
  542TMC3    O1 8105   2.992   1.361  12.598 -0.5724 -0.0714  0.0782
  542TMC3    O2 8106   3.191   0.899  12.245  0.1200 -0.7235 -0.0614
  543TMC3    C1 8107   2.861   2.578  17.316 -0.1249  0.0546  0.2379
  543TMC3    C2 8108   2.834   2.461  17.380 -0.8397  0.6078 -0.0549
  543TMC3    C3 8109   2.759   2.457  17.491 -0.0033 -0.4524 -0.3072
  543TMC3    C4 8110   2.806   2.695  17.355 -0.0877 -0.4362 -0.7669
  543TMC3    C5 8111   2.712   2.682  17.455  0.6452 -0.2751  0.2121
  543TMC3    C6 8112   2.678   2.565  17.515 -0.6394 -0.3589 -0.0857
  543TMC3     C 8113   2.963   2.572  17.213 -0.3452  0.2500 -0.5025
  543TMC3     O 8114   2.982   2.464  17.161 -0.1287 -0.0329 -0.1406
  543TMC3     H 8115   2.888   2.372  17.350 -0.6077  0.4827  0.7311
  543TMC3    H1 8116   2.828   2.787  17.301  0.2852 -0.4939 -0.7122
  543TMC3    H2 8117   2.597   2.567  17.587  1.3345 -1.3332  2.1565
  543TMC3    C7 8118   2.624   2.791  17.484 -0.3496 -0.5808 -0.5060
  543TMC3    C8 8119   2.715   2.329  17.542 -0.2185 -0.4143 -0.1840
  543TMC3    O1 8120   2.513   2.777  17.539 -0.7607 -0.3536  0.2519
  543TMC3    O2 8121   2.721   2.234  17.466 -0.4702 -0.5506  0.2327
  544MPD2     C 8122   2.538   2.034   0.192 -0.4763 -0.0801  0.2291
  544MPD2    C1 8123   2.593   1.991   0.070 -0.7192  0.2972 -0.0633
  544MPD2    C2 8124   2.631   2.087  17.706  0.0929 -0.2718 -1.0407
  544MPD2    C3 8125   2.617   2.223   0.001 -0.1534 -0.3927  0.1393
  544MPD2    C4 8126   2.556   2.256   0.120 -0.1235 -0.0153  0.2175
  544MPD2    C5 8127   2.510   2.165   0.207  0.5300  0.3672 -0.8086
  544MPD2     H 8128   2.668   2.073  17.605  2.3412 -1.4121 -0.0521
  544MPD2    H1 8129   2.559   2.360   0.150  0.2889  0.7873 -2.5802
  544MPD2    H2 8130   2.506   1.962   0.267 -1.6717 -1.5666 -1.7043
  544MPD2    H3 8131   2.463   2.209   0.294 -0.0456 -1.1034 -0.3764
  544MPD2     N 8132   2.658   2.336  17.665  0.2284 -0.0272  0.1440
  544MPD2    H5 8133   2.641   2.426  17.706  1.6749  0.1570  0.3561
  544MPD2    N1 8134   2.604   1.850   0.051 -0.0660 -0.3355 -0.3651
  544MPD2    H7 8135   2.559   1.792   0.121  0.8579  0.1473  0.6326
  545TMC3    C1 8136   2.651   1.653  17.670  0.4506 -0.1580 -0.3233
  545TMC3    C2 8137   2.742   1.596  17.584  0.2775 -0.1548  0.8165
  545TMC3    C3 8138   2.738   1.463  17.568 -0.6121 -0.2573  0.2284
  545TMC3    C4 8139   2.549   1.577  17.728  0.4830 -0.0481  0.5477
  545TMC3    C5 8140   2.540   1.447  17.696  0.2287 -0.3277 -0.3158
  545TMC3    C6 8141   2.636   1.384  17.617  0.5576  0.3453  0.4139
  545TMC3     C 8142   2.660   1.797  17.678  0.2808  0.0668 -0.0856
  545TMC3     O 8143   2.713   1.848  17.580 -0.0432  0.3818 -0.2727
  545TMC3     H 8144   2.830   1.652  17.554  0.2240  0.0907  1.1266
  545TMC3    H1 8145   2.472   1.625   0.047  0.1348  1.8225 -1.4359
  545TMC3    H2 8146   2.606   1.293  17.568  0.3930  0.5976  0.0461
  545TMC3    C7 8147   2.415   1.384  17.727  0.0270  0.0971 -1.2758
  545TMC3    C8 8148   2.833   1.409  17.466 -0.2519  0.2671 -0.1790
  545TMC3    O1 8149   2.325   1.458   0.027 -0.4395 -0.4224 -0.5825
  545TMC3    O2 8150   2.907   1.487  17.405 -0.4022 -0.0579  0.1562
  546MPD2     C 8151   4.393   2.177  17.327 -0.3999 -0.0827  0.6246
  546MPD2    C1 8152   4.344   2.194  17.200 -0.0178  0.0038 -0.0281
  546MPD2    C2 8153   4.343   2.324  17.144 -0.8855 -0.0190  0.1147
  546MPD2    C3 8154   4.389   2.437  17.217  0.3193  0.0487 -0.0259
  546MPD2    C4 8155   4.436   2.415  17.343 -0.1410 -0.2096 -0.2350
  546MPD2    C5 8156   4.437   2.289  17.393  0.4569  0.2416  0.1741
  546MPD2     H 8157   4.295   2.337  17.048 -0.4362 -2.3267 -0.4349
  546MPD2    H1 8158   4.475   2.499  17.398 -4.5282  0.7893  1.3332
  546MPD2    H2 8159   4.395   2.081  17.377  1.0769 -0.7822 -0.7782
  546MPD2    H3 8160   4.480   2.286  17.493 -0.4607 -0.9407  0.5476
  546MPD2     N 8161   4.387   2.564  17.156  0.1189 -0.4677  0.8591
  546MPD2    H5 8162   4.406   2.638  17.223 -1.1572  1.4470 -0.8937
  546MPD2    N1 8163   4.279   2.087  17.130  0.6713 -0.1786  0.0962
  546MPD2    H7 8164   4.238   2.102  17.039  0.8067  0.1294  0.0867
  547TMC3    C1 8165   4.161   1.882  17.096 -0.1200  0.3904 -0.0149
  547TMC3    C2 8166   4.097   1.923  16.982 -0.5129  0.6730 -0.4090
  547TMC3    C3 8167   3.996   1.847  16.937 -0.0910 -0.5472 -0.0793
  547TMC3    C4 8168   4.115   1.770  17.169 -0.4634 -0.3062 -0.0930
  547TMC3    C5 8169   4.025   1.693  17.107 -0.1573 -0.1869  0.6408
  547TMC3    C6 8170   3.962   1.729  16.993 -0.8767 -0.1056 -0.0969
  547TMC3     C 8171   4.253   1.964  17.179  0.1505  0.8889 -0.0773
  547TMC3     O 8172   4.288   1.917  17.288  0.6408 -0.4209 -0.2716
  547TMC3     H 8173   4.117   2.015  16.927  1.1187 -0.4425 -1.6589
  547TMC3    H1 8174   4.136   1.740  17.271  0.2549  1.3619  0.2530
  547TMC3    H2 8175   3.878   1.671  16.955 -2.5384  0.8325  2.1461
  547TMC3    C7 8176   3.977   1.579  17.180 -0.2899 -0.5661  0.1665
  547TMC3    C8 8177   3.907   1.900  16.832  0.1693  0.4808  0.8332
  547TMC3    O1 8178   3.962   1.584  17.303 -0.0167 -0.2029 -1.0717
  547TMC3    O2 8179   3.791   1.855  16.829  0.1336 -0.4311  0.3530
  548MPD2     C 8180   3.939   2.896  12.767  0.0887  0.0268  0.3266
  548MPD2    C1 8181   3.877   2.774  12.793  0.1728  0.0488  0.6434
  548MPD2    C2 8182   3.951   2.665  12.818  0.1945  0.2082 -1.0656
  548MPD2    C3 8183   4.092   2.668  12.807 -0.0235  0.4510 -0.3576
  548MPD2    C4 8184   4.152   2.784  12.785  0.2334 -0.6755 -0.1600
  548MPD2    C5 8185   4.076   2.894  12.764 -0.2682  0.2113  0.0924
  548MPD2     H 8186   3.909   2.566  12.833 -0.1018  0.3894 -0.6977
  548MPD2    H1 8187   4.260   2.792  12.789  0.1814 -1.4844  3.4082
  548MPD2    H2 8188   3.883   2.987  12.747 -0.5335 -0.6772 -1.0953
  548MPD2    H3 8189   4.127   2.989  12.751 -1.1125  0.5488 -0.6949
  548MPD2     N 8190   4.170   2.558  12.828 -0.2587  0.2632  0.0670
  548MPD2    H5 8191   4.127   2.477  12.873  0.2795  0.3656  0.7436
  548MPD2    N1 8192   3.738   2.772  12.796  0.6962  0.1702  0.0860
  548MPD2    H7 8193   3.688   2.857  12.772 -0.2685 -1.0947 -2.4026
  549TMC3    C1 8194   3.517   2.689  12.789 -0.1235 -0.2747  0.6772
  549TMC3    C2 8195   3.473   2.817  12.790 -0.0399 -0.8335 -0.1677
  549TMC3    C3 8196   3.357   2.838  12.725 -0.7254 -0.0915 -0.7153
  549TMC3    C4 8197   3.443   2.584  12.747  0.1982 -0.3207 -0.2256
  549TMC3    C5 8198   3.320   2.610  12.677  0.6332 -0.3109 -0.5437
  549TMC3    C6 8199   3.284   2.737  12.672  0.5116  0.1026  0.4141
  549TMC3     C 8200   3.659   2.662  12.813 -0.3328 -0.2490  0.5615
  549TMC3     O 8201   3.694   2.546  12.821  0.0442  0.0214 -0.1568
  549TMC3     H 8202   3.535   2.896  12.830 -0.8179  0.2884 -1.1621
  549TMC3    H1 8203   3.485   2.484  12.751  0.9653 -0.0296 -1.0543
  549TMC3    H2 8204   3.194   2.758  12.616  1.7645  1.8128 -0.9666
  549TMC3    C7 8205   3.224   2.508  12.644 -0.7412 -0.2857  0.0789
  549TMC3    C8 8206   3.297   2.972  12.719  0.2268 -0.7857 -0.5119
  549TMC3    O1 8207   3.118   2.547  12.606  0.4629 -0.6447  0.2909
  549TMC3    O2 8208   3.176   2.982  12.743  0.1386 -0.1157 -0.5756
  550TMC3    C1 8209   3.117   0.607  12.113 -0.1984  0.8857 -0.1553
  550TMC3    C2 8210   3.090   0.572  12.249 -0.7192  0.0881 -0.2531
  550TMC3    C3 8211   2.963   0.599  12.297 -0.4149 -0.3555 -0.3003
  550TMC3    C4 8212   3.025   0.674  12.040  0.0539  0.0633  0.6843
  550TMC3    C5 8213   2.902   0.697  12.090 -0.4471 -0.2214  0.1050
  550TMC3    C6 8214   2.864   0.651  12.214 -0.5088  0.5371 -0.0381
  550TMC3     C 8215   3.213   0.520  12.047  0.1289  0.4984 -0.3128
  550TMC3     O 8216   3.259   0.428  12.115  0.3985 -0.7086  0.2827
  550TMC3     H 8217   3.157   0.516  12.312 -1.2429 -2.0359 -1.5817
  550TMC3    H1 8218   3.032   0.706  11.937  3.5208  0.4875  1.0777
  550TMC3    H2 8219   2.760   0.662  12.243 -1.4132  0.2309 -3.2150
  550TMC3    C7 8220   2.813   0.792  12.028  0.1696 -0.4562 -0.4177
  550TMC3    C8 8221   2.949   0.613  12.437  0.5422  0.7602 -0.3535
  550TMC3    O1 8222   2.696   0.773  12.052  0.5101  0.7165 -0.4728
  550TMC3    O2 8223   3.033   0.571  12.519  1.0125  0.5572 -0.1163
  551TMC3    C1 8224   0.318   3.168  13.383  0.3473 -0.2250  1.4230
  551TMC3    C2 8225   0.395   3.230  13.284  0.3306  0.6696  0.2395
  551TMC3    C3 8226   0.501   3.314  13.321 -0.0918 -0.4921 -0.4715
  551TMC3    C4 8227   0.340   3.187  13.514  0.0058 -0.0525  0.8467
  551TMC3    C5 8228   0.441   3.276  13.546 -1.0439 -0.0173 -0.0699
  551TMC3    C6 8229   0.522   3.340  13.456  0.7419  0.2409  0.6335
  551TMC3     C 8230   0.201   3.091  13.350 -1.0444  0.0410 -0.1434
  551TMC3     O 8231   0.121   3.076  13.441 -0.3247  0.5548 -0.0204
  551TMC3     H 8232   0.375   3.218  13.178  1.2285 -2.5539  0.4330
  551TMC3    H1 8233   0.286   3.145  13.598 -2.0699  1.1790  0.1165
  551TMC3    H2 8234   0.605   3.395  13.500  0.8839 -0.9621  1.8555
  551TMC3    C7 8235   0.408   3.341  13.675  0.1532 -0.1085  0.3553
  551TMC3    C8 8236   0.586   3.372  13.218  0.8135  0.0243  0.0439
  551TMC3    O1 8237   0.457   3.292  13.777 -0.4753  0.1762 -0.2376
  551TMC3    O2 8238   0.608   3.294  13.128  0.3755 -0.0273  0.3080
  552MPD2     C 8239   2.173   0.874  14.083 -0.4441 -0.3639 -0.6408
  552MPD2    C1 8240   2.131   0.787  14.185 -0.2548  0.9540  0.4976
  552MPD2    C2 8241   2.207   0.754  14.291  0.0714 -0.2936 -0.6935
  552MPD2    C3 8242   2.337   0.806  14.293  0.2364 -0.5949  0.1010
  552MPD2    C4 8243   2.387   0.880  14.190 -0.5234 -0.3861 -0.5926
  552MPD2    C5 8244   2.306   0.920  14.085  0.7414 -0.3941  0.1739
  552MPD2     H 8245   2.170   0.687  14.367 -1.0735 -1.2423 -2.0897
  552MPD2    H1 8246   2.492   0.905  14.189 -1.0032  1.5715 -0.7805
  552MPD2    H2 8247   2.108   0.908  14.002 -0.5176  0.9562 -0.0313
  552MPD2    H3 8248   2.352   0.984  14.012  0.1727 -0.9954 -0.7058
  552MPD2     N 8249   2.428   0.771  14.393  0.2395 -0.2258 -0.1039
  552MPD2    H5 8250   2.525   0.793  14.375  0.0769 -0.8389 -1.7262
  552MPD2    N1 8251   2.002   0.728  14.190 -0.4579  0.2730  0.7091
  552MPD2    H7 8252   1.979   0.671  14.270  0.6963 -0.0894  0.7683
  553TMC3    C1 8253   1.808   0.629  14.111 -0.2444 -0.6339 -0.5857
  553TMC3    C2 8254   1.772   0.564  13.993 -0.3495 -0.7706  0.4648
  553TMC3    C3 8255   1.770   0.424  13.994 -1.3193 -0.1904  0.0557
  553TMC3    C4 8256   1.809   0.561  14.228 -0.3823  0.2431 -0.4458
  553TMC3    C5 8257   1.812   0.425  14.228  0.4436  0.0479  0.2361
  553TMC3    C6 8258   1.775   0.358  14.119  0.5878 -0.2779  0.1193
  553TMC3     C 8259   1.915   0.728  14.081 -0.3347  0.5222  0.8683
  553TMC3     O 8260   1.927   0.782  13.974  0.1032 -0.1650 -0.0087
  553TMC3     H 8261   1.794   0.616  13.901  1.5684 -1.2659  0.6419
  553TMC3    H1 8262   1.858   0.609  14.312 -0.0619 -1.7838  0.5199
  553TMC3    H2 8263   1.793   0.251  14.117 -0.2937 -0.4311  0.6574
  553TMC3    C7 8264   1.942   0.376  14.272  0.1223 -0.4771 -0.5489
  553TMC3    C8 8265   1.825   0.360  13.872  0.3770  0.3294  0.4137
  553TMC3    O1 8266   2.005   0.315  14.187  0.6106  1.0599  0.0974
  553TMC3    O2 8267   1.883   0.430  13.792 -0.1201 -0.0966  0.0025
  554TMC3    C1 8268   4.671   4.353  11.460  0.2392 -0.5399 -0.0726
  554TMC3    C2 8269   4.598   4.281  11.369 -0.0444  1.1749 -0.5028
  554TMC3    C3 8270   4.593   4.334  11.243 -0.1268  0.4113  0.4768
  554TMC3    C4 8271   4.734   4.477  11.437  0.0787  0.0075 -0.1174
  554TMC3    C5 8272   4.725   4.520  11.307 -0.2700 -0.6621 -0.1353
  554TMC3    C6 8273   4.652   4.454  11.213  0.2583  0.2412 -0.4081
  554TMC3     C 8274   4.700   4.292  11.591 -0.3773 -0.6377  0.6530
  554TMC3     O 8275   0.064   4.341  11.647 -0.0883 -0.0742  0.3138
  554TMC3     H 8276   4.555   4.183  11.385  2.8925  0.3281  2.4595
  554TMC3    H1 8277   0.060   4.526  11.511  0.8813 -1.0651 -0.0761
  554TMC3    H2 8278   4.631   4.498  11.115 -0.2664  0.4468 -0.2055
  554TMC3    C7 8279   0.057   4.648  11.290  0.6264 -0.4561 -0.0813
  554TMC3    C8 8280   4.503   4.285  11.139  0.5709 -0.1320  0.2182
  554TMC3    O1 8281   0.131   4.686  11.381  0.5644  0.2699  0.1451
  554TMC3    O2 8282   4.534   4.332  11.028 -0.3416 -0.0978  1.0201
  555TMC3    C1 8283   2.933   4.359  15.003 -0.2999  0.1527  0.4920
  555TMC3    C2 8284   2.883   4.411  15.117 -0.3289  0.6973  0.0590
  555TMC3    C3 8285   2.869   4.328  15.219  0.9057  0.8077 -0.0740
  555TMC3    C4 8286   2.947   4.222  14.984 -0.2174 -1.0822  0.1474
  555TMC3    C5 8287   2.918   4.139  15.091 -0.1358  0.2151 -0.6272
  555TMC3    C6 8288   2.889   4.189  15.214 -0.2350 -0.5382  0.2752
  555TMC3     C 8289   2.903   4.430  14.888 -0.5745 -0.5200 -0.6456
  555TMC3     O 8290   2.994   4.465  14.818 -0.3942  0.0019  0.2747
  555TMC3     H 8291   2.864   4.517  15.118  0.4952  0.8536 -0.7584
  555TMC3    H1 8292   2.981   4.186  14.888 -2.0628 -2.8197  0.1499
  555TMC3    H2 8293   2.875   4.121  15.297 -0.3235  0.2631  0.9102
  555TMC3    C7 8294   2.948   3.994  15.090  0.1023 -0.3323  0.4693
  555TMC3    C8 8295   2.814   4.387  15.336  0.1604 -0.0870 -0.3691
  555TMC3    O1 8296   2.956   3.935  15.202 -0.9308 -0.3684  0.3086
  555TMC3    O2 8297   2.720   4.462  15.325  0.3359  0.0045  0.2115
  556MPD2     C 8298   1.407   1.023  10.686  0.6971 -0.1719 -0.0437
  556MPD2    C1 8299   1.510   0.938  10.719  0.0991 -0.3725  0.3708
  556MPD2    C2 8300   1.559   0.850  10.625 -1.5096 -0.0388 -0.0460
  556MPD2    C3 8301   1.502   0.842  10.499 -0.8424  0.4818 -0.4675
  556MPD2    C4 8302   1.394   0.922  10.473  0.3417 -0.1860  0.0937
  556MPD2    C5 8303   1.348   1.014  10.562 -0.1826 -0.5166  0.0909
  556MPD2     H 8304   1.645   0.793  10.658 -1.2190 -0.8747 -2.2586
  556MPD2    H1 8305   1.346   0.912  10.376 -1.4927  3.2369  0.6260
  556MPD2    H2 8306   1.378   1.105  10.752 -1.0060 -1.7416  1.1571
  556MPD2    H3 8307   1.274   1.089  10.534 -0.8663 -2.0076 -2.0616
  556MPD2     N 8308   1.548   0.750  10.395 -0.3115 -0.4445 -0.3358
  556MPD2    H5 8309   1.615   0.679  10.425  0.5471  0.6293  0.2966
  556MPD2    N1 8310   1.569   0.931  10.847 -0.1363  0.2129 -0.5863
  556MPD2    H7 8311   1.635   0.857  10.869 -0.6317  0.1497  0.7376
  557TMC3    C1 8312   1.554   0.641  10.183  0.0932  0.0381 -0.0281
  557TMC3    C2 8313   1.575   0.662  10.053  0.5497 -0.1629 -0.1691
  557TMC3    C3 8314   1.572   0.557   9.968 -0.3037  0.2238 -0.4010
  557TMC3    C4 8315   1.543   0.520  10.243  0.3827 -0.0896 -0.6313
  557TMC3    C5 8316   1.561   0.413  10.157  0.6405  1.0301 -1.2631
  557TMC3    C6 8317   1.580   0.427  10.018 -0.2972 -0.8234 -0.1440
  557TMC3     C 8318   1.516   0.759  10.262 -0.3697  0.0950  0.3426
  557TMC3     O 8319   1.469   0.847  10.198  0.2629  0.2152 -0.5566
  557TMC3     H 8320   1.557   0.761  10.014 -0.1412 -1.0379 -2.0732
  557TMC3    H1 8321   1.510   0.510  10.345 -1.5655  2.5208 -1.0014
  557TMC3    H2 8322   1.580   0.339   9.955  0.9549 -0.5222 -0.5444
  557TMC3    C7 8323   1.554   0.284  10.220 -0.1812 -0.6299 -0.2635
  557TMC3    C8 8324   1.485   0.579   9.855  0.1326  0.0608  0.6990
  557TMC3    O1 8325   1.498   0.190  10.160 -0.1536  0.0670 -0.1996
  557TMC3    O2 8326   1.471   0.695   9.814 -0.1247  0.3641  0.7417
  558TMC3    C1 8327   3.970   3.506  10.315  0.7998  1.2126 -0.0639
  558TMC3    C2 8328   3.846   3.474  10.362  0.2208 -0.0937  0.3123
  558TMC3    C3 8329   3.741   3.515  10.291 -0.3204  0.4611  0.6554
  558TMC3    C4 8330   3.989   3.559  10.193 -0.3052 -0.3760  0.7263
  558TMC3    C5 8331   3.876   3.593  10.122  0.6339  0.2901  0.0708
  558TMC3    C6 8332   3.749   3.578  10.168  1.1428 -0.4715  0.4123
  558TMC3     C 8333   4.086   3.464  10.390 -0.5306 -0.0336  0.3963
  558TMC3     O 8334   4.194   3.450  10.331  0.2212  0.0871 -0.5189
  558TMC3     H 8335   3.839   3.392  10.433 -0.4295 -1.2727 -1.0899
  558TMC3    H1 8336   4.085   3.550  10.143 -0.3657  0.5319  0.4473
  558TMC3    H2 8337   3.662   3.626  10.124  0.3471 -1.0673  1.3342
  558TMC3    C7 8338   3.891   3.600   9.980  0.3173 -0.7123  0.1076
  558TMC3    C8 8339   3.605   3.493  10.338  0.0349 -0.5733 -0.0199
  558TMC3    O1 8340   4.008   3.604   9.945  0.2969  0.3315  0.4785
  558TMC3    O2 8341   3.514   3.531  10.266  0.4058  0.4660  0.2336
  559MPD2     C 8342   4.030   3.805  10.426  0.3368 -0.1009 -0.3008
  559MPD2    C1 8343   3.974   3.807  10.550  0.6066  0.9535  0.1331
  559MPD2    C2 8344   4.059   3.785  10.658  0.0401  0.8464  0.9844
  559MPD2    C3 8345   4.195   3.777  10.643  0.5877  0.2476 -0.1363
  559MPD2    C4 8346   4.250   3.776  10.518 -0.3238 -0.1053 -0.1559
  559MPD2    C5 8347   4.168   3.794  10.411  0.7291 -0.7741  0.0861
  559MPD2     H 8348   4.015   3.775  10.756  1.8327 -0.8833  1.6022
  559MPD2    H1 8349   4.357   3.776  10.504 -0.1154 -0.2471  1.5277
  559MPD2    H2 8350   3.969   3.835  10.342  0.5252  2.8226  0.6143
  559MPD2    H3 8351   4.210   3.798  10.311  1.7630  0.0136  0.5605
  559MPD2     N 8352   4.272   3.761  10.762  0.1120  0.0322 -0.1143
  559MPD2    H5 8353   4.212   3.741  10.841  1.1557 -0.1693  0.6290
  559MPD2    N1 8354   3.833   3.836  10.561 -0.1684 -0.0338 -0.2775
  559MPD2    H7 8355   3.789   3.851  10.471  0.6950  0.9959 -0.5235
  560TMC3    C1 8356   4.448   3.748  10.917  0.2244 -0.0151 -0.0244
  560TMC3    C2 8357   4.365   3.666  10.984 -0.2729 -0.0637 -0.5352
  560TMC3    C3 8358   4.350   3.688  11.113 -0.3120  0.9935  0.5088
  560TMC3    C4 8359   4.543   3.822  10.986  0.7515 -0.6475 -0.1366
  560TMC3    C5 8360   4.532   3.824  11.125  0.7377 -0.2051  0.0452
  560TMC3    C6 8361   4.424   3.767  11.185  0.2613  0.4883 -0.8058
  560TMC3     C 8362   4.405   3.785  10.782  0.3886  0.2628  0.4876
  560TMC3     O 8363   4.487   3.831  10.707  0.0596  0.2018 -0.4003
  560TMC3     H 8364   4.304   3.601  10.923  0.5458 -1.9810  0.7062
  560TMC3    H1 8365   4.625   3.869  10.932  0.8365 -0.0638  0.5054
  560TMC3    H2 8366   4.404   3.791  11.289  2.6610 -0.0967 -0.2178
  560TMC3    C7 8367   4.618   3.903  11.202  0.2947 -0.5211  0.1431
  560TMC3    C8 8368   4.226   3.642  11.175 -0.4648  0.1112 -0.7904
  560TMC3    O1 8369   4.573   3.921  11.317 -0.0868 -0.1008  0.5857
  560TMC3    O2 8370   4.140   3.627  11.091  0.4978 -0.1215 -0.0195
  561TMC3    C1 8371   1.582   3.626  11.606  0.5633  0.2434 -0.3240
  561TMC3    C2 8372   1.514   3.655  11.728 -0.2696  0.0135 -0.5163
  561TMC3    C3 8373   1.473   3.788  11.750  0.7540  0.0248  0.1710
  561TMC3    C4 8374   1.618   3.727  11.515 -0.0651  0.1489 -0.1830
  561TMC3    C5 8375   1.581   3.852  11.550 -0.7060  0.1264 -0.5596
  561TMC3    C6 8376   1.512   3.883  11.662 -0.0196  0.4773 -0.2795
  561TMC3     C 8377   1.636   3.493  11.589  0.2062 -0.0628  0.2321
  561TMC3     O 8378   1.580   3.415  11.664  0.3212 -0.3388  0.0354
  561TMC3     H 8379   1.507   3.577  11.803 -0.6448 -1.0527 -1.6622
  561TMC3    H1 8380   1.677   3.710  11.426 -0.3700 -0.2915 -0.2998
  561TMC3    H2 8381   1.491   3.987  11.683 -0.1287  0.4795 -0.4003
  561TMC3    C7 8382   1.600   3.959  11.458  0.1588 -0.1195 -0.4549
  561TMC3    C8 8383   1.410   3.825  11.873 -0.4435  0.0736  0.4983
  561TMC3    O1 8384   1.542   4.063  11.488 -0.1333  0.6146  0.1313
  561TMC3    O2 8385   1.408   3.944  11.905  0.0634 -0.2916  0.2810
  562TMC3    C1 8386   2.831   4.286  16.506 -0.3069 -1.0768 -0.1056
  562TMC3    C2 8387   2.816   4.418  16.466  0.5704  0.4596 -0.7918
  562TMC3    C3 8388   2.741   4.439  16.357  0.2646  0.1212  0.1301
  562TMC3    C4 8389   2.781   4.182  16.442 -0.8743 -0.1245 -0.3101
  562TMC3    C5 8390   2.703   4.214  16.335 -0.4163  0.2832  0.2464
  562TMC3    C6 8391   2.687   4.338  16.281 -0.1494  0.1470  0.8447
  562TMC3     C 8392   2.910   4.264  16.623  0.3198 -0.7346 -0.4248
  562TMC3     O 8393   2.934   4.365  16.685  0.9828 -0.6741 -0.2451
  562TMC3     H 8394   2.850   4.499  16.529 -0.9871  1.3024 -1.0479
  562TMC3    H1 8395   2.813   4.082  16.469  1.4794  0.9808  1.0728
  562TMC3    H2 8396   2.629   4.357  16.192  2.1157  2.4400 -0.1462
  562TMC3    C7 8397   2.655   4.106  16.250 -0.6314 -0.4692  0.2693
  562TMC3    C8 8398   2.733   4.582  16.319 -0.1899  0.0292 -0.0311
  562TMC3    O1 8399   2.610   4.138  16.142  0.0897  0.1164  0.2724
  562TMC3    O2 8400   2.774   4.667  16.396 -0.3636 -0.1269 -0.2770
  563MPD2     C 8401   0.969   0.867  15.675  0.2341  0.1303 -0.7615
  563MPD2    C1 8402   0.988   0.914  15.802 -0.4574  0.0256  0.4583
  563MPD2    C2 8403   1.107   0.871  15.857  0.3914 -0.2213 -0.1781
  563MPD2    C3 8404   1.188   0.771  15.814 -0.4038  0.7399 -0.4823
  563MPD2    C4 8405   1.167   0.729  15.682  0.4169  0.0506  0.4097
  563MPD2    C5 8406   1.058   0.781  15.618 -0.5187 -0.2473  0.1334
  563MPD2     H 8407   1.137   0.908  15.954  1.3767 -0.1626 -0.5096
  563MPD2    H1 8408   1.222   0.648  15.636 -0.2241 -0.5366  0.6873
  563MPD2    H2 8409   0.888   0.895  15.608 -0.6331  1.5988  0.9250
  563MPD2    H3 8410   1.029   0.734  15.524 -0.6169 -2.9242  1.5105
  563MPD2     N 8411   1.281   0.718  15.897  0.4531  0.3332 -0.3308
  563MPD2    H5 8412   1.306   0.774  15.978 -0.2350 -0.0446  0.1413
  563MPD2    N1 8413   0.915   1.015  15.869 -0.2479  0.0651 -0.4053
  563MPD2    H7 8414   0.962   1.050  15.953  0.9909  1.3897 -1.6263
  564TMC3    C1 8415   0.720   1.123  15.940 -0.1801  0.3683  0.0520
  564TMC3    C2 8416   0.591   1.120  15.898  0.8552  0.4705 -0.0808
  564TMC3    C3 8417   0.499   1.057  15.986  0.6912 -0.2340 -0.0734
  564TMC3    C4 8418   0.758   1.076  16.060 -0.0728  0.4303 -0.2096
  564TMC3    C5 8419   0.667   1.032  16.149  0.3734  0.4392 -0.0957
  564TMC3    C6 8420   0.534   1.020  16.112 -0.1892  0.4429  0.0786
  564TMC3     C 8421   0.792   1.054  15.831 -0.7655 -0.6071  0.1122
  564TMC3     O 8422   0.730   1.011  15.735  0.0380  0.5533  0.3553
  564TMC3     H 8423   0.560   1.157  15.801  1.0425  1.0336  0.0772
  564TMC3    H1 8424   0.861   1.070  16.090 -0.1522 -1.0841 -0.2365
  564TMC3    H2 8425   0.454   0.984  16.176  0.5622 -1.4354 -0.0274
  564TMC3    C7 8426   0.714   0.934  16.244 -0.0003  0.1999  0.3142
  564TMC3    C8 8427   0.405   0.958  15.931 -0.3270 -0.0020 -0.6304
  564TMC3    O1 8428   0.635   0.914  16.336 -0.1499 -0.4790  0.4321
  564TMC3    O2 8429   0.322   0.901  16.006 -0.1779  0.0775  0.1906
  565TMC3    C1 8430   1.088   1.905  10.485 -0.3853 -0.4188 -0.3773
  565TMC3    C2 8431   1.068   1.783  10.552 -0.9204 -0.1361 -0.1500
  565TMC3    C3 8432   1.000   1.679  10.484  0.6715  0.2076 -0.2380
  565TMC3    C4 8433   1.030   1.926  10.360  0.4027  0.3445 -0.6169
  565TMC3    C5 8434   0.965   1.820  10.296 -0.2693  0.0668 -0.3052
  565TMC3    C6 8435   0.951   1.697  10.357 -0.1272  0.7311 -0.1062
  565TMC3     C 8436   1.196   1.993  10.526  0.2638 -0.9389 -0.2196
  565TMC3     O 8437   1.209   2.096  10.457 -0.0291 -0.4700  0.3403
  565TMC3     H 8438   1.084   1.769  10.658 -0.7807  1.6111  0.0523
  565TMC3    H1 8439   1.041   2.026  10.320 -0.0001  1.8625  3.0650
  565TMC3    H2 8440   0.864   1.640  10.325  0.1624  0.3827 -0.2685
  565TMC3    C7 8441   0.891   1.847  10.175 -0.5336  0.1153 -0.1059
  565TMC3    C8 8442   0.984   1.557  10.551 -0.4973 -0.9323  0.2550
  565TMC3    O1 8443   0.848   1.753  10.111  0.2118 -0.6886  0.0295
  565TMC3    O2 8444   1.027   1.546  10.664 -0.3337  0.0461  0.2410
  566MPD2     C 8445   3.344   3.812  14.445  0.4767 -0.1135 -0.2662
  566MPD2    C1 8446   3.268   3.926  14.443 -1.0855 -0.2349  0.5846
  566MPD2    C2 8447   3.133   3.926  14.432 -0.5545 -0.1467  0.6831
  566MPD2    C3 8448   3.063   3.811  14.421 -0.0710 -0.3271  0.2573
  566MPD2    C4 8449   3.138   3.693  14.419  0.3971  0.3550 -0.5625
  566MPD2    C5 8450   3.275   3.691  14.424  0.6732  0.3492 -0.2912
  566MPD2     H 8451   3.072   4.013  14.452  0.1454  0.2016  1.2843
  566MPD2    H1 8452   3.090   3.598  14.399  1.0914 -0.1421  0.1431
  566MPD2    H2 8453   3.452   3.806  14.443  0.5295  0.4924  0.9571
  566MPD2    H3 8454   3.323   3.594  14.417 -0.8246 -0.3180 -1.2845
  566MPD2     N 8455   2.920   3.800  14.406 -0.8144  0.0742 -0.3262
  566MPD2    H5 8456   2.875   3.709  14.413 -1.7470  0.5086 -0.7038
  566MPD2    N1 8457   3.339   4.046  14.452 -0.0932 -0.7071 -0.3082
  566MPD2    H7 8458   3.440   4.041  14.457 -0.0232 -1.8139 -2.7741
  567TMC3    C1 8459   3.356   4.280  14.452  0.0213 -0.6593 -0.0199
  567TMC3    C2 8460   3.429   4.277  14.332 -0.2844  0.5182  0.4364
  567TMC3    C3 8461   3.434   4.396  14.263 -0.0177 -0.0021 -0.6407
  567TMC3    C4 8462   3.281   4.394  14.481 -0.7157 -0.1544 -0.2512
  567TMC3    C5 8463   3.278   4.503  14.405  0.3971 -0.2057 -0.4436
  567TMC3    C6 8464   3.368   4.512  14.299 -0.1262 -0.2148  0.1491
  567TMC3     C 8465   3.282   4.166  14.485 -0.0083  0.9303  0.1214
  567TMC3     O 8466   3.176   4.182  14.548  0.6874 -0.2795 -0.6925
  567TMC3     H 8467   3.475   4.184  14.302 -1.4868 -0.4223  1.5157
  567TMC3    H1 8468   3.225   4.407  14.573  0.8849 -1.6648  0.9536
  567TMC3    H2 8469   3.382   4.606  14.247 -1.5302  0.9936  1.9493
  567TMC3    C7 8470   3.148   4.508  14.345 -0.8991 -0.0980  0.0578
  567TMC3    C8 8471   3.423   4.369  14.113  0.3085  0.1372  0.2981
  567TMC3    O1 8472   3.140   4.576  14.245  0.1288 -0.0343  0.2466
  567TMC3    O2 8473   3.475   4.261  14.077 -0.0256  0.1493  0.1464
  568MPD2     C 8474   0.365   4.302  16.126 -0.4779  0.3100  0.4998
  568MPD2    C1 8475   0.325   4.387  16.223 -0.0407  0.2240  0.5471
  568MPD2    C2 8476   0.259   4.501  16.194  0.7196  0.3397 -0.1953
  568MPD2    C3 8477   0.224   4.531  16.060 -0.3360  0.2305 -0.0734
  568MPD2    C4 8478   0.276   4.444  15.963  0.2861 -0.1082 -0.0607
  568MPD2    C5 8479   0.334   4.329  15.994  0.6705 -0.4676 -0.2702
  568MPD2     H 8480   0.220   4.568  16.269  0.9836 -0.0862  0.3184
  568MPD2    H1 8481   0.270   4.463  15.856  1.4792  0.9350  0.0618
  568MPD2    H2 8482   0.434   4.220  16.139 -3.3416 -1.5697  3.6098
  568MPD2    H3 8483   0.358   4.261  15.912 -1.3242  0.4363 -1.6068
  568MPD2     N 8484   0.142   4.645  16.028  0.0012 -0.0205  0.8997
  568MPD2    H5 8485   0.109   4.708  16.100  1.0588  0.7009  0.7508
  568MPD2    N1 8486   0.362   4.345  16.356 -0.4987  0.0868 -0.0978
  568MPD2    H7 8487   0.414   4.259  16.363 -0.6749 -0.0132 -0.0258
  569TMC3    C1 8488   0.056   0.083  15.893  0.1244 -0.1677 -0.2416
  569TMC3    C2 8489   0.014   0.130  16.017  0.1614  0.3667  0.4062
  569TMC3    C3 8490   0.022   0.266  16.040  0.5310  0.0474 -0.0163
  569TMC3    C4 8491   0.098   0.169  15.796  0.3304 -0.3659 -0.4150
  569TMC3    C5 8492   0.104   0.301  15.828 -0.3316  0.4468  0.3877
  569TMC3    C6 8493   0.067   0.357  15.943  0.0693  0.3581  0.4895
  569TMC3     C 8494   0.128   4.693  15.899  0.5502  0.4330  0.1226
  569TMC3     O 8495   0.192   4.679  15.796  0.0056  0.7805  1.0238
  569TMC3     H 8496   4.702   0.070  16.094  0.7599 -0.0399  0.4585
  569TMC3    H1 8497   0.139   0.129  15.704 -1.7460  0.0331 -1.5173
  569TMC3    H2 8498   0.074   0.463  15.964 -0.8050  0.5397 -0.1213
  569TMC3    C7 8499   0.157   0.390  15.730  0.1280  0.4590 -0.2936
  569TMC3    C8 8500   4.712   0.311  16.169  0.7129 -0.1188  0.0929
  569TMC3    O1 8501   0.159   0.350  15.615  0.3745 -0.1979  0.2631
  569TMC3    O2 8502   4.628   0.234  16.216 -0.1973  0.2694 -0.4271
  570TMC3    C1 8503   4.093   2.816  16.296  0.1755 -0.7982  0.6859
  570TMC3    C2 8504   4.167   2.848  16.182 -0.6603 -0.2975 -0.3573
  570TMC3    C3 8505   4.198   2.979  16.153 -0.1791 -0.3668  0.2950
  570TMC3    C4 8506   4.051   2.913  16.383 -0.0644 -0.8270  0.0730
  570TMC3    C5 8507   4.070   3.045  16.336 -0.2316  0.3134 -0.2934
  570TMC3    C6 8508   4.145   3.081  16.233 -0.2888 -0.7280 -0.3864
  570TMC3     C 8509   4.069   2.677  16.336  0.1311  0.2399 -0.1799
  570TMC3     O 8510   4.092   2.595  16.249  0.2617  0.7151 -0.3181
  570TMC3     H 8511   4.204   2.773  16.114  2.0632 -0.4935  1.3296
  570TMC3    H1 8512   3.980   2.897  16.464 -0.0893 -0.3905  0.1335
  570TMC3    H2 8513   4.177   3.182  16.209 -0.9523 -0.3813  0.1938
  570TMC3    C7 8514   3.994   3.142  16.407 -0.2695  0.0475  0.4224
  570TMC3    C8 8515   4.305   3.026  16.055  1.7212  0.3164 -0.2039
  570TMC3    O1 8516   3.958   3.117  16.523  0.1459  0.0006 -0.1053
  570TMC3    O2 8517   4.367   3.130  16.079  0.4571  1.1466 -0.1207
  571MPD2     C 8518   1.718   4.561   0.483  0.1578 -1.0276  0.0613
  571MPD2    C1 8519   1.742   4.652   0.592 -1.2901  0.9453 -0.4854
  571MPD2    C2 8520   1.806   0.036   0.563  0.5939  0.1717  0.7917
  571MPD2    C3 8521   1.847   0.061   0.432  0.3720  0.5902  0.1101
  571MPD2    C4 8522   1.811   4.708   0.334  0.1079  0.6297 -0.1759
  571MPD2    C5 8523   1.736   4.592   0.355 -0.1696  0.0812  0.7046
  571MPD2     H 8524   1.836   0.106   0.640  1.6109  0.4658  0.1272
  571MPD2    H1 8525   1.842   4.719   0.230  1.0450  1.8133  0.2126
  571MPD2    H2 8526   1.665   4.467   0.496 -0.2748 -0.7055  0.6524
  571MPD2    H3 8527   1.711   4.515   0.283 -0.6178 -0.0154  0.9600
  571MPD2     N 8528   1.924   0.183   0.408  0.1318 -0.3958  0.3437
  571MPD2    H5 8529   1.953   0.193   0.311 -0.6126 -2.1860 -0.0545
  571MPD2    N1 8530   1.732   4.605   0.731 -0.4309  0.0308 -0.0043
  571MPD2    H7 8531   1.770   4.663   0.805 -2.3643  2.0787 -0.6446
  572TMC3    C1 8532   2.081   0.356   0.451 -0.1762 -0.0308  0.0086
  572TMC3    C2 8533   2.196   0.290   0.415  0.6828  0.9334  0.1577
  572TMC3    C3 8534   2.314   0.355   0.391 -0.0457 -0.1494 -0.2999
  572TMC3    C4 8535   2.089   0.487   0.489 -0.5268  0.5685  0.1077
  572TMC3    C5 8536   2.214   0.548   0.474  0.4142 -0.1169 -0.9153
  572TMC3    C6 8537   2.329   0.485   0.431 -0.1149 -0.1362 -0.4080
  572TMC3     C 8538   1.966   0.279   0.499 -0.3887  0.2462 -0.4760
  572TMC3     O 8539   1.914   0.311   0.610  0.0356 -0.0500 -0.1114
  572TMC3     H 8540   2.197   0.191   0.370  2.8289  1.6698 -1.4210
  572TMC3    H1 8541   2.007   0.542   0.534  0.5812  3.0237 -0.8825
  572TMC3    H2 8542   2.427   0.531   0.430  0.2656 -0.9522 -0.4643
  572TMC3    C7 8543   2.214   0.691   0.500 -0.0713  0.0459  0.4542
  572TMC3    C8 8544   2.437   0.277   0.367  0.2679 -0.5891  0.0674
  572TMC3    O1 8545   2.104   0.741   0.509  0.5092 -0.0217 -0.0049
  572TMC3    O2 8546   2.527   0.341   0.319  0.3179  0.7655 -0.1368
  573MPD2     C 8547   2.978   0.185   0.099  0.4357  0.2642 -0.1104
  573MPD2    C1 8548   2.933   0.304   0.143  0.6506  0.9278  0.6191
  573MPD2    C2 8549   2.803   0.340   0.107  0.2328  0.2182 -0.1754
  573MPD2    C3 8550   2.722   0.263   0.026  0.3490  0.4458  0.2760
  573MPD2    C4 8551   2.774   0.142  17.730  0.3272  0.4338  0.4177
  573MPD2    C5 8552   2.900   0.110   0.015 -0.1896  0.4513 -1.0064
  573MPD2     H 8553   2.766   0.436   0.139 -0.8416  0.6591 -2.6934
  573MPD2    H1 8554   2.708   0.075  17.676 -0.8541  2.0764 -0.1769
  573MPD2    H2 8555   3.076   0.145   0.118 -0.5498 -2.1579 -0.1379
  573MPD2    H3 8556   2.943   0.015  17.723 -1.5826  0.3045 -2.4193
  573MPD2     N 8557   2.598   0.303  17.718  0.2569  0.6973  0.0368
  573MPD2    H5 8558   2.534   0.228  17.691  1.0599 -0.1340  0.4355
  573MPD2    N1 8559   3.022   0.380   0.217  0.5465 -0.0453 -0.4370
  573MPD2    H7 8560   3.111   0.339   0.245  0.5751 -2.1312 -3.5318
  574TMC3    C1 8561   2.407   0.443  17.732 -0.0618 -1.1749  0.2718
  574TMC3    C2 8562   2.376   0.559   0.055  0.7744 -0.0429 -0.2465
  574TMC3    C3 8563   2.256   0.572   0.119  0.4155 -0.1415  0.6711
  574TMC3    C4 8564   2.324   0.332   0.006  0.4509  0.2153  0.1770
  574TMC3    C5 8565   2.200   0.351   0.065  0.0317  0.3661  0.1379
  574TMC3    C6 8566   2.165   0.474   0.130  0.0958  0.0656 -0.1792
  574TMC3     C 8567   2.553   0.431  17.732  0.4413  0.2843  0.2912
  574TMC3     O 8568   2.617   0.533  17.727  0.3969  0.0537  0.0716
  574TMC3     H 8569   2.436   0.648   0.043 -1.0508  0.8897 -2.3838
  574TMC3    H1 8570   2.352   0.232  17.716 -2.0012 -0.6140  0.6748
  574TMC3    H2 8571   2.063   0.501   0.155  0.8740  0.3808  2.6264
  574TMC3    C7 8572   2.096   0.249   0.055 -1.1022 -0.5002  0.2894
  574TMC3    C8 8573   2.197   0.705   0.143 -0.1638 -0.2424  0.6030
  574TMC3    O1 8574   2.021   0.229   0.152 -0.5774 -0.2109 -0.6156
  574TMC3    O2 8575   2.073   0.714   0.151 -0.4741 -0.1763 -0.1131
  575TMC3    C1 8576   1.045   1.014  11.241 -0.4490  0.0048  0.0463
  575TMC3    C2 8577   1.103   0.894  11.214  0.1926  0.5843 -0.0637
  575TMC3    C3 8578   1.129   0.860  11.087 -0.3835 -0.2070  0.5870
  575TMC3    C4 8579   1.028   1.109  11.148  0.5654  0.1084 -0.3577
  575TMC3    C5 8580   1.054   1.074  11.019 -0.1217  0.9279 -0.1338
  575TMC3    C6 8581   1.112   0.950  10.987 -0.0457  0.0383 -0.4360
  575TMC3     C 8582   1.068   1.056  11.379  0.2504  0.6713 -0.3173
  575TMC3     O 8583   1.060   0.971  11.467  0.1573  0.3215  0.2787
  575TMC3     H 8584   1.122   0.834  11.302 -0.7072  1.1027  0.4834
  575TMC3    H1 8585   0.969   1.195  11.178  2.2088  0.2338  2.5054
  575TMC3    H2 8586   1.154   0.933  10.888  1.2601 -0.4326  0.2101
  575TMC3    C7 8587   1.022   1.163  10.910 -0.3736 -0.2278 -0.2091
  575TMC3    C8 8588   1.212   0.739  11.081  0.5437 -0.6275  0.2716
  575TMC3    O1 8589   1.039   1.281  10.930  0.5078  0.5004  0.1353
  575TMC3    O2 8590   1.226   0.680  11.182 -0.6772  0.1807 -0.1168
  576MPD2     C 8591   0.346   3.276  12.746  0.5204 -0.0782 -0.5364
  576MPD2    C1 8592   0.460   3.352  12.734  0.3274 -0.4124 -0.4756
  576MPD2    C2 8593   0.465   3.457  12.821 -0.3241 -0.0623 -0.8040
  576MPD2    C3 8594   0.371   3.479  12.924  0.5882 -0.3255  0.1371
  576MPD2    C4 8595   0.287   3.376  12.951 -0.0604  1.3562  0.6034
  576MPD2    C5 8596   0.270   3.274  12.864  0.2686  0.0844 -0.5973
  576MPD2     H 8597   0.539   3.535  12.806  1.3287 -1.3880  0.6285
  576MPD2    H1 8598   0.226   3.375  13.040 -1.0827  0.7990 -0.1050
  576MPD2    H2 8599   0.324   3.201  12.670  0.4372 -1.4232  0.8200
  576MPD2    H3 8600   0.188   3.205  12.883  0.4314  0.2865  0.8409
  576MPD2     N 8601   0.380   3.597  13.012  0.1013 -0.7280  0.0743
  576MPD2    H5 8602   0.438   3.671  12.973 -0.2176 -0.7604 -0.4567
  576MPD2    N1 8603   0.561   3.347  12.629 -0.1490  0.8245  0.8125
  576MPD2    H7 8604   0.642   3.407  12.640 -0.2389  0.8129  1.5380
  577TMC3    C1 8605   0.683   3.260  12.442 -0.8918  0.6309  0.1886
  577TMC3    C2 8606   0.752   3.379  12.418 -0.1975 -0.4054  0.5810
  577TMC3    C3 8607   0.857   3.378  12.327  0.6494 -0.1010  0.3713
  577TMC3    C4 8608   0.708   3.148  12.365 -0.2799 -0.1823 -0.2717
  577TMC3    C5 8609   0.795   3.157  12.261  0.9055 -0.6580  0.0133
  577TMC3    C6 8610   0.880   3.271  12.247 -0.4575  0.5017  0.3663
  577TMC3     C 8611   0.560   3.266  12.519  0.1184 -0.4519 -0.9790
  577TMC3     O 8612   0.469   3.194  12.474  0.1840  0.1622  0.7983
  577TMC3     H 8613   0.726   3.473  12.466  2.8568  1.5051 -1.5193
  577TMC3    H1 8614   0.647   3.061  12.388  0.6332 -0.5543  0.7473
  577TMC3    H2 8615   0.948   3.267  12.163 -1.7850  3.0818 -0.8236
  577TMC3    C7 8616   0.744   3.092  12.149  0.3353 -0.0401  0.2080
  577TMC3    C8 8617   0.951   3.488  12.342 -0.0099 -0.8780  0.0833
  577TMC3    O1 8618   0.700   2.977  12.167  0.2196 -0.1836 -0.4231
  577TMC3    O2 8619   0.955   3.542  12.448 -0.2734  0.1140  1.0586
  578MPD2     C 8620   3.958   3.417   0.993  0.0341  0.1113  0.3594
  578MPD2    C1 8621   3.951   3.296   0.925  0.7754  0.3791 -0.3743
  578MPD2    C2 8622   4.008   3.179   0.981  1.0138 -0.4112  0.2119
  578MPD2    C3 8623   4.084   3.189   1.091  0.9700 -0.6605  0.3507
  578MPD2    C4 8624   4.084   3.304   1.164 -0.1072  1.0857 -0.0739
  578MPD2    C5 8625   4.026   3.417   1.110  1.4429  0.1757  0.6208
  578MPD2     H 8626   4.001   3.077   0.944 -1.4877  0.1025 -0.7541
  578MPD2    H1 8627   4.127   3.307   1.263 -1.9247 -3.3347  0.8362
  578MPD2    H2 8628   3.905   3.506   0.959  1.3856  1.2319  1.1568
  578MPD2    H3 8629   4.019   3.496   1.184 -0.2706 -2.1117  2.8762
  578MPD2     N 8630   4.143   3.068   1.139  0.2413  0.9382 -0.6315
  578MPD2    H5 8631   4.130   2.987   1.080 -1.8179 -0.6628  2.0046
  578MPD2    N1 8632   3.882   3.295   0.804 -0.4013 -0.8946 -0.6258
  578MPD2    H7 8633   3.865   3.389   0.769  3.4239  0.5306  1.3547
  579TMC3    C1 8634   4.282   2.922   1.265 -0.1907  0.1544 -0.6007
  579TMC3    C2 8635   4.413   2.918   1.299  0.0078 -0.0727  0.3592
  579TMC3    C3 8636   4.467   2.791   1.318 -1.0013 -0.2763  0.0224
  579TMC3    C4 8637   4.203   2.819   1.249  0.0153 -0.2705 -0.4126
  579TMC3    C5 8638   4.259   2.694   1.283 -0.1242 -0.0056 -0.6005
  579TMC3    C6 8639   4.396   2.677   1.301  0.7335 -0.3733 -0.4031
  579TMC3     C 8640   4.230   3.056   1.242  0.3715  0.5687  0.3494
  579TMC3     O 8641   4.300   3.142   1.291  0.2382 -0.3656 -0.3207
  579TMC3     H 8642   4.478   3.002   1.320  0.4313 -0.5014  0.7397
  579TMC3    H1 8643   4.097   2.839   1.244  0.1474  0.6301  0.4371
  579TMC3    H2 8644   4.435   2.580   1.328 -0.7804 -1.5892 -2.5561
  579TMC3    C7 8645   4.182   2.576   1.251 -0.0868 -0.5695 -0.2942
  579TMC3    C8 8646   4.600   2.779   1.377 -0.0902 -0.5598 -0.1101
  579TMC3    O1 8647   4.233   2.473   1.280  0.5003 -0.0430  0.0041
  579TMC3    O2 8648   4.614   2.682   1.447 -0.2387 -0.3105 -0.0396
  580TMC3    C1 8649   3.107   2.042  11.824  0.1122 -0.6902 -0.3887
  580TMC3    C2 8650   3.160   1.998  11.706  0.5184 -0.4653  0.2905
  580TMC3    C3 8651   3.166   1.861  11.681  0.6458  0.5344  0.0020
  580TMC3    C4 8652   3.062   1.957  11.921 -0.1076 -0.6341 -0.2915
  580TMC3    C5 8653   3.079   1.821  11.900 -0.6241 -0.6315 -0.4860
  580TMC3    C6 8654   3.139   1.773  11.782  0.4777  0.6417 -0.4408
  580TMC3     C 8655   3.141   2.174  11.870  0.1208 -0.3432 -0.0766
  580TMC3     O 8656   3.194   2.246  11.785 -0.1144 -0.1625  0.1212
  580TMC3     H 8657   3.196   2.064  11.628  0.9987 -0.8525  0.1850
  580TMC3    H1 8658   3.020   1.996  12.013  2.1743  0.3607  0.3339
  580TMC3    H2 8659   3.152   1.667  11.764 -1.9843  0.7080 -2.6523
  580TMC3    C7 8660   3.077   1.739  12.019 -0.0279 -0.2438 -0.5285
  580TMC3    C8 8661   3.265   1.821  11.585  0.4250  0.2078  0.1179
  580TMC3    O1 8662   3.072   1.798  12.125  0.0043 -0.4072 -0.9253
  580TMC3    O2 8663   3.241   1.727  11.510 -0.5802 -0.3322  0.0820
  581MPD2     C 8664   1.795   2.142  14.701 -0.2304  0.0695  0.2155
  581MPD2    C1 8665   1.757   2.194  14.822  0.5544  0.3738 -0.1895
  581MPD2    C2 8666   1.627   2.221  14.855  0.4745  0.4314 -0.4110
  581MPD2    C3 8667   1.520   2.186  14.770  0.1042 -0.2792  0.3006
  581MPD2    C4 8668   1.562   2.136  14.646 -1.0466 -0.3716  0.1496
  581MPD2    C5 8669   1.693   2.114  14.617  0.9113 -0.1395  0.3742
  581MPD2     H 8670   1.596   2.282  14.939 -1.2898  0.3926 -1.0403
  581MPD2    H1 8671   1.498   2.114  14.561 -0.0505 -0.3703 -0.5953
  581MPD2    H2 8672   1.896   2.116  14.672 -0.8883 -1.4098 -0.7522
  581MPD2    H3 8673   1.720   2.065  14.524 -0.9976 -0.0256 -0.2320
  581MPD2     N 8674   1.388   2.217  14.796 -0.4217  0.5439  0.1438
  581MPD2    H5 8675   1.366   2.265  14.883  0.5183 -0.6222  1.0140
  581MPD2    N1 8676   1.862   2.192  14.914 -0.4452  0.0452 -0.0816
  581MPD2    H7 8677   1.954   2.161  14.886 -1.0384 -1.3916 -0.4283
  582TMC3    C1 8678   1.940   2.132  15.126 -0.0700  0.1782  0.1642
  582TMC3    C2 8679   1.979   2.178  15.248  0.0719  0.4967  0.3056
  582TMC3    C3 8680   2.017   2.092  15.344 -0.0881  0.3447 -0.1341
  582TMC3    C4 8681   1.919   1.999  15.097 -0.8981  0.5807  0.4147
  582TMC3    C5 8682   1.942   1.909  15.196 -0.1616  0.2392  0.3394
  582TMC3    C6 8683   2.000   1.955  15.317 -0.4693  0.2115  0.0695
  582TMC3     C 8684   1.849   2.216  15.050 -0.9572 -0.3353 -0.4853
  582TMC3     O 8685   1.752   2.255  15.112 -0.2076  0.2663 -0.6070
  582TMC3     H 8686   1.976   2.285  15.263 -0.7522  0.5484 -0.2181
  582TMC3    H1 8687   1.862   1.976  15.008  1.6951  0.8965 -1.3247
  582TMC3    H2 8688   2.033   1.883  15.391  1.2479 -0.4687 -1.3449
  582TMC3    C7 8689   1.822   1.834  15.224 -0.2745  0.6528 -0.6021
  582TMC3    C8 8690   2.011   2.133  15.489  0.0357 -0.0188 -0.0651
  582TMC3    O1 8691   1.778   1.856  15.336  1.0384 -0.3782 -0.0573
  582TMC3    O2 8692   1.949   2.238  15.513 -0.0997  1.2481  0.5437
  583MPD2     C 8693   1.511   3.586  16.759 -1.2101  0.0979 -0.0387
  583MPD2    C1 8694   1.507   3.710  16.700 -0.2140 -0.4508  0.3604
  583MPD2    C2 8695   1.463   3.817  16.772 -0.5710  0.2824 -0.0406
  583MPD2    C3 8696   1.430   3.808  16.906  0.4080 -0.4197 -0.2626
  583MPD2    C4 8697   1.444   3.691  16.970 -0.0483 -0.3159  0.2474
  583MPD2    C5 8698   1.487   3.581  16.898  0.1623 -0.1779 -0.0120
  583MPD2     H 8699   1.455   3.914  16.723  0.4538 -0.3069 -1.3822
  583MPD2    H1 8700   1.418   3.687  17.075 -1.2329  1.6500  0.0297
  583MPD2    H2 8701   1.535   3.493  16.708  0.6198 -0.1960  1.3780
  583MPD2    H3 8702   1.490   3.486  16.951  0.8321 -0.8256 -1.2125
  583MPD2     N 8703   1.369   3.927  16.970 -0.0207  0.1097  0.1219
  583MPD2    H5 8704   1.342   4.003  16.909 -0.6166 -0.0088  0.2301
  583MPD2    N1 8705   1.532   3.739  16.565 -0.0542  0.2584 -0.0700
  583MPD2    H7 8706   1.542   3.837  16.539  0.1088  0.2276 -0.1253
  584TMC3    C1 8707   1.307   4.073  17.157 -0.4758 -0.9276  0.7169
  584TMC3    C2 8708   1.319   4.192  17.095 -0.5212  0.2887 -0.0672
  584TMC3    C3 8709   1.310   4.313  17.160 -0.0777 -0.2057  0.5290
  584TMC3    C4 8710   1.272   4.082  17.295  0.3908 -0.1435  0.2609
  584TMC3    C5 8711   1.254   4.204  17.357  0.1375  0.3892 -0.3988
  584TMC3    C6 8712   1.275   4.326  17.292 -0.0629 -0.2320  0.4929
  584TMC3     C 8713   1.363   3.947  17.102  0.3096 -0.3525  0.4573
  584TMC3     O 8714   1.423   3.883  17.189  0.1978  0.5382  0.2638
  584TMC3     H 8715   1.360   4.188  16.994 -3.2319  0.8277 -1.1785
  584TMC3    H1 8716   1.273   3.993  17.357 -2.0748 -0.1569  0.2889
  584TMC3    H2 8717   1.236   4.418  17.335  1.1052 -0.4807  2.0845
  584TMC3    C7 8718   1.214   4.201  17.501 -0.1896  0.4938  0.1387
  584TMC3    C8 8719   1.313   4.436  17.081 -0.0819 -0.1243  0.0422
  584TMC3    O1 8720   1.217   4.092  17.555  0.2574 -0.2466 -0.5231
  584TMC3    O2 8721   1.288   4.429  16.961  0.4601  0.2478 -0.1705
  585MPD2     C 8722   0.175   3.262   0.394  0.9141 -0.7341  0.3849
  585MPD2    C1 8723   0.200   3.321   0.265 -0.0125  0.3537  0.4151
  585MPD2    C2 8724   0.196   3.235   0.158 -0.2727  0.1062 -0.4815
  585MPD2    C3 8725   0.177   3.091   0.180  0.8580  0.4580 -0.8893
  585MPD2    C4 8726   0.180   3.043   0.309  0.4678 -0.4242 -0.8178
  585MPD2    C5 8727   0.180   3.125   0.417 -0.1242  0.2759 -0.1611
  585MPD2     H 8728   0.196   3.274   0.057 -1.6411 -0.5852 -0.7454
  585MPD2    H1 8729   0.179   2.937   0.331 -0.3550 -0.5593 -1.4930
  585MPD2    H2 8730   0.150   3.327   0.477 -2.1791 -1.1954 -0.1900
  585MPD2    H3 8731   0.157   3.082   0.514 -0.8213  0.8951 -0.0526
  585MPD2     N 8732   0.159   2.993   0.074 -0.2975 -0.2800  0.1492
  585MPD2    H5 8733   0.138   2.898   0.102 -3.2804  0.9391  2.0574
  585MPD2    N1 8734   0.212   3.459   0.260  0.2537 -0.3880  0.1300
  585MPD2    H7 8735   0.212   3.512   0.347  1.7529  0.5135 -0.4199
  586TMC3    C1 8736   0.156   2.900  17.602 -0.9377 -0.5300  0.2966
  586TMC3    C2 8737   0.229   2.888  17.491 -0.3566  0.1347  1.1436
  586TMC3    C3 8738   0.218   2.775  17.411 -0.7676  0.6349  0.2262
  586TMC3    C4 8739   0.058   2.808  17.638  0.0786  0.3163 -0.9067
  586TMC3    C5 8740   0.054   2.688  17.566  0.2068  0.4662  0.4774
  586TMC3    C6 8741   0.130   2.677  17.449 -0.0647  0.1631  0.8930
  586TMC3     C 8742   0.175   3.014  17.681 -0.1591 -0.3686  0.4277
  586TMC3     O 8743   0.191   3.120  17.626  0.4247 -0.1227 -0.0698
  586TMC3     H 8744   0.311   2.956  17.472  0.0229 -0.7930 -0.5554
  586TMC3    H1 8745   4.723   2.830  17.718 -0.0191 -1.2143 -0.5789
  586TMC3    H2 8746   0.146   2.579  17.406 -0.1616  0.6407 -0.2259
  586TMC3    C7 8747   4.710   2.577  17.602 -0.4385 -0.1248 -0.5798
  586TMC3    C8 8748   0.349   2.717  17.373  0.3585  0.1530 -0.0011
  586TMC3    O1 8749   4.690   2.489  17.518 -0.5057  0.3261  0.1596
  586TMC3    O2 8750   0.379   2.610  17.430  0.5182  0.5223  0.8290
  587TMC3    C1 8751   2.961   1.849  16.390  0.5938 -0.7592  0.1182
  587TMC3    C2 8752   2.929   1.915  16.509  0.2175  0.5831  0.8932
  587TMC3    C3 8753   3.031   1.943  16.598 -0.3412 -0.1844 -0.3270
  587TMC3    C4 8754   3.095   1.829  16.365  0.0558 -0.1264 -0.5451
  587TMC3    C5 8755   3.187   1.860  16.460 -1.0367  0.5164  0.2210
  587TMC3    C6 8756   3.160   1.918  16.580  0.4977 -0.2782 -0.2983
  587TMC3     C 8757   2.853   1.803  16.305 -0.0089  0.6656 -0.5027
  587TMC3     O 8758   2.879   1.796  16.185 -0.2919  0.1645  0.3773
  587TMC3     H 8759   2.826   1.944  16.527 -0.1617 -0.9107  1.1516
  587TMC3    H1 8760   3.117   1.786  16.268  1.1560  0.1308 -0.4038
  587TMC3    H2 8761   3.232   1.943  16.657 -2.5112  3.1974  1.3816
  587TMC3    C7 8762   3.313   1.804  16.438  0.5377  0.4384  0.4048
  587TMC3    C8 8763   2.998   2.021  16.716  0.5858  0.3180 -0.4112
  587TMC3    O1 8764   3.415   1.866  16.455 -0.1799  0.1673 -0.0026
  587TMC3    O2 8765   3.076   2.015  16.809 -0.7668  0.4445 -0.4911
  588TMC3    C1 8766   0.717   3.669   9.777  0.0305 -0.2935  0.1794
  588TMC3    C2 8767   0.653   3.554   9.813  0.7177  0.7866 -0.5712
  588TMC3    C3 8768   0.725   3.451   9.854  0.3826 -1.3173  0.0205
  588TMC3    C4 8769   0.849   3.677   9.802 -0.2290  0.3137  0.8252
  588TMC3    C5 8770   0.919   3.576   9.854  0.2565 -0.2776 -0.0408
  588TMC3    C6 8771   0.860   3.461   9.883  0.1737  0.3565  0.1430
  588TMC3     C 8772   0.643   3.793   9.787 -0.2708  0.3369 -0.0984
  588TMC3     O 8773   0.522   3.786   9.801 -0.2661 -0.7372  0.3622
  588TMC3     H 8774   0.545   3.550   9.816  0.8418 -2.6058 -0.4267
  588TMC3    H1 8775   0.911   3.748   9.747 -0.9481 -1.3566 -2.1454
  588TMC3    H2 8776   0.912   3.374   9.922 -2.3042 -1.6974 -1.1235
  588TMC3    C7 8777   1.010   3.617   9.956 -0.3104 -0.8131 -0.8273
  588TMC3    C8 8778   0.647   3.332   9.894  0.3549  0.1836 -0.0449
  588TMC3    O1 8779   1.044   3.536  10.040  0.1325 -0.2300  0.6316
  588TMC3    O2 8780   0.538   3.324   9.843 -0.2283 -0.3724  0.3786
  589TMC3    C1 8781   4.547   1.114   1.339 -0.8228  0.3828 -1.0763
  589TMC3    C2 8782   4.670   1.105   1.409 -0.2115  0.0351 -0.0951
  589TMC3    C3 8783   0.029   1.013   1.362 -0.4505 -0.6339 -0.6258
  589TMC3    C4 8784   4.526   1.029   1.232 -0.5993 -0.5455  0.3467
  589TMC3    C5 8785   4.621   0.936   1.195 -0.3197  0.1099 -0.7488
  589TMC3    C6 8786   0.011   0.926   1.254  0.0000 -0.5133  0.2919
  589TMC3     C 8787   4.448   1.216   1.361  0.1441 -0.0128 -0.2359
  589TMC3     O 8788   4.335   1.189   1.329 -0.0001 -0.3454  0.8697
  589TMC3     H 8789   4.689   1.160   1.500  1.8309  0.1799 -0.6177
  589TMC3    H1 8790   4.427   1.041   1.188 -1.0335  2.3398  2.0766
  589TMC3    H2 8791   0.080   0.843   1.247 -0.6589 -0.9951 -0.5271
  589TMC3    C7 8792   4.579   0.833   1.109 -0.1480  0.4418 -0.5063
  589TMC3    C8 8793   0.155   1.026   1.421  0.3870 -0.1971  0.3420
  589TMC3    O1 8794   4.457   0.813   1.098  0.1922 -0.4183 -0.1694
  589TMC3    O2 8795   0.164   1.063   1.537 -0.5577  0.9815  0.5108
  590MPD2     C 8796   3.558   4.244  16.713 -0.3856  0.0220  0.2198
  590MPD2    C1 8797   3.497   4.277  16.601 -0.0748 -0.1973 -0.3222
  590MPD2    C2 8798   3.562   4.281  16.477 -0.0511  0.6069  0.6558
  590MPD2    C3 8799   3.701   4.273  16.465  0.1327  0.1926  0.7186
  590MPD2    C4 8800   3.769   4.243  16.582  0.3207 -0.3134  0.6349
  590MPD2    C5 8801   3.698   4.230  16.705 -0.5072  0.0888 -0.3907
  590MPD2     H 8802   3.515   4.293  16.380 -0.4533  0.2952  0.8065
  590MPD2    H1 8803   3.875   4.220  16.578  0.1242 -1.4735  2.0775
  590MPD2    H2 8804   3.501   4.232  16.804 -0.4156 -1.9912 -0.0707
  590MPD2    H3 8805   3.751   4.198  16.794 -2.5834  1.3351  1.2944
  590MPD2     N 8806   3.763   4.289  16.338 -0.2672 -0.0929 -0.1122
  590MPD2    H5 8807   3.698   4.290  16.260  3.0502 -3.8013 -2.8910
  590MPD2    N1 8808   3.362   4.309  16.615  0.2782  0.3880 -0.2896
  590MPD2    H7 8809   3.331   4.333  16.708 -1.8528 -0.0223 -0.9107
  591TMC3    C1 8810   3.921   4.355  16.182 -0.3550  0.0778 -0.7711
  591TMC3    C2 8811   4.047   4.352  16.124  0.6933 -0.5315  0.9006
  591TMC3    C3 8812   4.064   4.428  16.009 -0.2408 -0.1012  0.4666
  591TMC3    C4 8813   3.825   4.436  16.133  0.3922 -0.3579 -0.3385
  591TMC3    C5 8814   3.850   4.514  16.020 -0.3109 -0.1392 -0.4307
  591TMC3    C6 8815   3.968   4.508  15.950  0.3193 -0.5413  0.4684
  591TMC3     C 8816   3.901   4.298  16.311 -0.1212 -0.5750 -0.0691
  591TMC3     O 8817   4.005   4.282  16.376  0.0144 -0.1203 -0.4452
  591TMC3     H 8818   4.122   4.282  16.161  0.2056 -1.5106  0.0655
  591TMC3    H1 8819   3.730   4.456  16.181  0.9763 -1.4108  1.2906
  591TMC3    H2 8820   3.981   4.554  15.852  0.8894 -1.0780  0.2939
  591TMC3    C7 8821   3.740   4.590  15.974  0.2402 -0.4360 -0.2657
  591TMC3    C8 8822   4.194   4.426  15.946  0.2944 -0.3037  0.2303
  591TMC3    O1 8823   3.621   4.561  15.997  0.6083 -0.1397 -0.0617
  591TMC3    O2 8824   4.269   4.327  15.969  0.3850 -1.3307  0.3616
  592MPD2     C 8825   4.589   1.938  11.674 -1.1996 -0.6934 -0.7208
  592MPD2    C1 8826   4.624   1.983  11.805 -0.0293  0.0427  0.1568
  592MPD2    C2 8827   4.583   1.902  11.909  0.4317 -0.3135  0.1540
  592MPD2    C3 8828   4.526   1.781  11.888 -0.4198 -0.5141 -0.1865
  592MPD2    C4 8829   4.510   1.733  11.757  0.2890  0.2756  0.2612
  592MPD2    C5 8830   4.535   1.809  11.649  0.4361  0.7649  0.6064
  592MPD2     H 8831   4.598   1.934  12.012  2.8570 -3.3184  0.7398
  592MPD2    H1 8832   4.449   1.650  11.723  0.9491 -0.0586 -0.1090
  592MPD2    H2 8833   4.599   1.999  11.585 -2.6400 -0.3740 -0.6626
  592MPD2    H3 8834   4.501   1.782  11.550 -1.1189 -0.1306  1.3892
  592MPD2     N 8835   4.475   1.719  12.001  0.2216 -0.4508  0.1378
  592MPD2    H5 8836   4.498   1.753  12.094 -1.5461  2.6444 -0.5605
  592MPD2    N1 8837   4.694   2.103  11.819 -0.1145 -0.2489 -0.3439
  592MPD2    H7 8838   4.728   2.148  11.734 -1.3232 -1.5195 -1.4945
  593TMC3    C1 8839   0.076   2.289  11.934  0.4515  0.1554 -0.3213
  593TMC3    C2 8840   0.055   2.375  12.037 -0.6145 -0.8856 -0.2993
  593TMC3    C3 8841   0.105   2.495  12.023  0.6067  0.2074  0.3453
  593TMC3    C4 8842   0.155   2.312  11.820 -0.1534 -0.5292 -0.2041
  593TMC3    C5 8843   0.210   2.437  11.816 -0.3351  0.1876  0.4885
  593TMC3    C6 8844   0.176   2.533  11.912 -0.3577 -0.0871 -0.2718
  593TMC3     C 8845   4.735   2.162  11.941  0.6715  0.4437 -0.2399
  593TMC3     O 8846   4.708   2.127  12.055  0.0132  0.2999  0.2791
  593TMC3     H 8847   4.719   2.347  12.114  0.4596 -2.0419  0.2745
  593TMC3    H1 8848   0.167   2.240  11.740  2.5318 -1.8609  1.4149
  593TMC3    H2 8849   0.202   2.637  11.901  0.4156 -0.2616 -0.0917
  593TMC3    C7 8850   0.293   2.479  11.704 -0.2875  0.3051  0.0874
  593TMC3    C8 8851   0.119   2.573  12.145  0.1835 -0.6230  0.7410
  593TMC3    O1 8852   0.303   2.599  11.693  0.3106  0.0375 -0.5088
  593TMC3    O2 8853   0.033   2.566  12.231 -0.0930  0.6280  0.1302
  594MPD2     C 8854   3.179   0.530  14.576 -0.3882 -0.0304  0.0127
  594MPD2    C1 8855   3.089   0.605  14.502 -0.1976  0.7996 -0.9633
  594MPD2    C2 8856   3.140   0.676  14.393  0.1446 -0.1087 -0.1979
  594MPD2    C3 8857   3.280   0.684  14.374 -0.4653  0.4578 -0.2929
  594MPD2    C4 8858   3.367   0.628  14.463 -0.2997 -0.0249 -0.3265
  594MPD2    C5 8859   3.314   0.554  14.565 -0.3291  0.1948 -0.0405
  594MPD2     H 8860   3.075   0.736  14.331  1.7315  0.7467 -1.0470
  594MPD2    H1 8861   3.474   0.647  14.471 -0.1493 -1.8564  2.1619
  594MPD2    H2 8862   3.151   0.478  14.666  0.5327  2.4182  1.7010
  594MPD2    H3 8863   3.390   0.512  14.630  1.8248  1.8087 -1.4895
  594MPD2     N 8864   3.327   0.766  14.271 -0.0582 -0.0754 -0.8515
  594MPD2    H5 8865   3.262   0.816  14.210 -0.2730  0.4866 -0.1595
  594MPD2    N1 8866   2.955   0.599  14.554  0.6662  0.1103  0.5846
  594MPD2    H7 8867   2.936   0.569  14.649  0.7660  2.6259  1.3863
  595TMC3    C1 8868   3.614   1.079  14.063  0.2528  0.1486  1.2721
  595TMC3    C2 8869   3.597   0.948  14.095 -0.9199 -0.0221  0.3536
  595TMC3    C3 8870   3.473   0.908  14.130  0.4050 -0.6783 -0.4467
  595TMC3    C4 8871   3.505   1.164  14.067 -0.2342 -0.4566 -0.3435
  595TMC3    C5 8872   3.383   1.116  14.107  0.2175  0.2274 -0.6358
  595TMC3    C6 8873   3.365   0.989  14.137 -0.3277 -0.6244  0.4300
  595TMC3     C 8874   3.721   1.140  14.137 -1.0459 -0.2531 -0.4903
  595TMC3     O 8875   3.678   1.222  14.211  0.4584 -0.3442 -0.2327
  595TMC3     H 8876   3.680   0.896  14.141 -0.2217 -0.4837 -1.4584
  595TMC3    H1 8877   3.524   1.268  14.045  1.8940 -1.2211 -2.0997
  595TMC3    H2 8878   3.261   0.957  14.138 -0.6510  0.4061 -0.3895
  595TMC3    C7 8879   3.332   1.193  14.209 -0.9258 -0.2969 -0.5112
  595TMC3    C8 8880   3.460   0.806  14.243  0.3042 -0.0627 -0.1927
  595TMC3    O1 8881   3.232   1.147  14.260 -0.5701  0.2160  0.5946
  595TMC3    O2 8882   3.561   0.759  14.285  0.2019  0.5363 -0.1829
  596MPD2     C 8883   2.273   3.486  16.771  0.0143  0.4441  0.6008
  596MPD2    C1 8884   2.260   3.611  16.717  0.2578 -1.1982 -0.0372
  596MPD2    C2 8885   2.257   3.626  16.580  0.2572  0.3163  0.1511
  596MPD2    C3 8886   2.243   3.518  16.498  0.2047 -0.3236 -0.4613
  596MPD2    C4 8887   2.223   3.395  16.562 -0.3945  0.3520 -0.6514
  596MPD2    C5 8888   2.257   3.378  16.691 -0.1302 -0.2225  0.1382
  596MPD2     H 8889   2.252   3.728  16.542 -2.2813  0.7702  1.7079
  596MPD2    H1 8890   2.207   3.312  16.493  4.3492 -2.5226  1.6549
  596MPD2    H2 8891   2.283   3.473  16.878 -0.8832 -0.3300  0.5966
  596MPD2    H3 8892   2.240   3.283  16.742 -0.9332 -0.8419 -1.3039
  596MPD2     N 8893   2.233   3.519  16.359  0.6219 -1.0320  0.3168
  596MPD2    H5 8894   2.225   3.428  16.315 -1.6129  0.1430 -1.6826
  596MPD2    N1 8895   2.242   3.730  16.793 -0.1448  0.6134  0.0420
  596MPD2    H7 8896   2.259   3.816  16.742  1.7222  1.3777  1.9456
  597TMC3    C1 8897   2.232   3.873  16.981  0.0516 -0.3667 -0.0307
  597TMC3    C2 8898   2.311   3.960  16.912 -0.0151  0.3041  0.3577
  597TMC3    C3 8899   2.282   4.092  16.927  0.2844  0.4805  0.9909
  597TMC3    C4 8900   2.126   3.917  17.059  0.1817  1.0771 -0.0277
  597TMC3    C5 8901   2.097   4.048  17.057  0.2243 -0.0533 -0.1290
  597TMC3    C6 8902   2.176   4.142  16.999 -0.4727 -1.0178  0.4728
  597TMC3     C 8903   2.217   3.739  16.930  0.1628 -0.5391 -0.2494
  597TMC3     O 8904   2.183   3.652  17.011  0.1490 -0.3509 -0.7273
  597TMC3     H 8905   2.404   3.920  16.872 -2.4863 -2.6416 -2.5832
  597TMC3    H1 8906   2.061   3.850  17.113  1.1580  0.9835  1.0297
  597TMC3    H2 8907   2.149   4.245  17.016 -2.7595 -1.8143  1.7230
  597TMC3    C7 8908   1.976   4.086  17.129  0.4819  0.5161  0.4208
  597TMC3    C8 8909   2.375   4.190  16.879 -0.1767 -0.0736 -0.1390
  597TMC3    O1 8910   1.907   3.995  17.183 -0.0687  0.4055  0.1946
  597TMC3    O2 8911   2.487   4.142  16.872 -0.7762  0.0896  0.0642
  598TMC3    C1 8912   0.699   0.486  15.463  0.2170 -0.3969  0.2319
  598TMC3    C2 8913   0.724   0.347  15.462 -0.2008 -0.0972 -0.3231
  598TMC3    C3 8914   0.708   0.279  15.340 -0.1161  0.0514 -0.1479
  598TMC3    C4 8915   0.665   0.553  15.350 -0.1146  0.1808 -0.6222
  598TMC3    C5 8916   0.670   0.494  15.233 -0.3061 -0.3141  0.7008
  598TMC3    C6 8917   0.686   0.354  15.226 -0.0406 -0.3218 -0.9014
  598TMC3     C 8918   0.702   0.556  15.590 -0.4768  0.3743 -0.5334
  598TMC3     O 8919   0.723   0.678  15.582 -0.1488 -0.4256  0.1768
  598TMC3     H 8920   0.753   0.285  15.546 -1.6889 -0.9521 -0.4296
  598TMC3    H1 8921   0.636   0.656  15.365 -0.1574  0.5023 -2.7904
  598TMC3    H2 8922   0.668   0.309  15.130 -0.8678 -0.1271 -0.8319
  598TMC3    C7 8923   0.655   0.570  15.113 -0.4931  0.4460 -0.1036
  598TMC3    C8 8924   0.671   0.140  15.347  0.4503 -0.0061 -0.3399
  598TMC3    O1 8925   0.624   0.508  15.013  0.7294 -0.3976  0.1284
  598TMC3    O2 8926   0.722   0.063  15.426  0.2028 -0.7442 -0.5456
  599MPD2     C 8927   0.562   2.864  15.881 -0.0196 -0.0989 -0.0746
  599MPD2    C1 8928   0.524   2.732  15.858  0.2739 -0.0256 -0.0656
  599MPD2    C2 8929   0.390   2.698  15.887  0.2662 -0.0685  0.7744
  599MPD2    C3 8930   0.297   2.789  15.917 -0.5603  0.0972 -0.6439
  599MPD2    C4 8931   0.337   2.923  15.925 -0.0297 -0.4735  0.0597
  599MPD2    C5 8932   0.467   2.957  15.913  0.2886  0.2123 -0.0973
  599MPD2     H 8933   0.367   2.593  15.881  0.2843  0.0475 -1.3776
  599MPD2    H1 8934   0.274   3.009  15.946 -1.2777 -0.8543 -2.2316
  599MPD2    H2 8935   0.663   2.900  15.867 -0.0624 -0.6324 -1.7585
  599MPD2    H3 8936   0.504   3.056  15.933  1.1781 -0.2860  0.7238
  599MPD2     N 8937   0.163   2.757  15.947  0.1608  0.0518 -0.3349
  599MPD2    H5 8938   0.103   2.832  15.978  0.3516  0.6781 -1.4754
  599MPD2    N1 8939   0.616   2.642  15.810  0.1111 -0.1029 -0.5641
  599MPD2    H7 8940   0.707   2.685  15.794  0.1024 -0.2390 -0.9862
  600TMC3    C1 8941   4.720   2.619  16.031  0.0272  0.7362 -0.0443
  600TMC3    C2 8942   4.636   2.515  15.992 -0.5312  0.8690 -0.1786
  600TMC3    C3 8943   4.503   2.515  16.028 -0.0634 -0.3875  0.4200
  600TMC3    C4 8944   4.689   2.699  16.140  0.5820  0.1015 -0.2073
  600TMC3    C5 8945   4.563   2.686  16.188  0.7131 -0.4341  0.6498
  600TMC3    C6 8946   4.471   2.600  16.131 -0.0175  0.0513  0.6333
  600TMC3     C 8947   0.108   2.627  15.961 -0.3519  0.2085  0.2156
  600TMC3     O 8948   0.148   2.518  15.925  0.3076  0.2972  0.4073
  600TMC3     H 8949   4.665   2.458  15.905  1.9198  0.5697  0.8512
  600TMC3    H1 8950   0.024   2.774  16.175  0.4909 -0.5886  1.4085
  600TMC3    H2 8951   4.372   2.592  16.175  0.5250 -1.3606  1.5989
  600TMC3    C7 8952   4.513   2.798  16.271  0.6714  0.4472  0.4271
  600TMC3    C8 8953   4.409   2.484  15.923 -0.3832 -0.1550  0.1302
  600TMC3    O1 8954   4.401   2.776  16.317 -0.8051  0.0299 -0.3070
  600TMC3    O2 8955   4.454   2.431  15.821 -0.3986  0.0766 -0.0142
  601MPD2     C 8956   2.477   1.124   0.392 -0.0113 -1.1027 -0.1128
  601MPD2    C1 8957   2.343   1.103   0.406 -0.2868  0.1668 -0.2279
  601MPD2    C2 8958   2.292   0.980   0.439  0.4676  0.3558  0.2235
  601MPD2    C3 8959   2.373   0.871   0.459 -0.3668  0.0859  0.4045
  601MPD2    C4 8960   2.506   0.887   0.438 -0.4221 -0.7265 -0.4304
  601MPD2    C5 8961   2.556   1.012   0.397 -0.3726  0.9052 -0.4363
  601MPD2     H 8962   2.185   0.966   0.447  0.8745 -3.3157 -0.6843
  601MPD2    H1 8963   2.574   0.807   0.466  1.3981  0.7597 -0.5548
  601MPD2    H2 8964   2.516   1.221   0.361 -0.6761  0.0534  2.7189
  601MPD2    H3 8965   2.660   1.022   0.367  0.1573 -0.7462  0.8776
  601MPD2     N 8966   2.339   0.738   0.487  0.0934  0.2355 -0.2268
  601MPD2    H5 8967   2.418   0.677   0.500 -1.1779 -0.9752  1.8029
  601MPD2    N1 8968   2.254   1.205   0.383 -0.7087  0.5566 -0.2408
  601MPD2    H7 8969   2.156   1.180   0.377 -0.2965 -1.7956  2.6617
  602TMC3    C1 8970   2.164   1.411   0.340 -0.3189 -0.2667 -0.2951
  602TMC3    C2 8971   2.176   1.549   0.340  0.8834  0.0086  0.3365
  602TMC3    C3 8972   2.070   1.628   0.296  0.2417  0.2067  0.1307
  602TMC3    C4 8973   2.047   1.350   0.301 -0.3395  0.5416  0.1360
  602TMC3    C5 8974   1.947   1.435   0.265 -0.1826 -0.3691 -0.0256
  602TMC3    C6 8975   1.953   1.569   0.252 -0.2622  0.1003  0.7990
  602TMC3     C 8976   2.281   1.338   0.375  0.2550  0.2272 -0.0853
  602TMC3     O 8977   2.376   1.406   0.393 -0.3724 -1.0108 -0.2490
  602TMC3     H 8978   2.258   1.601   0.387  0.4088  1.7771 -0.7908
  602TMC3    H1 8979   2.038   1.244   0.278  0.2767  0.6109 -0.4283
  602TMC3    H2 8980   1.859   1.622   0.247 -0.3455 -0.3948 -2.8182
  602TMC3    C7 8981   1.839   1.381   0.174  0.0388 -0.2272  0.1406
  602TMC3    C8 8982   2.107   1.771   0.256  1.4056  0.1054  0.0452
  602TMC3    O1 8983   1.761   1.295   0.208  0.5986  0.0812  0.4516
  602TMC3    O2 8984   2.222   1.807   0.275 -0.0887  0.3456 -0.2999
  603TMC3    C1 8985   0.613   1.244  10.764  0.1555  0.6779 -0.3007
  603TMC3    C2 8986   0.653   1.235  10.892 -0.5510 -0.6593  0.8491
  603TMC3    C3 8987   0.676   1.348  10.965 -0.4136 -0.8390 -0.6752
  603TMC3    C4 8988   0.594   1.363  10.702 -0.0777  0.6963  0.3314
  603TMC3    C5 8989   0.606   1.471  10.789 -0.9281  0.7377 -0.8389
  603TMC3    C6 8990   0.647   1.470  10.916 -0.0428 -0.2993 -0.2818
  603TMC3     C 8991   0.560   1.120  10.701 -0.4444  0.5874  0.5379
  603TMC3     O 8992   0.590   1.011  10.752 -0.1957  0.1307 -0.6293
  603TMC3     H 8993   0.663   1.136  10.934  0.5708 -0.8709  0.0829
  603TMC3    H1 8994   0.585   1.367  10.594  2.4642 -2.5653  0.0311
  603TMC3    H2 8995   0.622   1.557  10.976 -0.4017 -0.3272 -0.3908
  603TMC3    C7 8996   0.616   1.597  10.726 -0.3309  0.3296  0.7688
  603TMC3    C8 8997   0.707   1.328  11.099 -0.2624 -0.0438 -0.5101
  603TMC3    O1 8998   0.683   1.683  10.780 -0.0388  0.1086 -0.4934
  603TMC3    O2 8999   0.712   1.214  11.131 -0.4038  0.2737  0.1399
  604MPD2     C 9000   1.644   0.295  16.648 -0.5035  0.1138 -0.3563
  604MPD2    C1 9001   1.514   0.278  16.610 -0.5767 -0.7091  0.1458
  604MPD2    C2 9002   1.483   0.213  16.492 -0.4503 -0.4980  1.3181
  604MPD2    C3 9003   1.585   0.181  16.402 -0.5471 -0.0539  0.1967
  604MPD2    C4 9004   1.715   0.212  16.429 -0.7467 -0.0941 -1.2631
  604MPD2    C5 9005   1.743   0.254  16.555  0.4599 -0.0939 -0.7103
  604MPD2     H 9006   1.380   0.200  16.462 -0.2539  0.6903  0.1014
  604MPD2    H1 9007   1.802   0.192  16.367  1.7033 -0.9252  2.4463
  604MPD2    H2 9008   1.680   0.342  16.739  1.3420 -0.8723 -0.5845
  604MPD2    H3 9009   1.850   0.260  16.574  0.4750 -1.0490 -0.4671
  604MPD2     N 9010   1.555   0.138  16.273  0.0810 -0.1685 -0.0023
  604MPD2    H5 9011   1.458   0.111  16.255 -0.8233  1.6831  2.0506
  604MPD2    N1 9012   1.416   0.334  16.695  0.0251  0.2775  0.1883
  604MPD2    H7 9013   1.451   0.374  16.782  0.6646  3.4004 -1.4972
  605TMC3    C1 9014   1.219   0.449  16.752 -0.3332 -0.0810  0.0200
  605TMC3    C2 9015   1.300   0.551  16.798 -0.1546  0.8233  0.2203
  605TMC3    C3 9016   1.251   0.674  16.828 -0.4049  0.1865 -0.2712
  605TMC3    C4 9017   1.087   0.472  16.724 -0.1456  0.1659  0.6191
  605TMC3    C5 9018   1.038   0.595  16.750 -0.9669  0.5172  0.4625
  605TMC3    C6 9019   1.119   0.696  16.796  0.4500  0.3519 -0.1390
  605TMC3     C 9020   1.280   0.347  16.668 -0.4690  0.1026  1.1020
  605TMC3     O 9021   1.210   0.302  16.580  0.1151 -0.1775  0.3596
  605TMC3     H 9022   1.407   0.538  16.811 -0.0456  0.2208 -1.3317
  605TMC3    H1 9023   1.025   0.388  16.694 -0.3353  1.1224 -1.6277
  605TMC3    H2 9024   1.076   0.792  16.820  1.8575  0.9018  0.2313
  605TMC3    C7 9025   0.959   0.646  16.641  0.5045  0.3766 -0.1767
  605TMC3    C8 9026   1.337   0.782  16.882 -0.2544 -0.0248 -1.0368
  605TMC3    O1 9027   0.909   0.758  16.654 -0.0771 -0.0932 -0.4469
  605TMC3    O2 9028   1.271   0.852  16.962  0.3011 -0.1734 -0.0158
  606TMC3    C1 9029   1.938   3.326   0.014 -0.0574 -0.8622 -0.3831
  606TMC3    C2 9030   2.037   3.325   0.103 -1.0185 -0.0702  0.4271
  606TMC3    C3 9031   2.033   3.227   0.207 -0.4843  0.0430 -0.2750
  606TMC3    C4 9032   1.827   3.240   0.025 -0.3034  0.1777  0.1334
  606TMC3    C5 9033   1.835   3.140   0.124  0.3387 -0.3485  0.0736
  606TMC3    C6 9034   1.935   3.133   0.218 -0.1322 -1.0583 -0.5139
  606TMC3     C 9035   1.950   3.424  17.649 -0.4197 -0.5120 -0.2001
  606TMC3     O 9036   1.902   3.391  17.544 -0.1407  0.1348 -0.5217
  606TMC3     H 9037   2.130   3.374   0.075 -1.4691  1.8464  2.2930
  606TMC3    H1 9038   1.736   3.264  17.711  1.0229  4.1303 -0.3127
  606TMC3    H2 9039   1.933   3.051   0.289  0.0788  0.3702  1.1384
  606TMC3    C7 9040   1.755   3.017   0.103  0.3515  0.1999  0.0167
  606TMC3    C8 9041   2.161   3.219   0.279  0.2037  0.1576  0.7547
  606TMC3    O1 9042   1.749   2.942   0.199  0.4214  0.4735  0.0377
  606TMC3    O2 9043   2.245   3.306   0.250  0.1616 -0.2024 -0.2425
  607MPD2     C 9044   4.498   0.840  11.657 -0.4316 -0.3608  0.0406
  607MPD2    C1 9045   4.523   0.959  11.720 -0.3827 -0.2707  0.3723
  607MPD2    C2 9046   4.555   0.957  11.857 -0.6801  0.4841 -0.2630
  607MPD2    C3 9047   4.558   0.842  11.932 -1.0582 -0.2328  0.2908
  607MPD2    C4 9048   4.536   0.726  11.871 -0.2760  1.2072 -0.0910
  607MPD2    C5 9049   4.509   0.726  11.734  0.1406  0.1577 -0.0054
  607MPD2     H 9050   4.591   1.048  11.904 -2.9736  1.0936  0.2943
  607MPD2    H1 9051   4.522   0.636  11.930  0.9468  0.3511 -1.1020
  607MPD2    H2 9052   4.471   0.830  11.552  1.7326  1.3228 -0.6697
  607MPD2    H3 9053   4.499   0.631  11.684  0.6205 -0.4607  1.0681
  607MPD2     N 9054   4.584   0.846  12.067  0.4372  0.2026  0.0757
  607MPD2    H5 9055   4.583   0.936  12.114  0.6439 -0.9089  2.1892
  607MPD2    N1 9056   4.515   1.078  11.642  0.9238  0.2832 -0.2600
  607MPD2    H7 9057   4.513   1.070  11.540  0.8920 -1.5353 -0.1081
  608TMC3    C1 9058   4.557   1.306  11.599 -0.4479 -0.2416  0.0826
  608TMC3    C2 9059   4.590   1.424  11.659  0.4107  0.1953 -0.3243
  608TMC3    C3 9060   4.713   1.477  11.626 -0.5401  0.5699  0.2037
  608TMC3    C4 9061   4.631   1.267  11.487 -0.2606  0.2256  0.5526
  608TMC3    C5 9062   0.006   1.337  11.448 -0.1261 -0.0473 -0.3738
  608TMC3    C6 9063   0.057   1.435  11.524  0.9526  0.1950 -0.1200
  608TMC3     C 9064   4.516   1.202  11.698  0.2226 -0.2287 -0.4430
  608TMC3     O 9065   4.503   1.238  11.818  0.1093 -0.8075  0.2008
  608TMC3     H 9066   4.532   1.459  11.743 -0.6072 -1.5641 -0.2887
  608TMC3    H1 9067   4.609   1.177  11.430  0.4281 -0.1766  0.9250
  608TMC3    H2 9068   0.151   1.478  11.490  0.8503 -1.0846 -1.9757
  608TMC3    C7 9069   0.040   1.353  11.306  0.7710  0.5894 -0.4558
  608TMC3    C8 9070   0.047   1.527  11.744 -0.6800 -0.0629 -0.2717
  608TMC3    O1 9071   0.158   1.375  11.278  0.2783 -0.3049  0.3138
  608TMC3    O2 9072   0.132   1.614  11.740 -0.4612  0.0483 -0.1431
  609TMC3    C1 9073   3.452   1.280   9.481 -0.4578  0.0935 -0.4094
  609TMC3    C2 9074   3.434   1.416   9.471  0.0958  0.0376  0.4443
  609TMC3    C3 9075   3.532   1.493   9.417  0.4788  0.6681  0.2461
  609TMC3    C4 9076   3.574   1.227   9.449 -0.0328 -0.0427  0.0763
  609TMC3    C5 9077   3.672   1.311   9.399 -0.7829  0.5893  0.0016
  609TMC3    C6 9078   3.652   1.447   9.387  0.1907 -0.1552  0.1131
  609TMC3     C 9079   3.355   1.195   9.548  0.4200  0.4978 -0.2796
  609TMC3     O 9080   3.389   1.078   9.550 -0.9454  0.2873  0.5286
  609TMC3     H 9081   3.337   1.455   9.501 -0.8793 -2.1820  0.2086
  609TMC3    H1 9082   3.605   1.128   9.480 -1.6968  0.1485  2.3392
  609TMC3    H2 9083   3.742   1.505   9.372  1.3732 -1.9054  0.3836
  609TMC3    C7 9084   3.800   1.262   9.366 -0.8572 -0.9188 -0.1440
  609TMC3    C8 9085   3.522   1.641   9.414  0.8711 -0.3152 -0.7811
  609TMC3    O1 9086   3.894   1.340   9.388  0.4051 -0.1458  0.8488
  609TMC3    O2 9087   3.428   1.682   9.485 -0.6553  0.1170 -0.0079
  610TMC3    C1 9088   0.656   1.504  12.256 -0.7860  0.3678 -0.8721
  610TMC3    C2 9089   0.535   1.474  12.191  0.5102 -0.7755  0.2410
  610TMC3    C3 9090   0.482   1.351  12.181  0.3610 -0.5634 -0.6755
  610TMC3    C4 9091   0.723   1.405  12.322 -0.5135 -0.7611 -0.2779
  610TMC3    C5 9092   0.651   1.287  12.338  0.2129  0.6859 -0.5583
  610TMC3    C6 9093   0.541   1.252  12.260  0.1488  0.2112  0.0009
  610TMC3     C 9094   0.741   1.593  12.183  0.0292  0.4966 -0.1697
  610TMC3     O 9095   0.688   1.629  12.079 -0.2750 -0.4157 -0.3348
  610TMC3     H 9096   0.497   1.555  12.130  0.4986 -1.0513 -0.1156
  610TMC3    H1 9097   0.819   1.428  12.368 -0.5701  0.1915 -0.6354
  610TMC3    H2 9098   0.503   1.151  12.266 -1.0523  0.6315 -0.5330
  610TMC3    C7 9099   0.684   1.213  12.460 -0.4056  0.3057  0.6700
  610TMC3    C8 9100   0.406   1.321  12.065 -0.1045  0.2197 -0.5066
  610TMC3    O1 9101   0.797   1.240  12.503 -0.4044 -0.4464 -0.2499
  610TMC3    O2 9102   0.422   1.394  11.969 -0.0340  0.3048 -0.7430
  611MPD2     C 9103   4.052   1.669  10.380  0.5426 -0.4304  0.0961
  611MPD2    C1 9104   4.172   1.613  10.349  0.2077 -0.0044  0.3978
  611MPD2    C2 9105   4.287   1.691  10.328  0.1848 -0.5272 -0.1241
  611MPD2    C3 9106   4.274   1.830  10.346 -0.4786 -0.5243 -0.1398
  611MPD2    C4 9107   4.154   1.879  10.377 -0.0017  0.4089  0.5153
  611MPD2    C5 9108   4.041   1.801  10.396  0.1065 -0.5218  0.0644
  611MPD2     H 9109   4.377   1.651  10.283 -0.0016 -1.7448  0.5810
  611MPD2    H1 9110   4.142   1.987  10.387 -1.0636  0.3309  0.1456
  611MPD2    H2 9111   3.963   1.612  10.404 -1.0190  0.9685 -2.3954
  611MPD2    H3 9112   3.943   1.840  10.421  1.0483  0.7059  1.8701
  611MPD2     N 9113   4.380   1.924  10.322  0.4124  0.0198 -0.2047
  611MPD2    H5 9114   4.357   2.021  10.343  0.4009  0.0781 -0.4896
  611MPD2    N1 9115   4.172   1.473  10.353  0.2787 -0.6049 -0.5322
  611MPD2    H7 9116   4.079   1.433  10.360 -1.2305  2.8793 -0.4955
  612TMC3    C1 9117   4.606   1.992  10.299  0.6295 -0.3080 -0.2980
  612TMC3    C2 9118   0.006   1.967  10.322  0.1994 -0.2016  0.2517
  612TMC3    C3 9119   0.097   2.070  10.302 -0.3506 -0.0022 -0.5561
  612TMC3    C4 9120   4.556   2.117  10.275 -0.9714  0.3091  0.6363
  612TMC3    C5 9121   4.647   2.213  10.266 -0.0187 -0.0908 -0.1031
  612TMC3    C6 9122   0.048   2.198  10.282  0.1780 -0.1335  0.7655
  612TMC3     C 9123   4.514   1.883  10.301 -0.1248  0.2426  0.6651
  612TMC3     O 9124   4.562   1.770  10.308 -0.6029  0.6523 -0.3428
  612TMC3     H 9125   0.030   1.866  10.351  1.1122 -0.4466 -1.3523
  612TMC3    H1 9126   4.450   2.128  10.255 -1.0650 -1.7033  0.0904
  612TMC3    H2 9127   0.118   2.281  10.285 -0.2616  0.3387 -2.6941
  612TMC3    C7 9128   4.599   2.343  10.219 -0.1703 -0.1316  0.1281
  612TMC3    C8 9129   0.239   2.058  10.336 -0.1867 -0.1535  0.3003
  612TMC3    O1 9130   4.501   2.344  10.144 -0.2629  0.1279 -0.7736
  612TMC3    O2 9131   0.295   2.163  10.350 -0.1350 -0.3482  0.6326
  613MPD2     C 9132   3.440   3.784  16.428 -0.0076 -0.1631  0.5086
  613MPD2    C1 9133   3.306   3.821  16.430 -0.2302 -0.2565  0.3706
  613MPD2    C2 9134   3.210   3.728  16.472 -0.1290 -0.0340 -0.7288
  613MPD2    C3 9135   3.246   3.597  16.494  0.2662  0.2414  0.3617
  613MPD2    C4 9136   3.383   3.560  16.496  0.4830  0.2962  0.3679
  613MPD2    C5 9137   3.476   3.657  16.461  0.5423  0.4123 -0.3803
  613MPD2     H 9138   3.106   3.746  16.450  0.0924 -1.2548 -2.7676
  613MPD2    H1 9139   3.422   3.467  16.535 -0.2814 -0.3915 -0.5162
  613MPD2    H2 9140   3.512   3.857  16.393  0.6398 -0.2214  1.7000
  613MPD2    H3 9141   3.577   3.617  16.460  0.1977 -0.4865  0.4831
  613MPD2     N 9142   3.155   3.491  16.503  1.3175  0.1604 -0.0366
  613MPD2    H5 9143   3.188   3.395  16.497 -0.8221 -0.5090 -1.1711
  613MPD2    N1 9144   3.271   3.939  16.363 -0.1901 -0.1474  0.2404
  613MPD2    H7 9145   3.344   3.992  16.317 -0.1527 -0.8409 -0.5085
  614TMC3    C1 9146   3.146   4.035  16.194 -0.1704  0.6857 -0.0905
  614TMC3    C2 9147   3.166   3.925  16.111 -0.2639 -0.6435 -0.4863
  614TMC3    C3 9148   3.072   3.904  16.018 -0.1154 -0.1784 -0.1032
  614TMC3    C4 9149   3.045   4.121  16.172 -0.2249 -0.3261 -0.0064
  614TMC3    C5 9150   2.961   4.092  16.073  0.2675 -0.4239 -0.5452
  614TMC3    C6 9151   2.970   3.988  15.997 -0.4567 -0.2006 -0.1127
  614TMC3     C 9152   3.141   3.974  16.329  0.2240 -0.4338 -1.0254
  614TMC3     O 9153   3.042   3.999  16.392  0.0834 -0.0824 -0.4216
  614TMC3     H 9154   3.251   3.859  16.127 -0.2586 -1.0646 -2.2611
  614TMC3    H1 9155   3.041   4.213  16.228  0.2184 -0.1124 -0.3268
  614TMC3    H2 9156   2.887   3.960  15.933  1.0364 -0.8910 -1.7574
  614TMC3    C7 9157   2.891   4.210  16.024 -0.0161  0.5155 -0.3254
  614TMC3    C8 9158   3.049   3.760  16.008 -0.2829 -0.2369  0.0835
  614TMC3    O1 9159   2.891   4.309  16.097 -0.3079 -0.3047  0.2143
  614TMC3    O2 9160   3.115   3.681  16.075 -0.1986 -0.5707  0.2175
  615MPD2     C 9161   2.968   0.487  15.899 -0.3942  0.2197 -0.2243
  615MPD2    C1 9162   3.069   0.577  15.923  0.0831  1.0657  0.3050
  615MPD2    C2 9163   3.042   0.714  15.921  0.2858 -0.1939 -0.1493
  615MPD2    C3 9164   2.921   0.764  15.884 -0.3405  0.0374  0.2684
  615MPD2    C4 9165   2.826   0.675  15.854 -0.2229 -0.3288  0.0935
  615MPD2    C5 9166   2.848   0.543  15.862  0.4927  0.0458  0.1751
  615MPD2     H 9167   3.119   0.777  15.964  0.2778 -1.1166  1.2288
  615MPD2    H1 9168   2.727   0.710  15.829  0.4695  1.3692 -0.2697
  615MPD2    H2 9169   2.979   0.379  15.901 -0.5380  0.2233  1.0665
  615MPD2    H3 9170   2.768   0.478  15.828 -0.3516 -0.1792  2.6164
  615MPD2     N 9171   2.893   0.898  15.881  0.2351 -0.0959 -0.6878
  615MPD2    H5 9172   2.795   0.914  15.862 -0.3575 -0.3905  2.1116
  615MPD2    N1 9173   3.205   0.543  15.937 -0.0207 -0.8146 -0.4438
  615MPD2    H7 9174   3.275   0.615  15.955  0.1336 -1.5427  1.9064
  616TMC3    C1 9175   3.385   0.412  16.013  0.2178  0.3360 -0.0127
  616TMC3    C2 9176   3.473   0.504  15.965 -0.4758 -0.1825 -0.8725
  616TMC3    C3 9177   3.603   0.489  16.011  0.0146 -0.5613 -0.1753
  616TMC3    C4 9178   3.423   0.300  16.081  0.2350 -0.4004  0.2844
  616TMC3    C5 9179   3.561   0.295  16.114  0.4003  0.3013  0.3287
  616TMC3    C6 9180   3.648   0.391  16.090  0.2514 -0.2394  0.4526
  616TMC3     C 9181   3.246   0.415  15.973  0.6573  0.3053 -0.1873
  616TMC3     O 9182   3.175   0.320  15.991  0.3448 -0.1604  0.0538
  616TMC3     H 9183   3.442   0.589  15.906 -0.2561  2.7201  3.2014
  616TMC3    H1 9184   3.356   0.225  16.121 -0.6156  1.0356  1.5784
  616TMC3    H2 9185   3.735   0.407  16.154 -0.1530 -2.5453  1.5733
  616TMC3    C7 9186   3.606   0.180  16.200  0.4388 -0.1968  0.3277
  616TMC3    C8 9187   3.695   0.586  15.961  0.6542 -0.2722 -0.2382
  616TMC3    O1 9188   3.523   0.133  16.278  0.3478  0.5616  0.4204
  616TMC3    O2 9189   3.645   0.652  15.871  0.2266 -0.0443 -0.1193
  617MPD2     C 9190   0.988   3.334  13.898  0.4141  0.4715 -0.2892
  617MPD2    C1 9191   1.030   3.275  14.018  0.4435  0.0234 -0.7207
  617MPD2    C2 9192   0.929   3.235  14.104 -0.7461 -0.0673  0.2306
  617MPD2    C3 9193   0.794   3.267  14.072 -0.0264  0.0584  0.2968
  617MPD2    C4 9194   0.757   3.328  13.957  0.8347  0.0194  0.7737
  617MPD2    C5 9195   0.855   3.354  13.863 -0.1896 -0.3582 -0.2885
  617MPD2     H 9196   0.961   3.197  14.200  0.9417 -1.3852 -0.8484
  617MPD2    H1 9197   0.654   3.352  13.935  0.9830  1.3172  1.5011
  617MPD2    H2 9198   1.066   3.374  13.834 -0.2221 -0.0719 -1.4045
  617MPD2    H3 9199   0.828   3.400  13.768  3.7427  2.0991 -0.2445
  617MPD2     N 9200   0.689   3.245  14.169 -0.2828  0.1563 -0.0295
  617MPD2    H5 9201   0.599   3.275  14.132  1.0547  1.3488 -2.3635
  617MPD2    N1 9202   1.168   3.268  14.032 -0.1637  0.5287  0.6390
  617MPD2    H7 9203   1.230   3.297  13.958  1.3114  0.9157  2.0382
  618TMC3    C1 9204   1.373   3.225  14.118 -0.2615 -0.3212  0.2142
  618TMC3    C2 9205   1.423   3.103  14.082 -0.4059 -0.4270  0.1853
  618TMC3    C3 9206   1.519   3.092  13.984 -0.6426 -0.2178  0.0065
  618TMC3    C4 9207   1.421   3.333  14.051  0.2716  0.9431 -0.8626
  618TMC3    C5 9208   1.509   3.324  13.946 -0.3653 -0.0946  0.0635
  618TMC3    C6 9209   1.568   3.204  13.919  0.0765 -0.0816  0.1596
  618TMC3     C 9210   1.231   3.220  14.145  0.3292  0.2972  0.4617
  618TMC3     O 9211   1.174   3.162  14.235  0.1406  0.2530 -0.1352
  618TMC3     H 9212   1.401   3.018  14.146  1.6144 -0.4652  0.8413
  618TMC3    H1 9213   1.373   3.427  14.073 -0.4512 -0.0050  1.6271
  618TMC3    H2 9214   1.650   3.197  13.848  0.2390 -0.0494  0.3461
  618TMC3    C7 9215   1.452   3.378  13.830 -0.3287  0.4246 -0.3408
  618TMC3    C8 9216   1.469   2.994  13.892 -0.2479  0.1230  0.5155
  618TMC3    O1 9217   1.335   3.352  13.811 -0.1011 -0.2245 -0.5505
  618TMC3    O2 9218   1.354   2.957  13.909 -1.0745 -0.3510  0.2766
  619MPD2     C 9219   2.612   0.093  14.128 -0.7262 -0.3300  0.4947
  619MPD2    C1 9220   2.515   0.082  14.034 -0.1120  0.1512  0.2425
  619MPD2    C2 9221   2.393   0.021  14.061 -0.1924  0.3462 -0.2939
  619MPD2    C3 9222   2.368   4.688  14.178  0.0996  0.2636 -0.1034
  619MPD2    C4 9223   2.470   4.679  14.267 -0.7663 -1.0967 -0.6016
  619MPD2    C5 9224   2.583   0.019  14.245  0.4409 -0.6367  0.0776
  619MPD2     H 9225   2.320   0.026  13.981  0.7325 -0.1107 -1.1780
  619MPD2    H1 9226   2.466   4.625  14.361  0.1869  0.7625  0.5224
  619MPD2    H2 9227   2.710   0.133  14.109 -0.8573 -0.2667 -0.0452
  619MPD2    H3 9228   2.663   0.022  14.319  0.0034  0.3498  0.5150
  619MPD2     N 9229   2.238   4.637  14.213  0.0780 -0.3892  0.4747
  619MPD2    H5 9230   2.234   4.576  14.294 -0.6102 -0.4756  0.3724
  619MPD2    N1 9231   2.521   0.139  13.912 -0.2740  0.0827  0.0587
  619MPD2    H7 9232   2.449   0.117  13.843  0.0788  1.2058 -0.6807
  620TMC3    C1 9233   2.590   0.287  13.744 -0.2129 -0.2478  0.1705
  620TMC3    C2 9234   2.512   0.211  13.663  0.3844  0.2322 -0.4065
  620TMC3    C3 9235   2.428   0.279  13.580 -0.4615  1.0142  0.0641
  620TMC3    C4 9236   2.603   0.424  13.738  0.0403 -0.1120  0.5612
  620TMC3    C5 9237   2.525   0.480  13.638  0.4227 -0.7722  0.6911
  620TMC3    C6 9238   2.453   0.407  13.557 -0.2946  0.3599  0.8758
  620TMC3     C 9239   2.622   0.230  13.874 -0.4166  0.1963  0.2930
  620TMC3     O 9240   2.704   0.288  13.941 -0.6718  0.1750 -0.1804
  620TMC3     H 9241   2.508   0.104  13.678  2.3474 -0.0611 -1.9619
  620TMC3    H1 9242   2.652   0.482  13.815  0.0912  0.1354  0.3405
  620TMC3    H2 9243   2.381   0.449  13.487  0.2226 -1.4134 -0.7236
  620TMC3    C7 9244   2.491   0.621  13.654 -0.5025 -0.1461 -0.3611
  620TMC3    C8 9245   2.288   0.264  13.614 -0.1632 -0.0500  0.0765
  620TMC3    O1 9246   2.577   0.702  13.672  0.8975 -0.6883  0.0955
  620TMC3    O2 9247   2.218   0.366  13.625  0.2123  0.6236  0.6966
  621MPD2     C 9248   3.458   4.677   9.443  0.1668  0.2773  0.2640
  621MPD2    C1 9249   3.422   0.052   9.520  0.8728  0.8696 -0.1804
  621MPD2    C2 9250   3.521   0.124   9.572  0.7304 -0.2603 -0.5697
  621MPD2    C3 9251   3.658   0.088   9.567 -0.3390 -0.6154  0.4040
  621MPD2    C4 9252   3.691   4.707   9.496 -0.3336 -0.1511 -0.5136
  621MPD2    C5 9253   3.588   4.641   9.435  0.1010 -0.0289  0.2481
  621MPD2     H 9254   3.488   0.205   9.635  0.4841 -0.0584 -0.9569
  621MPD2    H1 9255   3.789   4.660   9.497  0.0642  0.7015  0.8546
  621MPD2    H2 9256   3.389   4.613   9.388 -0.7486  2.4511 -1.0907
  621MPD2    H3 9257   3.612   4.557   9.370  2.5895  0.6486  0.2796
  621MPD2     N 9258   3.750   0.178   9.624 -0.9857 -0.5721 -0.0889
  621MPD2    H5 9259   3.723   0.257   9.682 -1.1995 -0.0817 -0.8585
  621MPD2    N1 9260   3.285   0.084   9.538  0.3482 -0.2024  0.6151
  621MPD2    H7 9261   3.262   0.174   9.579 -0.3774 -0.1821  0.1644
  622TMC3    C1 9262   3.045   0.052   9.544 -0.2828  0.1617 -0.1508
  622TMC3    C2 9263   2.948   4.707   9.603 -0.1308  0.6887  0.6922
  622TMC3    C3 9264   2.823   0.019   9.619  0.6086  0.7201 -0.6798
  622TMC3    C4 9265   3.017   0.181   9.501  0.2462  0.4095  0.2296
  622TMC3    C5 9266   2.888   0.229   9.530  0.4986  0.7764  0.6318
  622TMC3    C6 9267   2.790   0.148   9.580 -0.2838  0.2309  0.4733
  622TMC3     C 9268   3.177   4.731   9.507 -0.4619  0.1359 -0.5938
  622TMC3     O 9269   3.192   4.610   9.513 -0.4235 -0.0143  0.0703
  622TMC3     H 9270   2.980   4.606   9.623  0.4138  0.7175 -0.0307
  622TMC3    H1 9271   3.095   0.244   9.460  0.0549 -0.8431 -2.0874
  622TMC3    H2 9272   2.691   0.189   9.599 -0.8415 -1.0065  0.2764
  622TMC3    C7 9273   2.852   0.341   9.448 -0.2942  0.8945 -0.3154
  622TMC3    C8 9274   2.718   4.678   9.690 -0.2990 -0.4054  0.5284
  622TMC3    O1 9275   2.921   0.367   9.352 -0.1029  0.6290 -0.1377
  622TMC3    O2 9276   2.603   4.708   9.666 -0.1794 -0.1616  0.3856
  623MPD2     C 9277   1.967   0.632  15.928 -0.5053  0.0600 -0.2312
  623MPD2    C1 9278   1.875   0.651  16.038 -0.1736 -0.1118  0.8244
  623MPD2    C2 9279   1.912   0.739  16.136 -0.0060 -0.1258  0.1186
  623MPD2    C3 9280   2.036   0.801  16.132 -0.3310 -0.1232 -0.4860
  623MPD2    C4 9281   2.131   0.776  16.032  0.5151  0.7784 -0.3150
  623MPD2    C5 9282   2.092   0.695  15.926  0.3126  0.2009 -0.1768
  623MPD2     H 9283   1.849   0.758  16.222  1.3585 -0.1734  1.1321
  623MPD2    H1 9284   2.224   0.831  16.023 -0.0889  2.1448  1.7772
  623MPD2    H2 9285   1.949   0.578  15.836  1.3808  0.4495 -0.8263
  623MPD2    H3 9286   2.160   0.681  15.843  0.3220 -1.1500  0.0602
  623MPD2     N 9287   2.060   0.875  16.244 -0.3963  0.7582  0.6266
  623MPD2    H5 9288   1.986   0.889  16.313 -0.0121 -1.5440  1.5237
  623MPD2    N1 9289   1.758   0.572  16.041  0.5040 -1.1340  0.2758
  623MPD2    H7 9290   1.738   0.524  15.953 -0.2691  0.9750 -0.6814
  624TMC3    C1 9291   2.287   0.934  16.606  0.7426  0.2220 -0.0040
  624TMC3    C2 9292   2.174   0.964  16.675  0.0686  0.3500  0.1166
  624TMC3    C3 9293   2.062   0.985  16.608  0.5349  0.2059  0.1331
  624TMC3    C4 9294   2.293   0.949  16.471 -0.2789 -0.8882  0.2777
  624TMC3    C5 9295   2.181   0.979  16.406 -0.4597 -0.4200  0.0486
  624TMC3    C6 9296   2.061   0.992  16.475 -0.7842 -0.2873 -0.2386
  624TMC3     C 9297   2.404   0.909  16.691 -0.2422 -1.2909 -0.6368
  624TMC3     O 9298   2.381   0.875  16.808  0.1119  0.5253  0.3560
  624TMC3     H 9299   2.165   0.964  16.783 -0.1181  0.2236  0.1026
  624TMC3    H1 9300   2.380   0.909  16.420  0.8869  1.4694  0.4010
  624TMC3    H2 9301   1.971   1.023  16.422 -0.8727 -2.9917 -1.7254
  624TMC3    C7 9302   2.184   0.931  16.272 -1.5935  0.4357  0.3034
  624TMC3    C8 9303   1.932   0.936  16.664  0.0653  1.0605  0.2062
  624TMC3    O1 9304   2.291   0.944  16.211  0.2659  0.2397  0.2352
  624TMC3    O2 9305   1.871   0.856  16.596  0.3578  0.4608  0.1351
  625MPD2     C 9306   1.799   2.070   0.722 -0.1807  0.7605  0.6615
  625MPD2    C1 9307   1.834   2.203   0.719  0.0276  0.4220  0.1726
  625MPD2    C2 9308   1.963   2.232   0.767  0.6060  0.1941 -0.3787
  625MPD2    C3 9309   2.035   2.143   0.843 -0.1510  0.1474  0.6151
  625MPD2    C4 9310   1.984   2.016   0.867 -0.2972 -0.1004 -0.0183
  625MPD2    C5 9311   1.864   1.983   0.802  0.2886  0.0176  0.3234
  625MPD2     H 9312   2.001   2.327   0.732  1.2083  0.5663  1.2881
  625MPD2    H1 9313   2.051   1.940   0.907 -1.6247 -0.8068  0.8441
  625MPD2    H2 9314   1.713   2.026   0.671  0.7677 -1.0558  0.6474
  625MPD2    H3 9315   1.832   1.880   0.807 -0.3654  0.2720  1.5225
  625MPD2     N 9316   2.177   2.180   0.862  0.1969  0.2471 -0.5171
  625MPD2    H5 9317   2.220   2.266   0.832  1.4262 -0.3007 -0.3432
  625MPD2    N1 9318   1.764   2.298   0.642 -0.6119  0.5253  0.6080
  625MPD2    H7 9319   1.783   2.398   0.644  2.4823 -0.0728  1.3845
  626TMC3    C1 9320   1.568   2.376   0.531 -0.2520  0.2923 -0.2975
  626TMC3    C2 9321   1.500   2.362   0.412  0.2291 -0.0788  0.0178
  626TMC3    C3 9322   1.383   2.421   0.389 -0.3037 -0.3243  0.2074
  626TMC3    C4 9323   1.520   2.448   0.629 -0.3724 -0.1362  0.0429
  626TMC3    C5 9324   1.393   2.493   0.611 -0.0281  0.3919  0.5839
  626TMC3    C6 9325   1.322   2.493   0.496  0.4322 -0.0741  0.2403
  626TMC3     C 9326   1.661   2.264   0.554 -0.2896 -0.1640 -0.4934
  626TMC3     O 9327   1.615   2.161   0.507  0.4744 -0.0589 -0.3664
  626TMC3     H 9328   1.552   2.299   0.339  2.2296 -0.0505  1.4292
  626TMC3    H1 9329   1.573   2.437   0.723 -2.3858 -1.7175  0.9803
  626TMC3    H2 9330   1.257   2.579   0.485 -0.5398 -1.1177 -2.2559
  626TMC3    C7 9331   1.335   2.565   0.720  0.7277  0.0351 -0.5315
  626TMC3    C8 9332   1.328   2.424   0.253  0.2727  0.4482  0.4952
  626TMC3    O1 9333   1.405   2.603   0.809  0.0534 -0.3181  0.4122
  626TMC3    O2 9334   1.393   2.376   0.161 -0.2800 -0.6772  0.2288
  627MPD2     C 9335   0.486   2.362  14.564 -0.1500 -0.1138  0.2732
  627MPD2    C1 9336   0.563   2.262  14.618  0.2076 -0.3751 -0.1866
  627MPD2    C2 9337   0.499   2.142  14.631  0.3620 -0.1460 -0.0553
  627MPD2    C3 9338   0.368   2.119  14.602 -0.0768 -0.9595 -0.4514
  627MPD2    C4 9339   0.297   2.221  14.541  0.3600 -0.3299 -0.2283
  627MPD2    C5 9340   0.354   2.345  14.526  0.0884  0.6822 -0.3813
  627MPD2     H 9341   0.554   2.061  14.678  1.0687  0.9256  0.9578
  627MPD2    H1 9342   0.193   2.209  14.515  0.0755 -0.6299  1.0627
  627MPD2    H2 9343   0.529   2.462  14.565 -1.5406  0.4822  0.0276
  627MPD2    H3 9344   0.297   2.424  14.479 -0.9361 -1.0485 -2.0761
  627MPD2     N 9345   0.322   1.988  14.623 -0.5795 -0.0011  0.0878
  627MPD2    H5 9346   0.376   1.920  14.675  0.0804  0.2559 -0.2592
  627MPD2    N1 9347   0.701   2.286  14.652  0.7636 -0.4697 -0.3729
  627MPD2    H7 9348   0.737   2.379  14.633 -0.4863  0.1445  0.2702
  628TMC3    C1 9349   0.926   2.267  14.730  1.1253  0.0925 -0.6822
  628TMC3    C2 9350   1.038   2.196  14.715  0.5363 -0.0732 -0.0451
  628TMC3    C3 9351   1.153   2.253  14.766  0.1848  1.1675 -0.1964
  628TMC3    C4 9352   0.915   2.388  14.796  0.1118  0.1697 -0.0652
  628TMC3    C5 9353   1.033   2.446  14.825  0.5641  0.1600 -0.1938
  628TMC3    C6 9354   1.155   2.386  14.811 -0.2991  0.2348 -0.7576
  628TMC3     C 9355   0.803   2.202  14.708  0.2062  0.6601 -1.0765
  628TMC3     O 9356   0.794   2.082  14.717  0.0049 -0.3045 -0.4480
  628TMC3     H 9357   1.027   2.097  14.674  1.0970 -0.7813  1.4941
  628TMC3    H1 9358   0.819   2.429  14.825 -0.2926 -0.7331 -0.1149
  628TMC3    H2 9359   1.246   2.443  14.821 -0.0609 -0.5463  1.5842
  628TMC3    C7 9360   1.037   2.585  14.869  0.2092 -0.3969  0.9353
  628TMC3    C8 9361   1.277   2.184  14.720 -0.0803  0.6805 -0.8095
  628TMC3    O1 9362   1.129   2.623  14.940 -0.8305  0.9758 -0.0914
  628TMC3    O2 9363   1.266   2.103  14.622  0.2202 -0.3972 -0.2129
  629MPD2     C 9364   4.037   0.969  16.010 -0.3691  0.2965  0.2295
  629MPD2    C1 9365   4.035   0.893  16.123  0.2781  0.8261 -0.0934
  629MPD2    C2 9366   3.950   0.774  16.124 -0.7411  0.2950  0.3009
  629MPD2    C3 9367   3.880   0.732  16.019 -0.1859 -0.3210 -0.1154
  629MPD2    C4 9368   3.878   0.812  15.902  0.1445  0.4984 -0.3399
  629MPD2    C5 9369   3.960   0.922  15.903  0.1786  0.0853  0.4784
  629MPD2     H 9370   3.950   0.722  16.219 -0.1875  0.5433  0.4394
  629MPD2    H1 9371   3.822   0.795  15.811 -0.6661  1.0392  0.0565
  629MPD2    H2 9372   4.105   1.052  16.001 -0.3791  0.0965 -1.7620
  629MPD2    H3 9373   3.968   0.979  15.811  1.4914 -0.3713  0.3126
  629MPD2     N 9374   3.812   0.609  16.030 -0.6393 -0.2057 -0.2634
  629MPD2    H5 9375   3.815   0.547  16.111 -0.7456 -0.5124 -0.4918
  629MPD2    N1 9376   4.123   0.923  16.226 -0.0205 -0.5301  0.0284
  629MPD2    H7 9377   4.175   1.009  16.211 -2.9202  0.9588 -1.5870
  630TMC3    C1 9378   4.277   0.888  16.404 -0.3047  0.4329 -0.2644
  630TMC3    C2 9379   4.357   0.986  16.348 -0.0500  0.1723  0.0312
  630TMC3    C3 9380   4.475   1.006  16.416 -0.0140 -1.1788  0.4984
  630TMC3    C4 9381   4.308   0.819  16.518  0.0168 -0.7771  0.2158
  630TMC3    C5 9382   4.435   0.842  16.575 -0.1583 -0.7283 -0.8605
  630TMC3    C6 9383   4.511   0.942  16.536  0.9537  0.4704  0.3123
  630TMC3     C 9384   4.148   0.858  16.344 -0.2190  0.8560 -0.0402
  630TMC3     O 9385   4.089   0.761  16.393  0.0659  0.6658  0.4885
  630TMC3     H 9386   4.332   1.027  16.252  0.7782  0.3577 -0.1025
  630TMC3    H1 9387   4.242   0.740  16.552 -0.3532 -1.0077 -1.0552
  630TMC3    H2 9388   4.616   0.956  16.559  1.3506 -0.5039 -0.8705
  630TMC3    C7 9389   4.434   0.824  16.719 -0.1221 -0.4908 -0.1105
  630TMC3    C8 9390   4.547   1.126  16.401  0.3597 -0.2849 -0.7331
  630TMC3    O1 9391   4.391   0.717  16.762  0.4226 -0.2397  0.7807
  630TMC3    O2 9392   4.636   1.149  16.482  0.1491 -0.5508 -0.0074
  631MPD2     C 9393   2.135   1.549  15.852  0.0870  0.3007  0.7853
  631MPD2    C1 9394   2.214   1.496  15.758  0.5190  0.6493  0.1254
  631MPD2    C2 9395   2.328   1.424  15.791  0.1041  0.9155  0.0432
  631MPD2    C3 9396   2.365   1.412  15.923  0.6069  0.4350  0.2756
  631MPD2    C4 9397   2.279   1.462  16.018  0.0486  0.1643  0.0377
  631MPD2    C5 9398   2.165   1.530  15.981 -0.0422  0.3128  0.2289
  631MPD2     H 9399   2.386   1.377  15.713 -0.6331  0.3557 -0.1704
  631MPD2    H1 9400   2.291   1.449  16.125  2.9509 -1.3172 -0.4808
  631MPD2    H2 9401   2.044   1.602  15.825  0.3105  0.1398 -0.2786
  631MPD2    H3 9402   2.099   1.568  16.058  0.8801  0.2320  1.0633
  631MPD2     N 9403   2.489   1.354  15.970 -0.4923 -0.0153 -0.7396
  631MPD2    H5 9404   2.499   1.349  16.071  0.2124  1.1366 -0.7572
  631MPD2    N1 9405   2.168   1.516  15.627  0.1953  0.3970 -0.1651
  631MPD2    H7 9406   2.082   1.567  15.611  0.4070  0.6541 -0.4968
  632TMC3    C1 9407   2.148   1.484  15.397 -0.9800  0.0181 -0.1330
  632TMC3    C2 9408   2.015   1.504  15.416  0.3604  0.0970 -0.2896
  632TMC3    C3 9409   1.933   1.518  15.307  0.5777  0.5594  0.5920
  632TMC3    C4 9410   2.206   1.485  15.274  0.1736  0.2166 -0.5624
  632TMC3    C5 9411   2.116   1.503  15.168 -0.0197  1.1835 -0.1324
  632TMC3    C6 9412   1.980   1.514  15.179  0.1648  0.1349  0.7495
  632TMC3     C 9413   2.235   1.476  15.515 -0.0558  0.4948  0.1103
  632TMC3     O 9414   2.359   1.459  15.501 -0.5716  0.2975 -0.6432
  632TMC3     H 9415   1.970   1.500  15.514 -0.6135 -0.0387 -0.7484
  632TMC3    H1 9416   2.314   1.476  15.264  0.1508 -1.8692  1.0557
  632TMC3    H2 9417   1.912   1.529  15.096 -1.4821 -0.8388  1.9230
  632TMC3    C7 9418   2.150   1.472  15.032 -0.1228 -0.4802 -0.1203
  632TMC3    C8 9419   1.798   1.476  15.330 -0.6204  0.2986  0.5656
  632TMC3    O1 9420   2.072   1.505  14.942  0.0712  0.0756 -0.1119
  632TMC3    O2 9421   1.756   1.481  15.444  0.2078  0.1912  0.1285
  633MPD2     C 9422   1.679   3.446  17.309 -0.1306  0.0095  0.5629
  633MPD2    C1 9423   1.654   3.401  17.181  0.1057 -0.6686 -0.0347
  633MPD2    C2 9424   1.565   3.301  17.156 -0.3295 -0.3045 -0.1235
  633MPD2    C3 9425   1.471   3.262  17.244 -0.0665 -0.2685  0.0532
  633MPD2    C4 9426   1.484   3.313  17.376 -0.0948  0.4833 -0.1266
  633MPD2    C5 9427   1.588   3.400  17.405 -0.3423  0.4671  0.0698
  633MPD2     H 9428   1.556   3.257  17.058  1.0546  1.3336 -0.9986
  633MPD2    H1 9429   1.422   3.285  17.460 -0.7252 -0.7558 -1.0097
  633MPD2    H2 9430   1.757   3.516  17.338 -0.8882  0.4278  1.5900
  633MPD2    H3 9431   1.590   3.427  17.510  0.1358  0.6468  0.0116
  633MPD2     N 9432   1.357   3.178  17.217  0.5197 -0.0403  0.3486
  633MPD2    H5 9433   1.290   3.160  17.292  0.2760 -2.9793 -0.5971
  633MPD2    N1 9434   1.731   3.438  17.070  0.7400 -0.5541 -0.1886
  633MPD2    H7 9435   1.725   3.386  16.983  1.7551 -1.4606  0.2804
  634TMC3    C1 9436   1.845   3.597  16.926  0.2517 -0.3061 -0.1959
  634TMC3    C2 9437   1.861   3.497  16.832  0.2938  0.0277  0.2064
  634TMC3    C3 9438   1.882   3.544  16.703  0.0302  0.4896 -0.0315
  634TMC3    C4 9439   1.849   3.735  16.900  0.5278  0.1940 -0.9881
  634TMC3    C5 9440   1.880   3.768  16.774 -0.1879  0.3369  0.2808
  634TMC3    C6 9441   1.893   3.676  16.671  0.0258  0.0061  0.6944
  634TMC3     C 9442   1.801   3.555  17.063 -0.0997 -0.0910  0.8535
  634TMC3     O 9443   1.807   3.646  17.143  0.2580 -0.1287  0.7688
  634TMC3     H 9444   1.848   3.394  16.866  0.2903 -0.1931 -0.4690
  634TMC3    H1 9445   1.846   3.801  16.987 -0.7790  0.7128 -1.4215
  634TMC3    H2 9446   1.916   3.716  16.573  2.5923  1.1834  1.7605
  634TMC3    C7 9447   1.857   3.909  16.738  0.9213 -0.4598 -0.3962
  634TMC3    C8 9448   1.866   3.444  16.603 -0.0370  0.0484  0.3528
  634TMC3    O1 9449   1.885   3.935  16.619  0.2937  0.0564  0.0549
  634TMC3    O2 9450   1.831   3.333  16.641 -0.2531  0.2342 -0.3122
  635TMC3    C1 9451   1.698   4.442   0.905  0.3791  0.2535 -0.0425
  635TMC3    C2 9452   1.730   4.315   0.937 -0.3147 -0.6439  0.1303
  635TMC3    C3 9453   1.761   4.289   1.066  0.1113 -0.2783 -0.6824
  635TMC3    C4 9454   1.698   4.540   0.997 -0.1452  0.3901 -0.7383
  635TMC3    C5 9455   1.701   4.500   1.129  0.0449 -0.5677  1.0065
  635TMC3    C6 9456   1.749   4.377   1.171  0.0336  0.4702  0.3037
  635TMC3     C 9457   1.686   4.480   0.769 -0.3605 -0.0826 -0.0909
  635TMC3     O 9458   1.648   4.385   0.702 -0.0750 -0.1458 -0.3722
  635TMC3     H 9459   1.735   4.241   0.858 -1.1119 -0.3950 -0.1485
  635TMC3    H1 9460   1.687   4.644   0.968 -1.6936  0.5016  0.2664
  635TMC3    H2 9461   1.770   4.353   1.275  2.9768 -0.2095 -0.4357
  635TMC3    C7 9462   1.673   4.608   1.222 -0.3624  0.2669 -0.4488
  635TMC3    C8 9463   1.852   4.176   1.096  0.1113 -0.2458  0.6105
  635TMC3    O1 9464   1.641   4.711   1.167 -0.4233  0.3081 -0.3816
  635TMC3    O2 9465   1.881   4.150   1.213 -0.6333 -0.2715  0.1344
  636MPD2     C 9466   2.584   3.839  16.126 -0.0364  0.4232  0.0611
  636MPD2    C1 9467   2.643   3.856  16.244 -0.1219 -0.2185 -0.6645
  636MPD2    C2 9468   2.678   3.746  16.312 -0.0557  0.4135 -0.6913
  636MPD2    C3 9469   2.652   3.622  16.267 -0.6533  0.3960 -0.1037
  636MPD2    C4 9470   2.581   3.609  16.148  0.5207 -0.9253  0.7540
  636MPD2    C5 9471   2.545   3.720  16.079 -0.4221 -0.6020 -0.1362
  636MPD2     H 9472   2.745   3.746  16.397  0.7171 -0.0403 -1.2997
  636MPD2    H1 9473   2.555   3.514  16.104  1.8909 -0.3262 -1.3180
  636MPD2    H2 9474   2.542   3.924  16.072 -0.2422  0.6386  0.5636
  636MPD2    H3 9475   2.475   3.718  15.996 -0.3401 -0.8531 -0.1996
  636MPD2     N 9476   2.685   3.515  16.349 -0.0280  0.0509  0.1863
  636MPD2    H5 9477   2.759   3.530  16.417  1.2267  0.3904 -1.2446
  636MPD2    N1 9478   2.680   3.982  16.303 -0.0507  0.0987  0.0862
  636MPD2    H7 9479   2.717   3.968  16.397  0.9923  3.3741  0.1485
  637TMC3    C1 9480   2.727   3.308  16.401  0.4626  0.0794 -0.3737
  637TMC3    C2 9481   2.816   3.376  16.485  0.0533  0.6197  0.3339
  637TMC3    C3 9482   2.949   3.376  16.468 -0.6085  0.5949 -0.5514
  637TMC3    C4 9483   2.785   3.231  16.304 -0.2887  0.8003 -0.5880
  637TMC3    C5 9484   2.920   3.237  16.276  0.2711  0.4814 -0.3280
  637TMC3    C6 9485   3.005   3.306  16.363  0.5330  0.2917 -0.5761
  637TMC3     C 9486   2.629   3.389  16.342  0.0807 -0.4121  0.2385
  637TMC3     O 9487   2.557   3.337  16.256  0.2364  0.1121 -0.3808
  637TMC3     H 9488   2.783   3.443  16.563  0.8802  1.4589 -0.0454
  637TMC3    H1 9489   2.723   3.181  16.230  0.1156  0.2282 -0.5437
  637TMC3    H2 9490   3.112   3.295  16.349  0.6636 -1.7569  2.1320
  637TMC3    C7 9491   2.966   3.274  16.141 -0.7824 -0.2013 -0.2957
  637TMC3    C8 9492   3.017   3.505  16.491  0.7906 -0.3812  0.2338
  637TMC3    O1 9493   3.075   3.330  16.129 -0.0002  0.2273  0.2670
  637TMC3    O2 9494   2.944   3.601  16.511 -0.1546  0.3145  0.0439
  638MPD2     C 9495   2.791   2.820  14.487  0.6339 -0.6773  0.2806
  638MPD2    C1 9496   2.895   2.740  14.527 -0.1246 -0.1676 -0.3617
  638MPD2    C2 9497   2.889   2.671  14.650  0.4072  1.0572 -0.0353
  638MPD2    C3 9498   2.768   2.656  14.711 -0.6524 -0.0633 -0.2425
  638MPD2    C4 9499   2.661   2.738  14.664  0.4006  0.0207  0.6793
  638MPD2    C5 9500   2.677   2.825  14.562  0.7317 -0.7176  0.0344
  638MPD2     H 9501   2.974   2.606  14.668  0.5545  0.9574 -1.0855
  638MPD2    H1 9502   2.564   2.727  14.712  0.9460 -1.3583  1.4724
  638MPD2    H2 9503   2.792   2.883  14.399 -0.0130 -0.0799  0.7009
  638MPD2    H3 9504   2.595   2.887  14.531  0.6363 -0.7606  0.1986
  638MPD2     N 9505   2.754   2.562  14.811  0.5089 -0.2267  0.3976
  638MPD2    H5 9506   2.836   2.517  14.849 -0.2626  0.9173  3.4646
  638MPD2    N1 9507   3.014   2.726  14.449 -0.0476 -0.0212  0.1191
  638MPD2    H7 9508   3.088   2.669  14.487 -0.9137 -0.1123  1.7138
  639TMC3    C1 9509   2.664   2.366  14.913  0.5089  0.3003  0.8830
  639TMC3    C2 9510   2.574   2.267  14.894 -0.1883 -0.0263 -0.1792
  639TMC3    C3 9511   2.616   2.140  14.878 -0.2146  0.3497 -0.0801
  639TMC3    C4 9512   2.794   2.335  14.945  0.2271  0.7008 -0.1097
  639TMC3    C5 9513   2.825   2.203  14.951 -0.6240 -0.3532  0.0701
  639TMC3    C6 9514   2.744   2.098  14.908  0.8974 -0.3605 -0.3895
  639TMC3     C 9515   2.636   2.490  14.840  0.3180 -0.3802 -0.4388
  639TMC3     O 9516   2.518   2.526  14.824  0.3769 -0.5631 -0.5158
  639TMC3     H 9517   2.475   2.296  14.859 -0.1283 -1.5855 -1.5939
  639TMC3    H1 9518   2.867   2.402  14.987  0.8841 -0.0494 -0.0423
  639TMC3    H2 9519   2.776   1.995  14.894 -1.1132 -1.2780  1.6730
  639TMC3    C7 9520   2.964   2.175  14.948 -0.7895 -0.0940  0.1847
  639TMC3    C8 9521   2.554   2.055  14.785  0.6282  0.3422  0.3768
  639TMC3    O1 9522   3.044   2.270  14.945 -0.0987 -0.0780  0.1121
  639TMC3    O2 9523   2.618   1.979  14.718  0.3026 -1.0834  0.1297
  640MPD2     C 9524   3.425   1.513   9.794 -0.1195  0.1860  0.2743
  640MPD2    C1 9525   3.459   1.646   9.828  0.4137  0.4586 -0.0422
  640MPD2    C2 9526   3.391   1.711   9.927  0.8231 -0.5052 -0.1642
  640MPD2    C3 9527   3.283   1.647   9.981 -0.0725  0.9400  0.2560
  640MPD2    C4 9528   3.243   1.526   9.940  0.6791 -0.5213 -0.3262
  640MPD2    C5 9529   3.322   1.452   9.857  0.1331  0.0385  0.9668
  640MPD2     H 9530   3.422   1.812   9.950  0.6748 -0.8705  1.6504
  640MPD2    H1 9531   3.162   1.471   9.987  2.0413 -1.3828  1.0362
  640MPD2    H2 9532   3.484   1.454   9.725 -1.1060  0.6921 -1.0115
  640MPD2    H3 9533   3.293   1.349   9.838 -2.3528  0.5156  2.1284
  640MPD2     N 9534   3.213   1.706  10.089 -0.5219  0.4160 -0.4391
  640MPD2    H5 9535   3.145   1.641  10.128 -0.4258 -1.6124 -3.5960
  640MPD2    N1 9536   3.571   1.703   9.765  0.2337 -0.0729 -0.3130
  640MPD2    H7 9537   3.633   1.641   9.714 -1.2631 -0.5296 -1.5877
  641TMC3    C1 9538   3.714   1.898   9.706  0.2439 -0.3453 -0.3459
  641TMC3    C2 9539   3.815   1.814   9.669 -0.0859  0.3119 -0.5318
  641TMC3    C3 9540   3.942   1.860   9.647 -0.7826  0.9916  0.1194
  641TMC3    C4 9541   3.736   2.033   9.713 -0.2468 -0.0627  0.9764
  641TMC3    C5 9542   3.865   2.076   9.684 -0.3476 -0.3277 -0.3996
  641TMC3    C6 9543   3.968   1.994   9.660  0.4959  0.1897  0.1678
  641TMC3     C 9544   3.589   1.841   9.756 -0.2908  0.6373 -0.6693
  641TMC3     O 9545   3.510   1.927   9.786  0.1548  0.0543  0.0073
  641TMC3     H 9546   3.798   1.708   9.654  0.5984 -0.0257  1.0553
  641TMC3    H1 9547   3.654   2.101   9.734 -0.0869  1.1867 -2.3711
  641TMC3    H2 9548   4.066   2.037   9.642  0.1197  0.5995 -0.8697
  641TMC3    C7 9549   3.879   2.219   9.643  0.0975  0.0915 -0.4067
  641TMC3    C8 9550   4.045   1.768   9.622  0.1473 -0.1668  0.4832
  641TMC3    O1 9551   3.978   2.261   9.579  0.0513  0.5213  0.1330
  641TMC3    O2 9552   4.025   1.655   9.668 -0.2541  0.3430  0.3923
  642TMC3    C1 9553   4.364   2.425  12.826  0.3315 -0.4116  0.2930
  642TMC3    C2 9554   4.374   2.411  12.963 -0.0104 -0.3031 -0.2081
  642TMC3    C3 9555   4.475   2.329  13.008 -0.1965 -0.1404  0.4135
  642TMC3    C4 9556   4.450   2.355  12.743  0.4650  0.9034  0.4643
  642TMC3    C5 9557   4.541   2.266  12.791 -0.1395 -0.2559 -0.2087
  642TMC3    C6 9558   4.563   2.262  12.923 -0.1383  0.5430 -0.0353
  642TMC3     C 9559   4.295   2.536  12.767  0.7461 -0.0858 -0.7208
  642TMC3     O 9560   4.360   2.607  12.697 -0.4150  0.1620 -0.6709
  642TMC3     H 9561   4.318   2.463  13.040  1.7998  0.1883  0.7833
  642TMC3    H1 9562   4.439   2.378  12.638 -0.6062 -0.2869  0.3165
  642TMC3    H2 9563   4.635   2.192  12.964 -0.2232 -0.1204 -1.0074
  642TMC3    C7 9564   4.560   2.156  12.706 -0.4696 -0.2192 -0.1571
  642TMC3    C8 9565   4.459   2.264  13.132  0.2929  0.7536 -0.6946
  642TMC3    O1 9566   4.496   2.154  12.605  0.3232  0.2810 -0.2273
  642TMC3    O2 9567   4.551   2.189  13.166  0.1380  0.1715  0.3790
  643TMC3    C1 9568   3.319   1.292  17.613 -0.2623 -0.1274  0.4434
  643TMC3    C2 9569   3.225   1.327  17.520 -0.2867 -0.2722 -0.4607
  643TMC3    C3 9570   3.257   1.321  17.386  0.2064 -0.0945 -0.0576
  643TMC3    C4 9571   3.430   1.230  17.573 -0.2937  0.2714  0.5934
  643TMC3    C5 9572   3.462   1.230  17.438 -0.4658  0.6977  0.3393
  643TMC3    C6 9573   3.373   1.270  17.340 -0.8949  0.1708 -0.6902
  643TMC3     C 9574   3.301   1.351   0.010  0.1712 -0.2587  0.0066
  643TMC3     O 9575   3.233   1.454   0.008  0.1673  0.1691 -0.2185
  643TMC3     H 9576   3.128   1.367  17.547 -0.5353 -1.4434  0.3805
  643TMC3    H1 9577   3.520   1.238  17.634  1.0942 -1.3994 -1.2172
  643TMC3    H2 9578   3.381   1.267  17.232 -0.4621  1.2824 -0.6921
  643TMC3    C7 9579   3.599   1.275  17.411  0.0527  1.0672  0.2593
  643TMC3    C8 9580   3.235   1.451  17.329 -0.8230 -0.3302 -0.3620
  643TMC3    O1 9581   3.635   1.380  17.465  0.5470  0.6411  0.1877
  643TMC3    O2 9582   3.249   1.468  17.209  0.0941  0.0222 -0.0428
  644MPD2     C 9583   3.836   1.901  10.063  0.5112  0.1196  0.0522
  644MPD2    C1 9584   3.953   1.970  10.042 -0.3283  0.8409 -0.2561
  644MPD2    C2 9585   3.957   2.105  10.035 -0.7128 -0.3489 -0.6316
  644MPD2    C3 9586   3.847   2.174  10.067  0.1914 -0.4784 -0.4055
  644MPD2    C4 9587   3.734   2.116  10.116 -0.6208  0.2542 -0.7586
  644MPD2    C5 9588   3.726   1.977  10.109 -0.1758  0.5827 -0.4874
  644MPD2     H 9589   4.046   2.161  10.007 -0.2966 -0.1793  1.0722
  644MPD2    H1 9590   3.642   2.169  10.139  0.0641  2.7155 -3.7810
  644MPD2    H2 9591   3.834   1.793  10.058 -0.2754  0.0354  1.9720
  644MPD2    H3 9592   3.629   1.934  10.131  0.6347 -1.1919 -0.4362
  644MPD2     N 9593   3.868   2.314  10.064 -0.0576  0.0063 -0.2042
  644MPD2    H5 9594   3.965   2.340  10.052 -0.0642  0.6060  0.9919
  644MPD2    N1 9595   4.066   1.894  10.007 -0.5733  0.1358  0.3377
  644MPD2    H7 9596   4.046   1.797   9.985 -1.2024 -0.0702  1.8306
  645TMC3    C1 9597   3.833   2.551  10.087 -1.2667  0.5517  0.2821
  645TMC3    C2 9598   3.962   2.575  10.056  1.0427  1.4010  0.0444
  645TMC3    C3 9599   4.000   2.696  10.015  0.4388 -0.6453 -0.8633
  645TMC3    C4 9600   3.741   2.648  10.090  0.4726 -0.5016 -0.0439
  645TMC3    C5 9601   3.778   2.773  10.057 -0.2076 -0.0249 -0.1371
  645TMC3    C6 9602   3.908   2.800  10.019  0.6634 -0.2763 -0.8530
  645TMC3     C 9603   3.777   2.411  10.101 -0.1912  0.0931  0.2424
  645TMC3     O 9604   3.659   2.409  10.125 -0.8181 -0.1931  0.4126
  645TMC3     H 9605   4.039   2.499  10.048  1.2147  1.6839 -0.8672
  645TMC3    H1 9606   3.636   2.625  10.102 -0.2139  2.9995  0.4494
  645TMC3    H2 9607   3.943   2.902  10.029 -2.6981  0.8244 -0.2712
  645TMC3    C7 9608   3.685   2.869  10.017  0.1625 -0.1703 -0.1615
  645TMC3    C8 9609   4.141   2.733   9.995  0.2762  0.1933  0.0275
  645TMC3    O1 9610   3.717   2.962   9.944 -0.0882  0.8047  0.0805
  645TMC3    O2 9611   4.223   2.649  10.027  0.2132 -0.6047 -0.2755
  646MPD2     C 9612   3.011   1.377  14.160 -0.2077 -0.1364  0.4040
  646MPD2    C1 9613   2.922   1.380  14.266  0.4450  0.0079  0.5876
  646MPD2    C2 9614   2.810   1.462  14.259  0.3386 -0.5388 -0.0260
  646MPD2    C3 9615   2.781   1.533  14.145  0.1396 -0.3624 -1.1690
  646MPD2    C4 9616   2.864   1.516  14.037  0.5134 -0.0240  0.3995
  646MPD2    C5 9617   2.976   1.438  14.044 -0.4616 -0.2373  0.7428
  646MPD2     H 9618   2.743   1.470  14.343  1.3105  2.1242  0.4829
  646MPD2    H1 9619   2.847   1.567  13.943 -0.0101  1.4128  1.2885
  646MPD2    H2 9620   3.096   1.310  14.156 -1.2646 -1.5147  0.6588
  646MPD2    H3 9621   3.031   1.412  13.954 -0.2623  1.3922  0.3982
  646MPD2     N 9622   2.671   1.630  14.134  0.0166  0.0037  0.4579
  646MPD2    H5 9623   2.626   1.660  14.220 -0.8140 -2.2549  0.8325
  646MPD2    N1 9624   2.969   1.300  14.372  0.1531 -0.6507  0.4184
  646MPD2    H7 9625   3.053   1.245  14.352 -0.2561 -1.1694  0.1309
  647TMC3    C1 9626   2.955   1.177  14.574  0.0851 -0.1833 -0.4345
  647TMC3    C2 9627   2.866   1.131  14.674 -0.5026  0.0125 -0.1003
  647TMC3    C3 9628   2.891   1.012  14.735 -0.9021  0.0618  0.4683
  647TMC3    C4 9629   3.075   1.118  14.550  0.4322  0.4520  0.0660
  647TMC3    C5 9630   3.094   0.994  14.613  0.4027 -0.9809 -0.4019
  647TMC3    C6 9631   3.003   0.945  14.698 -0.2282  0.0320  0.0923
  647TMC3     C 9632   2.904   1.289  14.496 -0.0247 -0.1838 -0.6999
  647TMC3     O 9633   2.801   1.341  14.535 -0.7549 -0.2497  0.9724
  647TMC3     H 9634   2.769   1.178  14.689 -0.3627 -0.9164  3.6805
  647TMC3    H1 9635   3.147   1.151  14.475 -1.6492  1.5502 -1.4630
  647TMC3    H2 9636   3.016   0.846  14.739  0.6205 -0.3437 -1.0682
  647TMC3    C7 9637   3.230   0.947  14.636 -0.4336 -0.4128 -0.3785
  647TMC3    C8 9638   2.783   0.951  14.815 -0.5790  0.1233  0.0644
  647TMC3    O1 9639   3.239   0.904  14.749 -0.3720 -0.1888  0.2267
  647TMC3    O2 9640   2.670   0.968  14.774  0.4414 -0.3912  0.1113
  648TMC3    C1 9641   2.240   3.623  16.137 -1.0820 -0.4597  0.2742
  648TMC3    C2 9642   2.242   3.501  16.077  0.1804  0.4986  0.0342
  648TMC3    C3 9643   2.238   3.503  15.939 -1.0898  0.1366  0.2737
  648TMC3    C4 9644   2.216   3.738  16.067 -0.5061 -0.5086  0.2613
  648TMC3    C5 9645   2.204   3.727  15.932 -1.2031 -0.5719 -0.0487
  648TMC3    C6 9646   2.191   3.609  15.866 -0.2264  0.1417  0.5312
  648TMC3     C 9647   2.248   3.638  16.283  0.1535 -0.1586  0.0346
  648TMC3     O 9648   2.267   3.752  16.320 -0.1509 -0.3352 -0.4766
  648TMC3     H 9649   2.261   3.410  16.133  1.6510  0.3916 -0.6677
  648TMC3    H1 9650   2.221   3.834  16.117 -0.2637  0.5387 -1.7818
  648TMC3    H2 9651   2.178   3.593  15.760  2.6155  0.8642  0.0850
  648TMC3    C7 9652   2.146   3.833  15.855 -0.3640 -0.3034  0.0755
  648TMC3    C8 9653   2.234   3.368  15.885  0.7313  0.5015  0.4667
  648TMC3    O1 9654   2.172   3.825  15.735  0.2224  0.3770 -0.1434
  648TMC3    O2 9655   2.191   3.277  15.953  0.6429  0.4394  0.3279
  649TMC3    C1 9656   1.435   4.687  13.508  0.4925 -1.0029  0.4380
  649TMC3    C2 9657   1.531   0.009  13.584  0.0325 -0.5046  0.2060
  649TMC3    C3 9658   1.522   4.720  13.717  0.2703 -0.4204  0.8122
  649TMC3    C4 9659   1.335   4.609  13.550 -0.1091  0.1920 -0.6786
  649TMC3    C5 9660   1.346   4.569  13.679 -0.4228  0.2506 -0.2428
  649TMC3    C6 9661   1.436   4.622  13.766 -0.1797 -0.4593  0.3960
  649TMC3     C 9662   1.434   4.726  13.370 -0.7372 -0.4187 -0.4885
  649TMC3     O 9663   1.323   4.708  13.321  0.0813  0.2429  0.3994
  649TMC3     H 9664   1.597   0.086  13.546 -1.6799 -0.8857 -3.4866
  649TMC3    H1 9665   1.269   4.566  13.476  0.1095  0.1889 -0.8716
  649TMC3    H2 9666   1.430   4.596  13.871  1.7329 -1.4007  0.2607
  649TMC3    C7 9667   1.241   4.486  13.726  0.5966  0.1636 -0.2397
  649TMC3    C8 9668   1.514   0.098  13.805 -0.1574 -0.3977 -0.0145
  649TMC3    O1 9669   1.139   4.470  13.658 -0.7305  0.3592  0.4008
  649TMC3    O2 9670   1.568   0.082  13.915 -0.1391  0.4256  0.1443
  650TMC3    C1 9671   3.586   1.554  12.743  0.1908  0.6936  0.4057
  650TMC3    C2 9672   3.531   1.673  12.769 -0.0045  0.2891 -0.0586
  650TMC3    C3 9673   3.410   1.708  12.719  0.1638  0.3875 -0.0232
  650TMC3    C4 9674   3.517   1.461  12.670  0.9526  0.8086  0.3240
  650TMC3    C5 9675   3.394   1.500  12.620 -0.0684  0.1294 -0.5490
  650TMC3    C6 9676   3.336   1.624  12.642  0.1370 -0.2388 -0.0596
  650TMC3     C 9677   3.710   1.510  12.801  0.1591 -0.4397 -0.1384
  650TMC3     O 9678   3.783   1.601  12.841 -0.0795 -0.0271 -0.0647
  650TMC3     H 9679   3.584   1.744  12.832  0.1731 -0.1897  0.3311
  650TMC3    H1 9680   3.556   1.368  12.630  3.0045  1.0487  1.7382
  650TMC3    H2 9681   3.238   1.645  12.601  0.3021  1.8861  0.6386
  650TMC3    C7 9682   3.351   1.423  12.507  0.4037  0.2303 -0.6142
  650TMC3    C8 9683   3.378   1.848  12.735  0.3824 -0.5094 -0.5672
  650TMC3    O1 9684   3.359   1.300  12.520  0.5734 -0.3377  0.0586
  650TMC3    O2 9685   3.470   1.930  12.746 -0.0651  0.5605  0.7456
  651MPD2     C 9686   2.872   3.749  11.103 -0.5901 -0.1298 -0.1295
  651MPD2    C1 9687   2.872   3.872  11.044  0.1160 -0.2259  0.2004
  651MPD2    C2 9688   2.982   3.915  10.971  0.4882  0.0131  0.2859
  651MPD2    C3 9689   3.097   3.837  10.971 -0.0991 -0.3424 -0.5074
  651MPD2    C4 9690   3.096   3.719  11.042  0.3887 -0.5692  0.4250
  651MPD2    C5 9691   2.980   3.664  11.090 -0.1653 -0.7482  0.4650
  651MPD2     H 9692   2.980   4.010  10.919 -0.7553 -0.4083 -0.4308
  651MPD2    H1 9693   3.187   3.660  11.052  1.2233  0.9465  1.8591
  651MPD2    H2 9694   2.781   3.714  11.151 -0.7583 -0.3594 -0.6202
  651MPD2    H3 9695   2.977   3.566  11.136 -2.8123 -0.6420  0.5636
  651MPD2     N 9696   3.208   3.892  10.903  0.2833  0.2574  0.5278
  651MPD2    H5 9697   3.210   3.987  10.867  0.3774  0.5387  1.2651
  651MPD2    N1 9698   2.755   3.953  11.040  0.2266 -0.3478 -0.4302
  651MPD2    H7 9699   2.757   4.031  10.975 -0.6870  1.9853  2.3320
  652TMC3    C1 9700   3.623   3.868  10.663  1.0130  0.4147  0.6611
  652TMC3    C2 9701   3.543   3.830  10.767  0.3688 -0.3929  0.2729
  652TMC3    C3 9702   3.423   3.895  10.784 -0.3151  0.1705  0.1481
  652TMC3    C4 9703   3.588   3.972  10.585 -0.3612 -0.1916 -0.3887
  652TMC3    C5 9704   3.477   4.039  10.614 -0.0679  0.0423 -0.2756
  652TMC3    C6 9705   3.380   3.996  10.701  0.0081  0.1843  0.3054
  652TMC3     C 9706   3.761   3.827  10.680 -0.2090 -0.7325  0.6562
  652TMC3     O 9707   3.797   3.766  10.780 -0.2062 -0.3064  0.7646
  652TMC3     H 9708   3.584   3.759  10.837 -2.0919 -1.7592  0.3279
  652TMC3    H1 9709   3.666   4.015  10.523  1.5923  1.7931  3.4445
  652TMC3    H2 9710   3.294   4.059  10.719  0.2137  0.5877 -0.1396
  652TMC3    C7 9711   3.458   4.175  10.562  0.5239 -0.4314 -0.4732
  652TMC3    C8 9712   3.329   3.826  10.879  0.3151 -0.8516  0.3302
  652TMC3    O1 9713   3.376   4.178  10.470 -0.4221 -0.0263 -0.2196
  652TMC3    O2 9714   3.382   3.729  10.936 -0.3090 -0.1324  0.1017
  653MPD2     C 9715   1.315   3.658   0.041 -0.1277 -0.1097  0.3767
  653MPD2    C1 9716   1.325   3.757  17.684  0.2867 -0.1686 -0.1577
  653MPD2    C2 9717   1.295   3.721  17.551 -0.3808 -0.3156 -0.3514
  653MPD2    C3 9718   1.233   3.603  17.513 -0.1652 -0.3855  0.1267
  653MPD2    C4 9719   1.222   3.504  17.613 -0.5355 -0.7552 -0.7286
  653MPD2    C5 9720   1.262   3.535   0.002 -1.0299  0.5555 -0.6557
  653MPD2     H 9721   1.314   3.801  17.480 -0.2106 -0.1889 -0.1630
  653MPD2    H1 9722   1.177   3.408  17.591 -0.1188 -0.6342 -2.1310
  653MPD2    H2 9723   1.344   3.683   0.142  0.9785 -3.7281  0.9492
  653MPD2    H3 9724   1.255   3.459   0.078 -2.8332  1.5363  0.1496
  653MPD2     N 9725   1.182   3.588  17.380  0.4623  0.0470  0.1638
  653MPD2    H5 9726   1.208   3.667  17.321 -0.3465 -0.3901 -0.7686
  653MPD2    N1 9727   1.371   3.891  17.709  0.8011 -0.5431  0.2304
  653MPD2    H7 9728   1.360   3.947  17.625  2.8392 -1.7003 -0.8232
  654TMC3    C1 9729   1.090   3.499  17.191  0.3136  0.5679 -0.1688
  654TMC3    C2 9730   1.101   3.617  17.124 -1.0316 -0.1173 -0.1029
  654TMC3    C3 9731   1.073   3.605  16.993  0.0768  0.0012  0.2048
  654TMC3    C4 9732   1.043   3.383  17.137  1.1398  0.4773  0.4185
  654TMC3    C5 9733   1.006   3.387  17.010  0.5526 -0.1109 -0.3440
  654TMC3    C6 9734   1.033   3.495  16.931 -0.6511  0.1764 -0.2814
  654TMC3     C 9735   1.103   3.488  17.339 -0.4818 -0.0551 -0.0412
  654TMC3     O 9736   1.038   3.410  17.406 -0.4082  0.1289  0.5168
  654TMC3     H 9737   1.137   3.705  17.175  0.7151  0.0445 -1.6281
  654TMC3    H1 9738   1.042   3.287  17.188 -0.4249  0.1917 -0.1453
  654TMC3    H2 9739   1.003   3.493  16.826 -0.7559  1.0121 -0.2679
  654TMC3    C7 9740   1.004   3.269  16.931 -0.3347 -0.2543 -0.0261
  654TMC3    C8 9741   1.038   3.729  16.932 -0.2014 -0.7317 -0.0924
  654TMC3    O1 9742   1.049   3.282  16.819  0.7243  0.4379 -0.0891
  654TMC3    O2 9743   0.978   3.816  17.000 -0.0918 -0.4581  0.2808
  655MPD2     C 9744   2.640   3.848  15.404  0.2533  0.6454 -0.9005
  655MPD2    C1 9745   2.575   3.973  15.399  0.4944  0.1566 -0.5604
  655MPD2    C2 9746   2.530   4.018  15.280  0.7107 -0.2192 -0.2906
  655MPD2    C3 9747   2.537   3.928  15.169 -0.1546 -0.3070 -0.7600
  655MPD2    C4 9748   2.601   3.807  15.177 -0.3399 -0.4125  0.1145
  655MPD2    C5 9749   2.658   3.765  15.294 -0.3199  0.0420 -0.1992
  655MPD2     H 9750   2.477   4.112  15.269 -0.6563 -0.9690 -0.1813
  655MPD2    H1 9751   2.623   3.744  15.092  0.1592  0.0926 -0.1273
  655MPD2    H2 9752   2.679   3.808  15.497  0.9481  1.3172 -0.9007
  655MPD2    H3 9753   2.725   3.680  15.302 -0.6775 -0.1082  1.1854
  655MPD2     N 9754   2.484   3.957  15.040  1.1716  0.2379  0.1891
  655MPD2    H5 9755   2.473   3.879  14.976 -0.0688  0.5056  0.0615
  655MPD2    N1 9756   2.555   4.058  15.509  0.1358  0.1224 -0.7165
  655MPD2    H7 9757   2.506   4.145  15.490  0.1727 -0.2298 -2.4067
  656TMC3    C1 9758   2.543   4.133  15.732 -0.2273  0.1256 -0.1408
  656TMC3    C2 9759   2.494   4.097  15.854 -0.5201 -0.6157 -0.8258
  656TMC3    C3 9760   2.413   4.190  15.919 -1.6894  0.1622  0.6046
  656TMC3    C4 9761   2.514   4.257  15.676  0.0600 -0.4124  0.4156
  656TMC3    C5 9762   2.435   4.345  15.743  0.0736  1.0414 -0.8683
  656TMC3    C6 9763   2.378   4.309  15.865  0.2808  0.1581  0.3204
  656TMC3     C 9764   2.576   4.028  15.640 -0.3546  0.1598  0.1624
  656TMC3     O 9765   2.613   3.923  15.688 -0.4379  0.1250 -0.2494
  656TMC3     H 9766   2.522   3.998  15.889  0.3593 -0.0877 -0.0376
  656TMC3    H1 9767   2.550   4.296  15.581 -0.3137  1.1509  0.9167
  656TMC3    H2 9768   2.318   4.386  15.911 -2.1585 -0.5607 -1.6406
  656TMC3    C7 9769   2.369   4.446  15.663  0.1005 -0.4738  0.2330
  656TMC3    C8 9770   2.329   4.143  16.032  0.8448 -0.2027 -0.2114
  656TMC3    O1 9771   2.426   4.482  15.562  0.2454 -0.3431  0.0039
  656TMC3    O2 9772   2.308   4.026  16.029  0.3173  0.0354  0.1796
  657TMC3    C1 9773   1.489   3.439  14.921 -0.4344 -0.3888  0.6004
  657TMC3    C2 9774   1.519   3.465  15.051 -0.2946  0.4449 -0.2538
  657TMC3    C3 9775   1.433   3.551  15.119 -0.6884  0.1935  0.7754
  657TMC3    C4 9776   1.388   3.494  14.849 -0.0591 -0.0150  0.1555
  657TMC3    C5 9777   1.295   3.560  14.926 -0.9200  0.8284  0.6391
  657TMC3    C6 9778   1.322   3.598  15.053 -0.5786  0.6778  0.7447
  657TMC3     C 9779   1.586   3.363  14.838  0.0211  0.7223 -0.0333
  657TMC3     O 9780   1.530   3.326  14.735  0.2965 -0.1246  0.0752
  657TMC3     H 9781   1.589   3.398  15.100 -0.6600  0.2321 -0.0234
  657TMC3    H1 9782   1.361   3.469  14.747  0.4048  1.2334 -0.2604
  657TMC3    H2 9783   1.251   3.644  15.120  1.4053  2.4362  1.6416
  657TMC3    C7 9784   1.179   3.627  14.856 -0.1886 -0.2585 -0.1164
  657TMC3    C8 9785   1.454   3.590  15.255  0.5378  0.6427  0.2863
  657TMC3    O1 9786   1.173   3.607  14.737  0.0036 -0.1117  0.2032
  657TMC3    O2 9787   1.364   3.652  15.310 -0.2325 -0.1528  0.2099
  658MPD2     C 9788   2.656   4.383  14.331 -0.0713 -0.2081 -0.4617
  658MPD2    C1 9789   2.705   4.340  14.451 -0.0149  0.1601 -0.4228
  658MPD2    C2 9790   2.840   4.362  14.472  0.6029 -0.0991 -0.0549
  658MPD2    C3 9791   2.923   4.416  14.377 -0.1677  0.0705  0.1960
  658MPD2    C4 9792   2.868   4.462  14.262 -0.5553 -0.2244  0.3453
  658MPD2    C5 9793   2.734   4.448  14.240 -0.1869 -0.4701 -0.2340
  658MPD2     H 9794   2.866   4.329  14.572 -2.2060 -0.8506  0.4399
  658MPD2    H1 9795   2.921   4.504  14.178 -0.0328  4.2260  2.9013
  658MPD2    H2 9796   2.553   4.375  14.299  0.2640 -1.2429 -1.2852
  658MPD2    H3 9797   2.698   4.479  14.143 -1.1102 -0.1082  0.2163
  658MPD2     N 9798   3.058   4.434  14.407 -0.2395  0.2163 -0.1828
  658MPD2    H5 9799   3.081   4.382  14.491 -3.8120 -0.0173  0.6665
  658MPD2    N1 9800   2.628   4.278  14.553  0.1353  0.3422  0.2564
  658MPD2    H7 9801   2.683   4.222  14.618  1.5955  1.3106 -0.1395
  659TMC3    C1 9802   2.440   4.167  14.648  0.2655  0.3350  0.1887
  659TMC3    C2 9803   2.492   4.164  14.774  0.3929 -0.0505 -0.0426
  659TMC3    C3 9804   2.419   4.088  14.860 -0.1851  0.7002  0.1725
  659TMC3    C4 9805   2.321   4.105  14.615 -0.0946 -1.0327  0.5041
  659TMC3    C5 9806   2.263   4.029  14.710 -0.1625  0.0104  0.0111
  659TMC3    C6 9807   2.308   4.022  14.837  0.0598  0.5315 -0.9293
  659TMC3     C 9808   2.491   4.251  14.544  0.0588  0.2962  0.3962
  659TMC3     O 9809   2.413   4.274  14.450 -0.3452  0.1381  0.2283
  659TMC3     H 9810   2.579   4.219  14.811  0.8160  0.4766 -1.8329
  659TMC3    H1 9811   2.275   4.131  14.521 -1.4012  0.5612  1.5768
  659TMC3    H2 9812   2.261   3.967  14.917  2.6157 -1.0432 -0.5004
  659TMC3    C7 9813   2.169   3.935  14.657 -0.5828 -0.4763  0.0040
  659TMC3    C8 9814   2.474   4.087  14.995 -0.1470 -0.2325 -0.7398
  659TMC3    O1 9815   2.157   3.927  14.537  0.0990  0.1728  0.7352
  659TMC3    O2 9816   2.529   4.187  15.041  0.2476  0.1154  0.0183
  660MPD2     C 9817   1.143   2.143  12.756  0.4325 -0.1750 -0.9101
  660MPD2    C1 9818   1.061   2.246  12.786  0.1596  0.4045  0.4674
  660MPD2    C2 9819   0.974   2.234  12.891  0.2723 -0.6565 -0.2225
  660MPD2    C3 9820   0.970   2.127  12.981  0.3312  0.0875  0.7169
  660MPD2    C4 9821   1.057   2.026  12.955 -0.3559 -0.6681  0.0222
  660MPD2    C5 9822   1.151   2.038  12.855 -0.2942 -0.7862  0.1702
  660MPD2     H 9823   0.891   2.303  12.901  0.8799  0.1384 -0.7067
  660MPD2    H1 9824   1.064   1.934  13.011  0.5890  0.3847  1.6457
  660MPD2    H2 9825   1.211   2.141  12.672  1.3198 -2.3194 -0.1539
  660MPD2    H3 9826   1.227   1.961  12.856  0.3871 -0.0997  0.7785
  660MPD2     N 9827   0.872   2.101  13.073 -0.6812 -0.0130  0.0118
  660MPD2    H5 9828   0.867   2.007  13.110  0.4455 -0.6277 -1.4006
  660MPD2    N1 9829   1.056   2.354  12.691  0.6350 -0.1854 -0.0686
  660MPD2    H7 9830   1.105   2.346  12.603  1.3409  1.1956  0.1910
  661TMC3    C1 9831   0.954   2.557  12.599 -0.0635  0.2422 -0.2638
  661TMC3    C2 9832   1.004   2.532  12.472  0.0191  0.8676 -0.1637
  661TMC3    C3 9833   0.983   2.626  12.379  0.4972 -0.3625  0.5293
  661TMC3    C4 9834   0.865   2.658  12.620 -0.9666  0.7732 -0.7862
  661TMC3    C5 9835   0.844   2.742  12.518 -0.1191 -0.2371 -0.0119
  661TMC3    C6 9836   0.893   2.727  12.391 -0.9200 -0.1642  0.3864
  661TMC3     C 9837   0.988   2.475  12.715 -0.1476  0.4710 -0.3752
  661TMC3     O 9838   0.936   2.517  12.821 -0.1895 -1.0226  0.4920
  661TMC3     H 9839   1.069   2.448  12.455 -1.9736 -0.5377 -0.7713
  661TMC3    H1 9840   0.822   2.672  12.719  2.5357 -1.0077  0.9678
  661TMC3    H2 9841   0.887   2.807  12.319  0.8622 -1.3465 -1.0817
  661TMC3    C7 9842   0.701   2.784  12.516  0.2453 -0.5001  0.4910
  661TMC3    C8 9843   1.072   2.615  12.261  0.1661 -0.1539 -0.1575
  661TMC3    O1 9844   0.661   2.800  12.630 -0.0164 -0.2170  0.3693
  661TMC3    O2 9845   1.181   2.573  12.288 -0.1104 -0.1179  0.0564
  662MPD2     C 9846   0.654   2.583  16.976 -0.1624  0.1188 -0.1827
  662MPD2    C1 9847   0.608   2.512  17.089 -0.6477  0.1528  0.7252
  662MPD2    C2 9848   0.524   2.579  17.182  0.0714  0.8332  0.0023
  662MPD2    C3 9849   0.491   2.713  17.165 -0.2647  0.3999 -0.5068
  662MPD2    C4 9850   0.549   2.782  17.067 -0.9785  0.3945 -0.0415
  662MPD2    C5 9851   0.628   2.719  16.973 -0.0520  0.0584  0.6341
  662MPD2     H 9852   0.493   2.520  17.268  0.1199  1.3371  0.3674
  662MPD2    H1 9853   0.514   2.883  17.051 -0.6879  0.5836  0.5230
  662MPD2    H2 9854   0.723   2.542  16.903 -1.2267  2.2465 -2.4009
  662MPD2    H3 9855   0.653   2.768  16.880 -0.4463  0.0100  0.5041
  662MPD2     N 9856   0.401   2.778  17.258 -0.8662  0.6287 -0.3218
  662MPD2    H5 9857   0.364   2.866  17.223  0.6059  0.6260 -1.8726
  662MPD2    N1 9858   0.632   2.378  17.124 -0.4053 -0.2319  0.2711
  662MPD2    H7 9859   0.576   2.344  17.202  1.7514  1.4393  2.5448
  663TMC3    C1 9860   0.736   2.180  17.143  0.2448 -0.7434 -0.2563
  663TMC3    C2 9861   0.704   2.183  17.282  0.1747  0.1506 -0.1286
  663TMC3    C3 9862   0.695   2.073  17.355  0.1673  0.2295  0.3646
  663TMC3    C4 9863   0.769   2.062  17.090  0.0379  0.2789  1.0536
  663TMC3    C5 9864   0.761   1.944  17.160  0.1294 -0.0942  0.0355
  663TMC3    C6 9865   0.708   1.951  17.291 -0.1052  0.5584  0.2463
  663TMC3     C 9866   0.706   2.287  17.055  0.1812  0.2936  0.1410
  663TMC3     O 9867   0.758   2.303  16.947 -0.3180 -0.1688  0.1680
  663TMC3     H 9868   0.694   2.275  17.338  2.1002 -0.1976  0.7966
  663TMC3    H1 9869   0.782   2.052  16.982 -3.4997 -1.5613  0.7904
  663TMC3    H2 9870   0.700   1.862  17.353 -1.0131  0.2262 -0.3474
  663TMC3    C7 9871   0.807   1.817  17.100  0.6030 -0.0494  0.0732
  663TMC3    C8 9872   0.570   2.086  17.432  0.4499 -0.0324  0.0551
  663TMC3    O1 9873   0.841   1.815  16.981 -0.4348 -0.1304 -0.1042
  663TMC3    O2 9874   0.497   2.175  17.388 -0.4053  0.5593  0.2415
  664MPD2     C 9875   3.733   0.449  17.293 -0.7453 -0.3164  0.5433
  664MPD2    C1 9876   3.847   0.486  17.359  0.2590  0.3857  0.4863
  664MPD2    C2 9877   3.863   0.468  17.495  0.7523 -0.0686 -0.3945
  664MPD2    C3 9878   3.762   0.419  17.566 -0.4660  0.6941  0.5654
  664MPD2    C4 9879   3.648   0.377  17.501  0.5633  0.7139  0.5695
  664MPD2    C5 9880   3.636   0.390  17.362  0.2514 -0.0656 -0.4791
  664MPD2     H 9881   3.957   0.502  17.537  0.7760 -1.2056  0.4669
  664MPD2    H1 9882   3.560   0.333  17.548 -0.1769  0.0862 -1.4327
  664MPD2    H2 9883   3.732   0.450  17.184  0.6992  2.3210  0.5629
  664MPD2    H3 9884   3.544   0.367  17.310  0.1122  1.6033 -0.9700
  664MPD2     N 9885   3.774   0.415  17.707 -0.8351  0.3253 -0.0291
  664MPD2    H5 9886   3.849   0.471   0.006 -0.5986  0.4366 -0.6352
  664MPD2    N1 9887   3.957   0.551  17.291 -0.2591  0.0821 -0.4697
  664MPD2    H7 9888   4.048   0.555  17.337  0.2057  1.4407 -1.5252
  665TMC3    C1 9889   3.734   0.361   0.192 -0.4959  0.5683  0.8593
  665TMC3    C2 9890   3.645   0.315   0.286 -0.3514  0.2735  0.3509
  665TMC3    C3 9891   3.671   0.327   0.418 -0.1031 -0.1222 -0.9581
  665TMC3    C4 9892   3.852   0.418   0.238  0.5884  0.9221  0.1033
  665TMC3    C5 9893   3.877   0.431   0.378 -0.2608  0.1377 -0.4475
  665TMC3    C6 9894   3.781   0.389   0.470  0.0301  0.4348  0.0763
  665TMC3     C 9895   3.691   0.350   0.052 -1.1003  0.4593 -0.5271
  665TMC3     O 9896   3.601   0.274   0.024  0.2903 -0.1405  0.3783
  665TMC3     H 9897   3.558   0.260   0.254 -0.7061  0.2654  1.3479
  665TMC3    H1 9898   3.928   0.452   0.169  1.9704 -2.9254 -0.2608
  665TMC3    H2 9899   3.804   0.399   0.575 -0.7760 -0.2324  0.3183
  665TMC3    C7 9900   3.999   0.497   0.426  0.1361  0.3928 -0.1259
  665TMC3    C8 9901   3.569   0.269   0.506 -0.5449  0.1743 -0.2129
  665TMC3    O1 9902   4.088   0.497   0.337  0.1856 -0.0050 -0.2520
  665TMC3    O2 9903   3.463   0.226   0.455 -0.1612  0.1832 -0.1791
  666TMC3    C1 9904   3.956   0.273   9.677  0.7248 -0.0253 -0.2286
  666TMC3    C2 9905   4.089   0.256   9.723  0.4828  0.1311 -0.1618
  666TMC3    C3 9906   4.159   0.357   9.783  0.5019  0.5574 -0.5710
  666TMC3    C4 9907   3.891   0.391   9.706  0.1327  1.1211 -0.7109
  666TMC3    C5 9908   3.974   0.491   9.757  0.3606 -0.0266  0.5491
  666TMC3    C6 9909   4.103   0.481   9.799  0.1425  0.5545  0.5279
  666TMC3     C 9910   3.887   0.158   9.618 -0.0187  1.3301 -0.1109
  666TMC3     O 9911   3.955   0.060   9.590  0.1794  0.3753  0.6647
  666TMC3     H 9912   4.135   0.162   9.696  1.9607  0.8974 -0.2903
  666TMC3    H1 9913   3.792   0.406   9.665 -0.7462 -1.2013  0.5971
  666TMC3    H2 9914   4.148   0.564   9.852  0.6335 -0.4208  1.6286
  666TMC3    C7 9915   3.906   0.601   9.808  0.1452 -0.6853 -0.4096
  666TMC3    C8 9916   4.253   0.305   9.881  0.4311 -0.1052  0.2773
  666TMC3    O1 9917   3.785   0.591   9.828  0.4908 -0.0826  0.5783
  666TMC3    O2 9918   4.229   0.187   9.908 -1.0118 -0.0984  0.6472
  667MPD2     C 9919   0.196   0.593  14.736 -0.0432  0.2557 -0.0445
  667MPD2    C1 9920   0.188   0.561  14.874  0.6144 -0.2249 -0.2501
  667MPD2    C2 9921   0.137   0.432  14.901  0.1367  0.0202 -0.2101
  667MPD2    C3 9922   0.098   0.344  14.803  0.3945  0.2919  1.0523
  667MPD2    C4 9923   0.113   0.376  14.678 -0.3443  0.2350 -1.0799
  667MPD2    C5 9924   0.151   0.504  14.641  0.3641  0.0433  0.3022
  667MPD2     H 9925   0.134   0.406  15.006 -0.4200  1.4505  0.1333
  667MPD2    H1 9926   0.080   0.307  14.601 -0.5655  1.3366 -1.9708
  667MPD2    H2 9927   0.226   0.692  14.703  3.8100 -0.3861  1.4371
  667MPD2    H3 9928   0.166   0.541  14.540 -3.9430  1.8167  0.3099
  667MPD2     N 9929   0.050   0.217  14.824 -0.4523 -0.1705  0.6222
  667MPD2    H5 9930   0.020   0.159  14.746  1.8464  0.1515 -0.5108
  667MPD2    N1 9931   0.224   0.647  14.985  0.2596 -0.3582 -0.3566
  667MPD2    H7 9932   0.229   0.605  15.077  2.5956 -0.6826 -0.6293
  668TMC3    C1 9933   0.268   0.850  15.093 -0.8128  0.6101 -0.2601
  668TMC3    C2 9934   0.334   0.974  15.080  0.5785 -0.0603 -0.5404
  668TMC3    C3 9935   0.326   1.060  15.189  0.3728 -0.4680 -0.7282
  668TMC3    C4 9936   0.199   0.814  15.208  0.0694  0.2701 -0.2000
  668TMC3    C5 9937   0.198   0.907  15.311 -0.4882  0.3730 -0.1767
  668TMC3    C6 9938   0.259   1.026  15.306  0.3547 -0.1381 -0.0027
  668TMC3     C 9939   0.247   0.781  14.967 -0.2233  0.1571 -0.8154
  668TMC3     O 9940   0.225   0.849  14.867 -0.6830 -0.1628 -0.0579
  668TMC3     H 9941   0.403   0.981  14.997 -0.2562 -3.1317 -1.5226
  668TMC3    H1 9942   0.156   0.715  15.207 -1.1307  0.7812  1.5671
  668TMC3    H2 9943   0.252   1.090  15.394  0.9120 -0.7535  0.4838
  668TMC3    C7 9944   0.102   0.896  15.422  1.5342  0.0263 -0.1486
  668TMC3    C8 9945   0.374   1.200  15.181 -0.4784 -0.1939  1.1341
  668TMC3    O1 9946   0.092   0.991  15.497  0.1467 -0.7856 -0.1782
  668TMC3    O2 9947   0.371   1.268  15.283  1.0542  0.7347  0.6007
  669TMC3    C1 9948   2.587   0.571  14.746 -0.2765 -0.1567 -0.1602
  669TMC3    C2 9949   2.489   0.657  14.713  0.3601  0.3327  0.7455
  669TMC3    C3 9950   2.512   0.733  14.604 -0.1460 -0.0701  0.2733
  669TMC3    C4 9951   2.707   0.573  14.683  0.9547  0.6221  0.1036
  669TMC3    C5 9952   2.726   0.662  14.582  0.3501  0.2595 -0.0215
  669TMC3    C6 9953   2.631   0.742  14.536  0.4775  0.1760 -0.4821
  669TMC3     C 9954   2.567   0.484  14.864 -0.1625  0.3337  0.0319
  669TMC3     O 9955   2.460   0.491  14.919 -0.6294  0.0557  0.5077
  669TMC3     H 9956   2.388   0.657  14.754 -0.1816  0.6587 -0.5785
  669TMC3    H1 9957   2.787   0.507  14.717 -0.1545 -0.7040  0.1673
  669TMC3    H2 9958   2.657   0.829  14.477  0.5946 -0.1945 -0.9830
  669TMC3    C7 9959   2.847   0.660  14.499 -0.2144  0.1016  0.0029
  669TMC3    C8 9960   2.394   0.743  14.524 -0.2539  0.6866  0.6103
  669TMC3    O1 9961   2.842   0.713  14.386  0.4412  0.0192  0.7044
  669TMC3    O2 9962   2.287   0.731  14.582  0.0208 -0.0275  0.1332
  670MPD2     C 9963   0.621   2.944  13.592 -0.3232 -0.0392 -0.2174
  670MPD2    C1 9964   0.739   3.008  13.627  0.4739 -0.2377  0.6595
  670MPD2    C2 9965   0.786   3.005  13.759 -0.0371 -0.3384  0.3687
  670MPD2    C3 9966   0.707   2.946  13.858 -0.9279  0.2068 -0.5682
  670MPD2    C4 9967   0.578   2.891  13.825 -0.3295 -0.3809  0.3891
  670MPD2    C5 9968   0.537   2.903  13.692  0.1425  0.1341  0.0512
  670MPD2     H 9969   0.877   3.059  13.783 -0.1247 -0.2957  0.6118
  670MPD2    H1 9970   0.514   2.836  13.894  0.0142  0.6981  1.5720
  670MPD2    H2 9971   0.581   2.946  13.491 -2.6531 -0.7464  0.6705
  670MPD2    H3 9972   0.433   2.885  13.671  0.1701 -2.9047  2.5629
  670MPD2     N 9973   0.764   2.934  13.987  0.7325 -0.1779  0.1192
  670MPD2    H5 9974   0.853   2.982  13.998  0.1943  0.7010  0.6484
  670MPD2    N1 9975   0.813   3.093  13.530 -0.7146 -0.0045 -0.3396
  670MPD2    H7 9976   0.891   3.141  13.572 -1.9805 -0.2722  2.2938
  671TMC3    C1 9977   0.773   2.865  14.221 -0.0628  0.0950  0.1910
  671TMC3    C2 9978   0.909   2.883  14.236  1.0068  0.2022  0.4797
  671TMC3    C3 9979   0.973   2.835  14.349  0.4039  0.3074 -0.2065
  671TMC3    C4 9980   0.707   2.790  14.315  0.1094  0.6087  1.2683
  671TMC3    C5 9981   0.771   2.730  14.422  0.4829 -0.3778  0.1532
  671TMC3    C6 9982   0.904   2.754  14.439  0.3833  0.6961  0.5003
  671TMC3     C 9983   0.713   2.857  14.087  0.1492 -0.4563 -0.1466
  671TMC3     O 9984   0.625   2.772  14.088 -0.1053 -0.2474  0.2865
  671TMC3     H 9985   0.951   2.960  14.172  0.5393 -1.4595 -1.7977
  671TMC3    H1 9986   0.601   2.779  14.300  0.4464 -1.2731  0.2686
  671TMC3    H2 9987   0.948   2.694  14.518  1.0846 -0.3160 -0.6485
  671TMC3    C7 9988   0.746   2.584  14.437  0.4614 -0.7517 -0.2891
  671TMC3    C8 9989   1.111   2.793  14.323  0.6916  0.0537  0.3784
  671TMC3    O1 9990   0.788   2.524  14.534  0.4911 -0.2867 -0.9048
  671TMC3    O2 9991   1.142   2.784  14.202  0.1127  0.3120 -0.1247
  672MPD2     C 9992   0.962   3.483   0.805 -0.3125  0.1076 -0.3565
  672MPD2    C1 9993   1.078   3.410   0.785  0.4801 -0.2453 -0.2985
  672MPD2    C2 9994   1.199   3.465   0.824  0.3405  0.6576  0.2357
  672MPD2    C3 9995   1.207   3.592   0.879  0.0439 -0.6854 -0.2083
  672MPD2    C4 9996   1.093   3.665   0.884  0.3091 -0.2018 -0.3648
  672MPD2    C5 9997   0.971   3.612   0.855  0.4660  0.0387 -0.5733
  672MPD2     H 9998   1.289   3.405   0.824 -1.0493 -1.4335 -1.6600
  672MPD2    H1 9999   1.100   3.767   0.920 -2.6254 -1.4909  3.8195
  672MPD2    H210000   0.858   3.454   0.792 -0.4964  0.6336 -0.0497
  672MPD2    H310001   0.886   3.680   0.865  0.3964 -0.0978 -0.2268
  672MPD2     N10002   1.330   3.649   0.916  0.4222 -0.4937 -0.1553
  672MPD2    H510003   1.320   3.735   0.968  1.8871  0.7527 -1.9199
  672MPD2    N110004   1.075   3.281   0.734 -0.6183  0.1101  0.0871
  672MPD2    H710005   1.159   3.225   0.744 -0.1644  0.6333 -0.8226
  673TMC3    C110006   0.964   3.092   0.639  0.2814 -0.9251  0.2269
  673TMC3    C210007   1.081   3.055   0.581  0.7363  0.1835  0.0708
  673TMC3    C310008   1.061   2.970   0.475 -0.4020 -0.1392 -0.2724
  673TMC3    C410009   0.840   3.047   0.601 -0.2192  0.1777  0.4644
  673TMC3    C510010   0.832   2.982   0.480 -0.4395 -0.5878  0.4476
  673TMC3    C610011   0.945   2.943   0.417  0.5852  0.2844 -0.0836
  673TMC3     C10012   0.957   3.225   0.688  0.4084 -0.6296  0.2039
  673TMC3     O10013   0.854   3.275   0.652 -0.6877  0.1864 -0.4638
  673TMC3     H10014   1.178   3.097   0.607  0.7536 -0.2816  0.7522
  673TMC3    H110015   0.747   3.073   0.650 -1.3133 -0.9635 -1.0005
  673TMC3    H210016   0.941   2.890   0.323  1.3312  0.6972 -0.3538
  673TMC3    C710017   0.740   3.040   0.382  0.5074 -0.0413 -0.4787
  673TMC3    C810018   1.167   2.876   0.439  0.3464 -0.7908 -0.1457
  673TMC3    O110019   0.731   2.988   0.270 -0.2912  0.1209  0.5058
  673TMC3    O210020   1.142   2.791   0.353 -0.2924 -0.4700 -0.3618
  674MPD2     C10021   0.805   3.703  17.464  0.1506  0.0131 -0.0010
  674MPD2    C110022   0.725   3.598  17.502  1.0946 -0.5495  0.0001
  674MPD2    C210023   0.598   3.631  17.547  0.2470  0.3195  0.2127
  674MPD2    C310024   0.559   3.753  17.580  0.2619  0.1628 -0.5346
  674MPD2    C410025   0.639   3.863  17.544  0.3972 -0.0080 -0.6455
  674MPD2    C510026   0.757   3.829  17.485 -0.0501  0.3022 -0.4231
  674MPD2     H10027   0.530   3.553  17.579 -0.8331  0.7819 -0.9518
  674MPD2    H110028   0.617   3.966  17.567 -1.8183 -0.6054 -0.0427
  674MPD2    H210029   0.901   3.689  17.416  0.7005 -0.3281  1.2009
  674MPD2    H310030   0.823   3.902  17.440  1.5906 -0.5016  0.6692
  674MPD2     N10031   0.437   3.770  17.648  0.6139  0.3403 -0.0037
  674MPD2    H510032   0.388   3.689  17.687  0.8845 -0.6707 -1.7459
  674MPD2    N110033   0.773   3.466  17.503 -0.2995  0.8606  0.7947
  674MPD2    H710034   0.873   3.453  17.489 -0.5508 -0.7473  0.4875
  675TMC3    C110035   0.785   3.241  17.551 -0.0798 -0.5095 -0.3075
  675TMC3    C210036   0.706   3.126  17.548 -1.2232 -0.1958 -0.4979
  675TMC3    C310037   0.734   3.029  17.633  0.3705 -0.2406 -0.5842
  675TMC3    C410038   0.870   3.265  17.658  0.3167  0.6486  0.2390
  675TMC3    C510039   0.891   3.164   0.003 -0.0589 -0.1539  0.2520
  675TMC3    C610040   0.822   3.045  17.736 -0.1000 -0.5133 -0.0782
  675TMC3     C10041   0.696   3.347  17.512 -0.9329  1.0477 -0.1204
  675TMC3     O10042   0.575   3.334  17.508  0.0201  0.3057 -0.1371
  675TMC3     H10043   0.611   3.121  17.496 -1.9903  3.6893  0.5940
  675TMC3    H110044   0.908   3.366  17.665 -0.5571  0.9317  0.9189
  675TMC3    H210045   0.855   2.954   0.047 -0.2827 -0.8920 -0.6400
  675TMC3    C710046   1.007   3.177   0.088 -0.0494 -0.4470 -0.1006
  675TMC3    C810047   0.629   2.933  17.648 -0.7895  0.4233 -0.6052
  675TMC3    O110048   1.045   3.074   0.140 -0.0277  0.1772 -0.1540
  675TMC3    O210049   0.564   2.906  17.547  0.1839 -0.5217  0.2427
  676MPD2     C10050   3.502   1.199  11.614 -0.2372  0.4446 -0.0006
  676MPD2    C110051   3.596   1.134  11.683 -0.2203  0.3272  0.5771
  676MPD2    C210052   3.689   1.054  11.616 -0.6531  0.7391  0.3103
  676MPD2    C310053   3.695   1.056  11.482 -0.6390 -0.1631 -0.0169
  676MPD2    C410054   3.600   1.129  11.407 -0.2787  0.1228 -0.1445
  676MPD2    C510055   3.502   1.191  11.477 -0.1286  0.2602  0.0673
  676MPD2     H10056   3.764   1.009  11.680 -1.6927 -1.8932 -0.3143
  676MPD2    H110057   3.602   1.131  11.299  0.2744  0.2362 -0.1328
  676MPD2    H210058   3.418   1.253  11.656 -1.7576 -1.8954 -0.0316
  676MPD2    H310059   3.433   1.249  11.418 -0.6906  0.3921  0.8585
  676MPD2     N10060   3.780   0.968  11.413  0.2141  0.0441 -0.2979
  676MPD2    H510061   3.767   0.961  11.312 -3.0144 -0.5235  0.1433
  676MPD2    N110062   3.608   1.143  11.825  0.2505 -0.3768 -0.5338
  676MPD2    H710063   3.687   1.095  11.868  0.3879  1.0270  0.7796
  677TMC3    C110064   3.570   1.227  12.041 -0.0841  0.0988 -0.5263
  677TMC3    C210065   3.582   1.110  12.109  0.5495  1.2251 -0.0729
  677TMC3    C310066   3.610   1.115  12.245 -0.4294  0.3767 -0.3293
  677TMC3    C410067   3.558   1.350  12.099 -0.1690  0.1510  0.1692
  677TMC3    C510068   3.584   1.357  12.234  0.3347  0.3685 -0.4265
  677TMC3    C610069   3.614   1.241  12.302  0.8082  0.2886  0.0022
  677TMC3     C10070   3.535   1.230  11.904  0.0788 -0.1221  0.6165
  677TMC3     O10071   3.460   1.316  11.869  0.3842  0.0038  0.1513
  677TMC3     H10072   3.579   1.018  12.051  2.4859  1.8606 -1.2172
  677TMC3    H110073   3.553   1.439  12.038 -2.8267 -0.4273 -0.4318
  677TMC3    H210074   3.653   1.242  12.403  0.2326  2.3392  0.1865
  677TMC3    C710075   3.669   1.468  12.268 -0.1389 -0.2493 -0.2354
  677TMC3    C810076   3.735   1.050  12.272 -0.1253  0.4569 -0.0343
  677TMC3    O110077   3.640   1.524  12.374 -0.5599  0.5042  0.3649
  677TMC3    O210078   3.800   1.030  12.170  0.2352  0.5350  0.4106
  678MPD2     C10079   0.653   0.963   1.447  0.2758  0.1144  0.0261
  678MPD2    C110080   0.628   0.989   1.316 -0.7518  0.7791  0.5691
  678MPD2    C210081   0.496   0.984   1.279  0.6700  0.4028 -0.0338
  678MPD2    C310082   0.391   0.978   1.378 -0.0201 -0.2021 -0.3318
  678MPD2    C410083   0.421   0.957   1.508 -0.2421  0.1460 -0.2189
  678MPD2    C510084   0.556   0.938   1.535  0.7252  0.3451 -0.4731
  678MPD2     H10085   0.468   1.002   1.176 -1.1853 -0.1574  0.3629
  678MPD2    H110086   0.351   0.934   1.588  1.3454  3.0755  2.0277
  678MPD2    H210087   0.752   0.972   1.489  0.6795  1.3575 -1.1947
  678MPD2    H310088   0.591   0.919   1.636  1.2356  0.2221 -0.6723
  678MPD2     N10089   0.254   0.988   1.334  0.0102 -0.7135 -0.2695
  678MPD2    H510090   0.232   0.999   1.236 -1.8315  0.6229  0.3054
  678MPD2    N110091   0.727   1.013   1.219 -0.0961 -0.8993 -0.3827
  678MPD2    H710092   0.693   1.047   1.129  2.3629 -0.3332 -1.0815
  679TMC3    C110093   1.072   0.986   0.963 -0.1592 -0.2063 -0.9482
  679TMC3    C210094   1.026   0.973   1.091 -0.4148 -0.0774 -0.1873
  679TMC3    C310095   0.939   1.059   1.138 -0.2596  0.4650  0.2756
  679TMC3    C410096   1.040   1.095   0.887  0.1314  0.3202 -0.3588
  679TMC3    C510097   0.939   1.178   0.940  1.0015  0.0445 -0.3489
  679TMC3    C610098   0.889   1.161   1.064 -0.6123  0.0973 -0.1087
  679TMC3     C10099   1.149   0.880   0.887  0.2362  0.1770 -0.4336
  679TMC3     O10100   1.197   0.914   0.780  0.4452  0.5019 -0.1691
  679TMC3     H10101   1.052   0.888   1.153 -0.3475 -1.2852 -1.8722
  679TMC3    H110102   1.073   1.103   0.784 -0.1791  2.2836 -0.3005
  679TMC3    H210103   0.814   1.231   1.100 -0.8069  0.0316 -0.3801
  679TMC3    C710104   0.883   1.286   0.861  0.8434 -0.3875 -0.3459
  679TMC3    C810105   0.859   1.013   1.246  0.3200 -0.7038  0.1159
  679TMC3    O110106   0.759   1.303   0.878  0.2051 -0.1177  0.3479
  679TMC3    O210107   0.924   0.972   1.340  0.7009 -0.0642 -0.1919
  680MPD2     C10108   0.422   0.147  13.800  0.9078 -0.0953 -0.6723
  680MPD2    C110109   0.502   0.101  13.899 -0.2585 -0.6006 -0.7015
  680MPD2    C210110   0.585   0.183  13.967  0.1809  0.4724  0.0739
  680MPD2    C310111   0.588   0.322  13.941  0.4577  0.5120 -0.4564
  680MPD2    C410112   0.507   0.369  13.833 -0.8203 -0.2578  0.2892
  680MPD2    C510113   0.436   0.281  13.761 -0.1290 -0.0064 -0.4172
  680MPD2     H10114   0.643   0.142  14.048  0.9940  1.0972 -0.1868
  680MPD2    H110115   0.503   0.475  13.808 -2.2665  0.3066  2.9871
  680MPD2    H210116   0.352   0.086  13.744  0.9466 -1.1228  0.3949
  680MPD2    H310117   0.372   0.320  13.683  0.1986  1.9392  0.2809
  680MPD2     N10118   0.680   0.419  13.991  0.3371  0.0374 -0.1632
  680MPD2    H510119   0.666   0.515  13.958 -0.5156 -0.6373 -1.7562
  680MPD2    N110120   0.489   4.706  13.951  0.1505 -0.0673 -1.0213
  680MPD2    H710121   0.567   4.678  14.010 -1.2831  0.4582  1.0851
  681TMC3    C110122   0.418   4.500  13.992  0.1068 -0.1529  0.0549
  681TMC3    C210123   0.337   4.482  14.101  0.0909 -0.0807 -0.5347
  681TMC3    C310124   0.392   4.434  14.216 -0.2031 -0.9082 -0.3249
  681TMC3    C410125   0.549   4.460  14.000  0.4598 -0.1286 -0.4295
  681TMC3    C510126   0.591   4.383  14.111 -0.2941 -0.1706  0.0246
  681TMC3    C610127   0.512   4.370  14.222 -0.3798  0.5775 -0.1061
  681TMC3     C10128   0.389   4.622  13.922 -0.1554 -0.2018  0.2671
  681TMC3     O10129   0.274   4.645  13.887 -0.8345 -0.5688 -0.0929
  681TMC3     H10130   0.237   4.522  14.108 -0.0894 -0.4792 -0.8561
  681TMC3    H110131   0.619   4.475  13.917  1.4810 -1.1630  0.2445
  681TMC3    H210132   0.550   4.335  14.317 -2.0890 -2.2874 -0.4752
  681TMC3    C710133   0.722   4.327  14.123 -0.3809 -0.2150 -0.2580
  681TMC3    C810134   0.351   4.535  14.322 -0.9049  0.1602 -0.6236
  681TMC3    O110135   0.733   4.235  14.201  0.8033  0.1580  0.1401
  681TMC3    O210136   0.243   4.589  14.311 -0.2311  0.0527 -0.4287
  682MPD2     C10137   3.349   1.657  10.439 -0.0652 -1.4157 -0.3151
  682MPD2    C110138   3.260   1.552  10.435  0.3307 -0.3047  0.2347
  682MPD2    C210139   3.162   1.551  10.531 -0.2071 -0.1352 -0.3847
  682MPD2    C310140   3.140   1.657  10.617  0.1604 -0.4366 -0.2736
  682MPD2    C410141   3.225   1.763  10.617 -1.2654 -0.0094 -0.3876
  682MPD2    C510142   3.337   1.757  10.535 -0.5131  0.9795 -0.4498
  682MPD2     H10143   3.096   1.466  10.538 -0.6541  0.2063 -0.4273
  682MPD2    H110144   3.202   1.848  10.679  0.3978  0.7956 -0.8673
  682MPD2    H210145   3.443   1.667  10.386 -0.7891 -0.8792 -1.4701
  682MPD2    H310146   3.412   1.835  10.541 -0.1509  0.7023 -1.3809
  682MPD2     N10147   3.023   1.656  10.695  0.2088  0.0771 -0.0587
  682MPD2    H510148   2.993   1.750  10.718  0.2442  0.3791 -1.2631
  682MPD2    N110149   3.273   1.438  10.341 -0.2400  0.1580 -0.4120
  682MPD2    H710150   3.202   1.367  10.359  0.7177 -0.6826  0.0178
  683TMC3    C110151   2.787   1.684  11.041 -0.2389 -0.2097 -0.0100
  683TMC3    C210152   2.683   1.594  11.054  0.7768 -0.2188 -0.4052
  683TMC3    C310153   2.689   1.487  10.975 -1.0276  1.1841  0.2612
  683TMC3    C410154   2.878   1.674  10.936 -0.0272  0.4100 -0.2039
  683TMC3    C510155   2.861   1.575  10.843 -0.2323 -0.4700  0.8032
  683TMC3    C610156   2.767   1.476  10.858 -0.1068  0.0735  0.0873
  683TMC3     C10157   2.816   1.784  11.144  0.3358 -0.3561 -0.1391
  683TMC3     O10158   2.864   1.892  11.106  0.1241  0.4968 -0.4996
  683TMC3     H10159   2.604   1.592  11.127  2.0867  1.2318  1.0400
  683TMC3    H110160   2.960   1.743  10.919  0.4226 -0.1326 -0.2597
  683TMC3    H210161   2.767   1.389  10.793 -1.7510 -0.0021  0.2062
  683TMC3    C710162   2.963   1.542  10.742  0.5716 -0.0865 -0.2097
  683TMC3    C810163   2.616   1.372  11.022 -0.8510 -0.2482  0.4064
  683TMC3    O110164   2.990   1.425  10.729  0.4596  0.0182 -0.1532
  683TMC3    O210165   2.516   1.401  11.082 -0.0780  0.2146  0.7430
  684MPD2     C10166   1.254   0.884  16.493  0.5160 -0.1908 -0.0654
  684MPD2    C110167   1.299   0.883  16.365 -0.6911 -0.5886 -0.4698
  684MPD2    C210168   1.310   1.001  16.294 -0.7053  0.2546  0.7748
  684MPD2    C310169   1.280   1.119  16.349  0.1428 -0.3855  0.2508
  684MPD2    C410170   1.233   1.123  16.474  1.2953  0.0809  0.3062
  684MPD2    C510171   1.214   1.003  16.545  0.0359 -0.6725  0.4969
  684MPD2     H10172   1.345   0.998  16.192 -1.7035  1.1810  0.4079
  684MPD2    H110173   1.204   1.217  16.519  1.1986 -1.7358  4.0815
  684MPD2    H210174   1.251   0.795  16.555  0.4360  0.4212  0.8084
  684MPD2    H310175   1.167   0.998  16.642 -2.2987 -1.5447 -0.6700
  684MPD2     N10176   1.302   1.249  16.289  0.4155 -0.6423  0.6800
  684MPD2    H510177   1.282   1.322  16.357  1.8206  0.2758  0.0921
  684MPD2    N110178   1.337   0.764  16.299  0.0324  0.0292  0.4292
  684MPD2    H710179   1.375   0.785  16.207 -1.4370 -0.6792 -0.3461
  685TMC3    C110180   1.371   0.547  16.247  0.4040  0.0932 -0.1287
  685TMC3    C210181   1.327   0.586  16.123 -0.2815 -0.4624  0.3912
  685TMC3    C310182   1.402   0.558  16.013  0.4396 -0.5008  1.1026
  685TMC3    C410183   1.497   0.495  16.254 -0.5078  0.3494 -0.3578
  685TMC3    C510184   1.572   0.472  16.148 -0.5266 -0.1986 -0.8718
  685TMC3    C610185   1.522   0.495  16.022  0.1687  0.1484  0.3509
  685TMC3     C10186   1.342   0.640  16.351  0.6959  0.3875 -0.5558
  685TMC3     O10187   1.347   0.598  16.466 -0.6386  0.0823  0.0400
  685TMC3     H10188   1.224   0.619  16.111  0.5130  0.9486 -2.6091
  685TMC3    H110189   1.543   0.496  16.352  0.6484  5.0256 -0.9874
  685TMC3    H210190   1.569   0.472  15.927  2.9076 -0.4918  1.8597
  685TMC3    C710191   1.706   0.524  16.161  0.0875 -0.3456  0.2241
  685TMC3    C810192   1.344   0.597  15.881 -0.1642  0.4094  0.2863
  685TMC3    O110193   1.746   0.544  16.273 -0.2897 -0.0592  0.1480
  685TMC3    O210194   1.345   0.524  15.783  0.3028 -0.0884 -0.9289
  686MPD2     C10195   3.017   0.780  16.361  0.0916  0.3249  0.4744
  686MPD2    C110196   2.903   0.832  16.302  0.2340 -0.4628  0.4956
  686MPD2    C210197   2.886   0.971  16.300  0.0595 -0.0662 -0.7986
  686MPD2    C310198   2.985   1.056  16.355 -0.3668  0.3721 -0.4851
  686MPD2    C410199   3.102   0.999  16.412 -0.3366 -0.3171  0.0697
  686MPD2    C510200   3.111   0.861  16.412  0.0645 -0.5394  0.3597
  686MPD2     H10201   2.797   1.014  16.257  0.5400  2.1195  0.4294
  686MPD2    H110202   3.176   1.061  16.461 -0.8830 -1.0978  1.8637
  686MPD2    H210203   3.045   0.675  16.370  1.3090  0.3683 -2.6167
  686MPD2    H310204   3.203   0.822  16.456  0.6584  0.8965  0.3826
  686MPD2     N10205   2.972   1.196  16.351 -0.0879 -0.4231  0.0464
  686MPD2    H510206   3.023   1.229  16.433  1.2408  1.5880 -1.5922
  686MPD2    N110207   2.811   0.745  16.252 -0.3344  0.1003 -0.0318
  686MPD2    H710208   2.829   0.645  16.261  0.0100  0.1018 -0.6799
  687TMC3    C110209   2.864   1.264  16.147 -0.5454  0.1478  0.2850
  687TMC3    C210210   2.742   1.298  16.091  0.0713  0.7853  0.6989
  687TMC3    C310211   2.695   1.242  15.972  0.5412 -0.4015  0.4621
  687TMC3    C410212   2.937   1.170  16.080 -0.7626  0.0753  0.4902
  687TMC3    C510213   2.894   1.125  15.962 -0.0204  0.8338 -0.6988
  687TMC3    C610214   2.776   1.160  15.900  0.2955  0.3818 -0.0455
  687TMC3     C10215   2.876   1.276  16.293  0.0438 -0.0759 -0.1461
  687TMC3     O10216   2.833   1.384  16.340  0.0921 -0.2049 -0.0491
  687TMC3     H10217   2.683   1.368  16.149 -1.7692  1.0750 -1.5352
  687TMC3    H110218   3.033   1.141  16.122 -1.1954  0.2128  1.5858
  687TMC3    H210219   2.740   1.092  15.823  1.4339 -0.9619  0.6017
  687TMC3    C710220   2.968   1.002  15.928 -0.3581  0.3710 -0.5979
  687TMC3    C810221   2.590   1.296  15.891 -0.0239  0.0303 -0.1273
  687TMC3    O110222   3.079   0.992  15.973  0.6361  0.4477  0.9643
  687TMC3    O210223   2.607   1.279  15.769 -0.1835  0.6119 -0.2088
  688MPD2     C10224   1.650   4.437  17.312 -0.1029  0.2479 -0.1124
  688MPD2    C110225   1.662   4.309  17.359  0.0197 -0.9923  0.0666
  688MPD2    C210226   1.760   4.227  17.296 -0.4514 -0.8086  0.8410
  688MPD2    C310227   1.835   4.283  17.188 -0.0923  0.7839 -0.9062
  688MPD2    C410228   1.815   4.418  17.152  0.0791 -0.9494  0.9785
  688MPD2    C510229   1.713   4.486  17.201 -0.0428  0.4929 -0.5304
  688MPD2     H10230   1.771   4.123  17.325 -1.6530 -1.7425 -1.9795
  688MPD2    H110231   1.879   4.464  17.077 -1.6918  1.4840  0.9570
  688MPD2    H210232   1.577   4.503  17.359 -0.8969 -0.2737 -0.6223
  688MPD2    H310233   1.701   4.589  17.170  2.9909  1.6763  2.1624
  688MPD2     N10234   1.943   4.218  17.121 -0.7168 -0.1816 -0.1767
  688MPD2    H510235   1.994   4.262  17.045 -0.3974 -0.7245 -0.2806
  688MPD2    N110236   1.610   4.265  17.487 -0.1407 -0.4466 -0.2825
  688MPD2    H710237   1.626   4.166  17.503  0.7917 -0.4827 -1.3848
  689TMC3    C110238   1.538   4.264  17.707 -0.0786 -0.2606  0.2191
  689TMC3    C210239   1.541   4.337   0.080 -0.4249 -0.7352 -0.0776
  689TMC3    C310240   1.494   4.275   0.188  0.1678  0.2287  0.1716
  689TMC3    C410241   1.488   4.135  17.700  0.1158  0.3148 -0.1728
  689TMC3    C510242   1.437   4.084   0.073 -0.8051  0.3926 -0.0897
  689TMC3    C610243   1.442   4.152   0.194  0.4572 -0.4820 -0.0359
  689TMC3     C10244   1.572   4.338  17.590 -1.3245 -0.1120 -0.7533
  689TMC3     O10245   1.567   4.459  17.603  0.3095 -0.4789  0.0864
  689TMC3     H10246   1.584   4.437   0.078  0.9043 -1.3115  0.1790
  689TMC3    H110247   1.471   4.088  17.604 -2.1914 -2.0827  1.4074
  689TMC3    H210248   1.391   4.117   0.283  0.9548  0.2830  0.5390
  689TMC3    C710249   1.395   3.948   0.089  0.4821  0.2780 -0.7440
  689TMC3    C810250   1.443   4.367   0.294  0.5371 -0.4980 -0.1242
  689TMC3    O110251   1.381   3.905   0.204  0.9106 -0.1119 -0.6715
  689TMC3    O210252   1.408   4.310   0.398  0.2011  0.1288 -0.0803
  690MPD2     C10253   3.634   1.912  15.966 -0.1196  0.6915  1.1818
  690MPD2    C110254   3.619   1.807  15.872 -0.4855 -0.2919 -0.6566
  690MPD2    C210255   3.724   1.770  15.794 -0.1203 -0.2578  0.1587
  690MPD2    C310256   3.848   1.835  15.798 -1.0222  0.1835  0.6124
  690MPD2    C410257   3.856   1.948  15.878 -0.1627  0.2415 -0.0695
  690MPD2    C510258   3.755   1.981  15.967 -0.3523 -0.7872 -0.2339
  690MPD2     H10259   3.711   1.677  15.739 -1.3560  0.1698 -0.2549
  690MPD2    H110260   3.948   2.005  15.879 -2.3930  3.8646 -1.2205
  690MPD2    H210261   3.553   1.946  16.029  0.3423  1.3844  1.4009
  690MPD2    H310262   3.774   2.062  16.036 -0.0012 -1.5965  0.6273
  690MPD2     N10263   3.951   1.800  15.704  0.2763 -0.1039 -0.2127
  690MPD2    H510264   3.928   1.719  15.647  0.9352 -0.7124  0.3921
  690MPD2    N110265   3.505   1.725  15.869  0.2946 -0.3030 -0.0495
  690MPD2    H710266   3.508   1.652  15.799 -0.7742 -0.4129  0.0211
  691TMC3    C110267   3.308   1.619  15.929 -0.5275  0.1953  0.4448
  691TMC3    C210268   3.173   1.635  15.923  0.0312  0.4393  0.3283
  691TMC3    C310269   3.102   1.525  15.885 -0.8114 -0.2340  0.4640
  691TMC3    C410270   3.372   1.499  15.910  0.3579 -0.5622  0.2052
  691TMC3    C510271   3.297   1.387  15.877 -0.3220  0.2007 -0.0205
  691TMC3    C610272   3.162   1.399  15.871  0.4223 -0.2135  0.4271
  691TMC3     C10273   3.394   1.733  15.944 -1.0820 -0.1919  0.2600
  691TMC3     O10274   3.352   1.828  16.013 -0.1931 -0.8106 -0.1155
  691TMC3     H10275   3.133   1.735  15.938 -0.3203  0.3834 -0.2362
  691TMC3    H110276   3.477   1.486  15.931  0.4153 -1.0097 -0.3381
  691TMC3    H210277   3.106   1.311  15.842 -2.6455  1.1497  2.2571
  691TMC3    C710278   3.364   1.261  15.858 -0.6847  0.0695 -0.6234
  691TMC3    C810279   2.959   1.544  15.865  0.2094 -0.1125  0.3712
  691TMC3    O110280   3.468   1.258  15.919  0.7190 -0.1875 -0.4221
  691TMC3    O210281   2.888   1.445  15.856 -0.2828  0.2033 -0.6186
  692TMC3    C110282   0.728   2.442  15.760  0.3694  0.3929 -0.1622
  692TMC3    C210283   0.846   2.523  15.759  0.3729 -0.1494 -0.7631
  692TMC3    C310284   0.966   2.448  15.774  0.1305  0.4628  0.7394
  692TMC3    C410285   0.730   2.312  15.774  0.2632  0.5642 -0.0644
  692TMC3    C510286   0.851   2.246  15.775  0.5505 -0.1699 -0.5223
  692TMC3    C610287   0.966   2.312  15.792  0.2504  0.5415 -0.5578
  692TMC3     C10288   0.605   2.506  15.794 -0.4684 -0.4646  0.3567
  692TMC3     O10289   0.501   2.442  15.790  0.1250 -0.1707 -0.3656
  692TMC3     H10290   0.847   2.617  15.706  0.1846 -0.0650 -0.6164
  692TMC3    H110291   0.643   2.253  15.746 -0.8690  1.3776  1.7789
  692TMC3    H210292   1.066   2.273  15.784  0.6848  1.4196  0.5700
  692TMC3    C710293   0.843   2.099  15.757  0.4304  0.2603 -1.0545
  692TMC3    C810294   1.064   2.510  15.857 -0.6600 -0.7848 -0.0329
  692TMC3    O110295   0.738   2.052  15.712  0.2853 -0.0186  0.3853
  692TMC3    O210296   1.145   2.435  15.910 -0.0177  0.0255 -0.3233
  693MPD2     C10297   0.638   0.444  10.306 -0.4619  0.0662  0.0343
  693MPD2    C110298   0.585   0.322  10.336  0.9485 -0.1289 -0.0675
  693MPD2    C210299   0.652   0.234  10.416  0.1317  0.1366 -0.0427
  693MPD2    C310300   0.789   0.259  10.442  0.0205 -0.0126  0.1095
  693MPD2    C410301   0.839   0.384  10.406 -0.7791 -0.2758  0.1901
  693MPD2    C510302   0.766   0.476  10.337 -0.4367  0.0333 -0.0319
  693MPD2     H10303   0.602   0.144  10.449  1.9532 -0.7947  0.1940
  693MPD2    H110304   0.945   0.399  10.418 -1.1490  2.4069  0.1916
  693MPD2    H210305   0.594   0.514  10.236 -1.4564 -0.2887  0.3109
  693MPD2    H310306   0.809   0.568  10.299  1.0586 -0.5370  0.2762
  693MPD2     N10307   0.880   0.169  10.505  0.1873  0.2061  0.5216
  693MPD2    H510308   0.971   0.199  10.537  0.6253  1.3816 -1.7693
  693MPD2    N110309   0.444   0.321  10.321  0.1581 -0.1673  0.1443
  693MPD2    H710310   0.393   0.404  10.292  2.1684  1.1388  0.3481
  694TMC3    C110311   0.235   0.227  10.349 -0.4792  0.5767  0.0086
  694TMC3    C210312   0.166   0.113  10.312 -0.5603  0.4272  0.0780
  694TMC3    C310313   0.067   0.081  10.398  0.6587 -0.3465 -0.5066
  694TMC3    C410314   0.202   0.313  10.450  0.4261 -0.1359  0.1291
  694TMC3    C510315   0.098   0.274  10.527 -0.0462 -0.1293  0.2234
  694TMC3    C610316   0.027   0.160  10.500  0.1112 -0.4840  0.1911
  694TMC3     C10317   0.376   0.206  10.351  0.1457 -0.6450  0.1757
  694TMC3     O10318   0.418   0.096  10.342 -0.0815  0.1963  0.7027
  694TMC3     H10319   0.208   0.046  10.238  0.3523 -0.4633  1.4015
  694TMC3    H110320   0.262   0.397  10.482  0.1267 -0.3477  1.2456
  694TMC3    H210321   4.670   0.143  10.554  0.3871 -0.5552  0.6330
  694TMC3    C710322   0.110   0.308  10.668 -0.4634 -0.1075 -0.8316
  694TMC3    C810323   4.712   4.709  10.367  1.2559  0.2502  1.2537
  694TMC3    O110324   0.160   0.417  10.694 -0.0546  0.0318 -0.2030
  694TMC3    O210325   4.668   4.646  10.465  0.3883  0.4075  0.1589
  695MPD2     C10326   1.048   2.257  13.464 -0.3623  0.2503 -0.3126
  695MPD2    C110327   1.009   2.243  13.601  0.0105  0.5209 -0.0094
  695MPD2    C210328   0.877   2.276  13.639  1.0246 -0.6255  0.0077
  695MPD2    C310329   0.786   2.313  13.546 -0.5599  0.4713 -0.4665
  695MPD2    C410330   0.824   2.346  13.416  0.5733  0.4178  0.6435
  695MPD2    C510331   0.953   2.321  13.380  0.1098  0.6396  0.4164
  695MPD2     H10332   0.842   2.250  13.739 -0.2478  1.4579  0.1111
  695MPD2    H110333   0.755   2.394  13.348  1.6191  1.9065  0.6255
  695MPD2    H210334   1.147   2.233  13.428  0.3278  1.6299  0.6683
  695MPD2    H310335   0.989   2.352  13.283 -0.4718  0.4690  0.1536
  695MPD2     N10336   0.655   2.329  13.592 -0.7944  0.0876  0.1987
  695MPD2    H510337   0.641   2.304  13.689 -1.4542  0.0573  0.1000
  695MPD2    N110338   1.094   2.201  13.710 -0.2673  0.2069 -0.7813
  695MPD2    H710339   1.047   2.201  13.801  0.4118  1.3545 -0.4409
  696TMC3    C110340   0.418   2.333  13.619 -0.6266  0.5366  0.3660
  696TMC3    C210341   0.433   2.276  13.748  0.3800  0.3402 -0.7274
  696TMC3    C310342   0.328   2.284  13.834 -0.4811 -0.7694 -0.1403
  696TMC3    C410343   0.313   2.410  13.588  0.0182  0.3140 -0.3149
  696TMC3    C510344   0.224   2.433  13.684  0.3710 -0.6218 -0.4104
  696TMC3    C610345   0.221   2.356  13.800 -0.6405  1.0245 -0.7108
  696TMC3     C10346   0.539   2.363  13.528  0.1936 -0.1232 -0.1508
  696TMC3     O10347   0.534   2.429  13.427  0.4810  0.4607  0.0304
  696TMC3     H10348   0.522   2.222  13.778  0.4737  1.3214  0.7662
  696TMC3    H110349   0.313   2.472  13.500 -0.1485  0.2919 -0.3303
  696TMC3    H210350   0.152   2.392  13.876  1.2221  0.8787  1.0484
  696TMC3    C710351   0.176   2.566  13.695 -0.0855  0.6182 -0.6544
  696TMC3    C810352   0.381   2.335  13.965  0.5437 -1.2376  0.5737
  696TMC3    O110353   0.123   2.612  13.595  0.7097  0.4503  0.0330
  696TMC3    O210354   0.337   2.443  14.009 -0.0216 -0.4768 -0.3028
  697MPD2     C10355   0.464   3.825  15.998 -0.4208 -0.2060 -0.2030
  697MPD2    C110356   0.441   3.810  15.864  0.0861  0.5165 -0.9826
  697MPD2    C210357   0.491   3.910  15.776  0.1390 -0.4505 -0.1658
  697MPD2    C310358   0.534   4.032  15.830  0.1650 -0.1991 -0.0881
  697MPD2    C410359   0.560   4.041  15.964  0.3113 -0.1768 -0.3245
  697MPD2    C510360   0.532   3.935  16.045 -0.2407  0.2523  0.3100
  697MPD2     H10361   0.475   3.900  15.669 -1.3428 -1.0946  0.1174
  697MPD2    H110362   0.606   4.129  16.008  0.1638 -0.4086  0.3005
  697MPD2    H210363   0.438   3.746  16.068  1.8228  0.5198  1.4472
  697MPD2    H310364   0.540   3.962  16.150  0.4371  1.3641 -0.0417
  697MPD2     N10365   0.558   4.131  15.732 -0.2185  0.5137  0.0417
  697MPD2    H510366   0.543   4.109  15.634 -0.6732 -0.6926  0.3761
  697MPD2    N110367   0.385   3.689  15.800 -0.3552  0.0888 -0.3725
  697MPD2    H710368   0.403   3.677  15.701 -0.0249  1.0488 -0.4301
  698TMC3    C110369   0.639   4.326  15.645  0.0996 -0.5258  0.0163
  698TMC3    C210370   0.739   4.425  15.667  0.2857  0.2503  0.0192
  698TMC3    C310371   0.777   4.497  15.558 -0.4711  0.3915  0.1147
  698TMC3    C410372   0.591   4.296  15.522 -0.1803 -0.5806 -0.2228
  698TMC3    C510373   0.639   4.375  15.415  0.6389 -0.3789  0.1857
  698TMC3    C610374   0.740   4.468  15.431 -0.2040 -0.4073 -0.1805
  698TMC3     C10375   0.593   4.257  15.758  0.3293  0.1714 -0.0452
  698TMC3     O10376   0.605   4.318  15.865 -0.0831  0.4345 -0.2171
  698TMC3     H10377   0.783   4.447  15.763 -2.8986  1.9012  1.1094
  698TMC3    H110378   0.499   4.242  15.504  0.2348 -0.1162 -3.8152
  698TMC3    H210379   0.756   4.551  15.363 -0.4941  0.3079  0.6260
  698TMC3    C710380   0.599   4.330  15.284  0.2075 -0.0203 -0.0305
  698TMC3    C810381   0.911   4.547  15.573  0.0998 -0.8446  0.7464
  698TMC3    O110382   0.498   4.259  15.264 -0.1779  0.3329  0.0010
  698TMC3    O210383   0.978   4.508  15.670 -0.3101  0.3053  0.0774
  699TMC3    C110384   0.662   2.141  13.188 -0.0324 -0.9741  0.3174
  699TMC3    C210385   0.678   2.025  13.263 -0.0141 -0.9836  0.4768
  699TMC3    C310386   0.561   1.972  13.302  0.2790 -0.5652  0.4892
  699TMC3    C410387   0.543   2.214  13.177 -0.3525  0.4668 -0.5167
  699TMC3    C510388   0.430   2.155  13.219 -0.1027 -1.0214  0.6807
  699TMC3    C610389   0.438   2.032  13.286 -0.5337 -0.1299  0.3549
  699TMC3     C10390   0.777   2.196  13.115 -0.1926  0.0688  0.1854
  699TMC3     O10391   0.779   2.313  13.089  0.2572 -0.1843  0.1751
  699TMC3     H10392   0.772   1.983  13.296  0.0799 -1.2797 -0.1640
  699TMC3    H110393   0.534   2.305  13.119 -0.9715 -0.7253 -2.2890
  699TMC3    H210394   0.351   1.978  13.320 -0.8925  0.9403  1.1474
  699TMC3    C710395   0.315   2.232  13.247 -0.2510 -0.5234 -0.3045
  699TMC3    C810396   0.573   1.853  13.379 -0.8256  0.6101 -0.6690
  699TMC3    O110397   0.236   2.195  13.328 -0.0067  0.2342  0.4929
  699TMC3    O210398   0.497   1.833  13.475 -0.5391  1.1640 -0.1024
  700TMC3    C110399   4.268   4.565  17.019 -0.1355  0.6406  0.5117
  700TMC3    C210400   4.404   4.533  16.995 -0.7934 -0.0367  0.1940
  700TMC3    C310401   4.473   4.466  17.100 -0.6518  0.1523 -0.0567
  700TMC3    C410402   4.210   4.525  17.139  0.3309 -0.4978  0.9695
  700TMC3    C510403   4.287   4.483  17.247  0.6457 -0.1968  0.5045
  700TMC3    C610404   4.418   4.448  17.225  0.1473  0.9247  0.0482
  700TMC3     C10405   4.206   4.679  16.955 -0.1826 -0.5861 -0.4690
  700TMC3     O10406   4.099   4.673  16.890  0.0384  0.3985  0.0563
  700TMC3     H10407   4.451   4.560  16.901 -1.4477 -2.6217 -0.8929
  700TMC3    H110408   4.114   4.568  17.165 -0.6289 -2.8362  1.3491
  700TMC3    H210409   4.463   4.392  17.306 -0.9306 -2.0412 -1.4085
  700TMC3    C710410   4.269   4.552  17.378  0.5067 -0.4690 -0.7042
  700TMC3    C810411   4.610   4.453  17.079  0.3858  0.1807 -0.3935
  700TMC3    O110412   4.369   4.563  17.452 -0.2827 -0.5371  0.3840
  700TMC3    O210413   4.642   4.457  16.960 -0.2345  0.2313 -0.5700
  701TMC3    C110414   4.330   3.175  15.624 -0.5044  0.1233 -0.0190
  701TMC3    C210415   4.387   3.090  15.532  0.3484 -0.1343 -0.0392
  701TMC3    C310416   4.520   3.113  15.499  0.5724  0.1724  0.4208
  701TMC3    C410417   4.404   3.276  15.686 -0.1774 -0.4593  0.8480
  701TMC3    C510418   4.533   3.298  15.638  0.5313  0.1168  0.1460
  701TMC3    C610419   4.596   3.222  15.544 -0.1521 -0.6869 -0.5594
  701TMC3     C10420   4.186   3.177  15.655 -0.2487 -0.4670  0.4829
  701TMC3     O10421   4.150   3.220  15.764  0.2479 -0.0104  0.2238
  701TMC3     H10422   4.337   3.010  15.479 -2.4430  1.1767  0.5979
  701TMC3    H110423   4.354   3.348  15.750 -2.0038 -0.3584 -0.6870
  701TMC3    H210424   4.700   3.239  15.521 -0.3661  0.0239 -0.9865
  701TMC3    C710425   4.603   3.422  15.674  0.4277  0.3292  0.1827
  701TMC3    C810426   4.584   3.047  15.389 -0.2077 -0.3851 -0.3944
  701TMC3    O110427   4.710   3.447  15.622 -0.7568  0.7608 -0.4215
  701TMC3    O210428   4.706   3.051  15.372 -0.4508 -0.2846 -0.0402
  702MPD2     C10429   4.486   0.853  11.070 -0.0965  0.2551 -0.4550
  702MPD2    C110430   4.357   0.840  11.032 -0.5822  0.7316 -0.4206
  702MPD2    C210431   4.325   0.875  10.902 -0.8693 -0.2122  0.1445
  702MPD2    C310432   4.420   0.928  10.817  0.2227 -0.0727  0.6403
  702MPD2    C410433   4.549   0.943  10.856 -0.0774 -0.1291 -0.4312
  702MPD2    C510434   4.579   0.910  10.989 -0.0507 -0.0226 -0.2508
  702MPD2     H10435   4.228   0.843  10.868 -0.0069  0.0782 -2.5968
  702MPD2    H110436   4.634   0.981  10.801  0.3347 -1.2421 -0.5735
  702MPD2    H210437   4.518   0.831  11.172  0.7514  1.1145 -0.5348
  702MPD2    H310438   4.679   0.929  11.025 -0.8084  1.3282  1.1221
  702MPD2     N10439   4.367   0.972  10.689 -0.2952 -0.5514  0.2881
  702MPD2    H510440   4.276   0.933  10.666 -0.3454  0.0676 -0.5488
  702MPD2    N110441   4.260   0.779  11.113 -0.4637 -0.1386 -0.6303
  702MPD2    H710442   4.172   0.772  11.064  0.1105 -0.6615 -1.5974
  703TMC3    C110443   4.356   1.062  10.476  0.1749  0.0471  0.2733
  703TMC3    C210444   4.231   1.002  10.481 -0.4329  0.0458 -0.2240
  703TMC3    C310445   4.123   1.075  10.430 -0.8673 -0.2053 -0.0470
  703TMC3    C410446   4.382   1.184  10.422 -0.4833  0.5692 -0.6802
  703TMC3    C510447   4.260   1.248  10.384 -0.7259  0.4336 -0.4089
  703TMC3    C610448   4.129   1.206  10.392  0.3287 -0.3750 -0.0042
  703TMC3     C10449   4.442   1.036  10.592  0.5028  0.3238  0.0293
  703TMC3     O10450   4.561   1.073  10.596 -0.1825 -0.1118  0.4685
  703TMC3     H10451   4.214   0.903  10.520 -0.8908  0.6519  1.1135
  703TMC3    H110452   4.485   1.219  10.423  0.0268 -0.9222 -0.3062
  703TMC3    H210453   4.042   1.261  10.361 -0.2246 -2.1923 -1.7314
  703TMC3    C710454   4.284   1.394  10.368 -0.3133 -0.5874 -0.1178
  703TMC3    C810455   3.993   1.020  10.458  0.0003 -0.5240 -0.7639
  703TMC3    O110456   4.401   1.427  10.374 -0.7754  0.2707  0.4430
  703TMC3    O210457   3.992   0.896  10.455  0.5446 -0.2017  0.2443
  704TMC3    C110458   2.183   4.326  12.952  0.0663  0.1210  0.3746
  704TMC3    C210459   2.225   4.366  12.826  0.3921  0.3504 -0.0983
  704TMC3    C310460   2.324   4.294  12.769  0.6678  0.4531  0.4494
  704TMC3    C410461   2.255   4.236  13.025  0.1208 -0.4881 -0.6227
  704TMC3    C510462   2.368   4.184  12.973  0.6538  0.3430  0.0092
  704TMC3    C610463   2.403   4.204  12.840  1.0298  0.0330 -0.2312
  704TMC3     C10464   2.039   4.298  12.957 -0.2402 -0.9685 -0.0832
  704TMC3     O10465   2.003   4.270  13.069  0.6006  0.0815 -0.1135
  704TMC3     H10466   2.162   4.418  12.755  0.8190  0.8779 -0.0859
  704TMC3    H110467   2.204   4.201  13.113  1.5355 -0.9722  0.0130
  704TMC3    H210468   2.472   4.135  12.794  2.3607  1.3667 -0.2049
  704TMC3    C710469   2.386   4.048  13.025 -0.0187  0.2931  0.0253
  704TMC3    C810470   2.299   4.260  12.631  0.0903 -0.2048 -0.2630
  704TMC3    O110471   2.419   3.964  12.940  0.6530 -0.2463 -0.3021
  704TMC3    O210472   2.186   4.225  12.600  0.0040 -0.1449 -0.3900
  705MPD2     C10473   1.214   2.126  16.646 -0.0770 -0.1492  0.3498
  705MPD2    C110474   1.184   2.197  16.534 -0.3727 -0.3126  0.2221
  705MPD2    C210475   1.063   2.257  16.539 -0.8010  0.6207  0.5998
  705MPD2    C310476   0.990   2.263  16.658 -0.5367  0.7271  0.2065
  705MPD2    C410477   1.037   2.202  16.771 -0.7044  0.7353 -0.6985
  705MPD2    C510478   1.147   2.129  16.767 -0.1143  0.3912  0.4165
  705MPD2     H10479   1.028   2.294  16.443  0.5132 -0.2720 -0.2298
  705MPD2    H110480   0.990   2.191  16.869  1.7842 -1.7990  0.1848
  705MPD2    H210481   1.302   2.062  16.644  0.5086  0.6435  0.9610
  705MPD2    H310482   1.189   2.090  16.859  0.6867  0.9301  0.2787
  705MPD2     N10483   0.868   2.331  16.662  0.2555 -0.4212 -0.3253
  705MPD2    H510484   0.806   2.304  16.737 -0.1789  1.4925 -0.0098
  705MPD2    N110485   1.271   2.212  16.420 -0.2447  0.2679  0.5602
  705MPD2    H710486   1.238   2.279  16.352  1.1136  0.4395  0.0719
  706TMC3    C110487   1.613   2.135  16.113 -0.2435  0.1809  0.1623
  706TMC3    C210488   1.567   2.245  16.041 -0.8242  0.3405 -0.0984
  706TMC3    C310489   1.478   2.331  16.104 -0.0983 -0.7624  0.7412
  706TMC3    C410490   1.565   2.121  16.239 -0.6747  0.4710 -0.1347
  706TMC3    C510491   1.471   2.203  16.294 -0.1787 -0.0415  0.1637
  706TMC3    C610492   1.436   2.316  16.234  0.3202  0.2166 -0.8262
  706TMC3     C10493   1.714   2.049  16.066 -0.4424  0.2132 -0.7385
  706TMC3     O10494   1.731   1.948  16.134 -0.0153 -0.4619  0.3669
  706TMC3     H10495   1.605   2.280  15.946  2.7802 -0.1114  1.1773
  706TMC3    H110496   1.609   2.046  16.304  1.1112  0.9684 -0.7833
  706TMC3    H210497   1.373   2.391  16.281  2.8870  1.5914  0.3929
  706TMC3    C710498   1.395   2.153  16.407 -0.2595  0.0919 -0.1299
  706TMC3    C810499   1.478   2.463  16.046 -0.1232 -0.1856  0.1029
  706TMC3    O110500   1.429   2.050  16.461  0.5916  0.0100  0.0770
  706TMC3    O210501   1.457   2.462  15.927  0.3053  0.5055 -0.0957
  707TMC3    C110502   2.458   0.990   0.824  0.1146 -0.5948 -0.3130
  707TMC3    C210503   2.412   0.865   0.854  0.5077  0.8720 -0.4674
  707TMC3    C310504   2.272   0.842   0.836  0.6190  0.3844  0.4087
  707TMC3    C410505   2.377   1.094   0.785  0.3864  0.2413  0.2096
  707TMC3    C510506   2.240   1.067   0.784 -0.5073 -0.7284 -0.4405
  707TMC3    C610507   2.186   0.940   0.798  0.0901  0.0855 -0.2964
  707TMC3     C10508   2.601   1.005   0.805  0.3415  0.0329  0.0150
  707TMC3     O10509   2.665   0.915   0.854 -0.2576 -0.3664 -0.1496
  707TMC3     H10510   2.478   0.796   0.905  1.0576  0.7874 -1.3083
  707TMC3    H110511   2.407   1.195   0.757  1.9131  0.3074  2.0792
  707TMC3    H210512   2.080   0.924   0.814 -0.2597  1.9808 -0.6684
  707TMC3    C710513   2.158   1.186   0.759  0.0436  0.0811  0.4521
  707TMC3    C810514   2.222   0.709   0.848 -0.7895 -0.8705  0.1394
  707TMC3    O110515   2.211   1.290   0.788  0.0152 -0.8325 -0.2336
  707TMC3    O210516   2.098   0.696   0.846  0.0430 -0.2675 -0.4715
  708MPD2     C10517   4.550   0.874  14.326  0.0214 -0.0447  0.1624
  708MPD2    C110518   4.461   0.768  14.325 -0.3611 -0.6311 -0.3723
  708MPD2    C210519   4.481   0.655  14.399 -0.3425  0.4399  0.4287
  708MPD2    C310520   4.586   0.660  14.488 -0.4076 -0.0138 -0.6441
  708MPD2    C410521   4.686   0.751  14.478 -0.3317 -0.2890  0.0181
  708MPD2    C510522   4.666   0.856  14.393 -0.6095 -0.1041  0.3466
  708MPD2     H10523   4.396   0.589  14.408 -0.0392 -0.2590 -1.8769
  708MPD2    H110524   0.035   0.760  14.545 -0.0103 -3.1210 -0.0321
  708MPD2    H210525   4.538   0.965  14.268 -2.2828  0.7041  1.8137
  708MPD2    H310526   0.011   0.928  14.387  0.7183 -1.8128 -2.1918
  708MPD2     N10527   4.586   0.578  14.607  0.1438 -0.1153  0.1250
  708MPD2    H510528   4.668   0.589  14.665 -1.2607 -0.3463  2.1366
  708MPD2    N110529   4.351   0.790  14.238 -0.4372  0.0626  0.0038
  708MPD2    H710530   4.333   0.880  14.195  3.0270  1.4277  1.3945
  709TMC3    C110531   4.131   0.769  14.141 -0.2131 -0.4438  0.3921
  709TMC3    C210532   4.066   0.698  14.040  0.1222  0.4491 -0.2747
  709TMC3    C310533   3.932   0.689  14.061  0.4609 -0.8755 -1.0238
  709TMC3    C410534   4.064   0.828  14.245  0.2490 -1.0155  0.1177
  709TMC3    C510535   3.933   0.790  14.277  0.5197 -0.1104  0.0978
  709TMC3    C610536   3.865   0.716  14.181  0.7538  0.0267  0.3035
  709TMC3     C10537   4.253   0.699  14.196  0.1964 -0.3696 -0.2778
  709TMC3     O10538   4.263   0.580  14.186 -0.6550  0.2424  0.5562
  709TMC3     H10539   4.124   0.635  13.973  0.8168  1.3755 -0.5525
  709TMC3    H110540   4.117   0.884  14.322 -0.6223  1.2016 -0.8840
  709TMC3    H210541   3.764   0.683  14.199  1.0911 -1.5085 -0.6062
  709TMC3    C710542   3.933   0.745  14.415 -0.2299 -0.0511 -0.3285
  709TMC3    C810543   3.856   0.607  13.972  0.0585 -0.3782  0.1065
  709TMC3    O110544   4.007   0.803  14.495 -0.4116  0.2815  0.2774
  709TMC3    O210545   3.762   0.548  14.019  0.1243  0.3577 -0.1349
  710TMC3    C110546   0.197   1.637   0.539 -0.0232  0.1957  0.2023
  710TMC3    C210547   0.201   1.770   0.508  0.0594  0.2678  0.6273
  710TMC3    C310548   0.321   1.815   0.455  0.2636  0.9734 -0.2439
  710TMC3    C410549   0.297   1.545   0.517 -0.3695 -0.4098  0.2686
  710TMC3    C510550   0.414   1.593   0.466 -0.1573  0.0644 -0.0541
  710TMC3    C610551   0.422   1.728   0.433  0.1121 -0.1779 -0.3828
  710TMC3     C10552   0.075   1.583   0.610  0.6963 -0.3424  0.7514
  710TMC3     O10553   0.063   1.461   0.630  1.0053  0.3898 -0.2136
  710TMC3     H10554   0.125   1.842   0.537  0.6137  0.9767  0.3196
  710TMC3    H110555   0.277   1.440   0.535 -1.2544  0.1514  2.5123
  710TMC3    H210556   0.520   1.769   0.412 -0.7564  2.1512  0.1521
  710TMC3    C710557   0.520   1.535   0.534 -0.5405 -0.0711 -0.2345
  710TMC3    C810558   0.289   1.902   0.346  0.9173  0.5374  0.8170
  710TMC3    O110559   0.499   1.474   0.635  0.2298  0.0342 -0.1937
  710TMC3    O210560   0.171   1.937   0.346  0.4498  0.3894  0.3915
  711TMC3    C110561   0.280   2.613  14.854 -0.3697  0.4742 -0.2195
  711TMC3    C210562   0.310   2.729  14.924 -0.2785 -0.1536  0.3366
  711TMC3    C310563   0.434   2.744  14.973 -0.3488  0.4096  0.2311
  711TMC3    C410564   0.377   2.512  14.839  0.8051 -0.2877 -0.5272
  711TMC3    C510565   0.504   2.536  14.888  0.3858 -0.8167 -0.0800
  711TMC3    C610566   0.530   2.651  14.950 -0.5974 -0.2490 -0.0980
  711TMC3     C10567   0.151   2.549  14.860 -0.4977  0.0421  0.1142
  711TMC3     O10568   0.084   2.549  14.763 -0.4033  0.0541 -0.5115
  711TMC3     H10569   0.225   2.793  14.945 -0.9221 -1.1398  0.7051
  711TMC3    H110570   0.341   2.427  14.782  0.4708 -0.0463 -0.6770
  711TMC3    H210571   0.629   2.667  14.991 -0.9912 -0.8274  1.0814
  711TMC3    C710572   0.577   2.424  14.952 -0.0143 -0.3423  0.3251
  711TMC3    C810573   0.439   2.815  15.097 -0.2470  0.0400  0.0053
  711TMC3    O110574   0.671   2.459  15.020  1.0699  0.3874 -0.3499
  711TMC3    O210575   0.331   2.850  15.146  0.3863  0.3276  0.4522
  712MPD2     C10576   1.742   3.811  14.169  0.2962  0.3045 -0.5440
  712MPD2    C110577   1.686   3.908  14.084 -0.0030  0.3888 -0.6012
  712MPD2    C210578   1.729   4.034  14.094  0.0897  0.2134  0.1254
  712MPD2    C310579   1.834   4.077  14.188 -0.4784  0.3368 -0.0233
  712MPD2    C410580   1.880   3.980  14.273  0.3299  0.4850  0.0253
  712MPD2    C510581   1.835   3.850  14.254  0.3087 -0.8135 -1.1120
  712MPD2     H10582   1.682   4.110  14.033  2.6932  1.4064 -0.4351
  712MPD2    H110583   1.956   3.996  14.349  1.2389 -0.8247 -0.5918
  712MPD2    H210584   1.717   3.706  14.157 -0.4367  0.3348  0.6638
  712MPD2    H310585   1.881   3.770  14.311  2.6200  2.2879  1.4184
  712MPD2     N10586   1.869   4.214  14.201 -0.0250 -0.0757  0.5373
  712MPD2    H510587   1.942   4.246  14.263  0.9084 -1.0061 -0.0667
  712MPD2    N110588   1.591   3.867  13.983  0.4217  0.2893 -0.1736
  712MPD2    H710589   1.569   3.940  13.916 -0.0738  0.7947  0.5336
  713TMC3    C110590   1.846   4.451  14.193 -0.1760 -0.2798  0.6977
  713TMC3    C210591   1.976   4.488  14.201  0.5160  0.1835 -0.8088
  713TMC3    C310592   2.008   4.618  14.235  0.2592 -0.0268  0.0176
  713TMC3    C410593   1.751   4.548  14.203 -0.3697  0.0844  0.7842
  713TMC3    C510594   1.785   4.683  14.225 -0.1745 -0.0019 -0.7200
  713TMC3    C610595   1.912   4.715  14.250  0.3470  0.6373 -0.3799
  713TMC3     C10596   1.794   4.322  14.151  0.4540 -0.0795  0.6200
  713TMC3     O10597   1.691   4.329  14.082 -0.2022  0.2057  0.1340
  713TMC3     H10598   2.048   4.409  14.181  0.6993  0.6586 -2.0395
  713TMC3    H110599   1.649   4.516  14.222 -0.8475 -0.6521 -3.2028
  713TMC3    H210600   1.944   0.082  14.267  0.0429  0.4688  1.1490
  713TMC3    C710601   1.688   0.041  14.284  0.9534  0.1790  0.7550
  713TMC3    C810602   2.118   4.672  14.161 -0.1596  1.0339  0.0405
  713TMC3    O110603   1.736   0.106  14.378 -0.2486 -0.1003 -0.3225
  713TMC3    O210604   2.091   0.015  14.073 -0.6461 -0.1337  0.6331
  714MPD2     C10605   3.961   2.145   1.588 -0.9366 -0.0359 -0.1886
  714MPD2    C110606   3.929   2.087   1.468 -0.8259 -0.3335  0.1888
  714MPD2    C210607   3.818   2.134   1.397 -0.2714  0.1285  0.4214
  714MPD2    C310608   3.752   2.244   1.450  0.2951  0.7374  0.5442
  714MPD2    C410609   3.791   2.298   1.570  0.4036 -0.6922 -0.3708
  714MPD2    C510610   3.897   2.251   1.636 -0.4046  0.0398 -0.5605
  714MPD2     H10611   3.801   2.107   1.293 -1.9058 -0.8354  0.9568
  714MPD2    H110612   3.733   2.378   1.614  2.3877  0.6504 -0.2137
  714MPD2    H210613   4.051   2.119   1.643 -0.7944 -1.5302 -1.1302
  714MPD2    H310614   3.932   2.293   1.730  0.7738  0.0132 -0.9861
  714MPD2     N10615   3.651   2.315   1.371  0.5100 -0.1482 -0.1872
  714MPD2    H510616   3.616   2.269   1.288  0.6129 -0.3794 -0.1019
  714MPD2    N110617   4.018   1.992   1.414  0.6560 -0.0494  0.0721
  714MPD2    H710618   4.113   1.983   1.449 -0.2223 -1.0115  2.2123
  715TMC3    C110619   4.092   1.831   1.283 -0.4084 -0.0908  0.6046
  715TMC3    C210620   4.064   1.711   1.233 -0.3486 -0.2566 -0.0147
  715TMC3    C310621   4.156   1.649   1.157 -0.0029 -0.0114  0.2817
  715TMC3    C410622   4.215   1.894   1.265  0.4937  0.2662 -0.0755
  715TMC3    C510623   4.302   1.823   1.183  0.0588 -0.0799  0.2652
  715TMC3    C610624   4.275   1.705   1.126 -0.0144  0.7337  0.0402
  715TMC3     C10625   3.985   1.912   1.312  0.6132  0.2402  0.3159
  715TMC3     O10626   3.874   1.888   1.257 -0.3633  0.6483 -0.7789
  715TMC3     H10627   3.966   1.670   1.256  0.0739 -1.1019  0.3196
  715TMC3    H110628   4.238   1.992   1.304 -1.5704  0.7305 -0.0530
  715TMC3    H210629   4.342   1.658   1.055 -0.2680 -0.7574  0.7908
  715TMC3    C710630   4.437   1.874   1.184 -0.2036  0.3319 -0.3403
  715TMC3    C810631   4.119   1.522   1.099  0.2433  0.3658 -0.4108
  715TMC3    O110632   4.459   1.991   1.206 -0.4180  0.0343  0.1577
  715TMC3    O210633   3.996   1.509   1.095 -0.4160 -0.2139 -0.6142
  716MPD2     C10634   4.406   1.849   9.560 -0.1683  0.6654  0.1412
  716MPD2    C110635   4.297   1.770   9.585  0.0218  0.3959 -0.5208
  716MPD2    C210636   4.322   1.633   9.588 -0.2158 -0.3793  0.1522
  716MPD2    C310637   4.450   1.577   9.580 -0.3744  0.2016 -0.5643
  716MPD2    C410638   4.561   1.662   9.558 -0.7208 -0.2583  0.3238
  716MPD2    C510639   4.532   1.794   9.536  0.2789  0.1568 -0.3522
  716MPD2     H10640   4.243   1.560   9.601 -0.9467  0.2218 -0.9340
  716MPD2    H110641   4.665   1.633   9.548 -0.9395 -0.4596 -1.3980
  716MPD2    H210642   4.394   1.956   9.546  1.5279  0.9763  1.1388
  716MPD2    H310643   4.617   1.856   9.508 -0.0636  1.9691  2.5224
  716MPD2     N10644   4.457   1.434   9.583  0.8637  0.1416  0.5893
  716MPD2    H510645   4.374   1.377   9.571 -0.8957  2.6518  0.7266
  716MPD2    N110646   4.164   1.829   9.589 -0.1322 -0.4953  0.7000
  716MPD2    H710647   4.167   1.921   9.548 -1.2188 -0.6329  0.3074
  717TMC3    C110648   4.582   1.236   9.572  0.1386 -0.0942  0.6644
  717TMC3    C210649   4.467   1.167   9.537 -0.2265 -0.7616  0.7293
  717TMC3    C310650   4.470   1.034   9.499  0.0306  0.5697  0.2863
  717TMC3    C410651   4.701   1.174   9.572  0.4911  0.7381 -0.0245
  717TMC3    C510652   4.707   1.037   9.544 -0.2395  0.4563 -0.6621
  717TMC3    C610653   4.593   0.968   9.501  1.1608 -0.2807  0.2736
  717TMC3     C10654   4.582   1.374   9.587  0.3969 -0.0660  0.2691
  717TMC3     O10655   4.688   1.415   9.625 -0.5631  0.2784 -0.1169
  717TMC3     H10656   4.377   1.227   9.526  0.2969 -0.2569 -0.8975
  717TMC3    H110657   0.055   1.222   9.611  1.2518  1.1595 -2.2837
  717TMC3    H210658   4.592   0.864   9.470  0.8886 -0.8611  2.2047
  717TMC3    C710659   0.099   0.962   9.563  0.4293 -0.2894  0.3531
  717TMC3    C810660   4.353   0.962   9.441 -0.2848 -0.1575  0.4980
  717TMC3    O110661   0.199   1.033   9.570  0.0019  0.1907  0.4283
  717TMC3    O210662   4.373   0.842   9.416  0.6330 -0.3576  0.4052
  718MPD2     C10663   3.186   4.261  12.366  0.0620  0.3661 -0.2535
  718MPD2    C110664   3.266   4.179  12.437 -0.9451  0.0463 -0.4128
  718MPD2    C210665   3.233   4.149  12.568 -0.4243  0.0795 -0.3612
  718MPD2    C310666   3.105   4.179  12.617 -0.5641  0.2698 -0.2159
  718MPD2    C410667   3.010   4.242  12.538  0.2371 -0.0656 -0.7444
  718MPD2    C510668   3.053   4.291  12.417  0.3336 -0.8077 -0.1234
  718MPD2     H10669   3.291   4.083  12.630 -1.3824  0.7204  1.2291
  718MPD2    H110670   2.911   4.271  12.569  0.9963 -0.8128  2.4598
  718MPD2    H210671   3.198   4.291  12.263  0.6850 -0.8756 -0.5463
  718MPD2    H310672   2.979   4.348  12.363 -1.5734 -2.6392  0.5749
  718MPD2     N10673   3.085   4.132  12.751 -0.1051 -0.2859  0.0785
  718MPD2    H510674   3.174   4.110  12.794 -0.2671 -0.0258  0.5426
  718MPD2    N110675   3.393   4.143  12.386  0.0420  0.5033 -0.5687
  718MPD2    H710676   3.423   4.185  12.298 -2.0187  2.9215 -0.1259
  719TMC3    C110677   3.610   4.043  12.408  0.1627  0.7417  0.5381
  719TMC3    C210678   3.671   3.931  12.460  0.5191  0.4931  0.2803
  719TMC3    C310679   3.777   3.957  12.544 -0.0624  0.2029 -0.1963
  719TMC3    C410680   3.662   4.172  12.403  0.4313  0.6444 -0.4828
  719TMC3    C510681   3.775   4.191  12.479 -0.6829 -0.3472 -1.0655
  719TMC3    C610682   3.834   4.084  12.546 -0.0527 -0.2534 -0.9678
  719TMC3     C10683   3.468   4.040  12.437  0.2293  0.0109 -0.3346
  719TMC3     O10684   3.435   3.945  12.504  0.1097 -0.1332  0.3608
  719TMC3     H10685   3.619   3.837  12.443 -2.7431  2.4302 -0.5168
  719TMC3    H110686   3.609   4.255  12.357 -1.7363 -0.7561 -0.5278
  719TMC3    H210687   3.929   4.098  12.598  0.3848 -0.9718 -1.5874
  719TMC3    C710688   3.870   4.297  12.439  0.9321  0.3026 -0.1503
  719TMC3    C810689   3.777   3.887  12.673  0.0195  0.3183 -0.0350
  719TMC3    O110690   3.988   4.277  12.476  0.0656 -0.3498 -0.3404
  719TMC3    O210691   3.863   3.919  12.750 -0.0696 -0.6710  0.0155
  720MPD2     C10692   1.573   1.300  13.907  0.6330  0.3327 -0.3919
  720MPD2    C110693   1.667   1.336  13.816  0.0817  1.6835 -0.6593
  720MPD2    C210694   1.799   1.337  13.863  0.1213 -0.1513  0.2200
  720MPD2    C310695   1.839   1.310  13.989  0.1620 -0.7737 -0.0551
  720MPD2    C410696   1.736   1.280  14.079 -0.2567  0.5474 -0.3327
  720MPD2    C510697   1.602   1.276  14.037  0.0343  0.3420  0.4452
  720MPD2     H10698   1.881   1.366  13.797 -0.3281 -0.0374 -0.2899
  720MPD2    H110699   1.760   1.243  14.178 -0.2141 -0.9358 -0.9015
  720MPD2    H210700   1.469   1.297  13.878  1.1675 -0.1853 -2.3241
  720MPD2    H310701   1.525   1.256  14.111  1.0456  0.1451  1.4555
  720MPD2     N10702   1.979   1.305  14.027 -0.0399 -0.4806  0.0975
  720MPD2    H510703   2.046   1.317  13.951 -0.5689  1.5795 -0.0418
  720MPD2    N110704   1.637   1.384  13.688 -0.2358 -0.4967  0.3924
  720MPD2    H710705   1.706   1.385  13.614 -1.1988  2.2767 -0.4980
  721TMC3    C110706   2.165   1.315  14.164  0.1700 -0.2015 -0.2311
  721TMC3    C210707   2.201   1.390  14.272 -0.1614 -0.4013 -0.0315
  721TMC3    C310708   2.330   1.418  14.291  0.1158  0.3060 -0.2305
  721TMC3    C410709   2.247   1.260  14.070 -0.0844 -0.1065  0.5674
  721TMC3    C510710   2.383   1.296  14.095  0.0706  0.1879 -0.2327
  721TMC3    C610711   2.423   1.361  14.207 -0.2046 -0.6938  0.4408
  721TMC3     C10712   2.026   1.295  14.158 -0.8954  0.1838  0.7867
  721TMC3     O10713   1.970   1.318  14.264  0.0775 -0.0082  0.4021
  721TMC3     H10714   2.130   1.452  14.325  0.6558 -0.3412  1.0061
  721TMC3    H110715   2.219   1.191  13.991  0.4028 -0.9091  1.1016
  721TMC3    H210716   2.528   1.375  14.227  0.1580 -2.8383 -0.0091
  721TMC3    C710717   2.489   1.226  14.020  0.3140 -0.3483 -0.0257
  721TMC3    C810718   2.387   1.459  14.415 -0.4174  0.3865 -0.1703
  721TMC3    O110719   2.473   1.202  13.899 -0.5094  0.0453 -0.2058
  721TMC3    O210720   2.497   1.510  14.400 -0.1784 -0.3493 -0.6475
  722MPD2     C10721   0.685   4.439  13.524 -0.1844  0.0996 -0.8518
  722MPD2    C110722   0.622   4.562  13.534  0.0370  0.4490 -0.9015
  722MPD2    C210723   0.496   4.587  13.476  0.8734  0.5475  0.2072
  722MPD2    C310724   0.431   4.480  13.408  0.3275  0.0664 -0.5498
  722MPD2    C410725   0.500   4.361  13.393 -0.3812 -0.9147  0.5094
  722MPD2    C510726   0.627   4.345  13.447 -0.2880  0.2347  0.0321
  722MPD2     H10727   0.442   4.678  13.498 -1.3914 -0.4022 -1.4011
  722MPD2    H110728   0.467   4.276  13.334  1.6424  0.1044 -2.0677
  722MPD2    H210729   0.775   4.404  13.574 -0.3631  1.4252  0.4199
  722MPD2    H310730   0.681   4.251  13.443  3.7081  2.4824  1.2738
  722MPD2     N10731   0.304   4.506  13.351 -0.6963  0.4052  0.4979
  722MPD2    H510732   0.266   4.599  13.365  1.0161  1.0125  1.1081
  722MPD2    N110733   0.673   4.664  13.615 -0.5227  0.0644  0.4851
  722MPD2    H710734   0.648   0.026  13.598 -3.0441 -1.1471 -2.6618
  723TMC3    C110735   0.104   4.450  13.239  0.2295  0.2080 -0.0695
  723TMC3    C210736   0.010   4.349  13.223 -0.7264  0.1407  0.1829
  723TMC3    C310737   4.621   4.387  13.180  0.2213 -1.0579 -0.7681
  723TMC3    C410738   0.089   4.577  13.198 -0.5622 -0.2553 -0.6569
  723TMC3    C510739   4.702   4.595  13.146  0.3213  0.0798  0.0489
  723TMC3    C610740   4.596   4.512  13.145  0.1768  0.0082 -0.3233
  723TMC3     C10741   0.235   4.409  13.283 -0.0754  1.4877 -0.6158
  723TMC3     O10742   0.254   4.288  13.269  0.7031  0.3933  0.0831
  723TMC3     H10743   0.028   4.253  13.269 -1.7877 -0.3016 -0.3305
  723TMC3    H110744   0.175   4.643  13.192  1.4199 -2.7316  0.6837
  723TMC3    H210745   4.491   4.535  13.129  0.1711  0.0171 -0.2708
  723TMC3    C710746   4.667   4.730  13.105  0.8795 -0.0600  0.2102
  723TMC3    C810747   4.524   4.291  13.151  0.2547 -0.1994  0.0864
  723TMC3    O110748   4.723   0.085  13.165 -0.3191 -0.2765 -0.5712
  723TMC3    O210749   4.404   4.317  13.173  0.3769 -0.0677  0.0811
  724TMC3    C110750   1.687   3.009  10.381 -0.4945  0.4890 -0.7767
  724TMC3    C210751   1.654   3.135  10.431 -0.5710 -0.3642 -1.0698
  724TMC3    C310752   1.719   3.247  10.375 -0.7616  0.3955 -0.1280
  724TMC3    C410753   1.779   2.997  10.282  0.0212 -0.3675  0.1707
  724TMC3    C510754   1.844   3.112  10.236  0.2634 -0.1897  0.2338
  724TMC3    C610755   1.819   3.236  10.282 -0.4081  0.3360 -0.3706
  724TMC3     C10756   1.634   2.883  10.433 -0.2807 -0.3914  0.5284
  724TMC3     O10757   1.612   2.797  10.352 -0.5867 -0.3641  0.3410
  724TMC3     H10758   1.569   3.144  10.499 -0.1514 -0.6803 -0.5019
  724TMC3    H110759   1.782   2.901  10.230  1.1260  1.2910 -2.8153
  724TMC3    H210760   1.857   3.329  10.240 -2.1542  0.2098 -2.1963
  724TMC3    C710761   1.941   3.090  10.122 -0.3595 -0.6384 -0.2891
  724TMC3    C810762   1.649   3.373  10.386 -0.0381  0.3635  0.3692
  724TMC3    O110763   1.979   2.972  10.114  0.2674 -0.2217 -0.0440
  724TMC3    O210764   1.601   3.402  10.494 -0.1977 -0.0395  0.1389
  725TMC3    C110765   2.689   1.510  12.627  0.1479  0.5145 -0.2013
  725TMC3    C210766   2.603   1.570  12.539 -0.7802  0.2093  0.3692
  725TMC3    C310767   2.530   1.485  12.462 -0.1297 -0.1497 -0.1383
  725TMC3    C410768   2.693   1.377  12.661  0.5788  0.3754 -0.7317
  725TMC3    C510769   2.615   1.301  12.581 -0.3710  0.3077  0.4423
  725TMC3    C610770   2.527   1.354  12.490 -0.0466  0.0877  0.1112
  725TMC3     C10771   2.779   1.603  12.695  0.0413  0.2048 -0.2862
  725TMC3     O10772   2.744   1.719  12.704 -0.2719  0.1125  0.0286
  725TMC3     H10773   2.622   1.674  12.518  1.1183 -0.3470 -0.6543
  725TMC3    H110774   2.747   1.337  12.746  0.5367  0.9496 -0.4329
  725TMC3    H210775   2.466   1.287  12.431 -1.1461  1.4155 -0.2704
  725TMC3    C710776   2.653   1.159  12.566 -0.2036 -0.5587 -0.2315
  725TMC3    C810777   2.432   1.543  12.374  0.6944 -0.0641  0.0025
  725TMC3    O110778   2.630   1.114  12.449  0.2443 -0.0597 -0.5794
  725TMC3    O210779   2.349   1.464  12.330  0.5873  0.0099 -0.2932
  726MPD2     C10780   0.516   2.623  10.746  0.7077 -0.1460  0.1876
  726MPD2    C110781   0.528   2.739  10.813 -0.1539  0.3729 -0.3893
  726MPD2    C210782   0.470   2.749  10.937 -0.3307 -0.3309  0.1686
  726MPD2    C310783   0.396   2.649  10.997  0.3926  0.1284  0.1461
  726MPD2    C410784   0.384   2.527  10.925 -0.3695  0.0167  0.0268
  726MPD2    C510785   0.437   2.520  10.800 -0.1845  0.0596 -0.5932
  726MPD2     H10786   0.478   2.845  10.987 -0.7775  1.1882 -2.6619
  726MPD2    H110787   0.327   2.444  10.964 -0.6646  0.8697  1.4089
  726MPD2    H210788   0.558   2.607  10.648  1.9516  1.2398  0.4992
  726MPD2    H310789   0.420   2.432  10.739 -0.3386 -0.4132  0.1358
  726MPD2     N10790   0.315   2.664  11.113 -0.5395  0.0268  0.0476
  726MPD2    H510791   0.258   2.586  11.145 -0.4871 -0.4202 -0.9554
  726MPD2    N110792   0.598   2.845  10.761  0.9175 -0.2672 -0.1340
  726MPD2    H710793   0.627   2.916  10.828  1.9284  0.5456 -1.4416
  727TMC3    C110794   0.707   2.987  10.613 -0.3556 -0.2814 -0.0534
  727TMC3    C210795   0.805   3.019  10.700 -0.4938 -0.0804 -0.0677
  727TMC3    C310796   0.864   3.137  10.683 -0.2125  0.6377 -0.5602
  727TMC3    C410797   0.678   3.070  10.513 -0.3760  0.0055  0.5141
  727TMC3    C510798   0.758   3.174  10.481  0.1706 -0.3071  0.7163
  727TMC3    C610799   0.840   3.219  10.579 -0.3324  0.4415 -0.3150
  727TMC3     C10800   0.619   2.870  10.628  0.2100 -0.3791 -0.1059
  727TMC3     O10801   0.566   2.825  10.530 -0.2459 -0.5333  0.2208
  727TMC3     H10802   0.823   2.961  10.790  0.3658 -0.2473 -0.3429
  727TMC3    H110803   0.603   3.036  10.442 -0.2470  0.1542  0.3085
  727TMC3    H210804   0.889   3.315  10.570  0.2731  0.4514  3.1704
  727TMC3    C710805   0.693   3.276  10.395  0.2131 -0.0248 -0.5365
  727TMC3    C810806   0.968   3.172  10.785  0.8560  1.1268  0.0660
  727TMC3    O110807   0.572   3.265  10.379 -0.0904 -0.1772  0.4781
  727TMC3    O210808   1.021   3.080  10.844 -0.3169 -0.5162 -0.2841
  728TMC3    C110809   4.141   1.811  15.578 -0.5860 -0.3439  0.6500
  728TMC3    C210810   4.281   1.804  15.574  0.2316  0.5401  0.4542
  728TMC3    C310811   4.338   1.768  15.458  0.1713  0.7137  0.6025
  728TMC3    C410812   4.061   1.770  15.470 -1.0272  0.2282 -0.7467
  728TMC3    C510813   4.131   1.741  15.353  0.1224  0.0094  0.1144
  728TMC3    C610814   4.269   1.748  15.348  0.1471 -0.2452  0.5940
  728TMC3     C10815   4.071   1.846  15.702 -0.0918 -0.0915 -0.2019
  728TMC3     O10816   4.138   1.896  15.792  0.0501  0.9156  0.0472
  728TMC3     H10817   4.340   1.846  15.655  0.2634  0.9021  0.2421
  728TMC3    H110818   3.952   1.770  15.467 -0.9704  0.3319 -2.4748
  728TMC3    H210819   4.310   1.739  15.248 -0.0169  2.5058  0.2691
  728TMC3    C710820   4.040   1.708  15.238 -0.4350 -0.6379 -0.0301
  728TMC3    C810821   4.483   1.790  15.449 -0.7285 -0.4600 -0.4438
  728TMC3    O110822   3.922   1.702  15.263 -0.1907  0.4591  0.4408
  728TMC3    O210823   4.536   1.852  15.540  0.7510 -0.2538  0.0398
  729MPD2     C10824   1.640   2.380  16.649 -0.1688 -0.4548 -0.4216
  729MPD2    C110825   1.660   2.518  16.646 -0.4709  0.0890 -0.0353
  729MPD2    C210826   1.576   2.598  16.717  1.0042  1.0397  0.0432
  729MPD2    C310827   1.469   2.540  16.787 -0.7246  0.0176  0.0630
  729MPD2    C410828   1.444   2.401  16.778  0.2589 -0.0748 -0.1684
  729MPD2    C510829   1.528   2.327  16.705  0.0791  0.0201  0.5606
  729MPD2     H10830   1.590   2.705  16.718  2.3657  0.8634  0.6939
  729MPD2    H110831   1.355   2.355  16.817  1.4555 -0.6649  1.8866
  729MPD2    H210832   1.709   2.315  16.596  0.2514 -0.0947 -0.3088
  729MPD2    H310833   1.511   2.220  16.699 -0.7593  0.3028 -2.4832
  729MPD2     N10834   1.381   2.617  16.866  0.2992 -0.1603  0.0548
  729MPD2    H510835   1.308   2.561  16.907 -0.6004  1.9197  1.2895
  729MPD2    N110836   1.762   2.570  16.557 -0.2837  0.1851  0.4022
  729MPD2    H710837   1.808   2.502  16.499 -1.2089 -0.6821  0.6844
  730TMC3    C110838   1.291   2.794  16.985 -0.1911 -0.6273  0.0272
  730TMC3    C210839   1.302   2.730  17.105 -0.1624  0.8503  0.1863
  730TMC3    C310840   1.259   2.803  17.215 -0.3118  0.6754 -0.1407
  730TMC3    C410841   1.267   2.929  16.981  0.0055  0.4225 -0.1618
  730TMC3    C510842   1.244   3.002  17.094 -0.4668 -0.9229  0.0459
  730TMC3    C610843   1.242   2.936  17.210  0.4236 -0.1801 -0.0890
  730TMC3     C10844   1.384   2.753  16.881  0.7396  0.6595 -0.2587
  730TMC3     O10845   1.460   2.837  16.837 -0.0616  0.3766  0.3865
  730TMC3     H10846   1.342   2.629  17.116 -0.1008  0.9608  0.9527
  730TMC3    H110847   1.260   2.981  16.886 -0.9598 -0.4720 -0.5901
  730TMC3    H210848   1.198   2.979  17.299  2.4283  0.9882  0.3229
  730TMC3    C710849   1.324   3.130  17.091 -0.0050 -0.1567  0.0831
  730TMC3    C810850   1.299   2.743  17.345  0.9835  0.5429  0.3236
  730TMC3    O110851   1.368   3.164  16.983  0.7844  0.0098 -0.8714
  730TMC3    O210852   1.290   2.621  17.356 -0.5770 -0.2634  0.1421
  731MPD2     C10853   2.080   1.479  12.523  0.3799 -0.0140 -0.1744
  731MPD2    C110854   2.010   1.409  12.427  0.2544  0.3607  0.1041
  731MPD2    C210855   1.882   1.373  12.453 -0.9078 -0.1860 -0.0286
  731MPD2    C310856   1.812   1.440  12.564 -0.5061 -0.1626  0.9514
  731MPD2    C410857   1.888   1.497  12.669  0.0378  0.0718  0.4439
  731MPD2    C510858   2.026   1.516  12.645 -0.7151 -0.5202  0.0991
  731MPD2     H10859   1.822   1.324  12.377  0.5192 -1.2928 -0.4383
  731MPD2    H110860   1.838   1.547  12.751  0.3571 -0.8784  1.2131
  731MPD2    H210861   2.188   1.478  12.515  0.3325 -1.8596 -0.5984
  731MPD2    H310862   2.081   1.566  12.724 -0.3453 -1.1144  0.2129
  731MPD2     N10863   1.676   1.420  12.575 -0.1493  0.5251  0.3120
  731MPD2    H510864   1.627   1.372  12.500 -1.1202 -0.5807  1.6572
  731MPD2    N110865   2.076   1.370  12.307  0.3818  0.9814  0.5246
  731MPD2    H710866   2.176   1.387  12.299 -0.1260  3.5451 -0.6343
  732TMC3    C110867   2.111   1.328  12.083  0.7331 -0.2596  0.4464
  732TMC3    C210868   2.063   1.354  11.961  0.9915 -0.1187  0.0637
  732TMC3    C310869   2.122   1.293  11.856 -0.5343 -0.7377  0.2462
  732TMC3    C410870   2.236   1.274  12.100 -0.2105 -0.8674  0.2771
  732TMC3    C510871   2.298   1.231  11.991  0.3215  0.1686 -0.1235
  732TMC3    C610872   2.239   1.242  11.868  0.0483 -0.6328  0.1351
  732TMC3     C10873   2.015   1.338  12.188  0.8386  0.2367 -0.0177
  732TMC3     O10874   1.898   1.323  12.161  0.6821 -0.2251  0.1251
  732TMC3     H10875   1.965   1.399  11.951  0.4251 -1.4822 -0.5134
  732TMC3    H110876   2.266   1.242  12.199  0.5305 -2.0324 -0.3254
  732TMC3    H210877   2.274   1.199  11.775 -1.4680  1.2787 -1.3274
  732TMC3    C710878   2.428   1.158  12.000 -0.2856  0.6673 -0.4738
  732TMC3    C810879   2.048   1.266  11.736  0.5560 -0.6327  0.0040
  732TMC3    O110880   2.469   1.117  12.109  0.0123  0.5476  0.1335
  732TMC3    O210881   2.002   1.365  11.691 -0.0174 -0.6766 -0.1383
  733TMC3    C110882   2.893   3.999  13.150 -0.3153 -0.7215  0.1390
  733TMC3    C210883   2.874   4.065  13.030  0.9287  0.3299 -0.0420
  733TMC3    C310884   2.961   4.039  12.928  0.5248  0.2753 -0.0248
  733TMC3    C410885   2.985   3.903  13.170 -0.6659 -0.2902 -0.2026
  733TMC3    C510886   3.070   3.879  13.065  0.1302  0.1807 -0.2359
  733TMC3    C610887   3.065   3.942  12.943 -0.2018 -0.4369  0.3025
  733TMC3     C10888   2.804   4.047  13.255  0.3064  0.0090  1.0320
  733TMC3     O10889   2.704   4.105  13.222 -0.1074  0.3416 -0.4479
  733TMC3     H10890   2.789   4.130  13.013 -0.0162 -0.9664 -0.2678
  733TMC3    H110891   2.996   3.852  13.265  2.0935  2.0780  0.7311
  733TMC3    H210892   3.131   3.919  12.860 -1.6070 -1.8295 -0.4141
  733TMC3    C710893   3.199   3.824  13.096  1.4647 -0.1806  0.3897
  733TMC3    C810894   2.962   4.128  12.815 -0.6772 -0.2855 -0.3614
  733TMC3    O110895   3.243   3.849  13.210 -0.6925  0.2951 -0.1108
  733TMC3    O210896   2.857   4.185  12.795  0.0670 -0.2741 -0.0564
  734MPD2     C10897   0.105   1.459  12.248 -0.0665  0.3241  0.5097
  734MPD2    C110898   0.019   1.359  12.201  0.0268 -1.1023  0.2188
  734MPD2    C210899   4.728   1.358  12.066  0.1529 -0.2430  0.0544
  734MPD2    C310900   0.047   1.455  11.985 -0.6001 -0.6134 -0.2618
  734MPD2    C410901   0.133   1.552  12.029 -0.0409  0.6374 -0.2993
  734MPD2    C510902   0.166   1.549  12.162  0.0373 -0.4660 -0.8247
  734MPD2     H10903   4.669   1.278  12.022 -1.1262  0.8091 -0.1326
  734MPD2    H110904   0.190   1.623  11.970  1.2050 -0.2589 -0.1590
  734MPD2    H210905   0.130   1.456  12.353 -2.0294  1.1386  0.9899
  734MPD2    H310906   0.231   1.622  12.210 -1.7901  0.4212  0.2887
  734MPD2     N10907   0.013   1.445  11.847  0.4917 -0.1508  0.5036
  734MPD2    H510908   4.694   1.362  11.823  1.1701 -0.5707  0.4130
  734MPD2    N110909   4.725   1.257  12.289 -0.1292  0.6343  0.2332
  734MPD2    H710910   0.037   1.257  12.378  1.6236 -0.5081 -0.6935
  735TMC3    C110911   4.660   1.038  12.346  0.3932 -0.0339  0.0257
  735TMC3    C210912   4.588   0.929  12.303 -0.1339 -0.0826 -0.3668
  735TMC3    C310913   4.660   0.809  12.279  0.0537 -0.0194 -0.3278
  735TMC3    C410914   0.052   1.027  12.381  0.4076 -0.7409 -0.7412
  735TMC3    C510915   0.116   0.906  12.370 -0.1342  0.2450  0.8668
  735TMC3    C610916   0.056   0.800  12.316 -0.5653 -1.0221 -0.6289
  735TMC3     C10917   4.638   1.149  12.256  0.6427  0.1100 -0.3111
  735TMC3     O10918   4.563   1.129  12.165 -0.2271 -0.6449  0.1048
  735TMC3     H10919   4.484   0.941  12.272 -0.1783  2.3662  0.7664
  735TMC3    H110920   0.110   1.103  12.432  0.6131 -0.9716 -0.6361
  735TMC3    H210921   0.103   0.706  12.290  1.7953  0.2896 -1.0356
  735TMC3    C710922   0.258   0.915  12.374  0.3776 -0.6331 -0.0275
  735TMC3    C810923   4.623   0.747  12.153 -0.0978 -0.1298 -0.4083
  735TMC3    O110924   0.313   1.021  12.348  0.5688  0.1895  0.4253
  735TMC3    O210925   4.665   0.638  12.121 -0.1257  0.1814 -0.3479
  736MPD2     C10926   0.471   0.626  12.458 -0.0522 -0.7952  0.0567
  736MPD2    C110927   0.438   0.745  12.390 -0.2977 -0.5165  0.2371
  736MPD2    C210928   0.524   0.801  12.292  0.1925 -0.2293 -0.3241
  736MPD2    C310929   0.648   0.752  12.273 -0.0617  0.8854  0.8164
  736MPD2    C410930   0.681   0.630  12.339 -0.8220 -0.8149 -0.3521
  736MPD2    C510931   0.592   0.569  12.431  0.4600  0.3088 -0.2241
  736MPD2     H10932   0.488   0.887  12.238  1.8982  0.1257 -0.8915
  736MPD2    H110933   0.775   0.581  12.318 -1.6623 -1.7482 -1.9447
  736MPD2    H210934   0.395   0.576  12.516  1.3662 -1.5898  1.2207
  736MPD2    H310935   0.610   0.470  12.471  5.8787  1.1475 -0.5483
  736MPD2     N10936   0.744   0.803  12.178  0.1002 -0.6695  0.1936
  736MPD2    H510937   0.825   0.748  12.152  0.0899 -0.3468 -0.5190
  736MPD2    N110938   0.311   0.795  12.408 -0.0561 -0.1641  0.1936
  736MPD2    H710939   0.252   0.727  12.455 -0.0374  0.9320  1.8137
  737TMC3    C110940   0.822   0.953  12.004 -0.6791 -0.4699  0.1541
  737TMC3    C210941   0.786   1.060  11.922 -0.8981  1.3134 -0.8938
  737TMC3    C310942   0.847   1.077  11.797 -0.1677  0.1601  0.1570
  737TMC3    C410943   0.919   0.864  11.964  0.2363 -0.1330  0.1230
  737TMC3    C510944   0.977   0.884  11.846  0.1563  0.5254 -0.3209
  737TMC3    C610945   0.947   0.992  11.758 -0.3793  0.1239 -0.1696
  737TMC3     C10946   0.730   0.926  12.116  0.2353  0.0554  0.3766
  737TMC3     O10947   0.643   1.010  12.127  0.5648 -0.1300  0.1754
  737TMC3     H10948   0.708   1.128  11.955 -3.0570 -0.5541 -2.0599
  737TMC3    H110949   0.935   0.773  12.021  4.1093  1.4612  1.5349
  737TMC3    H210950   1.005   1.023  11.672  0.2512 -2.1440 -0.5585
  737TMC3    C710951   1.081   0.789  11.812  0.0555 -0.5192 -0.6803
  737TMC3    C810952   0.852   1.208  11.750  0.0620  0.3660 -0.8256
  737TMC3    O110953   1.109   0.706  11.896  0.2595  0.5553 -0.4815
  737TMC3    O210954   0.824   1.297  11.828 -0.5310  0.2152  0.3300
  738MPD2     C10955   1.186   4.656  15.543  0.4811  0.2635  1.2546
  738MPD2    C110956   1.069   4.705  15.486 -1.0813  0.2251  0.5223
  738MPD2    C210957   1.076   0.090  15.414  0.7247  0.7591  0.1605
  738MPD2    C310958   1.195   0.161  15.399 -0.2004 -0.0241 -0.0923
  738MPD2    C410959   1.308   0.114  15.460 -0.1755  0.0457  0.4852
  738MPD2    C510960   1.305   4.727  15.525 -0.6353  0.3251 -0.3293
  738MPD2     H10961   0.977   0.128  15.391  0.6658  1.7962  2.1661
  738MPD2    H110962   1.404   0.163  15.450  0.2184 -0.6188  0.9797
  738MPD2    H210963   1.200   4.557  15.586 -3.3403 -0.2340  1.3345
  738MPD2    H310964   1.395   4.683  15.566  1.3768  3.0270 -1.9360
  738MPD2     N10965   1.200   0.277  15.317  0.4286 -0.2782 -0.1606
  738MPD2    H510966   1.282   0.334  15.330  1.2408 -1.6535  0.7874
  738MPD2    N110967   0.938   4.649  15.490 -0.5927  0.4449 -0.4937
  738MPD2    H710968   0.861   4.700  15.448 -2.2867 -1.9781 -0.3443
  739TMC3    C110969   1.102   0.462  15.210  0.2563  1.2749 -0.3299
  739TMC3    C210970   1.023   0.501  15.110 -0.1448  0.1894  0.4380
  739TMC3    C310971   1.046   0.632  15.062 -0.2008 -0.7874  0.3610
  739TMC3    C410972   1.180   0.544  15.284  0.0613  0.3072 -0.3641
  739TMC3    C510973   1.175   0.675  15.253 -0.1058  0.3132  0.0507
  739TMC3    C610974   1.115   0.724  15.140  0.3395 -0.1442  0.2671
  739TMC3     C10975   1.093   0.319  15.248  0.0783  0.2033  0.4521
  739TMC3     O10976   1.000   0.254  15.201  0.0092 -0.2064 -0.1628
  739TMC3     H10977   0.992   0.420  15.045  0.2724  0.3559  0.0251
  739TMC3    H110978   1.240   0.511  15.368  1.2285  0.7028 -1.0402
  739TMC3    H210979   1.120   0.829  15.114 -0.1346 -0.7209 -2.1725
  739TMC3    C710980   1.303   0.749  15.278 -0.0555  0.7264  1.0252
  739TMC3    C810981   1.058   0.656  14.921  0.2731  0.5256  0.8342
  739TMC3    O110982   1.322   0.863  15.318  0.2250 -0.1188  0.1616
  739TMC3    O210983   0.958   0.628  14.854  0.3696  0.3390  0.1561
  740TMC3    C110984   1.526   1.669  14.237 -0.3190 -0.2683  0.9538
  740TMC3    C210985   1.576   1.584  14.331  0.2170 -0.3101 -0.1279
  740TMC3    C310986   1.703   1.539  14.314 -0.6499 -0.1657 -0.0901
  740TMC3    C410987   1.600   1.711  14.131 -0.0210  0.3501 -0.0244
  740TMC3    C510988   1.732   1.680  14.121 -0.3359  0.1187  0.2823
  740TMC3    C610989   1.789   1.599  14.221 -0.0747  0.7299  0.5396
  740TMC3     C10990   1.396   1.737  14.262  0.1991 -0.3120  0.1094
  740TMC3     O10991   1.360   1.818  14.180 -0.1106 -0.5038  0.6173
  740TMC3     H10992   1.518   1.544  14.413 -0.0387 -0.0413 -0.1760
  740TMC3    H110993   1.561   1.781  14.057  0.5851 -1.3699 -1.9723
  740TMC3    H210994   1.892   1.566  14.217 -0.3392  0.2954 -2.6946
  740TMC3    C710995   1.818   1.716  14.008  0.2603 -0.6832  0.1680
  740TMC3    C810996   1.752   1.469  14.433  0.4298  1.2776 -0.3224
  740TMC3    O110997   1.938   1.721  14.016  0.4443 -0.8679  0.4217
  740TMC3    O210998   1.842   1.531  14.490  0.1418 -0.2511  1.0446
  741TMC3    C110999   1.064   1.116  14.524 -0.4367  0.1702 -0.1903
  741TMC3    C211000   0.977   1.016  14.484  0.3163 -0.6257  0.1395
  741TMC3    C311001   0.926   0.936  14.590  0.4460 -0.1918  0.0548
  741TMC3    C411002   1.101   1.122  14.661  0.0636 -0.5774 -0.4588
  741TMC3    C511003   1.036   1.046  14.753  0.3352 -0.4490 -0.2379
  741TMC3    C611004   0.942   0.959  14.720 -0.0828 -0.0233  0.2480
  741TMC3     C11005   1.080   1.238  14.457 -0.2610  0.4539  0.2392
  741TMC3     O11006   1.113   1.339  14.518  0.2555  0.4464 -0.2994
  741TMC3     H11007   0.936   0.996  14.386  1.6662 -0.4187 -0.4659
  741TMC3    H111008   1.182   1.190  14.687  0.6676 -1.7588  0.7050
  741TMC3    H211009   0.887   0.904  14.795 -1.6929 -1.3496 -1.9042
  741TMC3    C711010   1.056   1.064  14.894  0.1311  0.3260  0.1782
  741TMC3    C811011   0.819   0.853  14.542  0.3769 -0.0916 -0.1071
  741TMC3    O111012   1.009   0.972  14.961  0.2896 -0.1492  0.0430
  741TMC3    O211013   0.768   0.868  14.432 -0.2867  0.4429  0.2641
  742TMC3    C111014   0.742   3.821  15.500  0.1589  0.5210  0.7748
  742TMC3    C211015   0.639   3.829  15.410  0.1623  0.1007 -0.2514
  742TMC3    C311016   0.653   3.919  15.316  0.0800 -0.1042  0.3152
  742TMC3    C411017   0.831   3.925  15.514 -0.5549  0.5051  0.5827
  742TMC3    C511018   0.835   4.020  15.422  0.2768  0.4295 -0.1113
  742TMC3    C611019   0.751   4.019  15.318  0.4925  0.2475 -0.0906
  742TMC3     C11020   0.734   3.702  15.592 -0.0204 -0.1933 -0.0077
  742TMC3     O11021   0.622   3.654  15.621  0.2263 -0.4243  0.3705
  742TMC3     H11022   0.571   3.747  15.390 -1.4353  0.9727  1.6035
  742TMC3    H111023   0.895   3.934  15.601 -1.2841 -4.3484  1.6246
  742TMC3    H211024   0.763   4.088  15.235 -0.0102  1.1681  0.6000
  742TMC3    C711025   0.965   4.057  15.392  0.2775  0.0497  0.0261
  742TMC3    C811026   0.590   3.900  15.189 -0.0521  0.5248 -0.2662
  742TMC3    O111027   0.996   4.045  15.271  0.3593  0.4596 -0.4278
  742TMC3    O211028   0.596   3.790  15.132  0.0159 -0.1300  0.4397
  743MPD2     C11029   2.699   0.271   1.399 -0.2148 -0.0024 -0.8487
  743MPD2    C111030   2.808   0.257   1.311  0.1485  0.3039 -0.1369
  743MPD2    C211031   2.916   0.346   1.323 -0.1395 -0.2000  0.2260
  743MPD2    C311032   2.924   0.434   1.431  0.2825  0.3465 -0.0198
  743MPD2    C411033   2.825   0.426   1.525  0.5038  0.1385 -0.1290
  743MPD2    C511034   2.712   0.349   1.507  0.2106 -0.2826  0.4905
  743MPD2     H11035   3.000   0.346   1.255  1.1511 -0.8969  1.8377
  743MPD2    H111036   2.818   0.482   1.617  0.3750 -1.1798  0.6584
  743MPD2    H211037   2.614   0.203   1.394 -1.0024  0.7655  2.1053
  743MPD2    H311038   2.640   0.348   1.588  0.7912  0.6084  1.0146
  743MPD2     N11039   3.039   0.520   1.446 -0.3143  0.3978 -0.0653
  743MPD2    H511040   3.116   0.507   1.382 -0.3962  2.2528 -0.5300
  743MPD2    N111041   2.804   0.155   1.218 -0.0052  0.0225  1.0284
  743MPD2    H711042   2.729   0.087   1.216  0.4849 -0.5042  0.5376
  744TMC3    C111043   2.866   0.041   1.029 -0.4612 -0.2557  0.0288
  744TMC3    C211044   2.758   0.103   0.967  0.6188 -0.2618  1.3818
  744TMC3    C311045   2.762   0.135   0.838  0.7481  0.3335  0.6271
  744TMC3    C411046   2.975   0.010   0.954  0.4046 -0.7499  0.2575
  744TMC3    C511047   2.970   0.050   0.822 -0.8833 -0.4701  0.3667
  744TMC3    C611048   2.873   0.121   0.762  0.1507 -0.2762  0.3796
  744TMC3     C11049   2.911   0.113   1.151  0.4839 -0.0069  0.4761
  744TMC3     O11050   3.028   0.150   1.143  0.1109 -0.2903  0.2519
  744TMC3     H11051   2.681   0.157   1.020 -0.0781  0.7022 -0.6147
  744TMC3    H111052   3.051   4.681   0.996  0.3210 -1.8018 -1.2002
  744TMC3    H211053   2.885   0.171   0.667 -0.5349  2.5522  1.8106
  744TMC3    C711054   3.097   0.082   0.770 -0.7217  0.1087  0.3870
  744TMC3    C811055   2.658   0.219   0.775 -0.1744 -0.4264 -0.1519
  744TMC3    O111056   3.116   0.117   0.651  0.6629  0.1255  0.4032
  744TMC3    O211057   2.697   0.320   0.719  0.2757 -0.4775  0.0412
  745TMC3    C111058   1.421   3.740  13.870  0.2824 -0.0440  0.4183
  745TMC3    C211059   1.299   3.682  13.899 -0.3472 -0.2962 -0.3096
  745TMC3    C311060   1.210   3.673  13.797  0.1022  0.2738  0.0393
  745TMC3    C411061   1.447   3.775  13.742 -0.0762  0.2401  0.0355
  745TMC3    C511062   1.360   3.766  13.639  0.1890  1.0465  0.0912
  745TMC3    C611063   1.228   3.717  13.666 -0.7968 -0.8005  0.7942
  745TMC3     C11064   1.519   3.747  13.977  0.1845  0.1265  0.4496
  745TMC3     O11065   1.519   3.665  14.066 -0.4671 -0.1666  0.3690
  745TMC3     H11066   1.279   3.656  14.003  0.7922 -0.7438 -0.2068
  745TMC3    H111067   1.550   3.792  13.711  0.9424 -2.2236  2.0106
  745TMC3    H211068   1.154   3.724  13.587 -0.0101 -0.9873  0.0376
  745TMC3    C711069   1.399   3.814  13.506  0.7446 -0.5388  0.9207
  745TMC3    C811070   1.076   3.682  13.846  0.1570  0.9879 -0.2317
  745TMC3    O111071   1.327   3.774  13.415 -0.1728 -0.0643 -0.1036
  745TMC3    O211072   0.981   3.655  13.776 -0.5436  0.1407 -0.2085
  746TMC3    C111073   3.944   0.812  11.370 -0.1672  0.7425  0.0279
  746TMC3    C211074   4.075   0.783  11.377 -0.7585  0.8065  0.4385
  746TMC3    C311075   4.131   0.693  11.289 -0.0072 -0.0574 -0.1988
  746TMC3    C411076   3.862   0.757  11.277  0.1761 -0.1941  0.1446
  746TMC3    C511077   3.922   0.673  11.186 -0.0043 -0.7737  0.5338
  746TMC3    C611078   4.053   0.642  11.191  0.6989  0.3869 -0.5334
  746TMC3     C11079   3.886   0.902  11.466  0.3635 -0.9201 -0.2313
  746TMC3     O11080   3.942   0.914  11.576  0.2773  0.7997  0.0398
  746TMC3     H11081   4.133   0.827  11.458 -4.4765  2.3598  2.2754
  746TMC3    H111082   3.755   0.777  11.273  0.4490  0.8661 -2.0371
  746TMC3    H211083   4.096   0.582  11.113  0.0236 -0.7738 -0.0140
  746TMC3    C711084   3.831   0.596  11.100 -0.2615  0.3286 -0.8892
  746TMC3    C811085   4.264   0.741  11.249 -0.0205  0.3259  0.3780
  746TMC3    O111086   3.730   0.650  11.069 -0.1302  0.3892 -0.0561
  746TMC3    O211087   4.355   0.765  11.329  0.0823  0.1009  0.0784
  747TMC3    C111088   1.603   0.993  11.079 -0.1866 -0.5586  0.1316
  747TMC3    C211089   1.574   0.868  11.132  0.7370 -0.0144 -0.1519
  747TMC3    C311090   1.650   0.817  11.228  0.6033 -0.8359 -0.0692
  747TMC3    C411091   1.725   1.055  11.106  0.4629 -0.0073 -0.1087
  747TMC3    C511092   1.806   1.004  11.206  0.6152 -1.0998 -0.6524
  747TMC3    C611093   1.767   0.882  11.265 -0.7546  0.5927 -0.3119
  747TMC3     C11094   1.547   1.025  10.948 -0.2007  0.2458 -0.9177
  747TMC3     O11095   1.496   1.140  10.946  0.0282 -0.5534  0.0535
  747TMC3     H11096   1.491   0.807  11.098  0.7975  0.0312 -0.3816
  747TMC3    H111097   1.747   1.153  11.065  1.8913 -0.2018  0.1797
  747TMC3    H211098   1.821   0.849  11.354 -0.0916  1.5293 -0.3751
  747TMC3    C711099   1.921   1.086  11.249  0.8955 -0.1542 -0.2913
  747TMC3    C811100   1.606   0.730  11.328 -0.0012 -0.5542 -0.2506
  747TMC3    O111101   1.904   1.205  11.231 -0.4561  0.0398  0.2908
  747TMC3    O211102   1.675   0.644  11.378 -0.1613  0.3941  0.1872
  748MPD2     C11103   2.915   1.070   0.974 -0.1393  0.2902  0.0649
  748MPD2    C111104   2.884   1.201   1.007  0.0327 -0.0958 -0.9661
  748MPD2    C211105   2.970   1.309   0.980 -0.0118 -0.1939 -0.1037
  748MPD2    C311106   3.091   1.283   0.911 -0.9065 -0.4753  0.3525
  748MPD2    C411107   3.118   1.148   0.881  0.0963 -0.2948  0.0061
  748MPD2    C511108   3.033   1.043   0.913 -0.2987 -0.3948  0.3563
  748MPD2     H11109   2.947   1.412   1.005 -0.7697 -0.1585 -0.9623
  748MPD2    H111110   3.207   1.129   0.821  0.7885 -0.2377  1.0256
  748MPD2    H211111   2.853   0.987   1.003  0.9522 -0.6622 -0.3139
  748MPD2    H311112   3.054   0.942   0.881  0.8265  0.2211 -0.8953
  748MPD2     N11113   3.178   1.393   0.895  0.1006 -0.1398  0.4272
  748MPD2    H511114   3.146   1.486   0.921  1.3843  0.4636 -0.1310
  748MPD2    N111115   2.768   1.222   1.083  0.7550 -0.0995  0.1011
  748MPD2    H711116   2.714   1.141   1.113 -0.8482  0.5167 -1.0956
  749TMC3    C111117   3.379   1.506   0.885  0.2262  1.1378  0.3716
  749TMC3    C211118   3.453   1.485   0.996  0.1763  0.0216  1.1081
  749TMC3    C311119   3.488   1.601   1.066  0.3680  0.0047  0.6436
  749TMC3    C411120   3.329   1.627   0.842 -0.1704 -0.2777  0.1867
  749TMC3    C511121   3.378   1.734   0.907 -0.4453 -0.3471 -0.2670
  749TMC3    C611122   3.461   1.727   1.017  0.3547 -0.6675  0.2072
  749TMC3     C11123   3.308   1.383   0.861  0.6402 -0.3546  0.7388
  749TMC3     O11124   3.377   1.285   0.846  0.0891 -0.4498 -0.3374
  749TMC3     H11125   3.471   1.386   1.035 -0.1205 -1.1785 -1.7998
  749TMC3    H111126   3.266   1.632   0.753  2.7648 -1.1672 -1.9517
  749TMC3    H211127   3.467   1.819   1.074  1.7552 -1.6831  1.6949
  749TMC3    C711128   3.357   1.870   0.854 -0.1207 -0.3643  0.4962
  749TMC3    C811129   3.573   1.598   1.179 -0.5093  0.0864  0.3030
  749TMC3    O111130   3.422   1.964   0.895 -0.1572  0.2541  0.5247
  749TMC3    O211131   3.563   1.689   1.257 -0.7635 -0.0845  0.4838
  750MPD2     C11132   3.629   3.111  11.336 -0.1956  0.4570 -0.5170
  750MPD2    C111133   3.592   3.001  11.402  0.3207  0.4922  0.3265
  750MPD2    C211134   3.560   2.888  11.329 -0.1513  0.3127 -0.2809
  750MPD2    C311135   3.548   2.889  11.187 -1.0545  0.2173 -0.1986
  750MPD2    C411136   3.589   3.005  11.125 -0.8437  0.3087 -0.1976
  750MPD2    C511137   3.629   3.114  11.197 -0.1246 -0.3144 -0.6083
  750MPD2     H11138   3.544   2.793  11.378 -1.7983  0.3457 -0.7648
  750MPD2    H111139   3.598   3.015  11.017  0.1528  1.6047  0.0080
  750MPD2    H211140   3.649   3.204  11.387 -1.0705  0.4253 -0.1085
  750MPD2    H311141   3.661   3.207  11.151 -0.0065  2.3961  4.9785
  750MPD2     N11142   3.537   2.771  11.103  0.2246 -0.4307  0.2459
  750MPD2    H511143   3.548   2.776  11.002 -1.3017  1.2957  0.1593
  750MPD2    N111144   3.581   3.007  11.541 -0.1731 -0.2581  0.9770
  750MPD2    H711145   3.607   3.093  11.587 -0.6952 -0.2048  1.1678
  751TMC3    C111146   3.560   2.544  11.060  0.8228  0.3442 -0.2923
  751TMC3    C211147   3.489   2.434  11.081  0.0051 -0.1850  0.4175
  751TMC3    C311148   3.470   2.346  10.977  0.1849 -0.0193  0.5858
  751TMC3    C411149   3.612   2.572  10.940 -0.2316 -0.5842 -0.4833
  751TMC3    C511150   3.592   2.486  10.831  0.5784 -0.2578  0.1344
  751TMC3    C611151   3.517   2.371  10.850 -0.1081  0.5503  0.5087
  751TMC3     C11152   3.538   2.648  11.158 -0.0854  0.5676  0.7403
  751TMC3     O11153   3.509   2.611  11.271  0.2950 -0.1891  0.5877
  751TMC3     H11154   3.447   2.413  11.178 -2.9483  0.0031 -0.8171
  751TMC3    H111155   3.671   2.661  10.924  0.3050 -0.1922  3.8183
  751TMC3    H211156   3.476   2.323  10.762 -2.7301  2.5695  0.6507
  751TMC3    C711157   3.657   2.505  10.705  0.6970 -0.0087  0.6126
  751TMC3    C811158   3.378   2.237  10.987 -0.6062  0.7923  0.2882
  751TMC3    O111159   3.710   2.615  10.691 -0.2374 -0.3067 -0.5530
  751TMC3    O211160   3.344   2.178  10.886  0.5970  0.4277  0.5134
  752TMC3    C111161   2.729   2.650  16.890  0.5916  0.6309  0.2246
  752TMC3    C211162   2.619   2.644  16.978  1.0277 -0.1106  0.6295
  752TMC3    C311163   2.609   2.749  17.065  0.2082  0.5259  0.0609
  752TMC3    C411164   2.801   2.769  16.881  0.5915 -0.1837  0.5635
  752TMC3    C511165   2.776   2.872  16.965 -0.3962  0.0610 -0.5122
  752TMC3    C611166   2.671   2.871  17.055  0.1279  0.4352  0.2223
  752TMC3     C11167   2.728   2.575  16.767 -0.6877 -0.3043 -0.3433
  752TMC3     O11168   2.836   2.558  16.717 -0.1294 -0.3171  0.0437
  752TMC3     H11169   2.574   2.549  17.007 -0.6884  0.8468  1.1365
  752TMC3    H111170   2.888   2.776  16.817  0.5561 -2.3520  0.2871
  752TMC3    H211171   2.655   2.951  17.127 -0.2930  1.8389 -1.4284
  752TMC3    C711172   2.860   2.992  16.965 -0.1335  0.3125 -0.4905
  752TMC3    C811173   2.501   2.731  17.159 -0.1726 -0.0943 -0.1714
  752TMC3    O111174   2.855   3.063  17.065  0.0191 -0.3545  0.5385
  752TMC3    O211175   2.493   2.616  17.209 -0.1400 -0.2428  0.2384
  753TMC3    C111176   4.476   3.937  13.569  0.2264  0.7095  0.0384
  753TMC3    C211177   4.531   3.915  13.692  0.3554  0.0957  0.7875
  753TMC3    C311178   4.565   3.790  13.728  0.4238  0.1760  0.1452
  753TMC3    C411179   4.462   3.831  13.478  1.0701 -0.6085  0.5597
  753TMC3    C511180   4.509   3.708  13.509  0.5013 -0.4844 -0.0265
  753TMC3    C611181   4.543   3.686  13.641 -0.1579  0.5808 -0.5453
  753TMC3     C11182   4.459   4.072  13.520  0.2272 -0.0044 -0.0169
  753TMC3     O11183   4.356   4.112  13.462 -0.4937  0.4154  0.2321
  753TMC3     H11184   4.523   3.996  13.763  3.0434  0.9993  0.0585
  753TMC3    H111185   4.434   3.850  13.375  0.4109 -1.2211  0.6235
  753TMC3    H211186   4.588   3.589  13.663 -0.4201  0.3267 -1.1188
  753TMC3    C711187   4.557   3.625  13.402 -0.3450 -0.2477 -1.1105
  753TMC3    C811188   4.567   3.750  13.864 -0.4514 -0.8902  0.3266
  753TMC3    O111189   4.667   3.570  13.413  0.3280 -0.2737 -0.7727
  753TMC3    O211190   4.532   3.637  13.889  0.4401  0.4303 -0.3602
  754MPD2     C11191   3.618   2.721  13.209 -0.0933  0.5274  0.2750
  754MPD2    C111192   3.631   2.592  13.171  0.3494  0.5204 -0.2062
  754MPD2    C211193   3.515   2.527  13.117  0.8471 -0.0212 -0.4268
  754MPD2    C311194   3.400   2.593  13.102 -0.3015 -0.1558  0.0663
  754MPD2    C411195   3.399   2.725  13.137  0.1567 -0.2020 -0.1301
  754MPD2    C511196   3.502   2.789  13.196  0.3964 -0.3248 -0.4195
  754MPD2     H11197   3.521   2.421  13.098 -0.7895 -0.0858 -0.5628
  754MPD2    H111198   3.303   2.776  13.136 -0.5064 -1.4077  1.7510
  754MPD2    H211199   3.707   2.771  13.246 -0.1465  0.1722  0.8618
  754MPD2    H311200   3.493   2.892  13.231  0.5121 -0.2787 -0.5232
  754MPD2     N11201   3.282   2.531  13.056 -0.0373  0.2318  0.0806
  754MPD2    H511202   3.199   2.585  13.079 -0.4859 -0.0953 -0.7929
  754MPD2    N111203   3.751   2.530  13.196  0.1047 -0.9791 -0.3885
  754MPD2    H711204   3.829   2.595  13.200  0.1320 -1.0338 -0.0441
  755MPD2     C11205   2.545   2.866  13.219  0.1492 -0.7958 -0.1642
  755MPD2    C111206   2.494   2.769  13.141  0.1906  0.2241 -1.0124
  755MPD2    C211207   2.579   2.671  13.097 -0.4438  0.0754 -0.0432
  755MPD2    C311208   2.717   2.682  13.114 -0.1939  0.4880  0.4687
  755MPD2    C411209   2.768   2.780  13.189 -0.1407 -0.2469  0.3815
  755MPD2    C511210   2.681   2.872  13.247 -0.1063  0.3068 -0.0509
  755MPD2     H11211   2.538   2.587  13.043 -0.9271 -0.3156  0.9259
  755MPD2    H111212   2.874   2.780  13.213 -0.3161  0.1181  1.1530
  755MPD2    H211213   2.485   2.938  13.273  0.8369 -1.6616  1.7408
  755MPD2    H311214   2.724   2.954  13.303  1.6160 -0.6519  0.0529
  755MPD2     N11215   2.815   2.583  13.075 -0.4094  0.3538  0.4498
  755MPD2    H511216   2.908   2.607  13.107 -0.0319 -0.3275 -0.1233
  755MPD2    N111217   2.350   2.745  13.137 -0.2393  0.3164 -0.2549
  755MPD2    H711218   2.316   2.661  13.092 -2.2508  1.1109 -0.2139
  756MPD2     C11219   3.854   3.655   9.680 -0.1824  0.2597  0.4007
  756MPD2    C111220   3.757   3.622   9.769  0.5048  0.1796 -0.8882
  756MPD2    C211221   3.626   3.633   9.721  0.1968  0.4306  0.6153
  756MPD2    C311222   3.598   3.655   9.589 -0.1204  1.1986 -0.2318
  756MPD2    C411223   3.703   3.686   9.503 -0.1489 -0.2984  0.0741
  756MPD2    C511224   3.826   3.685   9.549 -0.5506 -0.4186 -0.4427
  756MPD2     H11225   3.548   3.612   9.793  0.4053 -0.8177  0.4826
  756MPD2    H111226   3.684   3.712   9.400  0.5179  1.8434  0.5061
  756MPD2    H211227   3.956   3.653   9.717 -0.6144 -0.5059  1.5184
  756MPD2    H311228   3.904   3.700   9.476  2.0899 -0.7627  2.3128
  756MPD2     N11229   3.462   3.652   9.550 -0.1795  0.0942 -0.6785
  756MPD2    H511230   3.394   3.630   9.623  0.4169 -2.0213 -0.7473
  756MPD2    N111231   3.774   3.597   9.910 -0.1848 -0.3927 -0.2338
  756MPD2    H711232   3.689   3.560   9.952 -0.7631  0.0263 -1.0196
  757MPD2     C11233   2.906   3.201   9.976 -0.9554  0.4923 -0.6308
  757MPD2    C111234   3.026   3.269  10.001 -0.1703 -0.1083  0.2636
  757MPD2    C211235   3.054   3.378   9.914  0.1972 -0.3853  1.0189
  757MPD2    C311236   2.991   3.399   9.795  0.5799  0.3632 -0.0844
  757MPD2    C411237   2.873   3.339   9.775 -0.4586 -0.7950  0.3940
  757MPD2    C511238   2.836   3.234   9.860  0.1548  1.0508  0.0292
  757MPD2     H11239   3.146   3.432   9.931 -1.2133  2.4516 -0.4443
  757MPD2    H111240   2.814   3.356   9.686 -2.1409  0.5562  1.7618
  757MPD2    H211241   2.878   3.124  10.048  1.0290  0.8968  0.5729
  757MPD2    H311242   2.738   3.190   9.848 -0.2320  1.1950  2.6547
  757MPD2     N11243   3.042   3.501   9.708  0.2760 -1.1421  0.1100
  757MPD2    H511244   3.135   3.535   9.730  0.6570 -1.9147 -0.3113
  757MPD2    N111245   3.111   3.238  10.111  0.3209  0.5637  0.2638
  757MPD2    H711246   3.073   3.165  10.170  0.3175  0.6680  0.3919
  758MPD2     C11247   3.521   2.508  15.778  0.4212 -0.2701 -0.6201
  758MPD2    C111248   3.598   2.452  15.870  0.3123 -0.7880  0.3057
  758MPD2    C211249   3.544   2.424  15.991 -0.4154  0.3543  0.0347
  758MPD2    C311250   3.421   2.472  16.031 -0.0344  0.6051 -0.2876
  758MPD2    C411251   3.354   2.557  15.944  0.4036  0.2792 -0.0011
  758MPD2    C511252   3.404   2.564  15.817 -0.3591 -0.2544 -0.0847
  758MPD2     H11253   3.602   2.362  16.058 -0.4243 -0.9880 -1.2105
  758MPD2    H111254   3.268   2.615  15.974 -1.2433 -2.3551  0.3384
  758MPD2    H211255   3.568   2.517  15.681 -1.2681  1.2594 -1.2887
  758MPD2    H311256   3.352   2.629  15.748  0.0175 -0.4447 -0.5470
  758MPD2     N11257   3.362   2.442  16.155 -0.1734  0.0713 -0.5709
  758MPD2    H511258   3.277   2.488  16.185 -0.1612 -0.0492 -0.3489
  758MPD2    N111259   3.735   2.420  15.832  0.0550  0.7718 -0.4926
  758MPD2    H711260   3.768   2.434  15.737 -1.5106 -1.4519 -1.3773
  759MPD2     C11261   2.791   0.183  10.647  0.6943  0.1517  0.0649
  759MPD2    C111262   2.866   0.121  10.544  0.0934  0.9041 -0.9249
  759MPD2    C211263   2.921   0.192  10.440  0.7211 -0.0588  0.0839
  759MPD2    C311264   2.918   0.336  10.445  0.2477 -0.7169  0.2090
  759MPD2    C411265   2.839   0.396  10.543  0.0009  0.5645  0.0363
  759MPD2    C511266   2.779   0.321  10.643  0.0621 -0.3173 -0.1281
  759MPD2     H11267   2.957   0.141  10.351  1.2319  0.1836  0.1453
  759MPD2    H111268   2.834   0.504  10.549 -2.3814  0.5195 -0.9979
  759MPD2    H211269   2.755   0.129  10.734 -1.8103  0.0957 -1.0225
  759MPD2    H311270   2.726   0.372  10.723  0.1318 -1.7836  0.8614
  759MPD2     N11271   2.968   0.408  10.334 -0.8131 -0.2738  0.0640
  759MPD2    H511272   3.007   0.346  10.264 -1.0549 -0.8907  0.4714
  759MPD2    N111273   2.871   4.720  10.536 -0.2968 -0.6394  0.2209
  759MPD2    H711274   2.900   4.680  10.447 -1.1898  1.1807 -0.8960
  760MPD2     C11275   1.640   2.909  12.169 -0.2892 -0.2489 -0.4189
  760MPD2    C111276   1.753   2.932  12.084 -0.2506 -0.1453 -0.3082
  760MPD2    C211277   1.855   2.837  12.069 -0.7497  0.4858  0.2797
  760MPD2    C311278   1.847   2.717  12.136  0.3572  0.2769 -0.7683
  760MPD2    C411279   1.738   2.697  12.213  0.1596  0.3927 -0.2383
  760MPD2    C511280   1.640   2.793  12.244  0.8848 -0.0481 -0.2958
  760MPD2     H11281   1.936   2.880  12.011  0.1641 -0.6632  0.7094
  760MPD2    H111282   1.723   2.598  12.253  3.3895  0.1009  0.2656
  760MPD2    H211283   1.564   2.984  12.185 -0.2180 -0.1256 -0.6521
  760MPD2    H311284   1.561   2.767  12.314  0.9883  1.5824  0.4335
  760MPD2     N11285   1.948   2.617  12.119  0.0823 -0.3512 -0.2788
  760MPD2    H511286   1.936   2.530  12.170 -1.1782  0.4279  0.7698
  760MPD2    N111287   1.788   3.054  12.024 -0.1615 -0.6327 -0.1436
  760MPD2    H711288   1.869   3.061  11.963 -1.4936  1.2730 -1.7176
  761MPD2     C11289   3.137   1.879  11.260  0.4391 -0.3118  0.2469
  761MPD2    C111290   3.196   1.873  11.131  0.3155  0.5191  0.2096
  761MPD2    C211291   3.253   1.989  11.079  0.7358  0.4513  0.2710
  761MPD2    C311292   3.266   2.100  11.163  0.1004 -0.2149 -0.0023
  761MPD2    C411293   3.210   2.102  11.288 -0.2752 -0.4258 -0.2959
  761MPD2    C511294   3.142   1.994  11.336  0.2557  0.0515  0.7330
  761MPD2     H11295   3.305   1.985  10.984  0.5583  2.7079  0.0682
  761MPD2    H111296   3.228   2.185  11.356 -0.4833  0.2749 -1.0916
  761MPD2    H211297   3.070   1.803  11.300  0.5497 -0.9695 -0.8044
  761MPD2    H311298   3.089   1.992  11.430 -1.6292 -1.1497 -0.3582
  761MPD2     N11299   3.348   2.207  11.116  0.4808  0.1965 -0.6550
  761MPD2    H511300   3.376   2.273  11.188  0.8214 -1.6717  0.9454
  761MPD2    N111301   3.199   1.748  11.068  0.1762  0.3124  0.2552
  761MPD2    H711302   3.155   1.674  11.122 -0.1751  0.6363  0.4074
  762MPD2     C11303   3.494   1.020  10.556 -0.4004  0.9959 -0.2025
  762MPD2    C111304   3.545   1.133  10.610 -0.4391 -0.4363 -0.2411
  762MPD2    C211305   3.684   1.163  10.588 -0.7584  0.4379 -0.2533
  762MPD2    C311306   3.766   1.072  10.525  0.3819  0.6266  0.1736
  762MPD2    C411307   3.709   0.951  10.476 -0.1903 -0.2144 -0.3504
  762MPD2    C511308   3.577   0.925  10.494  0.2620 -0.1886 -0.4486
  762MPD2     H11309   3.720   1.261  10.619  0.0468 -0.1938  0.8194
  762MPD2    H111310   3.754   0.879  10.409 -1.8974 -0.3593 -1.3481
  762MPD2    H211311   3.392   0.992  10.579  0.8508 -2.2111  1.4243
  762MPD2    H311312   3.530   0.832  10.464 -0.2418 -0.1631  0.2885
  762MPD2     N11313   3.902   1.112  10.500 -0.5370 -0.1230  0.0149
  762MPD2    H511314   3.919   1.210  10.520 -1.5990  0.0865 -0.1353
  762MPD2    N111315   3.453   1.210  10.693 -0.3452 -0.6473  0.0564
  762MPD2    H711316   3.361   1.170  10.709 -1.2701  1.8363  0.9742
  763MPD2     C11317   0.784   2.310  16.159 -0.4510  0.0962  0.0877
  763MPD2    C111318   0.652   2.347  16.149  0.4961  0.7923  0.0869
  763MPD2    C211319   0.606   2.475  16.194 -0.5594  0.7467  0.0101
  763MPD2    C311320   0.701   2.565  16.244 -0.1869  0.0146  0.3530
  763MPD2    C411321   0.837   2.525  16.246  0.3505  0.0321 -0.1523
  763MPD2    C511322   0.875   2.394  16.218  0.0742  0.4963  0.0651
  763MPD2     H11323   0.501   2.497  16.206 -0.1564  2.9541 -0.6320
  763MPD2    H111324   0.913   2.595  16.278  0.0179  1.1864 -1.8984
  763MPD2    H211325   0.812   2.209  16.133 -2.3358 -0.5906  0.7179
  763MPD2    H311326   0.982   2.381  16.208 -0.1979 -2.8593  1.3426
  763MPD2     N11327   0.676   2.701  16.273 -0.0658  0.1989 -0.3654
  763MPD2    H511328   0.759   2.756  16.292  0.3124 -1.3639  2.3788
  763MPD2    N111329   0.550   2.266  16.092 -0.0821  0.4978  0.1045
  763MPD2    H711330   0.457   2.305  16.083  0.1856  0.9414 -0.7958
  764MPD2     C11331   3.131   3.906   0.030  0.8259  0.4811 -0.1444
  764MPD2    C111332   3.088   3.790  17.699  0.1515  0.3544 -0.3858
  764MPD2    C211333   3.059   3.678   0.040  0.7947  0.7021 -0.1959
  764MPD2    C311334   3.068   3.682   0.178  0.3418 -0.1503  0.3550
  764MPD2    C411335   3.117   3.792   0.247 -0.1512 -0.8200 -0.9250
  764MPD2    C511336   3.150   3.902   0.165  0.0056 -0.4226  0.8001
  764MPD2     H11337   3.026   3.587  17.731 -0.0843  0.3592  1.0590
  764MPD2    H111338   3.135   3.797   0.354  1.8939  2.4020 -1.4287
  764MPD2    H211339   3.147   4.000  17.717  2.3160  0.5754  0.4797
  764MPD2    H311340   3.209   3.977   0.215 -0.4827  1.9089 -2.1466
  764MPD2     N11341   3.027   3.568   0.254  0.3432  0.2881 -0.4530
  764MPD2    H511342   2.986   3.492   0.199  0.8837 -0.8625  0.7311
  764MPD2    N111343   3.068   3.783  17.558  0.0632 -0.1715 -0.1909
  764MPD2    H711344   3.047   3.695  17.512 -0.9640 -0.8106  1.5194
  765MPD2     C11345   2.555   1.851  15.804  0.1276  0.1473  0.6681
  765MPD2    C111346   2.668   1.909  15.737  0.8874  0.0759 -0.2036
  765MPD2    C211347   2.792   1.847  15.741  1.0321  0.3193 -0.3701
  765MPD2    C311348   2.810   1.725  15.800 -0.2885  0.5920 -0.0169
  765MPD2    C411349   2.699   1.665  15.855  0.3789 -0.5330 -0.1489
  765MPD2    C511350   2.575   1.728  15.860  0.4578  0.0132  0.2191
  765MPD2     H11351   2.872   1.891  15.682  0.2926  0.7433 -1.0639
  765MPD2    H111352   2.703   1.567  15.900  0.4547 -0.7143 -0.5584
  765MPD2    H211353   2.459   1.901  15.800 -1.4192 -2.6715  2.4971
  765MPD2    H311354   2.492   1.678  15.907 -0.4630  1.4954  0.1887
  765MPD2     N11355   2.934   1.671  15.807  0.7029 -0.0422  0.3188
  765MPD2    H511356   3.012   1.718  15.764 -0.6305 -0.2688 -2.3440
  765MPD2    N111357   2.647   2.021  15.655 -0.1945 -0.5296 -0.3952
  765MPD2    H711358   2.548   2.037  15.640 -0.5462 -0.4397  1.9073
  766MPD2     C11359   2.295   1.906  15.121  0.2158 -0.3297 -0.3231
  766MPD2    C111360   2.430   1.921  15.148 -1.0956  0.0521 -0.2827
  766MPD2    C211361   2.515   1.851  15.068 -0.0488  0.0495 -0.2596
  766MPD2    C311362   2.469   1.770  14.965  0.3217  0.1564 -0.3747
  766MPD2    C411363   2.332   1.761  14.950  1.0551 -0.3718 -0.0600
  766MPD2    C511364   2.244   1.816  15.030 -0.1958  0.7633  0.8733
  766MPD2     H11365   2.621   1.869  15.074  0.1436 -1.5715  1.2271
  766MPD2    H111366   2.293   1.708  14.863 -0.9494 -0.1391  0.7058
  766MPD2    H211367   2.225   1.970  15.174  0.4096 -2.6670  2.7328
  766MPD2    H311368   2.139   1.807  15.007  0.3537 -1.9262 -0.5348
  766MPD2     N11369   2.554   1.709  14.859  0.3122  0.5934  0.8393
  766MPD2    H511370   2.508   1.669  14.777  1.3185 -1.6964  1.3656
  766MPD2    N111371   2.487   2.031  15.218 -0.0216  0.2855 -0.5303
  766MPD2    H711372   2.588   2.039  15.221  0.0286 -0.5874 -0.0712
  767MPD2     C11373   2.190   1.994  14.764 -0.5525  0.1946 -0.0973
  767MPD2    C111374   2.319   2.003  14.723  0.8039  0.0819 -0.2813
  767MPD2    C211375   2.356   1.926  14.609 -0.1371  0.2132  0.0621
  767MPD2    C311376   2.260   1.872  14.525  0.4131  0.4485 -0.0464
  767MPD2    C411377   2.130   1.869  14.567 -0.6021  0.4157 -0.3969
  767MPD2    C511378   2.097   1.921  14.690 -0.3310  0.5470 -1.0879
  767MPD2     H11379   2.456   1.924  14.569 -0.1754 -2.1439  0.0491
  767MPD2    H111380   2.051   1.813  14.519 -0.2140 -0.9005  0.5097
  767MPD2    H211381   2.158   2.039  14.857 -1.0048 -1.1253  0.3965
  767MPD2    H311382   1.993   1.912  14.721  1.1952 -2.2794  3.1181
  767MPD2     N11383   2.304   1.820  14.402 -0.2497  0.5174  0.4082
  767MPD2    H511384   2.405   1.810  14.391 -0.3584 -1.0932  0.9010
  767MPD2    N111385   2.415   2.076  14.793  0.3633  0.1399 -0.2246
  767MPD2    H711386   2.392   2.132  14.874 -1.2290  0.8594 -1.1678
  768MPD2     C11387   3.956   0.233  10.457  0.0390  0.3700  0.0722
  768MPD2    C111388   3.878   0.164  10.550  0.5997 -0.0918  0.9490
  768MPD2    C211389   3.936   0.126  10.670  0.9055 -0.2836  0.2040
  768MPD2    C311390   4.061   0.173  10.704  0.7085 -0.4079  0.1472
  768MPD2    C411391   4.132   0.259  10.621 -0.7207 -0.1224 -0.0560
  768MPD2    C511392   4.086   0.268  10.489  0.6061 -0.7629 -0.7987
  768MPD2     H11393   3.876   0.073  10.743  2.1537 -1.2295  0.5477
  768MPD2    H111394   4.231   0.295  10.647 -0.9232  0.1628  0.3202
  768MPD2    H211395   3.920   0.265  10.360  2.8469  2.7025 -0.1855
  768MPD2    H311396   4.146   0.327  10.421 -0.3799 -0.1082 -1.0913
  768MPD2     N11397   4.108   0.162  10.838 -0.4160  0.3810 -0.1005
  768MPD2    H511398   4.185   0.223  10.865 -0.4890  0.3346  0.2202
  768MPD2    N111399   3.743   0.135  10.524  0.0724  0.1246  0.0962
  768MPD2    H711400   3.691   0.086  10.597  0.2569 -0.2740 -0.0411
  769MPD2     C11401   4.560   2.900  14.915 -0.3896 -0.6181  0.0435
  769MPD2    C111402   4.452   2.978  14.931  0.3460 -0.0865 -0.1761
  769MPD2    C211403   4.430   3.029  15.062 -0.1645 -0.4427  0.0558
  769MPD2    C311404   4.519   2.991  15.162 -0.5746  0.4913 -0.4576
  769MPD2    C411405   4.629   2.903  15.136  0.6960  1.1603 -0.4253
  769MPD2    C511406   4.650   2.857  15.013 -0.4649 -0.3337  0.7546
  769MPD2     H11407   4.348   3.093  15.093 -0.2457 -0.2310 -0.5979
  769MPD2    H111408   4.691   2.868  15.217 -1.7892 -2.7205 -0.1892
  769MPD2    H211409   4.578   2.851  14.819  1.1841 -1.4253  0.7509
  769MPD2    H311410   0.003   2.799  14.988  0.5643  1.3255  0.5595
  769MPD2     N11411   4.490   3.022  15.292 -0.1717  0.9893  0.1940
  769MPD2    H511412   4.395   3.057  15.305 -1.5623 -2.7819  0.0667
  769MPD2    N111413   4.363   2.998  14.821 -0.5120 -0.5508  0.5446
  769MPD2    H711414   4.382   2.954  14.732  0.7492 -3.0270  2.0398
  770MPD2     C11415   3.570   2.640  14.886 -0.3127 -0.0802  0.1985
  770MPD2    C111416   3.677   2.600  14.813 -0.5012  0.9485  0.2489
  770MPD2    C211417   3.747   2.690  14.734  0.3588 -0.3638  0.3373
  770MPD2    C311418   3.729   2.824  14.754 -0.3709 -0.1727  0.0676
  770MPD2    C411419   3.629   2.861  14.846  0.7163 -0.6312  1.0252
  770MPD2    C511420   3.536   2.776  14.900  0.3461 -0.6087  0.5179
  770MPD2     H11421   3.820   2.661  14.659 -1.1049 -1.9994 -0.4647
  770MPD2    H111422   3.610   2.965  14.870 -0.4990 -0.9176  1.2970
  770MPD2    H211423   3.511   2.569  14.944 -1.7671  0.3456 -0.7405
  770MPD2    H311424   3.457   2.815  14.963 -0.8754  0.8180 -1.9201
  770MPD2     N11425   3.815   2.913  14.692 -0.3949  0.7426  0.0546
  770MPD2    H511426   3.882   2.878  14.623 -1.2780  0.6347 -0.7530
  770MPD2    N111427   3.696   2.461  14.816 -0.0151  0.6287  0.3218
  770MPD2    H711428   3.626   2.403  14.861  0.2164 -0.0941 -0.2410
  771MPD2     C11429   0.155   0.659  13.783 -0.0189 -0.4308  0.0958
  771MPD2    C111430   0.097   0.781  13.761  1.0507  0.6796  0.1552
  771MPD2    C211431   4.710   0.788  13.699 -0.3801 -0.1320 -0.1030
  771MPD2    C311432   4.645   0.678  13.654 -0.0182 -0.1084 -0.2779
  771MPD2    C411433   4.706   0.550  13.673  0.4567 -0.0328  0.0360
  771MPD2    C511434   0.085   0.545  13.741 -0.2106 -0.2581  0.3670
  771MPD2     H11435   4.662   0.883  13.679  1.2391  1.0127  1.4434
  771MPD2    H111436   4.666   0.453  13.647  0.1729  0.0818  0.0382
  771MPD2    H211437   0.250   0.653  13.834  0.7126  0.3830 -1.1918
  771MPD2    H311438   0.129   0.450  13.771 -2.2163 -1.9379 -1.9355
  771MPD2     N11439   4.529   0.685  13.577  0.5180 -0.0802 -0.0321
  771MPD2    H511440   4.504   0.779  13.548 -3.0141 -1.4783 -1.4618
  771MPD2    N111441   0.157   0.905  13.790  0.4957 -0.4465 -0.6455
  771MPD2    H711442   0.101   0.988  13.771  3.7526  2.1966  1.2185
  772MPD2     C11443   4.692   1.557  13.945  0.4569 -0.2337 -0.7134
  772MPD2    C111444   4.667   1.442  13.875 -0.5116 -0.1546 -0.2637
  772MPD2    C211445   4.536   1.401  13.857  0.2740  0.0730 -0.8890
  772MPD2    C311446   4.427   1.480  13.895 -0.3461  0.5679 -0.4311
  772MPD2    C411447   4.456   1.599  13.957 -0.3051 -0.1754  0.7270
  772MPD2    C511448   4.586   1.635  13.989  0.2395 -0.5940  0.4154
  772MPD2     H11449   4.522   1.303  13.811  0.2827 -1.3340  2.1034
  772MPD2    H111450   4.373   1.656  13.997 -0.4627  0.1813 -0.1293
  772MPD2    H211451   0.053   1.604  13.963  0.2472  1.3237 -3.5279
  772MPD2    H311452   4.608   1.724  14.047 -0.4044  0.3278 -0.7576
  772MPD2     N11453   4.291   1.443  13.878  0.0642  0.2399  0.5000
  772MPD2    H511454   4.216   1.493  13.924  0.2712  1.6800 -0.7405
  772MPD2    N111455   0.043   1.361  13.831 -0.4610 -0.8853 -0.2312
  772MPD2    H711456   0.016   1.271  13.794  0.3219 -1.7874  1.4089
  773MPD2     C11457   3.598   1.802   0.597 -0.7831  0.0427  0.4313
  773MPD2    C111458   3.579   1.770   0.466  0.0434  0.3863 -0.9383
  773MPD2    C211459   3.597   1.644   0.422 -0.3467  0.0239 -0.2194
  773MPD2    C311460   3.652   1.545   0.502 -0.4860 -0.1705 -0.0175
  773MPD2    C411461   3.664   1.572   0.634  0.4908 -0.2529  0.0033
  773MPD2    C511462   3.634   1.696   0.678  0.5392  0.2109 -0.0666
  773MPD2     H11463   3.586   1.622   0.317 -2.3087  1.0184 -0.2225
  773MPD2    H111464   3.713   1.507   0.706  1.7891  1.2065  0.4476
  773MPD2    H211465   3.583   1.899   0.642 -0.0364  0.7551 -0.8514
  773MPD2    H311466   3.665   1.710   0.781 -1.1748 -0.2668  0.5194
  773MPD2     N11467   3.693   1.425   0.438 -0.7826  0.2222 -0.0474
  773MPD2    H511468   3.699   1.427   0.336 -0.8504 -2.2573 -0.0985
  773MPD2    N111469   3.544   1.865   0.374 -0.2102  0.2412  0.1397
  773MPD2    H711470   3.533   1.831   0.279 -2.5807 -0.4352  0.6697
  774MPD2     C11471   3.485   1.434  13.161 -0.2506 -0.0665  0.6435
  774MPD2    C111472   3.394   1.500  13.232 -0.1014  0.3416  0.3991
  774MPD2    C211473   3.409   1.633  13.251 -0.5437  0.5919 -0.2899
  774MPD2    C311474   3.504   1.703  13.184 -0.5131 -0.0542  0.4807
  774MPD2    C411475   3.592   1.630  13.110  0.2189  0.4972 -0.1566
  774MPD2    C511476   3.588   1.491  13.096 -0.2956  0.0030  0.3030
  774MPD2     H11477   3.334   1.684  13.311  0.3041  1.7416 -0.1964
  774MPD2    H111478   3.675   1.681  13.061  0.5655  2.0661  2.0649
  774MPD2    H211479   3.483   1.326  13.155 -2.2998 -0.1475  2.7581
  774MPD2    H311480   3.661   1.433  13.041  0.5831  0.6784  0.7619
  774MPD2     N11481   3.511   1.842  13.204  0.2490  0.2024  0.0540
  774MPD2    H511482   3.441   1.871  13.272  0.6726  0.1020  0.5356
  774MPD2    N111483   3.280   1.422  13.272  0.3581 -0.4137 -0.1115
  774MPD2    H711484   3.283   1.323  13.254 -0.4800 -0.8763  2.3295
  775MPD2     C11485   4.455   2.832  15.787 -0.1048  0.2411 -0.9083
  775MPD2    C111486   4.452   2.931  15.876  0.1688 -0.2106 -0.1178
  775MPD2    C211487   4.551   3.024  15.883  0.3396 -0.7400 -0.2117
  775MPD2    C311488   4.663   3.005  15.793  0.0689  0.1317  0.2910
  775MPD2    C411489   4.664   2.899  15.706  0.2304  0.3296  0.6615
  775MPD2    C511490   4.552   2.812  15.698 -0.7569  0.3608  0.3109
  775MPD2     H11491   4.545   3.107  15.952 -0.0864 -0.4404 -0.6037
  775MPD2    H111492   0.011   2.873  15.641 -0.9975 -1.2461 -0.2586
  775MPD2    H211493   4.370   2.765  15.790  0.1574 -0.1637 -2.5698
  775MPD2    H311494   4.548   2.732  15.625  1.2070  0.0439  0.5353
  775MPD2     N11495   0.045   3.088  15.781  0.1107 -0.3574 -0.1889
  775MPD2    H511496   0.115   3.062  15.712 -0.5188  0.8109 -1.2621
  775MPD2    N111497   4.337   2.935  15.956  0.5485  0.3580  0.6895
  775MPD2    H711498   4.265   2.864  15.941  0.2310  0.7805  0.1896
  776MPD2     C11499   2.999   3.315  11.946  0.4384 -0.1668 -1.3482
  776MPD2    C111500   3.134   3.341  11.931  0.8615  0.4005 -0.3927
  776MPD2    C211501   3.175   3.469  11.905  0.0821  0.0181 -0.1531
  776MPD2    C311502   3.082   3.570  11.878  0.3270 -0.0604 -0.0804
  776MPD2    C411503   2.943   3.538  11.889  0.3741 -0.4423  0.0427
  776MPD2    C511504   2.903   3.415  11.929  0.3310  0.3948 -0.3089
  776MPD2     H11505   3.281   3.493  11.907  0.2731 -0.7446 -1.0156
  776MPD2    H111506   2.869   3.608  11.852  1.6390  0.1387 -1.3853
  776MPD2    H211507   2.962   3.216  11.969  0.3417 -0.0265 -0.8961
  776MPD2    H311508   2.796   3.395  11.921  0.0300  2.9224 -2.5931
  776MPD2     N11509   3.110   3.696  11.831  0.3349  0.1191  0.3498
  776MPD2    H511510   3.030   3.756  11.810  0.4444 -0.2853 -1.2495
  776MPD2    N111511   3.228   3.230  11.938  0.3497 -0.0688 -0.4654
  776MPD2    H711512   3.199   3.134  11.952  2.0823 -0.3965  0.7942
  777MPD2     C11513   4.302   0.691   0.788 -0.7845 -0.0706  0.4236
  777MPD2    C111514   4.174   0.668   0.835 -0.0804 -0.3300 -0.4598
  777MPD2    C211515   4.077   0.622   0.750  0.9178 -0.1493 -0.3631
  777MPD2    C311516   4.100   0.613   0.617  0.1375  0.4729  0.2992
  777MPD2    C411517   4.221   0.645   0.562 -0.1451 -0.2226  0.3539
  777MPD2    C511518   4.315   0.688   0.652  0.0374 -0.4652  0.2925
  777MPD2     H11519   3.973   0.612   0.779  0.7720  0.3379 -0.7165
  777MPD2    H111520   4.231   0.648   0.454  1.6130 -2.4701  0.4664
  777MPD2    H211521   4.388   0.726   0.843  0.7923 -2.1451 -0.7109
  777MPD2    H311522   4.411   0.728   0.621 -1.1999  1.5571 -0.9443
  777MPD2     N11523   3.994   0.551   0.552  0.2377  0.6498  0.5132
  777MPD2    H511524   3.907   0.545   0.604 -0.5546 -0.9679 -0.9935
  777MPD2    N111525   4.155   0.701   0.975 -0.1622 -0.4094  0.2766
  777MPD2    H711526   4.235   0.743   1.020  0.4326  0.1181 -1.2796
  778MPD2     C11527   0.433   1.481  15.087 -0.0400 -0.0069 -0.5059
  778MPD2    C111528   0.424   1.374  15.008 -0.5079  0.1926  0.4311
  778MPD2    C211529   0.444   1.399  14.874 -0.6312  0.0074  0.9744
  778MPD2    C311530   0.494   1.520  14.827 -0.7477 -0.1284  0.0225
  778MPD2    C411531   0.512   1.625  14.914 -0.2064 -0.0572  0.0505
  778MPD2    C511532   0.481   1.598  15.041 -0.5006 -0.2817 -0.1578
  778MPD2     H11533   0.419   1.312  14.814  1.4130 -0.1036  0.2654
  778MPD2    H111534   0.548   1.724  14.889 -0.8392  0.1883  0.1157
  778MPD2    H211535   0.417   1.486  15.194 -2.0028  0.4702 -0.8220
  778MPD2    H311536   0.505   1.663  15.124  1.5603  0.3240 -1.2427
  778MPD2     N11537   0.516   1.535  14.691  0.1345 -0.7052 -0.4513
  778MPD2    H511538   0.511   1.450  14.636  2.1161  0.7310 -2.8855
  778MPD2    N111539   0.393   1.244  15.050 -0.1304 -0.1071  0.1300
  778MPD2    H711540   0.381   1.172  14.980  0.4827  0.0911 -0.1788
  779MPD2     C11541   4.561   0.035  14.502  0.9875 -0.0366 -0.5306
  779MPD2    C111542   4.681   0.003  14.444  0.0660 -0.3552  0.1479
  779MPD2    C211543   0.008   0.098  14.365  0.7585  0.1014 -0.6916
  779MPD2    C311544   4.687   0.222  14.340 -0.3413  0.2646 -0.5521
  779MPD2    C411545   4.562   0.252  14.391 -0.8774  0.2584  0.3997
  779MPD2    C511546   4.513   0.161  14.486 -0.1685  0.4900  0.1400
  779MPD2     H11547   0.101   0.069  14.317  1.1955 -1.9065  1.3300
  779MPD2    H111548   4.510   0.347  14.383 -1.5520 -0.2618 -1.4404
  779MPD2    H211549   4.512   4.696  14.563  0.7459  1.8800  1.5950
  779MPD2    H311550   4.425   0.192  14.541 -1.1669 -0.2695 -1.0295
  779MPD2     N11551   0.023   0.310  14.252 -0.5820  0.3688 -0.2842
  779MPD2    H511552   0.120   0.285  14.239 -1.1853 -0.8356 -2.5377
  779MPD2    N111553   0.017   4.615  14.462 -0.5072 -0.3308 -0.2248
  779MPD2    H711554   0.084   4.590  14.389 -0.7548 -0.3226 -0.4551
  780MPD2     C11555   4.177   4.556   1.136  0.1569  0.3151 -0.4715
  780MPD2    C111556   4.124   4.495   1.027 -0.2606 -0.4480 -0.1151
  780MPD2    C211557   4.160   4.550   0.899 -0.6205  0.7248 -0.6750
  780MPD2    C311558   4.264   4.635   0.884 -0.1650 -0.3092 -0.0460
  780MPD2    C411559   4.314   4.687   1.003  0.2188  0.6329 -0.0989
  780MPD2    C511560   4.268   4.662   1.124  0.2512  0.2011 -0.2897
  780MPD2     H11561   4.128   4.508   0.804  0.2160 -1.5661  0.0571
  780MPD2    H111562   4.388   0.032   1.000  1.1655 -0.1901  1.3104
  780MPD2    H211563   4.144   4.527   1.235  0.3398  0.7802 -0.2756
  780MPD2    H311564   4.289   4.724   1.211  1.0701 -2.1838  1.2265
  780MPD2     N11565   4.328   4.651   0.757  0.2341 -0.1483 -0.4804
  780MPD2    H511566   4.299   4.597   0.676 -1.1210  2.5542 -1.7708
  780MPD2    N111567   4.040   4.386   1.041  0.0841  0.3971 -0.4122
  780MPD2    H711568   4.010   4.362   1.135 -0.8984  0.8308 -0.6263
  781MPD2     C11569   1.541   1.797  11.663 -0.0134  0.3105 -0.0353
  781MPD2    C111570   1.600   1.772  11.791  0.4432 -0.9938 -0.1074
  781MPD2    C211571   1.736   1.742  11.789 -0.2249  0.4747 -0.3600
  781MPD2    C311572   1.817   1.751  11.672 -0.3347 -0.7104  0.5085
  781MPD2    C411573   1.753   1.792  11.558  0.5503 -0.3183  0.6052
  781MPD2    C511574   1.620   1.805  11.555  0.3054 -0.6539  0.6852
  781MPD2     H11575   1.786   1.694  11.872  0.4358  1.7109 -0.0413
  781MPD2    H111576   1.818   1.800  11.472 -1.4271 -1.4010 -0.9811
  781MPD2    H211577   1.434   1.796  11.645  0.0163  0.7981 -0.2213
  781MPD2    H311578   1.572   1.821  11.459  1.3774 -0.6892  0.1418
  781MPD2     N11579   1.952   1.712  11.669  0.1665 -0.9956  0.5485
  781MPD2    H511580   1.996   1.685  11.582  1.7089 -1.3745  1.4651
  781MPD2    N111581   1.532   1.750  11.912  0.1328 -0.6326 -0.3808
  781MPD2    H711582   1.594   1.724  11.988 -0.3624 -0.1786  0.1864
  782MPD2     C11583   4.283   3.027  10.903 -0.4593 -0.3759 -0.0122
  782MPD2    C111584   4.402   2.968  10.853 -0.0236 -0.1510  0.1396
  782MPD2    C211585   4.498   2.929  10.943 -0.0513  0.1983 -0.0801
  782MPD2    C311586   4.497   2.972  11.073 -0.2928  0.1505  1.1148
  782MPD2    C411587   4.380   3.028  11.122 -0.6258 -0.0682 -0.3324
  782MPD2    C511588   4.279   3.056  11.036 -0.5657 -0.1302 -0.0656
  782MPD2     H11589   4.583   2.875  10.903  0.1151  1.6168 -1.6666
  782MPD2    H111590   4.368   3.062  11.224  0.3294  0.1582 -0.2908
  782MPD2    H211591   4.195   3.062  10.850 -0.8740 -0.4432  0.6293
  782MPD2    H311592   4.185   3.089  11.077  0.4217 -0.4196  2.4246
  782MPD2     N11593   4.611   2.946  11.156 -0.3596 -0.4909 -0.2001
  782MPD2    H511594   4.681   2.887  11.113  1.1886  0.5159  0.9009
  782MPD2    N111595   4.408   2.912  10.722 -0.3761  0.0706 -0.1826
  782MPD2    H711596   4.495   2.861  10.705 -0.3156  0.4292 -0.9457
  783MPD2     C11597   3.766   2.238  10.492 -0.3196 -0.5147 -0.1241
  783MPD2    C111598   3.757   2.366  10.529  0.0656  0.5485 -0.0770
  783MPD2    C211599   3.841   2.458  10.471 -0.5001  0.2062 -0.2902
  783MPD2    C311600   3.942   2.409  10.390 -0.3378 -0.1558  0.9742
  783MPD2    C411601   3.961   2.278  10.359  0.2140 -0.6668 -0.0171
  783MPD2    C511602   3.869   2.193  10.405 -0.2382 -0.4529 -0.0801
  783MPD2     H11603   3.833   2.563  10.498 -0.8403 -0.0597  0.6184
  783MPD2    H111604   4.042   2.244  10.296  1.2399 -1.8154  1.9229
  783MPD2    H211605   3.701   2.164  10.537 -0.9128  2.0853  3.2922
  783MPD2    H311606   3.879   2.088  10.382  0.2016 -0.6158  0.8655
  783MPD2     N11607   4.046   2.498  10.354 -0.7072  0.2399 -0.4125
  783MPD2    H511608   4.126   2.452  10.312  0.6801  0.7233  1.7023
  783MPD2    N111609   3.670   2.389  10.631  0.6128 -0.1048  0.2477
  783MPD2    H711610   3.617   2.312  10.671  0.4719  0.9385  2.0185
  784MPD2     C11611   1.649   2.695   0.465 -0.2669  0.3619 -0.3200
  784MPD2    C111612   1.628   2.780   0.568 -0.5254 -0.6795 -0.2548
  784MPD2    C211613   1.514   2.860   0.583  0.4389  0.3203  0.3613
  784MPD2    C311614   1.412   2.841   0.485 -0.8712  0.2658  0.8386
  784MPD2    C411615   1.445   2.758   0.376 -0.1199  0.1694 -0.1818
  784MPD2    C511616   1.557   2.687   0.366  0.1823  0.5777  0.1957
  784MPD2     H11617   1.484   2.917   0.670 -3.3475  0.0341 -0.7826
  784MPD2    H111618   1.373   2.755   0.296 -2.6211  2.8471  1.9691
  784MPD2    H211619   1.743   2.644   0.449 -1.7638 -1.8682 -2.0033
  784MPD2    H311620   1.580   2.630   0.277 -1.5079  0.3697 -0.1123
  784MPD2     N11621   1.286   2.901   0.509 -0.4036 -0.0330 -0.1452
  784MPD2    H511622   1.286   2.964   0.589 -3.0571  0.3499 -0.4464
  784MPD2    N111623   1.724   2.784   0.666  0.8160 -0.3962  0.3452
  784MPD2    H711624   1.702   2.855   0.735 -0.0812  1.4642 -1.8422
  785MPD2     C11625   2.553   1.043  10.726 -0.2272  0.1873 -0.0766
  785MPD2    C111626   2.453   1.092  10.641  0.4635  0.7423 -0.5038
  785MPD2    C211627   2.485   1.092  10.503  0.3999 -0.1060  0.2443
  785MPD2    C311628   2.608   1.055  10.456 -0.4589  0.2609 -0.2949
  785MPD2    C411629   2.713   1.014  10.543  0.4749  0.8918 -0.4708
  785MPD2    C511630   2.682   1.013  10.681 -0.1834  0.6741  0.8391
  785MPD2     H11631   2.412   1.117  10.426  0.0236  0.1591  0.6913
  785MPD2    H111632   2.804   0.977  10.497 -0.1551 -1.5603  0.2428
  785MPD2    H211633   2.535   1.034  10.833 -3.3444 -1.1121 -0.7176
  785MPD2    H311634   2.756   0.975  10.750 -1.5974 -0.1224  1.9079
  785MPD2     N11635   2.614   1.049  10.314 -0.7111 -0.1060 -0.2760
  785MPD2    H511636   2.526   1.069  10.267 -0.3544  1.6825 -0.1535
  785MPD2    N111637   2.334   1.153  10.701  0.0512 -0.5201  0.2366
  785MPD2    H711638   2.319   1.142  10.801  0.8122 -2.0108  0.1961
  786MPD2     C11639   0.240   3.984  14.823  0.0887 -0.0281  0.0236
  786MPD2    C111640   0.361   3.914  14.825 -0.6692  0.2895  0.1550
  786MPD2    C211641   0.452   3.920  14.931 -0.1758  0.5499  0.8271
  786MPD2    C311642   0.421   3.999  15.040 -0.0869 -0.9850  0.3111
  786MPD2    C411643   0.302   4.078  15.034 -0.7284  0.0410  0.2939
  786MPD2    C511644   0.208   4.065  14.937  0.5629  0.3252 -0.0259
  786MPD2     H11645   0.541   3.860  14.920 -1.2049 -0.9403  0.5947
  786MPD2    H111646   0.274   4.141  15.118  0.4131  1.4705 -0.3943
  786MPD2    H211647   0.162   3.978  14.748  1.2622  0.4798 -1.2374
  786MPD2    H311648   0.113   4.117  14.947  1.4057  1.6757  0.9599
  786MPD2     N11649   0.505   4.005  15.153 -0.5960 -0.1200 -0.4404
  786MPD2    H511650   0.481   4.079  15.219 -0.9205 -2.1881  1.7722
  786MPD2    N111651   0.400   3.831  14.719 -0.0680  0.2118  0.1759
  786MPD2    H711652   0.491   3.791  14.742  0.4518  1.4446  0.2656
  787MPD2     C11653   0.815   3.469  14.906  0.6853  0.5387 -0.2388
  787MPD2    C111654   0.812   3.443  14.775  0.2989 -0.4550 -0.1048
  787MPD2    C211655   0.914   3.358  14.729 -0.2026 -0.0419 -0.2504
  787MPD2    C311656   1.019   3.314  14.801  0.7225  0.0096  0.6366
  787MPD2    C411657   1.017   3.338  14.939 -0.3045  0.1022 -0.2591
  787MPD2    C511658   0.910   3.410  14.992  0.6348  0.1683 -0.5146
  787MPD2     H11659   0.924   3.336  14.623 -1.2287 -2.1920  0.0917
  787MPD2    H111660   1.097   3.315  15.008  0.6941  1.2246 -1.0439
  787MPD2    H211661   0.733   3.528  14.946  0.4425  0.2624 -0.3332
  787MPD2    H311662   0.897   3.423  15.099 -1.9656  0.2791 -0.8428
  787MPD2     N11663   1.123   3.239  14.746 -0.2459 -0.2405 -0.2457
  787MPD2    H511664   1.118   3.214  14.647 -2.0816 -1.2339  0.1031
  787MPD2    N111665   0.702   3.492  14.703  0.4997  0.0714 -0.3403
  787MPD2    H711666   0.628   3.534  14.759 -0.8353  1.1462 -2.9112
  788MPD2     C11667   2.911   2.575   0.821 -0.1863  0.6171  0.0855
  788MPD2    C111668   2.778   2.570   0.784  0.9755  0.3973 -0.3557
  788MPD2    C211669   2.738   2.646   0.673  0.2781  0.6534  0.4172
  788MPD2    C311670   2.826   2.742   0.622 -0.2877  0.4071  0.4797
  788MPD2    C411671   2.956   2.744   0.667  1.0704 -0.2856 -0.0723
  788MPD2    C511672   2.995   2.674   0.775 -0.2654 -0.0036 -0.5287
  788MPD2     H11673   2.642   2.636   0.626  1.0470 -2.1768 -0.5114
  788MPD2    H111674   3.031   2.811   0.625 -0.9310 -0.2609 -3.6251
  788MPD2    H211675   2.935   2.514   0.907 -1.1504 -0.1022 -0.1529
  788MPD2    H311676   3.101   2.676   0.799  0.0102  0.0774 -1.7512
  788MPD2     N11677   2.786   2.826   0.515 -0.3737 -0.4030  0.4108
  788MPD2    H511678   2.859   2.877   0.467  0.2169  0.4879  2.2268
  788MPD2    N111679   2.701   2.470   0.836 -0.7009 -0.2869  0.6165
  788MPD2    H711680   2.751   2.418   0.907 -0.9054  1.5669  2.0949
  789MPD2     C11681   2.854   2.120  16.966  0.5295 -0.1228  1.0139
  789MPD2    C111682   2.805   2.130  16.835  0.1438 -0.5028  0.1284
  789MPD2    C211683   2.686   2.197  16.816 -0.0221 -0.2267  0.2134
  789MPD2    C311684   2.611   2.235  16.923  0.1958  0.4019  0.2968
  789MPD2    C411685   2.654   2.228  17.051 -0.2383 -0.1122  0.1901
  789MPD2    C511686   2.773   2.161  17.073  0.3183  1.0726 -0.4969
  789MPD2     H11687   2.650   2.206  16.714  2.0980  2.3585 -0.2770
  789MPD2    H111688   2.591   2.264  17.131  0.1971  0.8371  0.1062
  789MPD2    H211689   2.936   2.057  16.996  0.2789 -1.3965 -0.9840
  789MPD2    H311690   2.810   2.153  17.175 -1.4633  1.2088  0.1484
  789MPD2     N11691   2.478   2.285  16.906 -0.2785  0.0055 -0.5487
  789MPD2    H511692   2.423   2.322  16.983  2.1237  0.5187  0.9060
  789MPD2    N111693   2.873   2.081  16.718  1.3018 -0.0185  0.6601
  789MPD2    H711694   2.828   2.096  16.629 -0.3739 -2.2408  1.1373
  790MPD2     C11695   4.148   3.624  13.566  0.1787  0.4442 -0.1204
  790MPD2    C111696   4.061   3.522  13.592  0.5252  0.7780 -0.7378
  790MPD2    C211697   3.979   3.477  13.491 -0.2883  0.5412 -0.4644
  790MPD2    C311698   3.973   3.549  13.375 -0.6777  0.1132  0.8461
  790MPD2    C411699   4.053   3.663  13.357 -0.1930  0.1773 -0.8313
  790MPD2    C511700   4.135   3.702  13.455 -0.0777 -0.5870  0.1642
  790MPD2     H11701   3.920   3.387  13.497 -0.3672  0.6634  0.6414
  790MPD2    H111702   4.054   3.724  13.267  1.1956  0.0382 -0.9071
  790MPD2    H211703   4.222   3.662  13.635 -1.4242  0.7030  1.4721
  790MPD2    H311704   4.197   3.788  13.435  1.8609 -1.9386  0.4260
  790MPD2     N11705   3.887   3.503  13.268 -0.2552  0.0618 -0.5938
  790MPD2    H511706   3.814   3.436  13.289  0.3881 -0.4444  0.0254
  790MPD2    N111707   4.071   3.452  13.712 -0.4483 -0.2770  0.2756
  790MPD2    H711708   4.141   3.483  13.779  0.9242 -0.0103 -1.2566
  791MPD2     C11709   3.377   3.176  13.357 -0.8919 -0.6931  0.2574
  791MPD2    C111710   3.399   3.159  13.226  0.3841 -0.3948  0.1312
  791MPD2    C211711   3.285   3.139  13.142 -0.1207  0.2265  1.1160
  791MPD2    C311712   3.161   3.145  13.192 -1.3949  1.2059  0.6655
  791MPD2    C411713   3.137   3.186  13.317 -0.6470  0.1194 -0.4529
  791MPD2    C511714   3.250   3.207  13.391 -0.2869 -0.4130 -0.4252
  791MPD2     H11715   3.292   3.137  13.034 -1.1969 -2.5607  1.1085
  791MPD2    H111716   3.039   3.197  13.363 -1.0379  0.3975 -1.3504
  791MPD2    H211717   3.450   3.182  13.437  0.3805 -0.2559 -0.9374
  791MPD2    H311718   3.235   3.239  13.493  0.2957 -1.1783 -0.0949
  791MPD2     N11719   3.057   3.118  13.101  0.2675 -0.3391 -0.7202
  791MPD2    H511720   3.081   3.092  13.006 -1.2427 -2.4130 -0.5295
  791MPD2    N111721   3.535   3.188  13.184 -0.4987 -0.4859  0.1223
  791MPD2    H711722   3.601   3.225  13.251 -0.2608 -1.3732  0.3773
  792MPD2     C11723   4.147   3.579  11.539  0.5770 -0.2806 -0.1307
  792MPD2    C111724   4.125   3.613  11.405  0.1943  0.3218 -0.4773
  792MPD2    C211725   3.991   3.607  11.363 -0.5105  0.3979  0.7385
  792MPD2    C311726   3.887   3.577  11.454  0.2019  0.9136 -0.1326
  792MPD2    C411727   3.911   3.576  11.588 -0.0750  0.5992  0.0846
  792MPD2    C511728   4.045   3.569  11.627  0.0657  0.2128  0.8738
  792MPD2     H11729   3.968   3.611  11.257  0.1081 -0.4192  0.5693
  792MPD2    H111730   3.828   3.549  11.653  0.2255 -0.2621  0.1128
  792MPD2    H211731   4.247   3.570  11.581 -0.1711 -2.5449  1.1652
  792MPD2    H311732   4.075   3.556  11.731  2.8958 -0.0481  0.0269
  792MPD2     N11733   3.754   3.549  11.409 -0.3394  0.7211 -0.2718
  792MPD2    H511734   3.682   3.541  11.480  0.1939 -1.8820 -0.0256
  792MPD2    N111735   4.232   3.629  11.317 -0.3622  0.5632  0.0343
  792MPD2    H711736   4.327   3.630  11.352  0.4710 -0.5371 -2.2229
  793MPD2     C11737   3.359   3.435  10.496 -0.3095 -0.3856  0.4034
  793MPD2    C111738   3.487   3.427  10.549 -0.5506 -0.1857  0.7572
  793MPD2    C211739   3.501   3.405  10.684 -0.1055  0.1689  0.0142
  793MPD2    C311740   3.388   3.405  10.762 -0.1171 -0.4983 -0.2102
  793MPD2    C411741   3.263   3.414  10.711 -0.0344 -0.1752 -0.0858
  793MPD2    C511742   3.247   3.423  10.579 -0.3740  0.0774 -0.5312
  793MPD2     H11743   3.597   3.392  10.732  0.4800 -1.3720 -1.5733
  793MPD2    H111744   3.174   3.403  10.771  0.5280 -0.6110  0.6718
  793MPD2    H211745   3.350   3.459  10.390  1.3403  0.9645  0.5663
  793MPD2    H311746   3.150   3.422  10.531 -1.7623 -1.3376  2.3525
  793MPD2     N11747   3.416   3.411  10.901 -0.2725 -0.0103 -0.5277
  793MPD2    H511748   3.514   3.419  10.926  0.4377 -1.5886 -2.8378
  793MPD2    N111749   3.604   3.447  10.467 -0.1120 -0.3394 -0.7627
  793MPD2    H711750   3.692   3.431  10.516  0.0516  0.4627 -0.7941
  794MPD2     C11751   3.510   2.754   0.164  0.2614 -0.3062  0.2049
  794MPD2    C111752   3.505   2.655   0.073  0.1251  0.0779 -0.6948
  794MPD2    C211753   3.506   2.688  17.681 -0.5030  0.3103 -0.3786
  794MPD2    C311754   3.517   2.820  17.630  0.6308  0.0632 -0.3335
  794MPD2    C411755   3.514   2.917  17.727  0.1969  0.3902  0.0040
  794MPD2    C511756   3.519   2.882   0.120 -0.4065 -0.3661  0.2143
  794MPD2     H11757   3.497   2.600  17.619 -0.6301  0.2924 -0.3337
  794MPD2    H111758   3.519   3.022  17.703  2.2319  0.0633 -1.0389
  794MPD2    H211759   3.513   2.730   0.270  0.3467 -2.6989 -0.3403
  794MPD2    H311760   3.518   2.954   0.202  3.2276 -0.4454  0.2959
  794MPD2     N11761   3.511   2.864  17.496  0.3076  0.4303 -0.6039
  794MPD2    H511762   3.514   2.965  17.486  0.0885  0.5846  0.9413
  794MPD2    N111763   3.491   2.519   0.106 -0.3512 -0.1903  0.0264
  794MPD2    H711764   3.504   2.455   0.029  0.6619 -2.6364  2.2234
  795MPD2     C11765   1.211   0.220  14.348 -0.1070 -0.6018 -0.0198
  795MPD2    C111766   1.223   0.165  14.223 -0.4109 -0.4077 -0.1775
  795MPD2    C211767   1.348   0.109  14.188 -0.2254 -0.2499 -0.0688
  795MPD2    C311768   1.454   0.111  14.274 -0.0901 -0.4085 -0.0046
  795MPD2    C411769   1.447   0.168  14.399 -0.4576 -0.3203  0.8482
  795MPD2    C511770   1.320   0.222  14.434  0.2251 -0.1240  0.0752
  795MPD2     H11771   1.365   0.066  14.089  2.1360  2.3184 -0.7799
  795MPD2    H111772   1.527   0.158  14.472 -0.4391  0.4443  0.9291
  795MPD2    H211773   1.123   0.272  14.382 -1.8055 -4.6255  1.7664
  795MPD2    H311774   1.302   0.263  14.532  0.0234 -0.3634  0.1390
  795MPD2     N11775   1.568   0.048  14.216  0.7038 -0.0067 -0.0046
  795MPD2    H511776   1.558   0.005  14.125  2.4960 -1.7657  0.6282
  795MPD2    N111777   1.112   0.167  14.128  0.2520  0.9035  0.0324
  795MPD2    H711778   1.030   0.219  14.157  1.5030  2.9118 -0.0027
  796MPD2     C11779   1.085   1.640  15.737 -0.1331  0.6514  0.3680
  796MPD2    C111780   1.149   1.710  15.837 -0.0678  0.0902 -0.2141
  796MPD2    C211781   1.098   1.836  15.869 -0.0439  0.1520  0.0098
  796MPD2    C311782   0.991   1.896  15.796  0.6265 -0.5361  0.2826
  796MPD2    C411783   0.924   1.814  15.707 -0.1446  0.7353 -0.3755
  796MPD2    C511784   0.975   1.692  15.667  0.1837  0.8994  0.0114
  796MPD2     H11785   1.151   1.900  15.938 -0.0833  0.7812 -0.5442
  796MPD2    H111786   0.847   1.854  15.643 -0.3780 -0.6855 -0.9843
  796MPD2    H211787   1.123   1.547  15.698 -0.1096  1.1765 -0.8721
  796MPD2    H311788   0.923   1.628  15.596 -0.9776 -1.0192  2.5847
  796MPD2     N11789   0.959   2.037  15.807 -0.3325 -0.1219 -0.1790
  796MPD2    H511790   1.029   2.098  15.848 -1.9405 -0.5484  3.1772
  796MPD2    N111791   1.257   1.653  15.897  0.0183  0.8717  0.1786
  796MPD2    H711792   1.292   1.562  15.871 -0.9156  1.0961 -1.8286
  797MPD2     C11793   1.681   1.320  17.663 -0.1603  0.3375 -0.0878
  797MPD2    C111794   1.771   1.424  17.678  0.3665  0.0158  0.0858
  797MPD2    C211795   1.794   1.515  17.572 -0.4395  0.7710  0.1199
  797MPD2    C311796   1.724   1.520  17.458 -0.0937  0.5888  0.2423
  797MPD2    C411797   1.634   1.413  17.438  0.3302 -0.0395 -0.0671
  797MPD2    C511798   1.612   1.317  17.545 -0.1509 -0.5328 -0.0370
  797MPD2     H11799   1.867   1.593  17.591 -0.4888  1.2911 -1.7441
  797MPD2    H111800   1.580   1.402  17.345 -0.5932  0.4031  0.4095
  797MPD2    H211801   1.657   1.255   0.006 -0.7791 -0.4397 -0.8820
  797MPD2    H311802   1.542   1.239  17.517  0.7949 -1.5850  0.5548
  797MPD2     N11803   1.755   1.620  17.365  0.2346 -0.0354  0.3325
  797MPD2    H511804   1.838   1.675  17.388  1.3896 -0.9144 -1.6615
  797MPD2    N111805   1.852   1.437   0.051 -0.3765  0.1395  0.6015
  797MPD2    H711806   1.926   1.506   0.038 -2.1096  1.8738 -0.1362
  798MPD2     C11807   2.119   2.094  17.614 -0.5699 -0.1409 -0.1171
  798MPD2    C111808   2.012   2.005  17.591 -0.0254 -0.5559 -0.3209
  798MPD2    C211809   1.971   1.928  17.695 -0.1559  0.9180  0.4515
  798MPD2    C311810   2.044   1.924   0.072  0.0579  0.0740 -0.7919
  798MPD2    C411811   2.149   2.011   0.091 -0.3049 -1.1253 -0.2560
  798MPD2    C511812   2.191   2.095  17.729  0.9336  0.0543  0.3054
  798MPD2     H11813   1.878   1.874  17.679  1.0910 -1.4887  1.4767
  798MPD2    H111814   2.211   2.024   0.180  1.9397  1.9310 -2.2731
  798MPD2    H211815   2.152   2.155  17.531  0.3860  0.6073  0.8218
  798MPD2    H311816   2.272   2.167  17.731  0.2990  0.7932 -0.6377
  798MPD2     N11817   2.018   1.822   0.167  0.1758  0.5015  0.0079
  798MPD2    H511818   1.936   1.762   0.159  0.5990 -0.1599  0.6078
  798MPD2    N111819   1.944   1.992  17.469 -0.0672 -0.7120 -0.3592
  798MPD2    H711820   1.872   1.921  17.467 -0.4019 -0.2890 -2.8884
  799MPD2     C11821   0.960   2.861  14.931  0.8365  0.3033  0.3315
  799MPD2    C111822   0.888   2.780  14.850 -0.3807 -0.2701  0.2258
  799MPD2    C211823   0.772   2.817  14.782 -0.2178  0.5180 -0.7770
  799MPD2    C311824   0.731   2.946  14.800  0.5704  0.8927 -0.7687
  799MPD2    C411825   0.798   3.032  14.884  0.4624 -0.0355 -0.1228
  799MPD2    C511826   0.908   2.984  14.952 -1.1617 -0.0993  0.4377
  799MPD2     H11827   0.725   2.742  14.719 -2.7991  1.3164  0.2236
  799MPD2    H111828   0.774   3.137  14.894  1.7929  0.3180 -0.7365
  799MPD2    H211829   1.055   2.837  14.978  1.0033  1.1505  0.4370
  799MPD2    H311830   0.961   3.057  15.012  2.1272 -2.3685  0.2853
  799MPD2     N11831   0.619   3.002  14.735 -0.2590 -0.2338 -0.3818
  799MPD2    H511832   0.601   3.101  14.752  1.8399 -0.0090  0.5868
  799MPD2    N111833   0.923   2.643  14.829 -0.4720 -0.3160 -0.1887
  799MPD2    H711834   0.877   2.584  14.760  1.7143 -3.8650  1.3964
  800MPD2     C11835   0.777   3.830  14.237  0.6998  0.2055 -0.2338
  800MPD2    C111836   0.893   3.907  14.236 -0.0905  0.6833 -0.3172
  800MPD2    C211837   0.977   3.895  14.126  0.2678 -0.4221 -0.4129
  800MPD2    C311838   0.965   3.800  14.032  0.5697  0.4267  0.6244
  800MPD2    C411839   0.852   3.724  14.033  0.5259 -0.8496  0.3421
  800MPD2    C511840   0.754   3.741  14.130  0.0379 -0.5617 -0.1806
  800MPD2     H11841   1.060   3.964  14.123  0.9793 -1.3117 -1.0997
  800MPD2    H111842   0.832   3.657  13.950  0.7558 -0.2647 -0.1897
  800MPD2    H211843   0.709   3.830  14.321  1.7988 -0.4112  0.6474
  800MPD2    H311844   0.666   3.677  14.131 -1.4567  1.5171  1.1875
  800MPD2     N11845   1.075   3.783  13.942 -0.2311  0.3580 -0.1622
  800MPD2    H511846   1.151   3.849  13.950  0.6168 -0.7688  1.0959
  800MPD2    N111847   0.928   4.003  14.331  0.0334 -0.1491  0.0640
  800MPD2    H711848   1.022   4.041  14.327  0.4242 -1.0639  0.5598
  801MPD2     C11849   0.746   0.067  14.468 -0.2107  0.0167 -0.0825
  801MPD2    C111850   0.855   0.023  14.538 -0.3209  0.0503  0.0666
  801MPD2    C211851   0.938   0.108  14.605  0.1872  0.3059  0.2366
  801MPD2    C311852   0.915   0.244  14.612  0.2699 -0.5714  0.1786
  801MPD2    C411853   0.816   0.297  14.532 -0.0112  0.1311  0.5055
  801MPD2    C511854   0.727   0.205  14.471  0.0499  0.2592 -0.3059
  801MPD2     H11855   1.030   0.072  14.650 -1.1550 -1.0759  1.8297
  801MPD2    H111856   0.799   0.404  14.525  1.2461  0.3573  1.0734
  801MPD2    H211857   0.684   0.008  14.402 -1.1555  1.1866 -0.2432
  801MPD2    H311858   0.645   0.241  14.410  2.0926  3.0024 -1.3940
  801MPD2     N11859   0.993   0.338  14.684  0.2209 -0.7652 -0.6479
  801MPD2    H511860   1.006   0.429  14.642 -2.0036 -1.1450 -2.1572
  801MPD2    N111861   0.898   4.623  14.528 -0.4699  0.1682  0.3152
  801MPD2    H711862   0.983   4.603  14.581 -1.1271 -0.8368  0.9930
  802MPD2     C11863   0.469   0.444  17.649 -0.4380  0.1117 -0.9446
  802MPD2    C111864   0.570   0.483  17.734  0.7405 -0.2897  0.0511
  802MPD2    C211865   0.688   0.414   0.009  0.0398 -0.1385  0.2414
  802MPD2    C311866   0.704   0.289  17.686  0.0457 -1.0500 -0.3250
  802MPD2    C411867   0.600   0.254  17.594 -0.1299 -0.6143  0.8709
  802MPD2    C511868   0.490   0.334  17.571 -0.0574 -0.8432  0.3177
  802MPD2     H11869   0.766   0.459   0.070 -0.0044  1.4338 -0.8641
  802MPD2    H111870   0.621   0.169  17.531  2.6677  1.8385 -1.4852
  802MPD2    H211871   0.390   0.513  17.621 -2.0145 -1.3934 -0.1891
  802MPD2    H311872   0.427   0.316  17.484 -0.7516 -2.2137  1.1028
  802MPD2     N11873   0.824   0.213  17.698 -0.0963  0.4316  0.0020
  802MPD2    H511874   0.897   0.255   0.014  1.5891  0.2181 -2.0498
  802MPD2    N111875   0.555   0.599   0.078  0.3020 -0.2459 -0.4626
  802MPD2    H711876   0.614   0.607   0.160 -0.1028 -0.8291 -0.1223
  803MPD2     C11877   1.636   3.677  12.170  0.1499 -0.2255  0.3850
  803MPD2    C111878   1.768   3.701  12.212  0.3965  0.4642 -0.0768
  803MPD2    C211879   1.807   3.654  12.335  0.0444 -0.6910  0.1257
  803MPD2    C311880   1.726   3.579  12.412  0.2000 -0.0751  0.2571
  803MPD2    C411881   1.599   3.556  12.370  0.6310 -0.0344 -0.0086
  803MPD2    C511882   1.556   3.596  12.244 -0.1188 -0.8973  0.0502
  803MPD2     H11883   1.905   3.675  12.376 -1.4634  1.8990  2.3925
  803MPD2    H111884   1.530   3.490  12.421 -0.4885  0.3498 -1.0125
  803MPD2    H211885   1.595   3.703  12.073 -1.7788 -0.4232  1.1653
  803MPD2    H311886   1.454   3.574  12.214 -0.1802 -1.7858  0.9238
  803MPD2     N11887   1.757   3.536  12.548 -0.5023 -0.9499  0.1278
  803MPD2    H511888   1.695   3.469  12.593  0.9430 -1.1498  1.8319
  803MPD2    N111889   1.859   3.779  12.141 -0.3837 -0.0317 -0.1555
  803MPD2    H711890   1.945   3.811  12.184  0.1671  0.2833 -1.4830
  804MPD2     C11891   1.289   4.722  17.019  0.7021 -0.9431  1.1252
  804MPD2    C111892   1.340   4.672  17.137  0.2877  0.0902 -0.3863
  804MPD2    C211893   1.408   0.013  17.225 -0.1791  0.1451  0.0176
  804MPD2    C311894   1.427   0.147  17.194 -0.0991  1.0454  0.6267
  804MPD2    C411895   1.368   0.205  17.083  0.1155 -0.0158  0.2205
  804MPD2    C511896   1.303   0.124  16.988 -0.7604  0.5569  0.5178
  804MPD2     H11897   1.445   4.714  17.320  1.7755 -1.4487 -1.3226
  804MPD2    H111898   1.364   0.312  17.066 -0.6744  0.0043  0.5543
  804MPD2    H211899   1.239   4.661  16.945  1.2163 -0.3340  0.2783
  804MPD2    H311900   1.262   0.155  16.893  0.8783 -0.8658 -0.6560
  804MPD2     N11901   1.504   0.214  17.293  0.1993 -0.8690 -0.4612
  804MPD2    H511902   1.540   0.156  17.368  1.0521  1.7592  1.1706
  804MPD2    N111903   1.348   4.537  17.163 -0.1287 -1.3612 -0.0785
  804MPD2    H711904   1.368   4.519  17.261  0.1429 -0.7561 -0.0213
  805MPD2     C11905   0.492   2.829  15.382  0.2538  0.2708  0.3029
  805MPD2    C111906   0.590   2.841  15.287 -0.3458  0.5184 -0.3287
  805MPD2    C211907   0.723   2.849  15.326 -0.9797  1.1346 -0.4920
  805MPD2    C311908   0.752   2.846  15.457  0.3846  0.0562 -0.1409
  805MPD2    C411909   0.652   2.835  15.555  0.7091  0.4181  0.8123
  805MPD2    C511910   0.522   2.822  15.516 -0.1810  0.5384 -0.3538
  805MPD2     H11911   0.804   2.863  15.255 -0.0690 -1.0447  0.1062
  805MPD2    H111912   0.679   2.841  15.660 -0.4192 -0.6911  1.1675
  805MPD2    H211913   0.389   2.813  15.352 -0.9994  2.5079  3.3916
  805MPD2    H311914   0.436   2.831  15.582  0.1398 -0.2979  0.1759
  805MPD2     N11915   0.882   2.880  15.491 -0.3216  0.7169  0.3357
  805MPD2    H511916   0.936   2.922  15.416  0.9802  1.4724  1.7003
  805MPD2    N111917   0.568   2.829  15.151 -0.0580  0.4966 -0.2132
  805MPD2    H711918   0.643   2.833  15.083  0.6185 -0.8668  0.4629
  806MPD2     C11919   0.310   2.645   0.201 -0.0884  0.0706 -0.0552
  806MPD2    C111920   0.380   2.722   0.281  1.0538 -0.4729  1.0113
  806MPD2    C211921   0.475   2.804   0.225 -0.4153  0.7564  0.6108
  806MPD2    C311922   0.500   2.821   0.090  0.5824  0.5953 -0.1112
  806MPD2    C411923   0.419   2.747   0.008 -0.4868  0.1398  0.0607
  806MPD2    C511924   0.333   2.656   0.066  0.2057  0.4314  0.2453
  806MPD2     H11925   0.539   2.865   0.289 -1.8188  0.7129  2.0434
  806MPD2    H111926   0.430   2.749  17.640  1.0779 -1.3518  0.1770
  806MPD2    H211927   0.249   2.564   0.239 -0.4618  1.2503  1.8695
  806MPD2    H311928   0.276   2.599  17.734  1.4623  1.1869 -1.3598
  806MPD2     N11929   0.610   2.905   0.041 -0.0372 -0.4743 -0.3395
  806MPD2    H511930   0.668   2.954   0.108  1.4853  0.1409 -2.0997
  806MPD2    N111931   0.371   2.680   0.415  0.0934 -0.0267 -0.6461
  806MPD2    H711932   0.319   2.594   0.425  0.6363 -0.4802 -1.7850
  807MPD2     C11933   0.070   2.198   0.934 -0.4052  0.4271  0.1259
  807MPD2    C111934   0.201   2.194   0.904  0.0173 -0.1250 -0.2183
  807MPD2    C211935   0.280   2.084   0.910 -0.4367 -0.1169  0.4172
  807MPD2    C311936   0.224   1.964   0.938  0.0099 -0.3999  0.0121
  807MPD2    C411937   0.089   1.964   0.951 -0.5694 -0.5230  0.2731
  807MPD2    C511938   0.014   2.077   0.956 -0.0950 -0.3648  0.0133
  807MPD2     H11939   0.387   2.094   0.894 -0.5913 -0.9548 -1.1476
  807MPD2    H111940   0.031   1.877   0.983 -0.8078  0.3983  2.3527
  807MPD2    H211941   0.016   2.291   0.940  0.8857  1.3615 -2.9206
  807MPD2    H311942   4.644   2.074   0.982  0.4183 -0.0509  2.1340
  807MPD2     N11943   0.311   1.853   0.952  0.4537 -0.8240  0.5459
  807MPD2    H511944   0.409   1.870   0.974 -0.3354  0.5438  3.0674
  807MPD2    N111945   0.271   2.312   0.882  0.3374  0.5786 -0.6247
  807MPD2    H711946   0.373   2.312   0.890  0.2591  1.9175  0.4370
  808MPD2     C11947   1.322   4.465   9.814  0.5056 -0.0633  0.0141
  808MPD2    C111948   1.400   4.376   9.875  0.1098  0.1893  0.1525
  808MPD2    C211949   1.475   4.423   9.980 -0.0450 -1.5534 -1.0922
  808MPD2    C311950   1.460   4.548  10.034 -0.2859  0.0350 -0.1152
  808MPD2    C411951   1.378   4.637   9.973 -0.3038  0.1746 -0.2956
  808MPD2    C511952   1.303   4.591   9.867  1.1815  0.4848  0.2621
  808MPD2     H11953   1.546   4.358  10.030  2.0044 -0.0605 -2.0947
  808MPD2    H111954   1.362   0.005  10.001  0.9079  0.0889  0.7490
  808MPD2    H211955   1.266   4.435   9.726  1.1881 -0.0596 -0.4235
  808MPD2    H311956   1.231   4.649   9.810 -0.4378  0.1529  1.9880
  808MPD2     N11957   1.543   4.593  10.141  0.3061  0.1439  0.3330
  808MPD2    H511958   1.542   4.694  10.153 -1.2234  0.3016 -1.0869
  808MPD2    N111959   1.415   4.242   9.843  0.1427  0.1714  0.3196
  808MPD2    H711960   1.472   4.184   9.904  0.6242 -0.2574 -0.5166
  809MPD2     C11961   1.929   0.688  10.170 -0.4617 -1.0242  0.3129
  809MPD2    C111962   1.928   0.590  10.069  0.2513 -0.1495 -0.0800
  809MPD2    C211963   1.935   0.456  10.100 -0.5796  0.4514 -0.1494
  809MPD2    C311964   1.933   0.406  10.227  0.7718  0.2321 -0.1286
  809MPD2    C411965   1.919   0.501  10.330  0.6479 -0.2569  0.7517
  809MPD2    C511966   1.919   0.644  10.304  0.2309 -0.4404 -0.3813
  809MPD2     H11967   1.944   0.392  10.013  1.2343 -1.6759  1.6170
  809MPD2    H111968   1.932   0.467  10.432 -1.4561 -0.7310  0.8523
  809MPD2    H211969   1.945   0.794  10.150  0.7794 -1.4634 -0.9865
  809MPD2    H311970   1.927   0.708  10.391 -1.4657 -0.4845 -0.2078
  809MPD2     N11971   1.938   0.267  10.264  0.1164  0.6587 -0.0227
  809MPD2    H511972   1.951   0.237  10.359  0.9606 -2.2325 -1.0575
  809MPD2    N111973   1.937   0.623   9.927 -0.4432 -0.7844 -0.0586
  809MPD2    H711974   1.946   0.548   9.859  2.4688  1.0351 -1.7003
  810MPD2     C11975   1.330   3.181  10.655  0.2548  0.5043 -0.1795
  810MPD2    C111976   1.313   3.055  10.713 -0.3410  0.0941  0.1702
  810MPD2    C211977   1.350   3.032  10.842  0.5950 -0.3699 -0.1166
  810MPD2    C311978   1.422   3.132  10.911 -0.2920 -0.1463  0.3728
  810MPD2    C411979   1.440   3.257  10.854 -0.5611  0.5200  0.6057
  810MPD2    C511980   1.395   3.276  10.724  0.0173  0.6892 -0.2938
  810MPD2     H11981   1.345   2.933  10.886  1.8606 -0.4863 -0.2198
  810MPD2    H111982   1.497   3.338  10.897  1.3068 -1.0242  1.0533
  810MPD2    H211983   1.297   3.204  10.554 -1.7873  0.1422  0.3942
  810MPD2    H311984   1.416   3.365  10.667 -0.1368  0.5139 -0.6238
  810MPD2     N11985   1.488   3.123  11.039 -0.1144  0.5178  0.2860
  810MPD2    H511986   1.561   3.191  11.056  0.4912 -0.5854  2.0764
  810MPD2    N111987   1.245   2.958  10.638  0.1947  0.0267 -0.0136
  810MPD2    H711988   1.249   2.977  10.538  0.0689  0.2891  0.0310
  811MPD2     C11989   0.589   2.871  10.111  0.0636  0.6284  1.3179
  811MPD2    C111990   0.706   2.929  10.162 -0.0473  0.1935 -0.5147
  811MPD2    C211991   0.740   3.057  10.117  0.5345 -0.2867 -0.3934
  811MPD2    C311992   0.663   3.128  10.022  0.0083  0.5901  0.8537
  811MPD2    C411993   0.547   3.064   9.979  0.8628  0.7556 -0.6149
  811MPD2    C511994   0.508   2.942  10.026 -1.2284 -0.1485  0.4324
  811MPD2     H11995   0.824   3.113  10.158 -1.2468  1.5772  0.7207
  811MPD2    H111996   0.480   3.113   9.909  1.2348  2.7312  0.3907
  811MPD2    H211997   0.559   2.774  10.148 -1.5855  1.2810  1.6924
  811MPD2    H311998   0.415   2.904   9.986 -0.2859 -1.7128 -0.2704
  811MPD2     N11999   0.709   3.254   9.985  0.7167 -0.8690  0.1360
  811MPD2    H512000   0.785   3.301  10.034  0.2448  0.2117 -0.1617
  811MPD2    N112001   0.781   2.864  10.265  0.1345  0.3027 -0.2111
  811MPD2    H712002   0.744   2.775  10.298  2.3290 -1.1107 -1.4696
  812MPD2     C12003   4.166   3.068  12.082  0.5289  0.1051 -0.1395
  812MPD2    C112004   4.269   3.150  12.128  0.0895 -0.1373  0.4192
  812MPD2    C212005   4.373   3.079  12.186  0.4038 -0.0317  0.4996
  812MPD2    C312006   4.373   2.939  12.207  0.0327  0.4593 -0.0816
  812MPD2    C412007   4.271   2.860  12.154 -0.1185 -0.1482  0.5174
  812MPD2    C512008   4.175   2.931  12.089  0.5508  0.4381 -0.2428
  812MPD2     H12009   4.464   3.130  12.213  0.3878  0.6748 -0.7854
  812MPD2    H112010   4.261   2.753  12.167 -0.9830  0.0062  1.1036
  812MPD2    H212011   4.084   3.098  12.018  1.8781  1.6684 -1.1694
  812MPD2    H312012   4.101   2.873  12.036  1.1262 -1.7225  1.3396
  812MPD2     N12013   4.473   2.875  12.284  0.3881 -0.6353 -0.3830
  812MPD2    H512014   4.555   2.926  12.314  0.6856 -0.4221 -1.5750
  812MPD2    N112015   4.281   3.289  12.105  0.2484  0.1348  0.1814
  812MPD2    H712016   4.365   3.333  12.141  1.2059 -1.3132 -0.2802
  813MPD2     C12017   3.705   0.046  13.027  0.2123  0.2564 -0.1289
  813MPD2    C112018   3.674   0.179  13.000 -0.9545  0.3329  0.0035
  813MPD2    C212019   3.540   0.219  13.009 -0.7814  0.3868 -0.1486
  813MPD2    C312020   3.441   0.128  13.060 -0.8091  0.4335  0.5032
  813MPD2    C412021   3.474   4.732  13.073  0.3460 -0.2039 -0.3043
  813MPD2    C512022   3.605   4.697  13.066  0.5643  0.7723 -0.6085
  813MPD2     H12023   3.497   0.317  12.994 -0.0042  0.6879 -0.4108
  813MPD2    H112024   3.401   4.654  13.088  0.4396 -0.0741  0.8420
  813MPD2    H212025   3.808   0.012  13.029 -0.0647 -0.7057 -1.4772
  813MPD2    H312026   3.618   4.590  13.076 -2.6967  0.5509  1.4229
  813MPD2     N12027   3.317   0.176  13.096  0.1838  0.0695  0.1821
  813MPD2    H512028   3.300   0.276  13.091 -1.3325 -0.2438 -0.9663
  813MPD2    N112029   3.773   0.281  12.988  0.1226  1.0740  0.5509
  813MPD2    H712030   3.869   0.257  13.012 -0.4950 -3.4144 -1.3670
  814MPD2     C12031   0.009   1.681  12.633  0.1588 -0.2052 -0.2773
  814MPD2    C112032   4.642   1.754  12.575  0.2148 -0.6140 -0.1190
  814MPD2    C212033   4.627   1.888  12.600  0.4397 -0.0202  0.0301
  814MPD2    C312034   4.684   1.945  12.710  0.1371 -0.0520  0.1585
  814MPD2    C412035   0.042   1.869  12.771  0.4617 -0.6807 -0.2394
  814MPD2    C512036   0.081   1.742  12.731  0.4950  0.6337 -0.6490
  814MPD2     H12037   4.544   1.940  12.554 -1.4639 -0.6591  2.7313
  814MPD2    H112038   0.093   1.917  12.853 -0.6822  0.9965 -0.5166
  814MPD2    H212039   0.038   1.579  12.609  1.4348  0.5320 -1.8864
  814MPD2    H312040   0.166   1.696  12.781  0.3307 -1.5691 -2.4407
  814MPD2     N12041   4.657   2.072  12.756 -0.8523  0.1016  0.1764
  814MPD2    H512042   4.708   2.109  12.835  0.8545  2.1118 -1.8736
  814MPD2    N112043   4.558   1.692  12.477  0.0254 -0.8652 -0.4674
  814MPD2    H712044   4.499   1.756  12.425  0.6071  1.1855  1.3866
  815MPD2     C12045   0.332   0.396  11.728 -0.2841  0.9289  0.0023
  815MPD2    C112046   0.330   0.260  11.688  0.0903 -0.3137 -0.3343
  815MPD2    C212047   0.237   0.176  11.736 -1.1237  0.3354  0.0275
  815MPD2    C312048   0.157   0.213  11.846  0.2536  0.6207 -0.0658
  815MPD2    C412049   0.161   0.347  11.887 -0.4746  0.0757  0.3124
  815MPD2    C512050   0.242   0.441  11.823 -0.1787  0.0144 -0.4288
  815MPD2     H12051   0.236   0.071  11.708 -0.1494  0.5786 -0.9078
  815MPD2    H112052   0.091   0.389  11.958  0.2990 -1.8472  2.2333
  815MPD2    H212053   0.401   0.467  11.685 -0.7514  1.7215  0.5555
  815MPD2    H312054   0.234   0.547  11.845  0.4116 -0.2467  1.0034
  815MPD2     N12055   0.070   0.116  11.902 -0.0314 -0.5312 -0.0908
  815MPD2    H512056   0.064   0.026  11.856 -0.9155 -0.0060 -0.9913
  815MPD2    N112057   0.425   0.210  11.601  0.8124 -0.1192  0.1516
  815MPD2    H712058   0.431   0.109  11.588 -3.0824 -0.1123 -1.6955
  816MPD2     C12059   0.147   4.471  17.324  1.1417  0.7476  0.3545
  816MPD2    C112060   0.089   4.469  17.203 -0.5874 -0.2761  0.1060
  816MPD2    C212061   0.172   4.460  17.091  0.6038  0.5574  0.2461
  816MPD2    C312062   0.308   4.444  17.097  0.4964 -0.0583 -0.7200
  816MPD2    C412063   0.363   4.454  17.228  0.0489  0.8670 -0.3787
  816MPD2    C512064   0.282   4.467  17.336 -0.9711  0.2305  0.0613
  816MPD2     H12065   0.129   4.451  16.992  0.9850 -0.3030  0.1554
  816MPD2    H112066   0.471   4.456  17.240 -0.0446  1.1788  0.3792
  816MPD2    H212067   0.090   4.466  17.416  1.7951  0.5552  0.7453
  816MPD2    H312068   0.325   4.463  17.436  0.5128  0.8166 -0.5483
  816MPD2     N12069   0.368   4.440  16.968 -0.1475  0.9302  0.1679
  816MPD2    H512070   0.305   4.421  16.891 -0.8944  0.8331  0.8073
  816MPD2    N112071   4.682   4.468  17.195  0.1173 -0.4304 -0.2382
  816MPD2    H712072   4.638   4.463  17.286  0.0511 -0.3911 -0.2677
  817MPD2     C12073   4.541   1.007   9.877 -0.6560 -0.2077 -0.5684
  817MPD2    C112074   4.649   1.089   9.899 -1.3397  0.2459 -0.4891
  817MPD2    C212075   4.621   1.229   9.914  0.0654 -0.4310 -0.1236
  817MPD2    C312076   4.493   1.281   9.915 -0.5747  0.0094  0.2306
  817MPD2    C412077   4.392   1.192   9.915  0.1763 -0.5282  0.4834
  817MPD2    C512078   4.410   1.057   9.886 -0.2825 -0.6918 -0.0731
  817MPD2     H12079   4.705   1.293   9.938 -0.9273  0.2341  1.5726
  817MPD2    H112080   4.290   1.229   9.917  0.1315 -0.6942  1.6622
  817MPD2    H212081   4.541   0.903   9.846 -0.6471 -0.7390  1.2230
  817MPD2    H312082   4.333   0.983   9.870  0.5857 -1.3948 -1.0067
  817MPD2     N12083   4.495   1.420   9.938  0.4119 -0.2097  0.2431
  817MPD2    H512084   4.585   1.463   9.955  0.0651  0.5578  0.1691
  817MPD2    N112085   0.046   1.041   9.902 -0.4192 -0.2518 -0.7996
  817MPD2    H712086   0.119   1.111   9.901  0.6684 -1.3758 -0.7642
  818MPD2     C12087   3.853   1.116   9.786 -0.3925  0.6253 -0.0874
  818MPD2    C112088   3.757   1.016   9.811 -0.1837 -0.3121  1.1543
  818MPD2    C212089   3.795   0.881   9.805 -1.2166  0.4340  0.3968
  818MPD2    C312090   3.924   0.844   9.770  0.3505 -0.2415 -0.5272
  818MPD2    C412091   4.010   0.943   9.732 -0.4250 -0.6310  0.2361
  818MPD2    C512092   3.970   1.073   9.736  0.2661 -0.4999 -0.0381
  818MPD2     H12093   3.724   0.804   9.834 -1.5698  0.8397  0.5976
  818MPD2    H112094   4.106   0.911   9.694 -0.4450  1.6529 -1.6890
  818MPD2    H212095   3.828   1.222   9.786 -2.1097  0.2309 -1.7282
  818MPD2    H312096   4.042   1.147   9.702  0.4760 -1.2033 -1.1309
  818MPD2     N12097   3.976   0.715   9.766 -0.4471 -0.5355  0.2678
  818MPD2    H512098   4.072   0.696   9.737 -0.6914 -0.7982 -0.3682
  818MPD2    N112099   3.640   1.047   9.881 -0.3521  0.0264 -0.3236
  818MPD2    H712100   3.581   0.970   9.912 -0.4057  0.7452  1.3361
  819MPD2     C12101   1.194   2.608  15.481  0.2330 -0.0377 -0.2328
  819MPD2    C112102   1.251   2.495  15.529 -0.7839 -0.2468 -0.3379
  819MPD2    C212103   1.366   2.505  15.611  0.9695  0.0154 -0.6025
  819MPD2    C312104   1.431   2.621  15.618 -0.3192  0.3655  0.1278
  819MPD2    C412105   1.366   2.734  15.570 -0.3240 -0.4006  0.1655
  819MPD2    C512106   1.249   2.726  15.507  0.4521  0.4534  0.0258
  819MPD2     H12107   1.416   2.420  15.657  0.3384  1.3060  2.5129
  819MPD2    H112108   1.393   2.833  15.607 -0.6286  0.2795 -1.4094
  819MPD2    H212109   1.105   2.593  15.422 -0.6555  1.9522  0.5935
  819MPD2    H312110   1.206   2.821  15.476  0.8477  0.7265  0.3113
  819MPD2     N12111   1.555   2.622  15.692 -0.6153 -0.5440  0.8142
  819MPD2    H512112   1.578   2.539  15.746 -0.0956 -1.5672 -0.9525
  819MPD2    N112113   1.182   2.371  15.490  0.5888 -0.6823  0.9525
  819MPD2    H712114   1.095   2.370  15.438  2.0789  1.1527 -1.6061
  820MPD2     C12115   0.447   2.081  14.977  0.2405  0.5676 -0.0678
  820MPD2    C112116   0.521   2.193  15.002  0.3962 -0.1012  0.5119
  820MPD2    C212117   0.619   2.178  15.098  0.0502 -0.1015  0.0322
  820MPD2    C312118   0.636   2.058  15.164  0.0047  0.4401  0.1243
  820MPD2    C412119   0.564   1.948  15.127 -0.5751 -0.4898 -0.6397
  820MPD2    C512120   0.467   1.964  15.036  0.5152  0.5304  0.4849
  820MPD2     H12121   0.684   2.260  15.127 -0.4043  0.8101 -1.4704
  820MPD2    H112122   0.570   1.851  15.176 -0.7417  0.0855  0.5341
  820MPD2    H212123   0.376   2.086  14.895 -0.4261 -1.1902  0.3920
  820MPD2    H312124   0.401   1.882  15.011  2.5973 -1.0649  0.2565
  820MPD2     N12125   0.745   2.025  15.254  0.5029 -0.5638  0.3171
  820MPD2    H512126   0.760   1.924  15.260  2.2574 -0.1754  2.3044
  820MPD2    N112127   0.498   2.311  14.939  0.6240  0.9241 -0.0755
  820MPD2    H712128   0.420   2.322  14.874  0.0967 -0.5937  0.3075
  821MPD2     C12129   1.553   3.905  13.262 -0.3600 -0.3155 -0.2051
  821MPD2    C112130   1.578   3.937  13.394  0.3021 -0.1517 -0.2311
  821MPD2    C212131   1.684   4.020  13.429  0.3572  0.1381 -0.6384
  821MPD2    C312132   1.762   4.074  13.330  0.5239 -0.5326  0.4770
  821MPD2    C412133   1.742   4.039  13.204 -0.1711 -0.2799  0.1297
  821MPD2    C512134   1.644   3.945  13.171  0.2264  0.7859 -0.0990
  821MPD2     H12135   1.693   4.046  13.534  1.6401  1.1601 -1.0143
  821MPD2    H112136   1.808   4.081  13.129 -0.2397 -0.2781  0.0701
  821MPD2    H212137   1.481   3.830  13.233 -0.3112  0.7708 -3.1608
  821MPD2    H312138   1.620   3.918  13.069  1.3916  0.8120 -0.3806
  821MPD2     N12139   1.871   4.163  13.348  0.0465 -0.7216  0.4208
  821MPD2    H512140   1.926   4.193  13.267  0.3999 -2.8631 -0.1333
  821MPD2    N112141   1.503   3.899  13.509 -0.3916  0.2609 -0.3592
  821MPD2    H712142   1.537   3.921  13.602  0.9353 -1.9213 -0.3326
  822MPD2     C12143   2.070   4.099  15.765  0.1080 -0.3026  0.4424
  822MPD2    C112144   2.015   4.042  15.885  0.0105 -0.5889 -1.2050
  822MPD2    C212145   1.932   4.106  15.964  0.0931 -0.3681 -0.7337
  822MPD2    C312146   1.896   4.240  15.935 -0.2076 -0.5793  0.1508
  822MPD2    C412147   1.946   4.298  15.820  0.6565 -0.5497  0.1415
  822MPD2    C512148   2.025   4.223  15.732  0.6086  0.8130  0.5996
  822MPD2     H12149   1.904   4.058  16.057  2.7751  0.8576  0.7046
  822MPD2    H112150   1.927   4.399  15.786 -0.4702 -0.4623  1.0311
  822MPD2    H212151   2.146   4.048  15.707  0.0185 -0.9476  0.8942
  822MPD2    H312152   2.075   4.283  15.657  2.0236 -1.3192 -0.1586
  822MPD2     N12153   1.822   4.315  16.030  0.5401  0.2713 -0.7995
  822MPD2    H512154   1.786   4.276  16.117 -2.1235 -0.3781 -2.2020
  822MPD2    N112155   2.056   3.912  15.929  0.6614  0.3950  0.3747
  822MPD2    H712156   2.048   3.884  16.026  1.9811  2.9055  1.2074
  823MPD2     C12157   1.616   4.357  16.829  0.1584 -0.1652 -0.5076
  823MPD2    C112158   1.667   4.303  16.709  0.5307 -0.5643  1.1131
  823MPD2    C212159   1.727   4.175  16.710  0.0943 -0.5725  0.2971
  823MPD2    C312160   1.735   4.108  16.830 -0.1545  0.4700  0.5847
  823MPD2    C412161   1.676   4.151  16.946 -0.7844  0.1365 -0.4702
  823MPD2    C512162   1.621   4.277  16.946 -0.7659  0.0030 -0.1996
  823MPD2     H12163   1.768   4.124  16.624 -0.9840  1.0520 -1.1891
  823MPD2    H112164   1.671   4.087  17.034 -0.2782  1.3570  0.4463
  823MPD2    H212165   1.562   4.451  16.828 -1.1737 -0.9635 -2.0949
  823MPD2    H312166   1.581   4.314  17.040  2.4476  0.4507  0.9811
  823MPD2     N12167   1.777   3.973  16.830  0.3644 -0.4741 -0.2354
  823MPD2    H512168   1.751   3.922  16.913  0.2926 -1.3032 -0.7654
  823MPD2    N112169   1.658   4.375  16.591 -0.3337  0.9412 -0.0510
  823MPD2    H712170   1.634   4.473  16.601 -2.3383  0.4189  0.0876
  824MPD2     C12171   2.350   3.136  15.749 -0.0173 -0.4498  0.9317
  824MPD2    C112172   2.378   3.264  15.718 -0.8435 -0.5136  0.0670
  824MPD2    C212173   2.482   3.286  15.632  0.3018  0.4499 -0.2525
  824MPD2    C312174   2.579   3.187  15.604  0.2566 -0.4533  0.2568
  824MPD2    C412175   2.545   3.053  15.634  0.6356 -0.1823 -0.6100
  824MPD2    C512176   2.427   3.038  15.707 -0.0163 -0.0896 -1.0463
  824MPD2     H12177   2.499   3.387  15.596  2.9791 -0.4201 -1.4644
  824MPD2    H112178   2.608   2.968  15.613  2.0778  0.5729  0.5981
  824MPD2    H212179   2.253   3.109  15.791 -0.3797  1.0247  1.0321
  824MPD2    H312180   2.392   2.937  15.721  1.4121 -0.7633 -2.3787
  824MPD2     N12181   2.693   3.220  15.526 -0.2497 -0.5414  0.0969
  824MPD2    H512182   2.691   3.303  15.468  0.0477 -0.1266  0.6788
  824MPD2    N112183   2.307   3.377  15.771  0.6941  0.9106 -0.3137
  824MPD2    H712184   2.327   3.471  15.739  0.2167  1.3047  0.5625
  825MPD2     C12185   3.121   3.566  14.865 -0.0137  0.0154 -0.0889
  825MPD2    C112186   3.077   3.586  14.993  0.4256 -0.4745 -0.1487
  825MPD2    C212187   3.020   3.712  15.024 -0.6503  0.0574 -0.0888
  825MPD2    C312188   3.027   3.816  14.938  0.5605 -0.1772  0.1778
  825MPD2    C412189   3.087   3.797  14.816 -0.2705  0.7505  0.2535
  825MPD2    C512190   3.131   3.669  14.778  0.8854 -0.5673  0.1570
  825MPD2     H12191   2.976   3.726  15.122 -1.5568  1.5640 -0.7116
  825MPD2    H112192   3.105   3.876  14.744  0.9142  0.5115  0.2877
  825MPD2    H212193   3.159   3.473  14.824 -0.1313 -1.0336  2.1696
  825MPD2    H312194   3.168   3.653  14.677  1.7275 -1.1951  0.5600
  825MPD2     N12195   2.988   3.947  14.966 -0.6833  0.5173  0.2529
  825MPD2    H512196   2.987   3.999  14.879 -1.0674  0.8056  0.4274
  825MPD2    N112197   3.065   3.472  15.087 -0.4601 -0.1326  0.9364
  825MPD2    H712198   3.094   3.384  15.044 -0.0248 -0.7636  2.5398
  826MPD2     C12199   2.805   3.363  13.674 -0.2315  0.2882  0.2802
  826MPD2    C112200   2.900   3.377  13.771 -0.3666  0.1167 -0.2596
  826MPD2    C212201   2.868   3.457  13.880  0.4432  0.3953 -0.5901
  826MPD2    C312202   2.743   3.518  13.890 -0.5571  0.1373 -0.0706
  826MPD2    C412203   2.647   3.505  13.790 -0.3335  0.7354 -0.2160
  826MPD2    C512204   2.679   3.419  13.687 -0.4335  0.2054 -0.4277
  826MPD2     H12205   2.946   3.467  13.954  0.2714 -1.4915 -0.1629
  826MPD2    H112206   2.548   3.549  13.784  1.4054  4.7396  0.4798
  826MPD2    H212207   2.826   3.296  13.591 -0.6206 -0.1164  0.5085
  826MPD2    H312208   2.609   3.422  13.605 -2.4637  0.8341  1.3405
  826MPD2     N12209   2.718   3.600  14.006 -0.8232  0.2202 -0.2917
  826MPD2    H512210   2.786   3.610  14.080 -0.8469  0.4772 -0.3024
  826MPD2    N112211   3.017   3.296  13.755  0.4685 -0.3703  0.2083
  826MPD2    H712212   3.017   3.241  13.670 -0.5958 -0.1681  0.0748
  827MPD2     C12213   3.831   4.415   9.947  0.3002  0.5612  0.1917
  827MPD2    C112214   3.783   4.333  10.051  0.4105  0.4865 -0.3038
  827MPD2    C212215   3.647   4.295  10.053  1.1005 -0.3576  0.2968
  827MPD2    C312216   3.568   4.331   9.949 -0.2562  0.1069 -1.2033
  827MPD2    C412217   3.617   4.403   9.844  0.6471  0.3345  0.0433
  827MPD2    C512218   3.750   4.444   9.843  0.2146 -0.4857 -0.7540
  827MPD2     H12219   3.598   4.254  10.141 -1.2193  1.2489 -0.2461
  827MPD2    H112220   3.553   4.425   9.759 -0.0966 -0.7633  0.3236
  827MPD2    H212221   3.936   4.444   9.945  0.1985  1.0211  1.6484
  827MPD2    H312222   3.787   4.493   9.754  0.1697 -1.4235 -1.2864
  827MPD2     N12223   3.431   4.283   9.955 -0.0691  0.3629 -0.1151
  827MPD2    H512224   3.408   4.217  10.029  4.2000  0.4492  1.2540
  827MPD2    N112225   3.878   4.293  10.146 -0.3578  0.0203 -0.1386
  827MPD2    H712226   3.969   4.337  10.137 -0.6664  0.5665 -0.6010
  828MPD2     C12227   2.266   4.592  12.616  0.1102 -0.1584 -0.0983
  828MPD2    C112228   2.173   4.573  12.521  0.2878  0.1411 -0.4673
  828MPD2    C212229   2.216   4.535  12.396 -0.3069  0.1492 -0.1806
  828MPD2    C312230   2.346   4.540  12.359  0.5228  0.1232 -0.3033
  828MPD2    C412231   2.441   4.555  12.458 -0.2293 -0.0592 -0.7185
  828MPD2    C512232   2.395   4.595  12.579 -0.8803  0.0384  0.6845
  828MPD2     H12233   2.135   4.515  12.326 -0.4820  0.1837  0.0107
  828MPD2    H112234   2.546   4.538  12.439 -0.0201 -0.0230  0.4389
  828MPD2    H212235   2.241   4.601  12.721  0.1109 -1.8938  0.0429
  828MPD2    H312236   2.469   4.614  12.655 -0.4062  0.3990  0.1381
  828MPD2     N12237   2.397   4.515  12.232 -0.0765 -0.6917  0.4739
  828MPD2    H512238   2.498   4.512  12.218  0.0151  1.6628  0.5630
  828MPD2    N112239   2.038   4.564  12.550  0.1333 -0.2557  0.3687
  828MPD2    H712240   1.977   4.526  12.478  0.5950 -5.0887  2.5939
  829MPD2     C12241   1.225   4.557  12.045  0.1104 -0.0682 -0.1190
  829MPD2    C112242   1.367   4.545  12.042  0.6515 -0.0176  0.0254
  829MPD2    C212243   1.443   4.555  12.165  0.8599  0.5750 -0.6074
  829MPD2    C312244   1.380   4.563  12.287 -0.7008  0.1134 -0.2181
  829MPD2    C412245   1.241   4.562  12.279  0.8301 -0.1389 -0.2722
  829MPD2    C512246   1.165   4.572  12.168 -0.2658 -0.5931 -0.3247
  829MPD2     H12247   1.550   4.541  12.169  0.6756 -0.7193 -0.2023
  829MPD2    H112248   1.193   4.571  12.375 -0.5568  1.4726 -1.0929
  829MPD2    H212249   1.161   4.565  11.958  0.6039 -2.4514 -0.7111
  829MPD2    H312250   1.057   4.582  12.169 -0.2031  0.2571 -1.2405
  829MPD2     N12251   1.442   4.585  12.412  0.0123 -0.0264 -0.1283
  829MPD2    H512252   1.379   4.588  12.492  1.3561 -0.2371  0.9468
  829MPD2    N112253   1.418   4.547  11.909 -0.2813 -0.2969 -0.4366
  829MPD2    H712254   1.349   4.573  11.840  0.0417  2.1058  0.1574
  830MPD2     C12255   2.457   2.618  15.599  0.1701 -0.1095 -0.4077
  830MPD2    C112256   2.348   2.693  15.562  0.7211 -0.6044 -0.1772
  830MPD2    C212257   2.354   2.782  15.451 -0.6327  0.2086  0.0305
  830MPD2    C312258   2.483   2.801  15.394 -1.1951 -0.1145 -0.3440
  830MPD2    C412259   2.592   2.738  15.436  0.6869 -0.2100 -0.0734
  830MPD2    C512260   2.581   2.638  15.531  0.2689  0.1780 -0.1579
  830MPD2     H12261   2.273   2.847  15.420 -1.3393 -0.5118  0.3497
  830MPD2    H112262   2.694   2.762  15.408  0.1083  0.5500 -1.5608
  830MPD2    H212263   2.459   2.537  15.671 -1.1551 -3.1771 -3.8282
  830MPD2    H312264   2.674   2.589  15.555  0.7814  0.3682 -1.7858
  830MPD2     N12265   2.499   2.907  15.302 -0.0667  0.2487 -0.5538
  830MPD2    H512266   2.595   2.930  15.278  0.2651 -0.9022 -0.3483
  830MPD2    N112267   2.233   2.686  15.640 -0.3300 -0.0732  0.2799
  830MPD2    H712268   2.241   2.624  15.720 -1.5323 -1.1708 -0.4624
  831MPD2     C12269   2.197   4.323  16.326 -0.3982 -0.5369  0.4600
  831MPD2    C112270   2.204   4.221  16.231 -0.4756 -0.1523  0.7799
  831MPD2    C212271   2.110   4.117  16.243 -0.7089 -0.0647  0.6807
  831MPD2    C312272   2.016   4.118  16.343  0.5333  0.1223  0.6105
  831MPD2    C412273   2.021   4.219  16.440 -0.2101  0.5285 -0.0843
  831MPD2    C512274   2.109   4.322  16.427  0.3343 -0.0108  0.4110
  831MPD2     H12275   2.107   4.040  16.166 -0.5014 -0.7412  1.3477
  831MPD2    H112276   1.954   4.232  16.524  0.3230  1.6071  0.1763
  831MPD2    H212277   2.258   4.413  16.316  2.0835 -2.4842 -1.8538
  831MPD2    H312278   2.107   4.404  16.498 -0.5410  1.4643 -1.3228
  831MPD2     N12279   1.912   4.020  16.349 -0.4022  0.8049  0.2772
  831MPD2    H512280   1.837   4.043  16.413 -0.8393 -0.2468  0.1543
  831MPD2    N112281   2.296   4.240  16.122  0.2936 -0.2405 -0.2823
  831MPD2    H712282   2.349   4.326  16.116  0.9184 -0.3627  3.4174
  832MPD2     C12283   0.679   0.442  17.332 -0.4346  0.3065  0.2006
  832MPD2    C112284   0.629   0.566  17.335 -0.6909  0.4981  0.5612
  832MPD2    C212285   0.516   0.601  17.265 -0.1203 -0.2501  0.6520
  832MPD2    C312286   0.441   0.502  17.208  0.0698  0.2220  0.3498
  832MPD2    C412287   0.490   0.376  17.210 -0.1389 -0.3626 -0.3500
  832MPD2    C512288   0.613   0.342  17.260 -0.0043 -0.8357 -0.5544
  832MPD2     H12289   0.474   0.701  17.268 -0.0863 -0.2840  2.2573
  832MPD2    H112290   0.439   0.291  17.167 -0.7601  0.4861 -1.2839
  832MPD2    H212291   0.773   0.409  17.376  0.3162 -0.6405 -2.0865
  832MPD2    H312292   0.652   0.242  17.246 -1.1166 -1.0276 -2.1801
  832MPD2     N12293   0.315   0.528  17.146 -0.0066 -0.3283 -0.2022
  832MPD2    H512294   0.268   0.446  17.109 -0.7545 -0.5663  1.2975
  832MPD2    N112295   0.703   0.662  17.402  0.1414  0.8854 -0.2602
  832MPD2    H712296   0.783   0.633  17.458 -1.1386 -1.3559  0.4341
  833MPD2     C12297   2.707   2.589  12.376 -0.2611 -0.0314 -0.7911
  833MPD2    C112298   2.678   2.683  12.279 -0.0169 -0.0603  0.1761
  833MPD2    C212299   2.731   2.661  12.158 -0.3389  0.3103  0.8250
  833MPD2    C312300   2.817   2.562  12.123 -0.4870 -0.4008  0.2472
  833MPD2    C412301   2.857   2.482  12.222 -0.8874  0.1927  0.6479
  833MPD2    C512302   2.803   2.493  12.347 -0.4095  1.0588 -0.0312
  833MPD2     H12303   2.705   2.740  12.089  0.3181 -0.0044  0.2050
  833MPD2    H112304   2.926   2.401  12.203 -0.3791  0.5701  0.8856
  833MPD2    H212305   2.670   2.580  12.477  1.3156  0.0839 -0.2103
  833MPD2    H312306   2.832   2.418  12.419  1.5193  0.4992 -1.3851
  833MPD2     N12307   2.870   2.545  11.991  0.2429  0.5441  0.6512
  833MPD2    H512308   2.945   2.480  11.974  1.6558  2.1591  0.7091
  833MPD2    N112309   2.592   2.785  12.311 -0.0646  0.4265 -0.8041
  833MPD2    H712310   2.560   2.787  12.407  1.8755 -0.3426 -0.1247
  834MPD2     C12311   2.781   1.735  11.513 -0.2906 -0.1788  0.7535
  834MPD2    C112312   2.787   1.816  11.396  0.0376  0.0192 -0.8995
  834MPD2    C212313   2.808   1.959  11.404  0.6942  0.1376  0.7854
  834MPD2    C312314   2.805   2.020  11.532 -0.2810 -0.2869  0.1561
  834MPD2    C412315   2.799   1.934  11.641 -0.2382  0.2003  0.1079
  834MPD2    C512316   2.787   1.801  11.633 -0.3108 -0.1179 -0.6813
  834MPD2     H12317   2.824   2.005  11.308 -1.2441 -0.6292  0.0972
  834MPD2    H112318   2.798   1.975  11.741 -1.1072 -1.5762  0.8349
  834MPD2    H212319   2.758   1.629  11.507  0.1561 -0.3648  2.4230
  834MPD2    H312320   2.771   1.739  11.720  3.2585 -1.2892 -0.8593
  834MPD2     N12321   2.822   2.163  11.539 -0.4554 -0.4506  0.8110
  834MPD2    H512322   2.840   2.212  11.452  0.7618 -0.9619  0.7697
  834MPD2    N112323   2.787   1.738  11.276  0.2243 -0.7195 -0.0589
  834MPD2    H712324   2.776   1.637  11.284  3.3988 -1.1373 -0.9561
  835MPD2     C12325   3.239   0.111  11.314  1.1727  0.2386 -0.2014
  835MPD2    C112326   3.115   0.139  11.375 -0.0315  0.2479  0.0372
  835MPD2    C212327   3.085   0.101  11.506 -0.3855  0.0022  0.2224
  835MPD2    C312328   3.181   0.037  11.580 -0.9725  0.4873 -0.4145
  835MPD2    C412329   3.305   0.015  11.526 -0.0573  0.3335  0.6308
  835MPD2    C512330   3.330   0.054  11.396 -0.7544 -0.2627  0.2659
  835MPD2     H12331   2.987   0.123  11.548 -2.1143 -4.0564 -1.6258
  835MPD2    H112332   3.383   4.700  11.582 -0.7879  0.4524  1.7433
  835MPD2    H212333   3.262   0.131  11.210  0.7006 -0.9884 -0.5383
  835MPD2    H312334   3.426   0.045  11.348 -0.5840 -1.3565  0.8316
  835MPD2     N12335   3.157   4.718  11.709  1.1579  0.0092 -0.4954
  835MPD2    H512336   3.236   4.665  11.745  1.6866  0.0280 -1.6656
  835MPD2    N112337   3.008   0.208  11.307 -0.8507  0.3853 -0.6356
  835MPD2    H712338   2.934   0.228  11.373 -1.1365 -2.1890 -0.1883
  836MPD2     C12339   2.488   0.082  11.950  0.4593 -0.3689 -0.1489
  836MPD2    C112340   2.548   0.028  12.064 -1.2921  0.4012 -0.1232
  836MPD2    C212341   2.505   0.060  12.189  0.8870 -0.7686  0.4081
  836MPD2    C312342   2.400   0.157  12.201 -1.0285 -0.7506  0.1326
  836MPD2    C412343   2.338   0.201  12.086  0.2274  0.1123  0.0166
  836MPD2    C512344   2.377   0.161  11.963 -0.3849 -0.3041 -0.3160
  836MPD2     H12345   2.550   0.021  12.279  2.9259  1.0149  0.1732
  836MPD2    H112346   2.250   0.265  12.090 -0.4823 -0.7572 -1.5631
  836MPD2    H212347   2.526   0.052  11.853  0.2683 -3.9177  0.8635
  836MPD2    H312348   2.317   0.193  11.878 -1.3326 -0.3112  0.3513
  836MPD2     N12349   2.345   0.196  12.324 -0.0213  0.1347 -0.8401
  836MPD2    H512350   2.267   0.261  12.322  0.1329  0.3059 -1.3955
  836MPD2    N112351   2.658   4.678  12.041 -0.1560 -0.7522  0.4608
  836MPD2    H712352   2.689   4.683  11.945 -1.5984 -0.0012  0.0351
  837MPD2     C12353   1.157   3.758  10.171 -0.2637 -0.8980 -0.1710
  837MPD2    C112354   1.109   3.818  10.063  0.6424  0.3399 -0.3468
  837MPD2    C212355   1.116   3.958  10.058 -0.6250  0.1684  0.0858
  837MPD2    C312356   1.160   4.036  10.162 -0.7935 -0.4540 -0.2344
  837MPD2    C412357   1.193   3.971  10.277  0.2303 -0.0645 -0.3670
  837MPD2    C512358   1.199   3.836  10.275 -0.3554  0.1049  0.0767
  837MPD2     H12359   1.089   3.988   9.957  0.1165 -3.8813 -1.3174
  837MPD2    H112360   1.244   4.016  10.361 -2.2980  0.5578  0.8582
  837MPD2    H212361   1.159   3.652  10.197 -0.5465 -0.5577  1.2503
  837MPD2    H312362   1.241   3.781  10.359  1.3824  3.1882  1.2670
  837MPD2     N12363   1.158   4.173  10.143 -0.3282  0.2070 -0.2887
  837MPD2    H512364   1.137   4.210  10.051 -3.9618  0.7956  0.7937
  837MPD2    N112365   1.042   3.753   9.956  0.0945  0.3647 -0.2659
  837MPD2    H712366   1.013   3.813   9.879 -2.7100  0.5683  0.9521
  838MPD2     C12367   3.755   1.824  11.398 -0.1477  1.0581  0.1552
  838MPD2    C112368   3.746   1.887  11.522  0.9978  0.2455 -0.0464
  838MPD2    C212369   3.625   1.904  11.590  0.9731 -0.7712 -0.0582
  838MPD2    C312370   3.509   1.865  11.537 -0.7385 -0.4536 -0.5277
  838MPD2    C412371   3.515   1.808  11.412 -0.1938 -0.5340  0.7399
  838MPD2    C512372   3.638   1.789  11.344 -0.2919 -0.3180 -0.1085
  838MPD2     H12373   3.624   1.952  11.687 -2.7218  2.5307 -1.7513
  838MPD2    H112374   3.428   1.770  11.360  0.1686  0.5439 -0.6559
  838MPD2    H212375   3.845   1.803  11.343  0.3200  3.0150  0.1623
  838MPD2    H312376   3.640   1.733  11.251 -3.5106  1.7243 -1.3958
  838MPD2     N12377   3.388   1.874  11.610 -0.7470 -0.2835  0.5679
  838MPD2    H512378   3.390   1.929  11.695  0.5892 -0.6497  0.7706
  838MPD2    N112379   3.857   1.940  11.586  1.0050  0.3380 -0.6237
  838MPD2    H712380   3.836   1.979  11.678  2.4804 -1.1824  0.3632
  839MPD2     C12381   3.898   1.648  12.310  0.4746  0.2377 -0.5357
  839MPD2    C112382   3.867   1.587  12.188 -0.5313  0.0693 -0.0340
  839MPD2    C212383   3.954   1.619  12.083  0.1210 -0.3712  0.3295
  839MPD2    C312384   4.033   1.725  12.084  0.5056 -0.0847  0.0700
  839MPD2    C412385   4.059   1.779  12.205 -0.3739 -0.5932  0.2696
  839MPD2    C512386   3.996   1.749  12.322 -0.3952 -0.3975 -0.1394
  839MPD2     H12387   3.942   1.573  11.986  0.3025 -0.8204  0.5220
  839MPD2    H112388   4.117   1.869  12.222 -3.4048  1.0994  1.7683
  839MPD2    H212389   3.846   1.624  12.402 -1.6712 -1.5988 -2.2333
  839MPD2    H312390   4.014   1.787  12.422  1.7564  2.6586 -1.7076
  839MPD2     N12391   4.093   1.779  11.968 -0.3810  0.5214  0.5449
  839MPD2    H512392   4.070   1.741  11.877  2.1939 -1.7638  0.8335
  839MPD2    N112393   3.773   1.485  12.178  0.3256 -0.2754  0.2955
  839MPD2    H712394   3.764   1.429  12.093  0.9100  1.7145 -1.0883
  840MPD2     C12395   4.455   4.441   9.989 -0.2652  0.2147  0.2935
  840MPD2    C112396   4.444   4.434  10.133 -1.1116 -0.3947 -0.2157
  840MPD2    C212397   4.525   4.520  10.214 -0.2056 -0.2557 -0.4805
  840MPD2    C312398   4.615   4.606  10.155 -0.4616  0.5401  0.1193
  840MPD2    C412399   4.621   4.616  10.021  0.1126  0.2113 -0.3085
  840MPD2    C512400   4.548   4.532   9.943 -0.0948  0.0795  0.5851
  840MPD2     H12401   4.518   4.507  10.321 -1.9268  0.6878 -0.4857
  840MPD2    H112402   4.680   4.691   9.970  2.6726 -2.5856 -1.4428
  840MPD2    H212403   4.386   4.388   9.924 -1.6625  0.3536  1.6730
  840MPD2    H312404   4.560   4.543   9.836  2.1997 -0.3265  0.8067
  840MPD2     N12405   4.708   4.690  10.226 -0.1673  0.5308 -0.5536
  840MPD2    H512406   0.024   0.018  10.165  1.2886  1.8312  2.0180
  840MPD2    N112407   4.351   4.347  10.194 -0.3914 -0.5320 -0.0808
  840MPD2    H712408   4.295   4.292  10.129 -1.5689 -1.7081  1.8967
  841MPD2     C12409   4.118   4.731  14.345  1.0204 -0.0755  0.1734
  841MPD2    C112410   4.168   4.603  14.373  0.3115  0.4729  0.3779
  841MPD2    C212411   4.222   4.582  14.505  0.0744  0.2389 -0.4988
  841MPD2    C312412   4.231   4.677  14.601  0.1008 -0.0283  0.0514
  841MPD2    C412413   4.184   0.063  14.561  0.0667 -0.2987  0.9195
  841MPD2    C512414   4.125   0.088  14.439  0.8189 -0.0640 -0.2767
  841MPD2     H12415   4.259   4.482  14.529 -0.4782  0.7294  2.3570
  841MPD2    H112416   4.184   0.150  14.625  3.3097  1.3756 -1.3528
  841MPD2    H212417   4.074   0.020  14.249 -1.2638  1.3877  1.5862
  841MPD2    H312418   4.079   0.183  14.416 -1.1562 -0.8768  0.3437
  841MPD2     N12419   4.314   4.655  14.712  0.0631  0.2482  0.3131
  841MPD2    H512420   4.361   4.565  14.718 -2.9573 -1.4088 -1.0681
  841MPD2    N112421   4.146   4.486  14.287 -0.3724 -0.6321 -0.2045
  841MPD2    H712422   4.188   4.399  14.318  0.1453  0.5451  2.3971
  842MPD2     C12423   4.665   0.992  16.954  0.1523  0.4609  0.0267
  842MPD2    C112424   4.564   0.905  16.923 -0.2348 -1.0376 -0.3494
  842MPD2    C212425   4.518   0.817  17.018  0.4560 -0.4860 -0.0143
  842MPD2    C312426   4.573   0.815  17.146  0.2948  0.0213  0.3634
  842MPD2    C412427   4.675   0.905  17.176  0.1577  0.1052  0.6876
  842MPD2    C512428   4.719   0.997  17.080 -0.2554  0.5158 -0.6709
  842MPD2     H12429   4.427   0.763  16.994 -0.0939  1.3874 -2.0841
  842MPD2    H112430   4.711   0.910  17.278  2.0622  1.7463 -0.0781
  842MPD2    H212431   4.691   1.064  16.877  1.1456  1.2535  1.1009
  842MPD2    H312432   0.058   1.075  17.097 -0.0656  0.0816  0.4830
  842MPD2     N12433   4.528   0.734  17.250  0.4107  0.0861 -0.0609
  842MPD2    H512434   4.584   0.732  17.335  0.2614  0.4242  0.0435
  842MPD2    N112435   4.514   0.917  16.784 -0.0035 -0.0046 -0.2049
  842MPD2    H712436   4.537   0.994  16.722  1.2845 -0.4406 -0.2760
  843MPD2     C12437   1.481   1.955  17.332 -1.0153 -1.1837 -0.7930
  843MPD2    C112438   1.472   1.891  17.456  0.5660  0.0245 -0.5286
  843MPD2    C212439   1.534   1.955  17.566  0.0916  0.1159  0.3696
  843MPD2    C312440   1.603   2.076  17.547 -0.1975  0.0912  0.5719
  843MPD2    C412441   1.613   2.130  17.419 -0.4941  0.1477 -0.1730
  843MPD2    C512442   1.540   2.075  17.317 -0.3084 -0.2880  0.5233
  843MPD2     H12443   1.524   1.920  17.668 -0.4506  2.2753  1.0667
  843MPD2    H112444   1.675   2.217  17.401  0.3049 -0.3007  0.4062
  843MPD2    H212445   1.422   1.915  17.250 -2.2343 -1.4798  0.2419
  843MPD2    H312446   1.537   2.116  17.216  0.4594 -2.6446 -0.4592
  843MPD2     N12447   1.666   2.154  17.650 -0.9843  0.0646  0.5327
  843MPD2    H512448   1.708   2.240  17.618 -0.2816  0.1980  1.8279
  843MPD2    N112449   1.384   1.782  17.462 -0.2269 -0.5304 -0.0624
  843MPD2    H712450   1.336   1.754  17.377 -0.9959 -0.1127  0.2297
  844MPD2     C12451   0.009   0.356  16.464  0.0538 -0.3635 -0.4184
  844MPD2    C112452   0.103   0.397  16.369 -0.1146  0.1698  0.5741
  844MPD2    C212453   0.216   0.454  16.418 -0.3751  0.2767  0.1771
  844MPD2    C312454   0.242   0.453  16.555  0.0154  0.1159 -0.4977
  844MPD2    C412455   0.157   0.388  16.644  0.3232 -0.8634  0.4904
  844MPD2    C512456   0.039   0.344  16.595  0.5426 -0.6467  0.4157
  844MPD2     H12457   0.296   0.493  16.356 -0.9268  0.0272 -0.6882
  844MPD2    H112458   0.161   0.387  16.752  0.9504 -1.3655  0.4568
  844MPD2    H212459   4.647   0.311  16.445 -0.7563 -0.4496  3.9262
  844MPD2    H312460   4.698   0.300  16.658 -0.9859 -0.6190 -1.4073
  844MPD2     N12461   0.364   0.515  16.596  0.3095  0.5136 -0.5887
  844MPD2    H512462   0.404   0.576  16.526  2.3566 -0.3387 -0.1677
  844MPD2    N112463   0.075   0.389  16.227 -0.2773  0.2588  0.2183
  844MPD2    H712464   0.149   0.422  16.165 -0.8188 -1.2458 -1.2556
  845MPD2     C12465   0.577   1.383  17.043 -0.4271 -0.3016  0.3580
  845MPD2    C112466   0.564   1.289  17.144  0.4986  0.2901  0.1024
  845MPD2    C212467   0.569   1.153  17.114  0.6770  0.3548 -0.2366
  845MPD2    C312468   0.569   1.114  16.983 -0.0085  0.1639 -0.6304
  845MPD2    C412469   0.564   1.212  16.885 -0.2910 -0.0267 -0.3583
  845MPD2    C512470   0.567   1.341  16.918 -0.7354 -0.2089  0.2388
  845MPD2     H12471   0.563   1.076  17.191  1.7366  1.1080  0.6063
  845MPD2    H112472   0.551   1.178  16.783  0.7802 -1.1179 -0.1372
  845MPD2    H212473   0.600   1.486  17.066  0.9290 -0.0732 -2.0003
  845MPD2    H312474   0.547   1.411  16.838 -1.5811 -0.3291  0.3501
  845MPD2     N12475   0.579   0.975  16.960  0.1558  0.0833  0.3853
  845MPD2    H512476   0.589   0.918  17.043  3.6460  1.7987  1.1247
  845MPD2    N112477   0.555   1.339  17.275  0.3596  0.0677  0.8268
  845MPD2    H712478   0.543   1.438  17.290 -1.7596 -0.0819  0.2535
  846MPD2     C12479   1.911   1.649  13.512 -0.1007 -0.7930 -0.3493
  846MPD2    C112480   1.791   1.715  13.516 -0.2053  0.2675 -1.0085
  846MPD2    C212481   1.742   1.741  13.641 -0.0705 -0.0102 -0.3080
  846MPD2    C312482   1.808   1.704  13.763 -0.0466  0.8175  0.1664
  846MPD2    C412483   1.927   1.627  13.748 -0.5769 -0.1987  0.9817
  846MPD2    C512484   1.978   1.614  13.625 -0.5305 -0.7285 -0.1933
  846MPD2     H12485   1.654   1.804  13.638  1.3964  2.1480  1.5929
  846MPD2    H112486   1.982   1.581  13.829  0.8592 -0.4441 -0.1142
  846MPD2    H212487   1.955   1.609  13.421 -0.2508 -1.4753 -0.1237
  846MPD2    H312488   2.063   1.549  13.610 -1.1279 -1.6060  0.2918
  846MPD2     N12489   1.747   1.720  13.886 -0.1176 -0.7587 -0.0313
  846MPD2    H512490   1.647   1.740  13.890  0.0591  0.1400 -0.1230
  846MPD2    N112491   1.737   1.782  13.404  0.2648 -0.5929 -0.0953
  846MPD2    H712492   1.651   1.834  13.419  1.3217  2.0706 -2.9661
  847MPD2     C12493   1.721   2.677  13.902  0.4910  0.4195  0.3157
  847MPD2    C112494   1.856   2.670  13.880 -0.6426  0.4283  0.2161
  847MPD2    C212495   1.920   2.548  13.902 -0.1569  0.2747 -0.2109
  847MPD2    C312496   1.856   2.426  13.929  0.3532  0.0918  0.0025
  847MPD2    C412497   1.723   2.446  13.953 -0.4090  0.5595 -0.1015
  847MPD2    C512498   1.652   2.564  13.943 -0.1874 -0.0637 -0.1828
  847MPD2     H12499   2.028   2.554  13.900 -0.1530  0.5254  0.5382
  847MPD2    H112500   1.677   2.364  14.007 -0.9748  0.7792 -0.2436
  847MPD2    H212501   1.661   2.767  13.902 -3.5804 -2.2727 -0.9671
  847MPD2    H312502   1.547   2.570  13.971 -0.1973 -1.2174  0.0237
  847MPD2     N12503   1.919   2.304  13.969  0.0925  0.3884 -0.4458
  847MPD2    H512504   1.862   2.223  13.993  1.4720 -0.0308  1.4212
  847MPD2    N112505   1.939   2.788  13.870  0.4973  0.1993  0.1087
  847MPD2    H712506   2.033   2.775  13.835 -0.0573 -0.7413 -1.0280
  848MPD2     C12507   0.177   0.932  16.439  0.0260  0.8427 -0.1992
  848MPD2    C112508   0.194   0.981  16.568 -0.3907 -0.0196  0.3359
  848MPD2    C212509   0.263   1.107  16.582  0.4385  0.1364  0.7341
  848MPD2    C312510   0.306   1.175  16.469 -0.0936  0.3576  0.4808
  848MPD2    C412511   0.280   1.117  16.341 -0.2727  0.5385 -0.1194
  848MPD2    C512512   0.219   0.995  16.326  0.4563 -0.3195 -0.1263
  848MPD2     H12513   0.276   1.135  16.686 -1.3683  1.5228  0.5818
  848MPD2    H112514   0.300   1.174  16.251  1.7925  1.6536  1.0580
  848MPD2    H212515   0.138   0.834  16.415  1.0334  0.5652 -0.7201
  848MPD2    H312516   0.189   0.953  16.231 -2.1545  1.4261 -0.1010
  848MPD2     N12517   0.373   1.297  16.481 -0.7363 -0.0580  0.5557
  848MPD2    H512518   0.396   1.349  16.398 -0.2842  1.2994  1.5430
  848MPD2    N112519   0.164   0.903  16.675 -0.0808  0.1508 -0.5921
  848MPD2    H712520   0.184   0.939  16.768 -0.9445 -0.2697 -0.2413
  849MPD2     C12521   3.787   0.436  14.563 -0.0623  0.1614  0.7441
  849MPD2    C112522   3.866   0.542  14.554  0.1945  0.0440  0.1540
  849MPD2    C212523   3.954   0.568  14.658  1.0662 -0.6804  0.7565
  849MPD2    C312524   3.978   0.470  14.756 -0.5312  0.0188  0.1928
  849MPD2    C412525   3.890   0.360  14.763 -0.7293 -0.1811 -0.2063
  849MPD2    C512526   3.793   0.350  14.667 -0.1166 -0.2550 -0.8793
  849MPD2     H12527   4.021   0.653  14.649  1.1289 -0.8112 -0.0274
  849MPD2    H112528   3.895   0.276  14.831 -2.2022  1.3240  1.7579
  849MPD2    H212529   3.718   0.418  14.482  1.1183 -3.4595  0.5648
  849MPD2    H312530   3.716   0.274  14.665 -0.2237 -0.1176 -1.8570
  849MPD2     N12531   4.087   0.475  14.846  0.2884  0.3042 -0.4642
  849MPD2    H512532   4.107   0.384  14.886 -1.4472  0.1883  0.1587
  849MPD2    N112533   3.852   0.635  14.443 -0.2899  0.4194 -0.3686
  849MPD2    H712534   3.780   0.610  14.376  0.7976  1.3804 -1.9043
  850MPD2     C12535   1.772   3.614  14.658  0.1245 -0.0938 -0.3788
  850MPD2    C112536   1.749   3.715  14.752 -0.2686 -0.7138  0.3339
  850MPD2    C212537   1.851   3.802  14.779 -0.2645  0.3513 -0.6029
  850MPD2    C312538   1.969   3.800  14.711  0.2321  0.3213 -0.4587
  850MPD2    C412539   1.986   3.700  14.617  0.3824 -1.0455 -1.2099
  850MPD2    C512540   1.901   3.594  14.603 -0.1703  0.4276  0.1555
  850MPD2     H12541   1.828   3.885  14.845  0.6603 -0.9041  1.3100
  850MPD2    H112542   2.080   3.701  14.564  2.0038  0.1511  1.7382
  850MPD2    H212543   1.704   3.533  14.636  0.4131 -0.1900 -0.9236
  850MPD2    H312544   1.914   3.508  14.539  0.2013  0.2215  0.5086
  850MPD2     N12545   2.068   3.894  14.745  0.2653  0.2274  0.5335
  850MPD2    H512546   2.054   3.948  14.830 -0.0226  1.5960 -0.3835
  850MPD2    N112547   1.613   3.733  14.799 -0.6956 -0.0854  0.0297
  850MPD2    H712548   1.540   3.707  14.733  0.0791  0.9792 -1.2505
  851MPD2     C12549   2.197   3.760  15.448  0.0516  0.0659  0.0379
  851MPD2    C112550   2.141   3.705  15.337 -0.8597  0.3431 -0.2266
  851MPD2    C212551   2.215   3.612  15.267  0.4350 -0.8080  0.0401
  851MPD2    C312552   2.333   3.567  15.318 -0.7850  0.4173 -0.1481
  851MPD2    C412553   2.384   3.618  15.435 -0.1110 -0.6543  0.2921
  851MPD2    C512554   2.319   3.724  15.494  0.0809 -0.4207  0.2057
  851MPD2     H12555   2.178   3.571  15.174  0.9986  1.4976 -1.1925
  851MPD2    H112556   2.472   3.584  15.488  0.4138 -0.0612 -0.2024
  851MPD2    H212557   2.141   3.831  15.507  2.1867  0.4123  1.6614
  851MPD2    H312558   2.362   3.771  15.581  0.8682 -1.3955  0.3439
  851MPD2     N12559   2.390   3.466  15.239 -0.2574  0.2286  0.1607
  851MPD2    H512560   2.320   3.435  15.172 -0.8406  1.0073  0.4106
  851MPD2    N112561   2.013   3.751  15.301  0.1275 -0.4421 -0.0922
  851MPD2    H712562   1.983   3.821  15.367  0.5347 -0.3149 -0.0423
  852MPD2     C12563   2.879   1.700   9.887 -0.2103 -0.1904  0.9022
  852MPD2    C112564   2.778   1.670   9.974 -0.7735  0.0788  0.0587
  852MPD2    C212565   2.725   1.779  10.045 -0.0915 -1.0649 -0.1163
  852MPD2    C312566   2.784   1.902  10.043 -0.7641 -0.5298  0.5905
  852MPD2    C412567   2.897   1.920   9.968 -0.5059  0.5120 -0.5356
  852MPD2    C512568   2.941   1.820   9.893 -0.4374 -1.0967 -0.0473
  852MPD2     H12569   2.638   1.758  10.106 -0.9883 -2.6608 -1.9239
  852MPD2    H112570   2.953   2.013   9.967 -1.7028  1.3297  4.8496
  852MPD2    H212571   2.927   1.623   9.828  1.3146  2.1906 -0.9988
  852MPD2    H312572   3.033   1.839   9.839  0.0791 -0.9738  0.8696
  852MPD2     N12573   2.719   1.997  10.117 -0.1095  0.3938 -0.4593
  852MPD2    H512574   2.636   1.964  10.166 -0.2179 -1.1491 -1.6936
  852MPD2    N112575   2.723   1.547   9.980 -0.3792  0.0926 -0.3002
  852MPD2    H712576   2.631   1.537  10.022 -1.4952  4.1248 -1.7930
  853MPD2     C12577   3.572   0.743  12.406 -0.5823 -0.6031 -0.7665
  853MPD2    C112578   3.462   0.791  12.336  0.1308  0.8159 -0.8026
  853MPD2    C212579   3.465   0.789  12.195  0.1173 -0.0676 -0.3510
  853MPD2    C312580   3.571   0.730  12.130 -0.4430  0.2023 -0.3863
  853MPD2    C412581   3.684   0.681  12.206 -0.0801 -0.2347 -0.3607
  853MPD2    C512582   3.673   0.691  12.342 -0.1363  0.3714  0.5453
  853MPD2     H12583   3.376   0.822  12.143  0.7501  0.7328 -0.9405
  853MPD2    H112584   3.766   0.625  12.162 -0.5874 -0.2413 -1.2903
  853MPD2    H212585   3.570   0.743  12.514 -0.1357 -0.8933 -0.7586
  853MPD2    H312586   3.757   0.652  12.398  0.3810  0.5980 -0.0644
  853MPD2     N12587   3.584   0.727  11.994 -0.4107 -0.1909 -0.6462
  853MPD2    H512588   3.669   0.680  11.961 -0.4068  0.9336 -2.2639
  853MPD2    N112589   3.356   0.845  12.411  0.2594  0.0592 -0.6962
  853MPD2    H712590   3.369   0.850  12.512 -1.0141 -1.5250 -0.4729
  854MPD2     C12591   0.467   0.988  12.666 -0.0319  0.0398  0.2681
  854MPD2    C112592   0.592   1.045  12.617  0.3416  0.3393 -0.5958
  854MPD2    C212593   0.709   1.025  12.691 -0.1958 -0.0997 -0.5994
  854MPD2    C312594   0.707   0.950  12.812  0.3287 -0.1346  0.0972
  854MPD2    C412595   0.582   0.915  12.857 -0.2378  0.5494  0.4743
  854MPD2    C512596   0.469   0.930  12.787  0.6987 -0.0534  1.0815
  854MPD2     H12597   0.804   1.047  12.645 -0.1804  2.2477  0.5713
  854MPD2    H112598   0.577   0.878  12.959  0.6941 -0.2387  0.2427
  854MPD2    H212599   0.372   0.992  12.613  0.1864 -0.5173 -0.1626
  854MPD2    H312600   0.374   0.898  12.829 -0.3411 -0.2838 -1.4323
  854MPD2     N12601   0.824   0.916  12.891 -0.2772  0.3606 -0.3002
  854MPD2    H512602   0.809   0.867  12.979 -0.2755  0.9604  0.0316
  854MPD2    N112603   0.584   1.131  12.508 -0.7085 -0.0365 -0.1155
  854MPD2    H712604   0.493   1.131  12.463 -0.6097 -1.4138 -0.3122
  855MPD2     C12605   1.067   0.978  13.745  0.4320  0.1121 -0.0697
  855MPD2    C112606   1.049   0.843  13.714  0.3281  0.2575 -0.1533
  855MPD2    C212607   1.041   0.817  13.581 -0.2575 -0.3640 -0.9481
  855MPD2    C312608   1.029   0.919  13.492 -0.4783 -1.0217 -0.2331
  855MPD2    C412609   1.016   1.045  13.529  0.0238  0.3997  0.5782
  855MPD2    C512610   1.042   1.075  13.656 -0.2237  0.1339 -0.6615
  855MPD2     H12611   1.044   0.715  13.545  0.5878 -0.2313 -1.2363
  855MPD2    H112612   1.011   1.125  13.456 -1.4860 -4.2381 -4.3871
  855MPD2    H212613   1.079   1.012  13.847  0.9057 -1.9954  0.5753
  855MPD2    H312614   1.045   1.180  13.685 -3.3298 -0.1622  0.6977
  855MPD2     N12615   1.034   0.894  13.348  0.3910 -0.2413  0.2029
  855MPD2    H512616   1.006   0.966  13.282 -0.3027  1.0537  1.9065
  855MPD2    N112617   1.047   0.740  13.810  0.4032 -0.2316 -0.3965
  855MPD2    H712618   1.015   0.648  13.782 -1.3317  0.1091  0.4635
  856MPD2     C12619   2.765   2.101  13.320 -0.6116 -0.0772 -0.5571
  856MPD2    C112620   2.803   2.179  13.430 -0.1131 -0.0277  0.4758
  856MPD2    C212621   2.731   2.288  13.470  0.2610  0.2699 -0.4857
  856MPD2    C312622   2.637   2.343  13.386  0.3278  0.4984  0.3939
  856MPD2    C412623   2.617   2.273  13.267  0.0178 -0.0186  0.0859
  856MPD2    C512624   2.668   2.154  13.234 -0.5227  0.8715  0.5944
  856MPD2     H12625   2.760   2.347  13.556  1.9863 -1.4516  0.1107
  856MPD2    H112626   2.543   2.309  13.196 -1.0240  0.5074  1.4411
  856MPD2    H212627   2.813   2.010  13.286  1.1839  1.2143 -1.4798
  856MPD2    H312628   2.646   2.101  13.142 -0.6255 -0.4460  1.3754
  856MPD2     N12629   2.579   2.470  13.392  1.1201 -0.2218  0.5815
  856MPD2    H512630   2.516   2.495  13.317 -0.6851 -0.0121  2.1750
  856MPD2    N112631   2.906   2.138  13.510 -0.3216 -0.8462 -0.0436
  856MPD2    H712632   2.931   2.202  13.585  0.3030 -0.7894 -0.3016
  857MPD2     C12633   4.395   3.810  13.042  0.3238 -0.2089  0.0449
  857MPD2    C112634   4.528   3.820  13.026 -0.9226 -0.2462  0.3602
  857MPD2    C212635   4.584   3.936  13.058  0.5957 -0.8783  0.7320
  857MPD2    C312636   4.510   4.044  13.120  0.0797  0.1059  0.4422
  857MPD2    C412637   4.377   4.026  13.143 -0.3585 -0.4987  0.0113
  857MPD2    C512638   4.321   3.906  13.096 -1.5131  0.4429  0.6511
  857MPD2     H12639   4.678   3.964  13.011  1.0690  2.5170  3.7379
  857MPD2    H112640   4.312   4.103  13.183 -0.7291  0.0678 -1.6389
  857MPD2    H212641   4.354   3.715  13.011 -1.9152  1.1681 -1.2106
  857MPD2    H312642   4.216   3.882  13.112 -1.3162  0.3182  1.7588
  857MPD2     N12643   4.578   4.166  13.122 -0.3952  0.2347  0.0288
  857MPD2    H512644   4.676   4.164  13.099  0.1088  2.0694  2.0619
  857MPD2    N112645   4.598   3.725  12.948 -0.0754 -1.0738  0.4836
  857MPD2    H712646   4.542   3.643  12.925 -2.1765  0.1640  1.2498
  858MPD2     C12647   0.266   3.395  16.454  0.1111 -0.0902  0.3442
  858MPD2    C112648   0.404   3.363  16.461 -0.0330  0.4656  0.3061
  858MPD2    C212649   0.479   3.417  16.564  0.5823 -0.6550  0.0806
  858MPD2    C312650   0.427   3.500  16.661 -0.2410  0.0676  0.2033
  858MPD2    C412651   0.288   3.525  16.663 -0.2108 -0.0721  0.1688
  858MPD2    C512652   0.217   3.475  16.557 -0.7291  0.3907  0.4155
  858MPD2     H12653   0.580   3.376  16.569  1.3512  0.8949 -2.6681
  858MPD2    H112654   0.238   3.589  16.734 -1.1282 -1.5511  0.8542
  858MPD2    H212655   0.199   3.363  16.375  1.2103  1.6950 -1.2932
  858MPD2    H312656   0.116   3.508  16.536 -1.0144 -0.2188  0.8202
  858MPD2     N12657   0.501   3.559  16.765  0.1062  0.1902  0.7187
  858MPD2    H512658   0.448   3.605  16.837 -0.4874 -0.4290  0.6838
  858MPD2    N112659   0.463   3.274  16.363  0.3628  0.2248  0.2101
  858MPD2    H712660   0.564   3.274  16.359  0.3429  0.5452 -0.2805
  859MPD2     C12661   3.380   0.261  15.298  0.1222 -0.3152  1.1055
  859MPD2    C112662   3.516   0.252  15.301 -0.1046 -0.0720 -0.2813
  859MPD2    C212663   3.576   0.149  15.373  0.0221 -0.1359  0.0552
  859MPD2    C312664   3.501   0.059  15.447 -0.1303  0.1009 -0.2425
  859MPD2    C412665   3.367   0.076  15.455  0.1112  0.6813 -0.0774
  859MPD2    C512666   3.311   0.173  15.378 -0.2004 -0.5062 -0.4480
  859MPD2     H12667   3.684   0.143  15.367 -0.1973 -3.3067 -0.9435
  859MPD2    H112668   3.298   0.025  15.522  1.3894  1.2213  1.6325
  859MPD2    H212669   3.329   0.343  15.250  2.3658  0.2959 -0.1904
  859MPD2    H312670   3.205   0.193  15.391 -0.1965 -1.9087  1.6618
  859MPD2     N12671   3.555   4.692  15.521 -0.1413  0.8260 -0.1855
  859MPD2    H512672   3.487   4.625  15.554  1.6404 -0.1158  1.5854
  859MPD2    N112673   3.589   0.343  15.218 -0.2996  0.2711  0.5302
  859MPD2    H712674   3.541   0.419  15.171 -1.0565 -0.3942  0.2195
  860MPD2     C12675   1.827   1.159  11.576 -0.6984 -0.8063  0.0602
  860MPD2    C112676   1.892   1.086  11.672 -0.2241 -0.0384 -0.1943
  860MPD2    C212677   1.840   0.965  11.713  0.3803 -0.6026  0.6682
  860MPD2    C312678   1.720   0.925  11.664  0.0549  0.5292 -0.0126
  860MPD2    C412679   1.653   0.997  11.575 -0.8600 -0.3444 -0.4588
  860MPD2    C512680   1.712   1.111  11.520  0.0809 -0.3653 -0.0050
  860MPD2     H12681   1.900   0.901  11.778  0.8036  0.0146  0.8923
  860MPD2    H112682   1.556   0.961  11.543 -1.3586  0.7990 -0.2339
  860MPD2    H212683   1.864   1.251  11.534 -1.6162 -1.4255 -2.1128
  860MPD2    H312684   1.662   1.160  11.437 -0.2951  0.7893  0.9062
  860MPD2     N12685   1.642   0.816  11.714 -0.4455 -0.0762 -0.7616
  860MPD2    H512686   1.547   0.802  11.680 -0.5614 -0.0434 -0.4527
  860MPD2    N112687   2.007   1.134  11.736 -0.0308 -0.9621  0.2587
  860MPD2    H712688   2.061   1.080  11.803 -0.4368 -1.4954  0.1497
  861MPD2     C12689   0.808   3.792  11.005 -0.0259  0.2892 -0.0419
  861MPD2    C112690   0.674   3.803  11.024  0.0118 -0.1181  0.0006
  861MPD2    C212691   0.597   3.868  10.934  0.2251 -0.6088  0.1310
  861MPD2    C312692   0.656   3.915  10.819 -0.3448  0.2075 -0.5161
  861MPD2    C412693   0.787   3.890  10.795  0.1491 -0.1718  0.4454
  861MPD2    C512694   0.866   3.834  10.887  0.4000 -0.5412 -0.7107
  861MPD2     H12695   0.490   3.875  10.951  0.4005 -0.4759  1.1742
  861MPD2    H112696   0.836   3.927  10.705  1.3658  0.3528  1.3267
  861MPD2    H212697   0.882   3.753  11.074  0.1268  1.8484  0.6917
  861MPD2    H312698   0.970   3.830  10.859  0.9912 -2.1423  1.7276
  861MPD2     N12699   0.574   3.979  10.726  0.2019 -0.4108  0.3261
  861MPD2    H512700   0.609   3.999  10.633  0.4786 -1.4881  0.1962
  861MPD2    N112701   0.619   3.780  11.150 -0.1058 -0.1899 -0.1196
  861MPD2    H712702   0.524   3.814  11.164 -0.0296 -1.3739  3.1461
  862MPD2     C12703   0.028   3.888  10.208 -0.8947 -0.6677 -0.5012
  862MPD2    C112704   0.128   3.848  10.297  0.2952 -0.5892 -0.2256
  862MPD2    C212705   0.139   3.714  10.331  0.5385  0.1638 -0.1812
  862MPD2    C312706   0.042   3.626  10.283 -1.1341  0.0163 -0.2213
  862MPD2    C412707   4.672   3.665  10.209  0.2347  0.0296  0.3105
  862MPD2    C512708   4.668   3.794  10.173 -0.6116  0.2603  0.0852
  862MPD2     H12709   0.211   3.681  10.405  0.0519 -0.3388  0.0708
  862MPD2    H112710   4.584   3.607  10.186  0.4112  0.4457 -1.3900
  862MPD2    H212711   0.017   3.990  10.171 -1.5413 -0.5533 -0.0029
  862MPD2    H312712   4.584   3.832  10.116 -2.1262 -0.9338  1.5223
  862MPD2     N12713   0.052   3.488  10.317 -1.0513 -0.4090 -0.0477
  862MPD2    H512714   4.703   3.434  10.302 -0.5364 -1.8306  2.2258
  862MPD2    N112715   0.219   3.943  10.352  1.0112 -0.0169  0.1306
  862MPD2    H712716   0.293   3.908  10.412  2.6575  0.7541 -1.4239
  863MPD2     C12717   3.804   2.160  16.402 -0.0015 -0.3406  0.0997
  863MPD2    C112718   3.723   2.128  16.508 -0.0350 -0.2805 -0.2626
  863MPD2    C212719   3.781   2.078  16.623  0.2906 -0.3594  0.1225
  863MPD2    C312720   3.913   2.037  16.622 -0.6310 -0.2593  0.0119
  863MPD2    C412721   3.988   2.060  16.511  0.3380 -0.7056 -0.4046
  863MPD2    C512722   3.936   2.127  16.401 -0.9201 -0.8302 -0.2928
  863MPD2     H12723   3.716   2.068  16.708 -0.8790 -1.0348 -0.8524
  863MPD2    H112724   4.093   2.034  16.504  0.8262  1.0192  0.4552
  863MPD2    H212725   3.764   2.214  16.316 -2.2756  0.7522  1.8554
  863MPD2    H312726   4.001   2.158  16.320  0.1749 -0.3460  0.7638
  863MPD2     N12727   3.971   1.973  16.738 -0.2098 -0.2288  0.4429
  863MPD2    H512728   4.072   1.967  16.743 -0.1467  0.3541 -0.1986
  863MPD2    N112729   3.585   2.154  16.498  0.1049  0.5113 -0.2080
  863MPD2    H712730   3.549   2.180  16.407  0.2331 -0.0160 -0.4041
  864MPD2     C12731   3.829   2.989  17.421  0.4185  0.4448 -0.1903
  864MPD2    C112732   3.868   2.920  17.309  0.2764 -0.3190  0.1931
  864MPD2    C212733   3.924   2.988  17.207 -0.4997 -0.5831  0.0543
  864MPD2    C312734   3.937   3.126  17.212 -0.0156  0.0811 -0.3841
  864MPD2    C412735   3.898   3.195  17.321  0.6719  0.6278  0.0214
  864MPD2    C512736   3.845   3.124  17.428 -0.0820 -0.5617 -0.3624
  864MPD2     H12737   3.953   2.933  17.117 -1.1437 -1.6213  0.4804
  864MPD2    H112738   3.920   3.301  17.319 -0.5962  0.8775 -0.4237
  864MPD2    H212739   3.794   2.939  17.510  0.6035 -0.5131 -0.6608
  864MPD2    H312740   3.820   3.177  17.519 -0.7743 -1.1984 -0.1844
  864MPD2     N12741   3.991   3.198  17.102 -0.2919 -0.0428 -0.2890
  864MPD2    H512742   3.976   3.299  17.105  1.2164  0.1717 -0.0433
  864MPD2    N112743   3.858   2.777  17.310 -0.8721 -0.2940 -0.1838
  864MPD2    H712744   3.842   2.730  17.399  1.6570  1.7020  1.3228
  865MPD2     C12745   3.880   3.460  16.268 -0.7614  0.6719  0.3366
  865MPD2    C112746   3.904   3.370  16.367  0.5758 -0.0227 -0.6837
  865MPD2    C212747   3.904   3.405  16.505 -0.3709 -0.8042 -0.1237
  865MPD2    C312748   3.879   3.541  16.540 -0.5091 -0.1305  0.5341
  865MPD2    C412749   3.848   3.625  16.434  0.4303 -0.4047 -0.2603
  865MPD2    C512750   3.849   3.585  16.306 -0.5353 -0.6929  0.5074
  865MPD2     H12751   3.922   3.341  16.591 -1.4543 -0.4840  0.3497
  865MPD2    H112752   3.825   3.728  16.460  1.8200  0.1813 -1.3699
  865MPD2    H212753   3.885   3.432  16.163  0.3984  0.5037  0.4421
  865MPD2    H312754   3.830   3.652  16.223  0.8282  0.1496  0.8780
  865MPD2     N12755   3.886   3.608  16.664  0.1670  0.1848  0.2012
  865MPD2    H512756   3.861   3.706  16.662  0.9569  0.2808 -3.8721
  865MPD2    N112757   3.965   3.249  16.327 -0.1809  0.3642 -0.1200
  865MPD2    H712758   3.973   3.231  16.227  0.3096  0.8262 -0.1610
  866MPD2     C12759   1.350   3.779  11.291  0.4361  0.2519 -0.0282
  866MPD2    C112760   1.356   3.826  11.166  0.6227  0.0965 -0.0390
  866MPD2    C212761   1.246   3.902  11.127 -1.0213  0.1958  1.0226
  866MPD2    C312762   1.149   3.936  11.221  0.4413 -0.7654 -0.5620
  866MPD2    C412763   1.150   3.887  11.352 -0.0333 -0.0516  0.0904
  866MPD2    C512764   1.248   3.798  11.386  0.0027 -0.0994  0.0791
  866MPD2     H12765   1.246   3.933  11.023 -1.4796 -0.2065  0.8984
  866MPD2    H112766   1.082   3.914  11.432 -0.2206  1.9012 -0.7279
  866MPD2    H212767   1.433   3.714  11.314  0.9145  0.2546 -1.7453
  866MPD2    H312768   1.262   3.763  11.487 -0.5460  3.7377  1.5110
  866MPD2     N12769   1.025   4.000  11.182 -0.7693 -0.0231  0.9738
  866MPD2    H512770   0.949   4.013  11.247 -1.4017  1.3432 -0.0292
  866MPD2    N112771   1.472   3.791  11.088 -0.2839 -0.5147 -0.5296
  866MPD2    H712772   1.545   3.730  11.125  0.7237  1.2291  0.3986
  867MPD2     C12773   3.606   3.391  16.811  0.3523  0.2667  0.0277
  867MPD2    C112774   3.552   3.349  16.931 -0.3468  0.9947 -0.0133
  867MPD2    C212775   3.470   3.442  16.997  0.4094 -0.6502 -0.2972
  867MPD2    C312776   3.430   3.561  16.943 -0.1251 -0.4590 -0.1676
  867MPD2    C412777   3.493   3.594  16.824 -0.0648 -0.4773  0.1544
  867MPD2    C512778   3.577   3.512  16.753  1.2048 -0.1865  0.4510
  867MPD2     H12779   3.426   3.414  17.092  0.3781 -2.3613 -0.8126
  867MPD2    H112780   3.487   3.691  16.777  1.9688 -0.0022  0.9138
  867MPD2    H212781   3.669   3.331  16.746  0.7454 -0.1603  0.8079
  867MPD2    H312782   3.629   3.535  16.661  1.1185 -2.0965 -0.0750
  867MPD2     N12783   3.340   3.650  17.000 -0.2160 -0.0587  0.3552
  867MPD2    H512784   3.298   3.717  16.937 -1.9110 -0.6696  0.8327
  867MPD2    N112785   3.592   3.221  16.980 -0.2712  0.3489  0.0223
  867MPD2    H712786   3.646   3.159  16.921  0.6044  0.7686  0.3804
  868MPD2     C12787   0.157   2.495  13.055  0.2786 -0.2792 -0.0769
  868MPD2    C112788   0.189   2.426  13.170 -0.0501  0.1594  0.3533
  868MPD2    C212789   0.105   2.443  13.281 -0.0982  0.3014 -0.0173
  868MPD2    C312790   4.726   2.505  13.270 -0.1388 -0.3034 -0.6883
  868MPD2    C412791   4.695   2.571  13.155  0.2079  0.4809  0.1958
  868MPD2    C512792   0.040   2.564  13.043 -1.0849  0.8163 -0.5157
  868MPD2     H12793   0.135   2.399  13.375  0.2526 -0.8131 -0.6519
  868MPD2    H112794   4.594   2.612  13.149  0.9321  1.6641 -3.7108
  868MPD2    H212795   0.218   2.489  12.965  2.0619  1.3181  1.0324
  868MPD2    H312796   0.005   2.599  12.947 -0.6484  1.9155 -0.2779
  868MPD2     N12797   4.643   2.500  13.384  0.5723  0.4993 -0.0599
  868MPD2    H512798   4.678   2.462  13.471 -2.5953 -2.6555 -0.1766
  868MPD2    N112799   0.307   2.344  13.164  1.2745  0.1943 -0.1571
  868MPD2    H712800   0.365   2.355  13.081  1.1558 -0.8619 -0.3707
  869MPD2     C12801   0.772   4.623   0.425  0.5147  0.2302  0.4179
  869MPD2    C112802   0.734   4.730   0.347 -0.2567 -0.3369  0.3806
  869MPD2    C212803   0.812   0.102   0.320  0.2791 -0.1530 -0.0521
  869MPD2    C312804   0.944   0.100   0.370 -0.4844  0.3203  0.1069
  869MPD2    C412805   0.983   4.729   0.444  0.1348  0.1834 -0.2383
  869MPD2    C512806   0.899   4.630   0.481 -0.0779 -0.4239 -0.1044
  869MPD2     H12807   0.797   0.177   0.244 -0.2982  0.5079  0.7034
  869MPD2    H112808   1.081   4.714   0.490  1.0244  1.4135 -1.7455
  869MPD2    H212809   0.703   4.545   0.455 -0.8392  1.1428 -0.3480
  869MPD2    H312810   0.944   4.546   0.534 -1.4793  0.8939  3.1467
  869MPD2     N12811   1.041   0.200   0.341  0.2900 -0.5634  0.3517
  869MPD2    H512812   1.132   0.197   0.386  0.5477  2.3060  0.0105
  869MPD2    N112813   0.602   4.726   0.311  0.0019 -0.7451  0.1576
  869MPD2    H712814   0.544   4.643   0.323  1.7525 -1.6910  2.1154
  870MPD2     C12815   1.701   3.632   1.570 -0.5344  0.2296  0.5023
  870MPD2    C112816   1.615   3.605   1.471 -1.0271  0.1184 -0.0971
  870MPD2    C212817   1.515   3.693   1.438  0.0823 -0.9591  0.0567
  870MPD2    C312818   1.490   3.802   1.517  0.1681  0.5910 -0.5745
  870MPD2    C412819   1.586   3.832   1.613  0.3222  0.6035 -0.2671
  870MPD2    C512820   1.695   3.752   1.635  0.3766  0.1955 -0.2794
  870MPD2     H12821   1.437   3.663   1.369 -0.5434  1.6079 -0.3629
  870MPD2    H112822   1.583   3.922   1.675 -0.7550  0.3231  0.0904
  870MPD2    H212823   1.784   3.573   1.607 -0.8116  1.1479  2.5793
  870MPD2    H312824   1.771   3.785   1.705  0.2580 -0.6052  0.2355
  870MPD2     N12825   1.373   3.877   1.496  0.3460 -0.6193  0.4066
  870MPD2    H512826   1.313   3.840   1.423 -1.2536  3.8972 -0.5457
  870MPD2    N112827   1.632   3.483   1.401  0.5927 -0.9969 -0.1991
  870MPD2    H712828   1.701   3.422   1.441 -0.2619 -1.0717  1.1555
  871MPD2     C12829   1.920   3.477  16.245 -0.4266 -0.3689 -0.9589
  871MPD2    C112830   1.890   3.410  16.361 -0.5180  0.0556 -0.4436
  871MPD2    C212831   1.892   3.274  16.367 -0.2923 -0.3842  0.2946
  871MPD2    C312832   1.901   3.197  16.247 -0.2025  0.1952  0.6273
  871MPD2    C412833   1.913   3.266  16.131 -0.4061  0.6788  0.8287
  871MPD2    C512834   1.936   3.399  16.130 -0.9213  0.2852  0.2009
  871MPD2     H12835   1.878   3.222  16.461  2.1796 -1.0919  0.2648
  871MPD2    H112836   1.927   3.210  16.039  0.0402 -0.2780  1.4746
  871MPD2    H212837   1.923   3.585  16.241  0.4366 -0.3324  0.4080
  871MPD2    H312838   1.938   3.456  16.038 -0.3998 -1.4393 -0.8534
  871MPD2     N12839   1.886   3.060  16.253  0.4224 -0.4038 -0.1362
  871MPD2    H512840   1.877   3.019  16.346 -1.8113  0.5937  0.0838
  871MPD2    N112841   1.886   3.486  16.478  0.2965 -0.9464 -0.1497
  871MPD2    H712842   1.910   3.584  16.466 -0.9204 -0.5458  0.6214
  872MPD2     C12843   2.971   1.076  14.032  0.1103  0.4147 -0.4067
  872MPD2    C112844   2.904   1.156  13.947 -0.3568  0.4656 -0.3967
  872MPD2    C212845   2.770   1.193  13.969  0.3271  0.1507  0.3090
  872MPD2    C312846   2.700   1.146  14.082 -0.3798  0.8448  0.5800
  872MPD2    C412847   2.768   1.064  14.173  0.3047 -0.0235  0.0941
  872MPD2    C512848   2.894   1.022  14.141  0.3657  0.8843  0.3294
  872MPD2     H12849   2.722   1.255  13.894 -0.3265 -0.3692  0.2927
  872MPD2    H112850   2.725   1.022  14.263  0.8731 -2.5415 -0.8128
  872MPD2    H212851   3.076   1.051  14.023  0.0757  0.1733 -0.1448
  872MPD2    H312852   2.950   0.969  14.217  0.2862  0.5390  0.1498
  872MPD2     N12853   2.576   1.180  14.113  0.0783 -0.5015  0.6447
  872MPD2    H512854   2.536   1.152  14.203 -0.3418  0.4594  0.7530
  872MPD2    N112855   2.980   1.195  13.830 -0.4625 -0.1769  0.8369
  872MPD2    H712856   3.080   1.180  13.834 -0.0574  1.5268 -2.6507
  873MPD2     C12857   0.002   0.629   0.854 -0.3733 -0.7460  0.0468
  873MPD2    C112858   4.657   0.648   0.969 -0.4953 -0.5437  0.0481
  873MPD2    C212859   4.553   0.562   1.003  0.0329 -0.1234  0.5882
  873MPD2    C312860   4.522   0.458   0.911 -0.0922  0.0852  0.2702
  873MPD2    C412861   4.596   0.451   0.795 -0.2640 -0.7017  0.4029
  873MPD2    C512862   4.707   0.525   0.776 -0.8658  0.2253 -0.3830
  873MPD2     H12863   4.499   0.572   1.096 -0.1622  2.2808  0.2055
  873MPD2    H112864   4.587   0.375   0.719  0.8258 -0.3105 -0.1181
  873MPD2    H212865   0.082   0.698   0.828  1.7042 -2.3642  2.2316
  873MPD2    H312866   0.038   0.499   0.694 -0.1518  1.0407 -0.0608
  873MPD2     N12867   4.420   0.365   0.925  0.1491 -0.3216  0.1015
  873MPD2    H512868   4.398   0.308   0.843  0.2157 -0.1310 -0.0484
  873MPD2    N112869   4.678   0.769   1.050  0.5529 -0.2438 -0.0503
  873MPD2    H712870   0.032   0.819   1.050  1.6904 -2.2801 -1.2555
  874MPD2     C12871   4.490   1.408  16.160 -0.3795  0.1711 -0.1347
  874MPD2    C112872   4.554   1.335  16.263  0.6056 -0.4582 -0.0667
  874MPD2    C212873   4.672   1.387  16.312  0.6864 -0.0726  0.5778
  874MPD2    C312874   4.716   1.517  16.284 -0.1287 -0.6745 -1.0407
  874MPD2    C412875   4.656   1.584  16.186 -0.0882 -0.6339  0.1292
  874MPD2    C512876   4.544   1.535  16.127  0.4673  0.0611 -0.4177
  874MPD2     H12877   4.734   1.328  16.379  1.2912 -0.7073 -0.5485
  874MPD2    H112878   4.698   1.677  16.148 -0.8682  0.3310  1.6323
  874MPD2    H212879   4.394   1.372  16.128 -0.9695  2.1301 -0.5902
  874MPD2    H312880   4.493   1.581  16.043  0.7322  0.5287 -0.3241
  874MPD2     N12881   0.091   1.561  16.358 -0.1977 -0.3189  0.6868
  874MPD2    H512882   0.136   1.502  16.427  2.0058  0.2782 -0.2310
  874MPD2    N112883   4.491   1.210  16.307  0.1785 -0.2113 -0.4237
  874MPD2    H712884   4.401   1.187  16.267  0.4117 -1.8858  0.0358
  875MPD2     C12885   0.653   4.295  14.775  0.2480 -0.4903  0.2580
  875MPD2    C112886   0.535   4.307  14.842  0.0022  0.7119 -0.2715
  875MPD2    C212887   0.547   4.332  14.981  0.1542 -0.5701  0.0629
  875MPD2    C312888   0.669   4.349  15.047  0.3304 -0.4839 -0.1771
  875MPD2    C412889   0.780   4.351  14.971 -0.8229  0.3101 -0.0741
  875MPD2    C512890   0.776   4.310  14.840  0.0496 -0.6429  0.1553
  875MPD2     H12891   0.454   4.351  15.035 -0.6565 -0.0808 -1.5182
  875MPD2    H112892   0.879   4.356  15.017 -0.8158  1.8434 -0.2444
  875MPD2    H212893   0.645   4.267  14.671 -0.3821 -1.3321  0.5340
  875MPD2    H312894   0.868   4.289  14.787  0.1379 -0.2680  0.1582
  875MPD2     N12895   0.683   4.374  15.183 -0.4737 -0.5889 -0.2698
  875MPD2    H512896   0.771   4.399  15.227  0.9786 -3.0554 -1.7889
  875MPD2    N112897   0.407   4.305  14.781 -0.1408 -0.2678  0.0153
  875MPD2    H712898   0.327   4.316  14.843 -0.0098  1.0880 -0.0581
  876MPD2     C12899   3.554   0.279  15.746  0.2551 -0.2602  0.1401
  876MPD2    C112900   3.689   0.283  15.747 -0.0058 -0.0377 -0.4119
  876MPD2    C212901   3.769   0.182  15.799  0.0477 -0.1720 -0.8752
  876MPD2    C312902   3.708   0.070  15.847  0.1258  0.0993  0.4368
  876MPD2    C412903   3.569   0.067  15.838 -0.6164  0.9163  0.9429
  876MPD2    C512904   3.489   0.165  15.788  0.2473 -0.5957  0.6502
  876MPD2     H12905   3.877   0.178  15.797  0.0919  0.2897  1.8236
  876MPD2    H112906   3.518   4.716  15.880 -1.1043  0.3902 -0.7394
  876MPD2    H212907   3.504   0.362  15.698 -1.0054 -1.4985 -0.6854
  876MPD2    H312908   3.380   0.162  15.790  0.1477  2.4118 -0.7169
  876MPD2     N12909   3.784   4.703  15.904 -0.7427 -0.8173  0.0264
  876MPD2    H512910   3.885   4.708  15.898 -0.7430  1.6664  1.8372
  876MPD2    N112911   3.747   0.404  15.703 -0.2618  0.1091  0.3055
  876MPD2    H712912   3.682   0.477  15.676 -0.9673 -0.4706  0.4698
  877MPD2     C12913   3.618   0.918  15.164 -1.0686  0.1281  0.6068
  877MPD2    C112914   3.738   0.961  15.218  0.0172  0.1021  0.0284
  877MPD2    C212915   3.801   1.068  15.166  0.2371  0.2968 -0.1374
  877MPD2    C312916   3.755   1.126  15.049 -0.0700  0.7643  0.5631
  877MPD2    C412917   3.646   1.070  14.985  0.0526 -0.4892  0.0325
  877MPD2    C512918   3.573   0.978  15.049 -0.1104 -0.3828 -0.3319
  877MPD2     H12919   3.886   1.116  15.213  0.2912  1.1266 -1.0653
  877MPD2    H112920   3.613   1.110  14.890 -2.5308 -1.8529  0.3693
  877MPD2    H212921   3.565   0.828  15.193  0.5227 -1.2383 -0.7232
  877MPD2    H312922   3.484   0.938  15.001  0.5100 -1.9558 -0.1780
  877MPD2     N12923   3.830   1.225  14.980 -0.2035  0.0122 -0.5861
  877MPD2    H512924   3.786   1.245  14.891  3.1200 -2.8005 -2.8600
  877MPD2    N112925   3.787   0.899  15.339 -0.3485 -0.1657 -0.5001
  877MPD2    H712926   3.873   0.947  15.364  0.4315 -1.3895 -0.7905
  878MPD2     C12927   3.684   0.428  13.520  0.7044  0.0804  0.0411
  878MPD2    C112928   3.790   0.506  13.494 -0.6696  0.1597  0.1272
  878MPD2    C212929   3.855   0.559  13.603 -0.0307  1.0077  0.2887
  878MPD2    C312930   3.811   0.540  13.736 -0.3884  0.3935  0.8928
  878MPD2    C412931   3.690   0.465  13.762 -0.5714 -0.2702 -0.0390
  878MPD2    C512932   3.631   0.410  13.648 -0.0643 -0.6335 -0.5256
  878MPD2     H12933   3.933   0.629  13.576 -0.3021  1.2269  0.0950
  878MPD2    H112934   3.639   0.454  13.857 -0.9025  2.8619  0.1228
  878MPD2    H212935   3.633   0.377  13.439 -0.7482  0.6604  0.6001
  878MPD2    H312936   3.545   0.345  13.665  1.1380 -1.8161  1.1082
  878MPD2     N12937   3.890   0.611  13.836 -0.5151 -0.0385 -0.3910
  878MPD2    H512938   3.981   0.648  13.809 -0.3434 -2.0952 -2.6547
  878MPD2    N112939   3.833   0.515  13.360 -0.0803 -0.4043 -0.3704
  878MPD2    H712940   3.785   0.455  13.294  1.3799  0.8284 -2.5578
  879MPD2     C12941   0.112   1.410  17.181 -0.0376  0.4192 -0.5319
  879MPD2    C112942   0.035   1.517  17.169 -0.2543 -0.3607  0.1106
  879MPD2    C212943   0.005   1.561  17.044  0.6840  0.0228 -0.4661
  879MPD2    C312944   0.039   1.489  16.935 -0.3234  0.0536 -0.3857
  879MPD2    C412945   0.105   1.368  16.957  0.8624  0.3126 -0.4291
  879MPD2    C512946   0.149   1.333  17.075 -0.6400  0.6438 -0.0301
  879MPD2     H12947   4.682   1.653  17.049  2.1702  0.9781 -0.5957
  879MPD2    H112948   0.136   1.313  16.869  0.2564 -1.5082  0.5029
  879MPD2    H212949   0.152   1.381  17.278 -1.2370 -0.0298 -0.1755
  879MPD2    H312950   0.214   1.248  17.093 -2.3728 -0.6930 -0.1206
  879MPD2     N12951   4.733   1.515  16.805 -0.2088 -0.1253  0.3135
  879MPD2    H512952   0.011   1.448  16.730 -0.6195 -0.2074  0.3174
  879MPD2    N112953   4.733   1.581  17.294  0.7822 -0.3565 -0.3289
  879MPD2    H712954   0.023   1.535  17.381 -2.5455  2.4777  2.2006
  880MPD2     C12955   0.606   3.507   0.179  0.1550 -0.5527 -0.0413
  880MPD2    C112956   0.669   3.525   0.302  0.2919  0.5764  0.0880
  880MPD2    C212957   0.703   3.412   0.373 -0.1223  0.1073 -0.1310
  880MPD2    C312958   0.694   3.278   0.323  0.0285 -0.5665 -1.1912
  880MPD2    C412959   0.635   3.267   0.203  0.3652  0.2346  0.8758
  880MPD2    C512960   0.593   3.378   0.129 -0.2057 -0.0937 -0.1760
  880MPD2     H12961   0.759   3.423   0.465  0.7685 -0.4721 -0.6128
  880MPD2    H112962   0.622   3.172   0.153  2.3645  0.5726 -0.2544
  880MPD2    H212963   0.563   3.587   0.120  1.3321  0.8646  1.0196
  880MPD2    H312964   0.537   3.366   0.037  0.2313  0.0571 -0.4621
  880MPD2     N12965   0.736   3.174   0.407  0.0860 -0.3338 -0.2409
  880MPD2    H512966   0.778   3.207   0.493 -0.9518  0.6675 -0.1087
  880MPD2    N112967   0.693   3.657   0.340  0.2894 -0.1521 -0.1364
  880MPD2    H712968   0.664   3.731   0.276 -3.2621 -0.9352  0.6000
  881MPD2     C12969   1.188   4.467   0.011 -0.3662 -0.4029 -0.0726
  881MPD2    C112970   1.185   4.337  17.699  0.5277 -0.4342 -0.1700
  881MPD2    C212971   1.130   4.238   0.042  0.1323 -0.1377 -0.9171
  881MPD2    C312972   1.082   4.272   0.172 -0.3675  0.2200 -0.0083
  881MPD2    C412973   1.080   4.402   0.207  0.6805 -0.5373 -0.4553
  881MPD2    C512974   1.132   4.501   0.126 -0.4553 -0.4699  0.4139
  881MPD2     H12975   1.131   4.135   0.008 -1.4161 -0.0568 -1.2420
  881MPD2    H112976   1.026   4.445   0.290 -1.0086 -3.2314 -0.1749
  881MPD2    H212977   1.210   4.548  17.682 -0.0224 -0.3297  0.1229
  881MPD2    H312978   1.113   4.607   0.142  1.9978 -0.1808  1.3595
  881MPD2     N12979   1.026   4.191   0.273  0.1287 -0.0924  0.3441
  881MPD2    H512980   1.009   4.238   0.361 -2.0353  0.7939 -0.5445
  881MPD2    N112981   1.213   4.324  17.562  0.5214  0.6805  0.2013
  881MPD2    H712982   1.233   4.408  17.508  1.5579  0.7385  0.6951
  882MPD2     C12983   4.208   1.192  14.273  0.3621 -0.8295  0.1699
  882MPD2    C112984   4.090   1.222  14.344 -0.4912 -0.4866  0.2992
  882MPD2    C212985   3.967   1.206  14.281  0.1679 -0.2173 -0.2098
  882MPD2    C312986   3.963   1.144  14.153  0.0393 -0.1327 -0.2063
  882MPD2    C412987   4.085   1.106  14.090  0.4001  0.2526  0.4267
  882MPD2    C512988   4.205   1.126  14.152 -0.5768  0.1223 -0.3475
  882MPD2     H12989   3.877   1.234  14.334 -1.1946 -0.1364 -2.5500
  882MPD2    H112990   4.083   1.061  13.991 -0.6977 -0.8249  0.9247
  882MPD2    H212991   4.305   1.201  14.323  0.6027  2.0433 -0.7908
  882MPD2    H312992   4.300   1.108  14.104  0.1392  0.3497  0.9848
  882MPD2     N12993   3.842   1.106  14.090  0.1161 -0.0361 -0.1198
  882MPD2    H512994   3.861   1.059  14.002 -2.7275 -0.0895 -0.6967
  882MPD2    N112995   4.108   1.277  14.472 -0.0976  0.4644  0.8116
  882MPD2    H712996   4.201   1.286  14.511 -0.1699 -0.9180  1.3333
  883MPD2     C12997   1.623   0.940  16.273  0.1689  0.4056  0.0720
  883MPD2    C112998   1.653   1.042  16.182  0.4681 -0.1599  0.3053
  883MPD2    C212999   1.721   1.152  16.225  0.0042  0.0669  0.1944
  883MPD2    C313000   1.735   1.165  16.361  0.1537 -0.3393 -0.1092
  883MPD2    C413001   1.695   1.066  16.449  0.1613  0.2514  0.1564
  883MPD2    C513002   1.641   0.954  16.404  0.4158 -0.6648  0.5835
  883MPD2     H13003   1.733   1.230  16.150 -0.9659 -0.1735 -0.2019
  883MPD2    H113004   1.701   1.070  16.557 -0.1509  0.7449  0.1557
  883MPD2    H213005   1.571   0.850  16.243 -0.8180  2.3700 -4.1027
  883MPD2    H313006   1.605   0.885  16.479  0.4444 -0.6310  0.6288
  883MPD2     N13007   1.801   1.284  16.403 -0.1215  0.2706  0.1926
  883MPD2    H513008   1.840   1.349  16.336 -0.5070  0.1456 -0.1576
  883MPD2    N113009   1.633   1.025  16.048 -0.4016  0.8100 -0.1472
  883MPD2    H713010   1.687   1.088  15.989  2.1449 -1.7092 -0.5088
  884MPD2     C13011   3.357   1.838  15.009 -0.1758 -0.0770 -0.0354
  884MPD2    C113012   3.358   1.972  14.968 -0.3457 -0.0732 -0.5722
  884MPD2    C213013   3.243   2.047  14.963  0.5837 -0.5120 -0.2481
  884MPD2    C313014   3.123   1.987  15.011 -0.6833 -0.4011 -0.5030
  884MPD2    C413015   3.125   1.855  15.051  1.3324 -0.8960  0.3966
  884MPD2    C513016   3.243   1.785  15.060 -0.6549 -0.3871 -0.1984
  884MPD2     H13017   3.241   2.150  14.931 -0.3429 -0.1317  1.0562
  884MPD2    H113018   3.033   1.799  15.066  0.3087  0.3297 -1.2610
  884MPD2    H213019   3.446   1.780  15.031 -0.0893 -0.5482 -1.6715
  884MPD2    H313020   3.237   1.680  15.090  2.2816 -1.0390 -1.8835
  884MPD2     N13021   2.994   2.045  14.991  0.0574 -0.4932 -0.3443
  884MPD2    H513022   2.912   1.989  15.014  0.1315 -0.5781 -0.2885
  884MPD2    N113023   3.478   2.043  14.936  0.3219  0.5089  0.0117
  884MPD2    H713024   3.468   2.143  14.921 -0.2651  0.1602 -1.8832
  885MPD2     C13025   0.981   2.471   0.186 -0.0709  0.1129  0.3751
  885MPD2    C113026   1.111   2.460   0.146 -0.5730 -0.0780 -0.2024
  885MPD2    C213027   1.145   2.449   0.014  0.1595  0.0484  0.2470
  885MPD2    C313028   1.046   2.442  17.652 -0.2483 -0.3007 -0.1888
  885MPD2    C413029   0.917   2.452  17.698  1.0015 -0.4888 -0.6633
  885MPD2    C513030   0.880   2.466   0.088  0.3843  0.3738  0.2491
  885MPD2     H13031   1.251   2.439  17.730  0.3643  3.2519 -0.2147
  885MPD2    H113032   0.831   2.459  17.632  2.4603 -0.0112 -2.5008
  885MPD2    H213033   0.959   2.468   0.292  0.8131  0.3543  0.5681
  885MPD2    H313034   0.775   2.474   0.114  0.1604  4.5864 -1.8567
  885MPD2     N13035   1.081   2.424  17.516  0.4530 -0.3059  0.1735
  885MPD2    H513036   1.174   2.444  17.482  0.5391  1.5035  1.4586
  885MPD2    N113037   1.199   2.448   0.257 -0.2553  0.1884  0.0472
  885MPD2    H713038   1.160   2.469   0.348 -0.1514  1.0739 -0.1132
  886MPD2     C13039   2.636   0.624  15.211  0.1734 -1.0787 -0.3507
  886MPD2    C113040   2.778   0.649  15.213 -0.2358 -0.1796 -0.1821
  886MPD2    C213041   2.830   0.732  15.111  0.2167  0.0172  0.4244
  886MPD2    C313042   2.754   0.796  15.014  0.2963  0.1552 -0.0781
  886MPD2    C413043   2.618   0.778  15.023 -0.4046 -0.0646  0.3196
  886MPD2    C513044   2.558   0.695  15.117  0.0484  0.1492 -0.5053
  886MPD2     H13045   2.938   0.733  15.101  0.3326 -0.4852  1.6521
  886MPD2    H113046   2.552   0.827  14.952 -0.9132 -1.5296 -0.2360
  886MPD2    H213047   2.589   0.580  15.298  0.1626  1.9943  1.2042
  886MPD2    H313048   2.452   0.673  15.128 -0.3085  2.2835  0.3939
  886MPD2     N13049   2.828   0.880  14.918 -0.0743  0.4377 -0.2638
  886MPD2    H513050   2.927   0.883  14.938 -0.4445 -0.3197  1.6545
  886MPD2    N113051   2.860   0.597  15.314 -0.1584  0.4438  0.0664
  886MPD2    H713052   2.952   0.639  15.311  0.2697 -0.4275  1.1072
  887MPD2     C13053   3.465   0.806  15.643  0.6295 -0.3264 -0.3344
  887MPD2    C113054   3.327   0.826  15.651  0.5647 -0.1894 -0.1889
  887MPD2    C213055   3.281   0.944  15.688  0.3935  0.2845 -0.3096
  887MPD2    C313056   3.363   1.052  15.738 -0.0593  0.0503 -0.4860
  887MPD2    C413057   3.500   1.028  15.723  0.6552  0.1072 -0.5042
  887MPD2    C513058   3.555   0.911  15.675 -0.7265 -0.2144  0.6726
  887MPD2     H13059   3.175   0.958  15.707 -0.2525 -1.2309 -2.8653
  887MPD2    H113060   3.568   1.099  15.768 -0.6756  0.7582  0.4970
  887MPD2    H213061   3.515   0.716  15.608  2.1679  0.0838  0.8114
  887MPD2    H313062   3.663   0.897  15.675 -0.4729  1.8034  0.5679
  887MPD2     N13063   3.303   1.169  15.778  0.4798 -0.0002 -0.8547
  887MPD2    H513064   3.207   1.185  15.749 -0.0706  1.2110  1.6300
  887MPD2    N113065   3.234   0.724  15.628  0.0846 -0.1137  0.1442
  887MPD2    H713066   3.134   0.741  15.621 -0.2234 -1.5287  1.1183
  888MPD2     C13067   0.599   0.778  14.910  0.4280 -0.7157  0.2954
  888MPD2    C113068   0.658   0.806  15.030 -0.3647  0.3911  0.1567
  888MPD2    C213069   0.694   0.936  15.062  0.1841  0.3817  0.4264
  888MPD2    C313070   0.673   1.037  14.963  0.4652  0.1848  0.0794
  888MPD2    C413071   0.604   1.006  14.846  0.1477 -0.1423 -0.0278
  888MPD2    C513072   0.564   0.881  14.828 -0.4245 -0.2395  0.3673
  888MPD2     H13073   0.738   0.964  15.157 -1.2611  1.0626  0.8937
  888MPD2    H113074   0.561   1.083  14.782 -0.1213  0.0556  0.3924
  888MPD2    H213075   0.574   0.677  14.879  2.7193 -1.0188 -0.6241
  888MPD2    H313076   0.518   0.859  14.732 -0.1134 -1.2750  0.4615
  888MPD2     N13077   0.723   1.162  14.986  0.0206  0.5016 -0.1769
  888MPD2    H513078   0.765   1.182  15.076 -0.1760 -0.6780  0.1733
  888MPD2    N113079   0.679   0.708  15.130  0.2953  0.7491  0.2748
  888MPD2    H713080   0.732   0.736  15.212  1.7659 -2.2443  0.3614
  889MPD2     C13081   4.401   0.079  12.858 -0.0681 -0.3039  0.3703
  889MPD2    C113082   4.495   0.096  12.962  0.0013  0.2462  0.3150
  889MPD2    C213083   4.478   0.206  13.043 -0.2103 -0.1975  0.3075
  889MPD2    C313084   4.399   0.315  13.009  0.1949  0.4619 -0.3469
  889MPD2    C413085   4.321   0.300  12.898 -0.4379 -0.6685  0.8187
  889MPD2    C513086   4.325   0.186  12.818  0.4487  0.0795 -0.0599
  889MPD2     H13087   4.499   0.198  13.149 -0.0204 -0.8945  0.2186
  889MPD2    H113088   4.257   0.381  12.867 -0.8103 -2.2350 -2.5808
  889MPD2    H213089   4.406   4.728  12.792 -2.4250 -0.8773  0.9390
  889MPD2    H313090   4.279   0.181  12.720 -0.2504  0.6037  0.2469
  889MPD2     N13091   4.379   0.426  13.096 -0.2560  0.0197 -0.6472
  889MPD2    H513092   4.443   0.418  13.174 -0.8598 -1.1384 -0.2685
  889MPD2    N113093   4.575   4.722  13.006  0.0226  0.0366 -0.1677
  889MPD2    H713094   4.554   4.631  12.966 -1.6141 -0.2844  1.3740
  890MPD2     C13095   3.917   1.692  14.741 -0.3473  0.3824  0.4799
  890MPD2    C113096   4.055   1.723  14.752  0.1630 -0.9938  0.0628
  890MPD2    C213097   4.110   1.725  14.883  0.1960  0.7434 -0.1261
  890MPD2    C313098   4.034   1.701  14.997 -0.1298 -0.2051  0.7840
  890MPD2    C413099   3.905   1.656  14.986  0.3869 -0.1158  0.2507
  890MPD2    C513100   3.848   1.655  14.860 -0.5683 -0.3668 -0.1396
  890MPD2     H13101   4.211   1.755  14.906  0.2975 -1.4226  2.1503
  890MPD2    H113102   3.844   1.620  15.068 -2.2072 -0.8345 -1.9741
  890MPD2    H213103   3.864   1.687  14.646 -1.3875 -1.8620  1.1933
  890MPD2    H313104   3.742   1.634  14.852 -0.6665  0.4118 -0.8764
  890MPD2     N13105   4.100   1.712  15.118 -0.0816 -0.3973  0.3032
  890MPD2    H513106   4.199   1.732  15.116 -0.6291  2.2681 -0.1745
  890MPD2    N113107   4.135   1.762  14.645  0.5234 -0.7558  0.5338
  890MPD2    H713108   4.094   1.787  14.556 -0.2951 -0.3573  1.0177
  891MPD2     C13109   2.754   0.990  16.629 -0.3279 -0.7896 -0.6586
  891MPD2    C113110   2.645   0.933  16.692  0.7778  0.0546 -0.1912
  891MPD2    C213111   2.669   0.854  16.802  0.6863  0.2068  0.0067
  891MPD2    C313112   2.800   0.834  16.843  0.0082  0.6325 -0.7026
  891MPD2    C413113   2.909   0.886  16.777  0.5268 -0.2426  1.0927
  891MPD2    C513114   2.879   0.972  16.672  0.5971  0.0865  0.0160
  891MPD2     H13115   2.591   0.790  16.840  0.1070 -0.6873 -2.7257
  891MPD2    H113116   3.012   0.874  16.808  0.4472 -0.4912  1.2571
  891MPD2    H213117   2.740   1.056  16.544 -0.4941  1.4725  1.1541
  891MPD2    H313118   2.963   1.008  16.613  0.5934 -0.6844 -0.4572
  891MPD2     N13119   2.805   0.746  16.949  0.4336  0.2390 -0.0424
  891MPD2    H513120   2.716   0.709  16.983  1.5349 -1.0245  1.5023
  891MPD2    N113121   2.524   0.944  16.632 -1.0158  0.7290  0.4620
  891MPD2    H713122   2.524   0.997  16.546 -3.2602 -3.6294 -2.2256
  892MPD2     C13123   3.376   1.553  14.579  0.9060 -1.0928  0.5555
  892MPD2    C113124   3.268   1.504  14.505 -0.0227  0.8527  0.0941
  892MPD2    C213125   3.283   1.420  14.399 -0.6018 -0.2153 -0.2182
  892MPD2    C313126   3.409   1.367  14.370  0.1188 -0.4759  0.1133
  892MPD2    C413127   3.521   1.427  14.431  0.5364 -0.5223  0.6692
  892MPD2    C513128   3.501   1.511  14.540  0.0913 -0.0446  0.5745
  892MPD2     H13129   3.196   1.374  14.354  0.4339 -1.4026 -0.9888
  892MPD2    H113130   3.620   1.402  14.394  0.7013  2.7317 -1.1579
  892MPD2    H213131   3.368   1.629  14.656 -0.4613 -1.2464  0.5717
  892MPD2    H313132   3.579   1.564  14.593  0.3771 -0.3915  0.4984
  892MPD2     N13133   3.430   1.269  14.273  0.2273 -0.0477  0.2566
  892MPD2    H513134   3.525   1.259  14.238  0.2981  1.7995 -0.0441
  892MPD2    N113135   3.138   1.551  14.533  0.0920 -0.2071 -0.4328
  892MPD2    H713136   3.066   1.532  14.463  1.0875  0.0047 -1.5106
  893MPD2     C13137   4.525   0.368   1.584 -0.4488 -0.1202 -0.2305
  893MPD2    C113138   4.501   0.282   1.481 -0.1894  0.1888  0.5552
  893MPD2    C213139   4.373   0.226   1.466  0.0479  0.1574  0.2695
  893MPD2    C313140   4.273   0.266   1.554 -0.5670  0.5203  0.2967
  893MPD2    C413141   4.299   0.364   1.653 -0.1355  0.1012 -0.2910
  893MPD2    C513142   4.426   0.402   1.670 -0.0018  0.4428 -0.3311
  893MPD2     H13143   4.353   0.160   1.382 -0.8779  0.2971  0.3832
  893MPD2    H113144   4.220   0.398   1.719  0.1421  0.1087  0.0355
  893MPD2    H213145   4.626   0.406   1.594 -0.1428 -0.2479 -2.8751
  893MPD2    H313146   4.439   0.466   1.756 -2.2953  2.1598 -1.2793
  893MPD2     N13147   4.144   0.217   1.543 -0.4119  0.1597  1.5264
  893MPD2    H513148   4.075   0.275   1.590 -1.9440  0.7801 -1.4574
  893MPD2    N113149   4.609   0.249   1.399  0.1839 -0.4323 -0.0065
  893MPD2    H713150   4.702   0.280   1.427 -0.0636 -0.2217  0.5830
  894MPD2     C13151   2.903   2.031   1.022 -0.2450  0.4343  0.0588
  894MPD2    C113152   2.916   2.075   1.153 -0.6874 -0.3586  1.4097
  894MPD2    C213153   3.016   2.168   1.181  0.8914  0.1000  0.0564
  894MPD2    C313154   3.097   2.218   1.082  0.4052 -0.0267 -0.3881
  894MPD2    C413155   3.072   2.181   0.952 -0.4290 -0.3060  0.4766
  894MPD2    C513156   2.974   2.086   0.917 -0.3264 -0.2452  0.7381
  894MPD2     H13157   3.039   2.192   1.285 -0.5014 -1.2964  0.6841
  894MPD2    H113158   3.122   2.221   0.865  1.3576  0.9654  2.1015
  894MPD2    H213159   2.833   1.955   0.991 -1.8078  1.7947  0.1959
  894MPD2    H313160   2.959   2.064   0.812 -2.4491  1.1995  0.7362
  894MPD2     N13161   3.203   2.300   1.130 -0.3159  0.0998 -0.0362
  894MPD2    H513162   3.221   2.312   1.229  0.3442  1.3908 -0.3244
  894MPD2    N113163   2.823   2.034   1.256  0.4871  0.2972  0.0866
  894MPD2    H713164   2.839   2.072   1.349  0.1505 -0.0539  0.2885
  895MPD2     C13165   2.132   0.984  13.683  0.4700  0.4153  0.4722
  895MPD2    C113166   2.077   0.871  13.630 -0.1111  0.4517 -0.5413
  895MPD2    C213167   2.156   0.759  13.623 -0.1605 -0.2572 -0.0532
  895MPD2    C313168   2.287   0.749  13.658  0.5532 -0.3108 -0.4625
  895MPD2    C413169   2.341   0.872  13.698 -0.7917 -0.6410 -0.1021
  895MPD2    C513170   2.268   0.986  13.707 -0.4402  0.3524  0.1792
  895MPD2     H13171   2.111   0.675  13.572 -0.2458 -0.1061 -0.2290
  895MPD2    H113172   2.444   0.876  13.732 -1.2143  0.4456  1.0576
  895MPD2    H213173   2.079   1.077  13.702 -0.4758 -0.3607  1.6345
  895MPD2    H313174   2.314   1.077  13.742 -0.4486  0.9479 -1.3648
  895MPD2     N13175   2.356   0.633  13.638 -0.4143 -0.0070 -0.1286
  895MPD2    H513176   2.298   0.551  13.631  2.6838 -2.1982  0.0822
  895MPD2    N113177   1.943   0.862  13.585 -0.3185  0.0715 -0.4635
  895MPD2    H713178   1.912   0.771  13.553  0.0538 -0.3393  0.3329
  896MPD2     C13179   0.330   2.950   1.453  0.4879 -0.5332 -0.5716
  896MPD2    C113180   0.272   3.016   1.345  0.6114  0.3343 -0.4415
  896MPD2    C213181   0.145   2.990   1.309 -0.1206 -0.3515  0.1787
  896MPD2    C313182   0.075   2.894   1.369 -0.2368 -0.1040 -0.4945
  896MPD2    C413183   0.135   2.821   1.467 -0.0595  0.0637  0.4847
  896MPD2    C513184   0.264   2.849   1.517 -0.6275 -0.4329  0.2493
  896MPD2     H13185   0.105   3.040   1.221  1.6799 -0.4814 -0.7292
  896MPD2    H113186   0.087   2.731   1.502 -0.1832  0.0823  0.3614
  896MPD2    H213187   0.428   2.976   1.491  0.3624  0.4273 -0.9110
  896MPD2    H313188   0.315   2.783   1.587 -0.1289  1.3095  1.5350
  896MPD2     N13189   4.683   2.878   1.330 -0.1638  0.5891 -0.2693
  896MPD2    H513190   4.650   2.943   1.259  0.4412 -1.0730 -2.0563
  896MPD2    N113191   0.357   3.103   1.272  0.2925  0.8865 -0.0432
  896MPD2    H713192   0.454   3.100   1.301  0.5388 -2.8378 -1.3530
  897MPD2     C13193   1.715   0.187  10.531  0.3934  0.0338  0.5625
  897MPD2    C113194   1.618   0.184  10.430 -0.6171 -0.4719  0.3183
  897MPD2    C213195   1.506   0.107  10.452 -0.5119 -0.9643  0.2137
  897MPD2    C313196   1.478   0.047  10.569  0.1103  0.5804  0.7127
  897MPD2    C413197   1.566   0.066  10.676 -0.2994 -0.3820 -0.0501
  897MPD2    C513198   1.685   0.135  10.651 -0.1053  0.2591  0.0895
  897MPD2     H13199   1.428   0.125  10.380 -0.6282  0.2051  0.6404
  897MPD2    H113200   1.562   0.012  10.769  1.7941 -0.1742  0.1487
  897MPD2    H213201   1.808   0.241  10.516  0.3283  0.2305  0.8728
  897MPD2    H313202   1.761   0.129  10.728 -1.2207 -1.8012  1.0472
  897MPD2     N13203   1.345   0.010  10.590 -0.3619  0.4783 -0.3913
  897MPD2    H513204   1.285   0.025  10.510 -1.9313 -0.3647  0.6204
  897MPD2    N113205   1.625   0.282  10.334 -0.0047 -0.1594 -0.7595
  897MPD2    H713206   1.693   0.356  10.344 -0.9653  0.5141  0.7184
  898MPD2     C13207   2.124   0.993   0.088 -0.1591 -0.5167 -0.4918
  898MPD2    C113208   2.250   0.944   0.088  0.3861 -0.6377  0.1793
  898MPD2    C213209   2.353   1.032   0.056  0.6600 -0.2358  0.4408
  898MPD2    C313210   2.326   1.165   0.027 -0.0040 -0.0851  0.1295
  898MPD2    C413211   2.192   1.205   0.016 -0.2294 -0.0607  0.2588
  898MPD2    C513212   2.095   1.117   0.044  0.5152 -0.6045 -0.1099
  898MPD2     H13213   2.455   0.997   0.067  1.0478  1.6048  2.9058
  898MPD2    H113214   2.167   1.303  17.717 -0.3214  0.0804  0.6712
  898MPD2    H213215   2.040   0.928   0.108 -0.8991  0.8467  0.8861
  898MPD2    H313216   1.988   1.134   0.047  0.5073 -0.3328 -1.9956
  898MPD2     N13217   2.431   1.256   0.001 -0.7380 -0.9287  1.0477
  898MPD2    H513218   2.526   1.222  17.737 -0.7713 -0.7041 -1.5299
  898MPD2    N113219   2.282   0.807   0.117 -0.3038  0.4028 -0.1282
  898MPD2    H713220   2.381   0.784   0.122 -0.1030  2.0706  3.5491
  899MPD2     C13221   3.934   1.255  17.030 -0.4306  0.4290 -0.4119
  899MPD2    C113222   3.905   1.353  17.115 -0.7136  0.3235  0.0598
  899MPD2    C213223   3.800   1.346  17.207 -0.1700 -0.3401  0.0976
  899MPD2    C313224   3.731   1.226  17.213  0.6013  0.1198 -0.2252
  899MPD2    C413225   3.758   1.127  17.125 -0.4335 -0.3630 -0.1814
  899MPD2    C513226   3.861   1.139  17.033  0.0469 -0.2327  0.4061
  899MPD2     H13227   3.794   1.424  17.282 -0.9719  0.1844 -0.5250
  899MPD2    H113228   3.693   1.040  17.121 -0.4073 -0.4005  0.2861
  899MPD2    H213229   4.009   1.277  16.954 -0.8561 -1.0230 -1.2434
  899MPD2    H313230   3.882   1.052  16.972  1.2024  0.1870  0.1977
  899MPD2     N13231   3.629   1.200  17.304 -0.0040  0.0089  0.7299
  899MPD2    H513232   3.584   1.108  17.298 -0.0533  0.1783 -1.6268
  899MPD2    N113233   3.959   1.478  17.091 -0.0544  0.4239  0.2498
  899MPD2    H713234   4.001   1.499  17.001 -2.2154 -1.1343 -1.1308
  900MPD2     C13235   3.474   3.299  12.691  0.5484 -0.0105 -0.6143
  900MPD2    C113236   3.363   3.211  12.686  0.6970  0.3221  0.1305
  900MPD2    C213237   3.237   3.269  12.685  0.2893 -0.1847  0.1733
  900MPD2    C313238   3.232   3.408  12.693 -0.4109 -0.1390  0.3166
  900MPD2    C413239   3.338   3.493  12.704  0.0652 -0.9080 -0.3391
  900MPD2    C513240   3.465   3.433  12.712  0.4023  0.4941 -0.0011
  900MPD2     H13241   3.150   3.205  12.687 -0.1388  0.3963  0.1322
  900MPD2    H113242   3.336   3.601  12.706 -0.7644 -0.9127 -0.7759
  900MPD2    H213243   3.574   3.260  12.709  0.5631 -0.4167 -1.5356
  900MPD2    H313244   3.546   3.503  12.730 -1.9810  3.2945 -0.1377
  900MPD2     N13245   3.104   3.460  12.681 -0.1852 -0.1030 -0.0798
  900MPD2    H513246   3.029   3.397  12.654 -0.3551 -0.0688  0.3180
  900MPD2    N113247   3.385   3.070  12.679  0.0233 -0.4935 -0.3477
  900MPD2    H713248   3.482   3.044  12.661 -0.0074 -1.2478  0.5590
  901MPD2     C13249   3.053   2.005  12.667 -0.5260 -0.0832  0.2906
  901MPD2    C113250   3.187   2.002  12.686 -0.4606 -0.2160 -0.2611
  901MPD2    C213251   3.263   2.120  12.689 -0.2914  0.0818  0.4136
  901MPD2    C313252   3.199   2.243  12.663  0.0214 -0.0673 -0.1083
  901MPD2    C413253   3.058   2.249  12.653  0.7616  0.7348 -0.2812
  901MPD2    C513254   2.989   2.128  12.657 -0.8152  0.4161  0.5088
  901MPD2     H13255   3.369   2.123  12.712 -0.1145 -0.6383 -0.3094
  901MPD2    H113256   3.000   2.340  12.642  1.5847  1.3707  0.6262
  901MPD2    H213257   2.997   1.914  12.650 -2.5742  1.1799  0.2380
  901MPD2    H313258   2.882   2.115  12.647 -0.9173 -0.4132  2.5437
  901MPD2     N13259   3.270   2.373  12.661 -0.9087 -0.2163  0.3730
  901MPD2    H513260   3.368   2.370  12.687 -0.7076  0.5787 -0.2950
  901MPD2    N113261   3.245   1.870  12.701 -0.4461  0.6303 -0.7333
  901MPD2    H713262   3.177   1.795  12.706  0.0765 -0.0636 -4.0213
  902MPD2     C13263   2.759   0.898  12.817  0.4799 -0.5894 -0.5827
  902MPD2    C113264   2.740   0.965  12.694  0.6388  0.8863  0.2272
  902MPD2    C213265   2.768   0.896  12.578  0.9987 -0.2272 -0.1202
  902MPD2    C313266   2.816   0.763  12.578  0.5721  0.6076 -0.3575
  902MPD2    C413267   2.823   0.700  12.704 -0.0774  0.1988  0.1223
  902MPD2    C513268   2.794   0.765  12.823 -0.5750 -0.2971  0.0107
  902MPD2     H13269   2.772   0.944  12.482  1.9798 -1.2255 -0.5788
  902MPD2    H113270   2.867   0.601  12.707  0.7796  0.5502 -0.6658
  902MPD2    H213271   2.767   0.956  12.908 -3.5306 -0.6565 -0.1938
  902MPD2    H313272   2.834   0.733  12.918 -1.4117  0.8069  0.7225
  902MPD2     N13273   2.850   0.713  12.456 -0.0274  0.1773 -0.2996
  902MPD2    H513274   2.816   0.763  12.375 -0.5276 -1.6147 -1.2023
  902MPD2    N113275   2.700   1.101  12.682 -0.2332  0.2481 -0.6099
  902MPD2    H713276   2.692   1.152  12.769 -2.6282 -1.6530  0.2847
  903MPD2     C13277   2.897   1.081  11.827 -0.1816 -1.1476 -0.6945
  903MPD2    C113278   2.820   1.013  11.915 -0.3788 -0.9067 -0.2354
  903MPD2    C213279   2.686   1.040  11.945 -0.0739 -0.2060  0.3739
  903MPD2    C313280   2.622   1.134  11.861 -0.5874 -0.6212 -0.5401
  903MPD2    C413281   2.700   1.199  11.765 -0.4443 -0.5984 -0.2110
  903MPD2    C513282   2.834   1.181  11.753  0.2056 -0.4812  0.3808
  903MPD2     H13283   2.641   0.983  12.026  1.0363  1.7528  2.3690
  903MPD2    H113284   2.652   1.259  11.689  0.8049  1.3039  0.5006
  903MPD2    H213285   3.004   1.063  11.815 -0.2736 -1.6539 -0.7630
  903MPD2    H313286   2.876   1.246  11.677 -2.5917  1.4896  0.5133
  903MPD2     N13287   2.493   1.185  11.881 -0.1470 -0.4220 -0.0637
  903MPD2    H513288   2.462   1.263  11.825  0.2654  0.2217  0.6018
  903MPD2    N113289   2.881   0.905  11.980  0.1481 -0.0785  0.1816
  903MPD2    H713290   2.982   0.903  11.968 -0.1508  0.3207 -2.3454
  904MPD2     C13291   2.103   0.415  14.601  0.3540 -0.4386 -0.2470
  904MPD2    C113292   2.097   0.398  14.462 -0.2721 -0.0841  0.1937
  904MPD2    C213293   2.216   0.393  14.394  0.3939 -0.4288 -0.5573
  904MPD2    C313294   2.337   0.376  14.450  0.1097  0.1588 -0.2015
  904MPD2    C413295   2.341   0.367  14.585  0.1352 -0.4548 -0.4231
  904MPD2    C513296   2.230   0.398  14.659  1.0073  0.2538  0.4199
  904MPD2     H13297   2.212   0.409  14.287 -2.2956 -0.8888 -0.5436
  904MPD2    H113298   2.437   0.356  14.633 -0.3876  0.7232  0.8937
  904MPD2    H213299   2.019   0.446  14.662  0.7416 -1.7528  0.9516
  904MPD2    H313300   2.238   0.409  14.767 -1.0190  4.2913  0.1648
  904MPD2     N13301   2.453   0.381  14.364  0.0896 -0.0502  0.1625
  904MPD2    H513302   2.446   0.406  14.266  1.1627  1.4364  0.4684
  904MPD2    N113303   1.976   0.422  14.398  0.3706 -0.1915 -0.3635
  904MPD2    H713304   1.900   0.453  14.458  0.0595 -0.2169 -0.7422
  905MPD2     C13305   1.879   0.002  13.804  0.3805  0.7907  0.6232
  905MPD2    C113306   1.903   0.138  13.797  0.3170 -0.4169 -0.0637
  905MPD2    C213307   2.029   0.184  13.747 -0.8909 -0.1542  0.1570
  905MPD2    C313308   2.127   0.093  13.709 -0.2581 -0.9184 -0.1672
  905MPD2    C413309   2.099   4.692  13.721  0.4776  0.1111  0.3552
  905MPD2    C513310   1.970   4.643  13.772 -0.7373  0.3132 -0.0548
  905MPD2     H13311   2.050   0.290  13.762 -2.0595  0.1065 -0.0741
  905MPD2    H113312   2.172   4.620  13.686  1.2803  1.4611 -0.7583
  905MPD2    H213313   1.776   4.710  13.827 -0.3449  1.5801 -1.6335
  905MPD2    H313314   1.937   4.540  13.766 -0.3343  0.0808  1.7664
  905MPD2     N13315   2.257   0.141  13.664 -0.1580  0.5611  0.0818
  905MPD2    H513316   2.316   0.060  13.650  0.6389  1.1541  0.0419
  905MPD2    N113317   1.815   0.221  13.875 -0.7528 -0.3476  0.3459
  905MPD2    H713318   1.741   0.177  13.928  0.3499  1.4970  3.3742
  906MPD2     C13319   0.175   0.303  10.966  0.3564  0.4598  0.1231
  906MPD2    C113320   0.097   0.210  10.897 -0.4037 -0.8435 -0.1443
  906MPD2    C213321   0.052   0.108  10.975 -0.1309 -0.5283  0.6611
  906MPD2    C313322   0.096   0.072  11.103  0.7242  0.2548  0.1955
  906MPD2    C413323   0.171   0.166  11.172  0.4462 -0.3412  0.5280
  906MPD2    C513324   0.210   0.285  11.103 -0.1127 -0.4669  0.8189
  906MPD2     H13325   4.722   0.038  10.924 -0.7848  0.8747 -0.4187
  906MPD2    H113326   0.195   0.150  11.276 -0.0567 -0.9382  0.5518
  906MPD2    H213327   0.229   0.384  10.919 -0.1789  0.4148 -0.5619
  906MPD2    H313328   0.270   0.360  11.153  1.8306 -1.0006 -0.7120
  906MPD2     N13329   0.036   4.692  11.164 -0.0512  0.1032 -0.1800
  906MPD2    H513330   4.692   4.657  11.112 -0.3377  1.3064 -0.5396
  906MPD2    N113331   0.065   0.211  10.756 -0.3382  0.3542 -0.5696
  906MPD2    H713332   0.019   0.124  10.731  0.5278 -0.0383 -0.8038
  907MPD2     C13333   2.799   4.502  15.605 -0.2858  0.1935 -0.2909
  907MPD2    C113334   2.841   4.374  15.575 -0.3761 -0.5085 -0.4220
  907MPD2    C213335   2.866   4.279  15.672 -0.1461  0.0084  0.2464
  907MPD2    C313336   2.846   4.317  15.800 -0.0222 -0.2257 -0.0855
  907MPD2    C413337   2.808   4.443  15.840 -0.4503  0.1098 -0.0385
  907MPD2    C513338   2.787   4.531  15.739 -0.4687 -0.0401 -0.6031
  907MPD2     H13339   2.898   4.180  15.644 -0.0221  0.2441 -0.4474
  907MPD2    H113340   2.796   4.474  15.944  1.2161  1.2455 -0.1896
  907MPD2    H213341   2.790   4.588  15.539 -0.3839  0.0355 -0.4821
  907MPD2    H313342   2.757   4.632  15.766  1.1329  0.2466  0.0979
  907MPD2     N13343   2.875   4.206  15.882  0.0801 -0.6055 -0.1431
  907MPD2    H513344   2.907   4.121  15.837 -0.9044 -1.0590  0.0039
  907MPD2    N113345   2.870   4.331  15.446 -0.1161 -0.7587  0.6334
  907MPD2    H713346   2.942   4.260  15.439 -1.0613 -1.6460 -0.2127
  908MPD2     C13347   1.046   0.468   9.616 -0.1012  0.4632  0.0287
  908MPD2    C113348   1.085   0.357   9.684  0.4762 -0.3264  0.2374
  908MPD2    C213349   1.213   0.351   9.742  0.4575 -1.0798 -0.4244
  908MPD2    C313350   1.292   0.468   9.748  0.4770 -0.4227  0.0835
  908MPD2    C413351   1.251   0.569   9.666  0.5355 -0.1727  0.1241
  908MPD2    C513352   1.128   0.575   9.613 -0.1920  0.2077 -0.3127
  908MPD2     H13353   1.245   0.267   9.802  2.3409  0.2924  0.4824
  908MPD2    H113354   1.301   0.665   9.661  1.8674 -0.7849  2.0925
  908MPD2    H213355   0.952   0.471   9.562 -0.4693  1.2331  0.7143
  908MPD2    H313356   1.107   0.672   9.569 -1.5911 -0.0070 -0.1073
  908MPD2     N13357   1.409   0.466   9.831  0.3285 -0.9909 -0.1678
  908MPD2    H513358   1.419   0.384   9.891 -1.2403 -0.7839  0.4012
  908MPD2    N113359   0.992   0.247   9.686  0.3012 -0.4054 -0.5719
  908MPD2    H713360   0.906   0.253   9.634 -0.0784  1.9196  0.3237
  909MPD2     C13361   1.295   3.825  12.146 -0.2630 -1.1512 -0.5758
  909MPD2    C113362   1.269   3.729  12.050 -0.4048  1.0225 -0.7801
  909MPD2    C213363   1.177   3.633  12.086  0.3362 -0.6150  0.9181
  909MPD2    C313364   1.115   3.624  12.209  0.0088 -0.5340 -0.4661
  909MPD2    C413365   1.158   3.717  12.306  0.0154 -0.1680 -0.0391
  909MPD2    C513366   1.253   3.809  12.275  0.3286 -0.2067 -0.0856
  909MPD2     H13367   1.147   3.562  12.010 -2.1998  1.3768  0.0520
  909MPD2    H113368   1.124   3.709  12.408  0.3806 -1.5577 -0.0325
  909MPD2    H213369   1.364   3.907  12.130 -1.5609 -0.3730 -2.2045
  909MPD2    H313370   1.288   3.875  12.353 -1.3319 -2.2804  2.3800
  909MPD2     N13371   1.027   3.521  12.232  0.6051  0.1132  0.1428
  909MPD2    H513372   0.997   3.473  12.148 -2.5909 -1.8932  2.4583
  909MPD2    N113373   1.334   3.724  11.924  0.2930 -0.3285  0.7226
  909MPD2    H713374   1.311   3.643  11.867  2.9521  0.3102 -1.2597
  910MPD2     C13375   2.802   0.073  16.144  0.8665 -0.2667  0.6025
  910MPD2    C113376   2.702   4.714  16.114  0.5215  0.2041  0.2185
  910MPD2    C213377   2.623   4.731  15.998  0.6426 -0.0960 -1.0024
  910MPD2    C313378   2.643   0.105  15.917  0.6160 -0.0399 -0.0212
  910MPD2    C413379   2.741   0.193  15.953  0.7399 -0.5591  0.7379
  910MPD2    C513380   2.821   0.174  16.065  0.1778 -0.0211 -0.3316
  910MPD2     H13381   2.563   4.646  15.969 -1.4525  0.8039  0.6972
  910MPD2    H113382   2.760   0.272  15.882  0.3748 -0.8812  0.2850
  910MPD2    H213383   2.871   0.062  16.227 -0.5826  0.1109  1.8706
  910MPD2    H313384   2.902   0.245  16.076  1.7316 -2.2864  2.7441
  910MPD2     N13385   2.563   0.133  15.805 -0.2907  0.0960 -0.0478
  910MPD2    H513386   2.596   0.217  15.757  0.0848  1.5373  2.7611
  910MPD2    N113387   2.682   4.601  16.191 -0.0853  0.7500  0.3190
  910MPD2    H713388   2.624   4.525  16.156  0.7659 -0.1014  0.7766
  911MPD2     C13389   0.982   0.488  16.311 -0.0962 -0.0779 -0.2075
  911MPD2    C113390   0.938   0.581  16.403  0.5398 -0.2607  0.7023
  911MPD2    C213391   0.869   0.700  16.367 -0.1751  0.0089  0.9744
  911MPD2    C313392   0.862   0.731  16.232  0.5051 -0.6797 -0.5032
  911MPD2    C413393   0.922   0.646  16.143 -0.2362  0.5541  0.2582
  911MPD2    C513394   0.972   0.525  16.181  0.4651 -0.1200 -0.2280
  911MPD2     H13395   0.819   0.756  16.445 -0.3825  1.1139  0.0592
  911MPD2    H113396   0.910   0.666  16.037 -3.3331 -0.2457  0.4698
  911MPD2    H213397   1.033   0.398  16.340 -1.0424  0.2888  2.5525
  911MPD2    H313398   1.005   0.458  16.102  1.3764 -0.6628  0.6239
  911MPD2     N13399   0.799   0.849  16.180  0.9827 -0.0767 -0.2209
  911MPD2    H513400   0.805   0.868  16.081 -1.0566  0.1462 -0.3116
  911MPD2    N113401   0.985   0.567  16.532 -0.2212  0.1077 -0.0485
  911MPD2    H713402   1.029   0.481  16.562 -0.0664  0.5474  1.0145
  912MPD2     C13403   0.427   0.809  15.598  0.2489 -0.0168  0.6328
  912MPD2    C113404   0.388   0.813  15.731 -0.1152  0.1565  0.4474
  912MPD2    C213405   0.316   0.710  15.786 -0.8492 -0.5657  0.0454
  912MPD2    C313406   0.284   0.600  15.716 -0.0403  0.7335  0.4341
  912MPD2    C413407   0.320   0.600  15.579 -0.3745  0.0672  0.2716
  912MPD2    C513408   0.396   0.703  15.521 -0.0601 -0.2024  0.8858
  912MPD2     H13409   0.320   0.700  15.894  0.1851  0.7424  0.1276
  912MPD2    H113410   0.286   0.525  15.509 -0.0414  0.5251 -0.3729
  912MPD2    H213411   0.466   0.898  15.549 -0.3039 -0.4174 -0.5170
  912MPD2    H313412   0.426   0.684  15.419  0.6948  0.1296  1.0462
  912MPD2     N13413   0.214   0.502  15.785 -0.9787 -0.7198  0.4183
  912MPD2    H513414   0.206   0.507  15.886 -1.4660  0.3418  0.3225
  912MPD2    N113415   0.434   0.923  15.803  0.1787  0.1830 -0.2620
  912MPD2    H713416   0.511   0.971  15.757 -1.2880  1.6473 -1.2166
  913MPD2     C13417   0.912   1.058  10.580  0.4381  0.5715  0.1136
  913MPD2    C113418   0.941   1.140  10.680 -0.1852  0.0739 -0.7126
  913MPD2    C213419   0.942   1.277  10.651 -0.5013 -0.4250 -0.0145
  913MPD2    C313420   0.920   1.323  10.520 -0.3907 -0.0037  0.4607
  913MPD2    C413421   0.877   1.231  10.426 -0.4379 -0.5373  0.1570
  913MPD2    C513422   0.882   1.098  10.456 -0.2343  0.1254 -0.0679
  913MPD2     H13423   0.969   1.343  10.732  0.2042 -2.8963  1.7586
  913MPD2    H113424   0.844   1.271  10.331 -1.7349 -0.1638  0.7639
  913MPD2    H213425   0.921   0.953  10.602 -1.2326  0.4147  0.1156
  913MPD2    H313426   0.870   1.018  10.385 -0.4535  1.1098 -1.1409
  913MPD2     N13427   0.942   1.456  10.468  0.5582 -0.3217 -0.6007
  913MPD2    H513428   0.935   1.466  10.368 -1.1492  1.9377 -0.2461
  913MPD2    N113429   0.974   1.091  10.805 -0.3355  0.1851 -0.2626
  913MPD2    H713430   0.963   0.991  10.818 -0.1976  0.2445  0.2987
  914MPD2     C13431   3.152   1.379  12.026  0.0188 -0.4044  0.0986
  914MPD2    C113432   3.134   1.501  12.081 -0.0132  0.6048  0.0610
  914MPD2    C213433   3.195   1.537  12.203  0.0599  0.2219 -0.4836
  914MPD2    C313434   3.233   1.445  12.292  0.0043  0.3826  0.5237
  914MPD2    C413435   3.230   1.318  12.253  0.0107 -0.2612  0.2009
  914MPD2    C513436   3.196   1.288  12.120  0.4739  0.0709  0.5944
  914MPD2     H13437   3.198   1.643  12.227 -2.7219 -0.0791  1.1496
  914MPD2    H113438   3.281   1.238  12.307 -0.4350 -0.1937  0.7239
  914MPD2    H213439   3.137   1.347  11.924 -3.2108  1.1334  0.0702
  914MPD2    H313440   3.208   1.187  12.081 -1.1202  0.5658 -1.1681
  914MPD2     N13441   3.295   1.499  12.407 -0.1364 -0.1556  0.4294
  914MPD2    H513442   3.298   1.599  12.422 -0.5377  0.0416 -0.8577
  914MPD2    N113443   3.093   1.604  11.986 -0.6583  0.1367 -0.7085
  914MPD2    H713444   3.073   1.579  11.889 -0.1392 -0.3899 -0.6776
  915MPD2     C13445   2.113   1.931  15.781  0.3352 -0.6832 -0.3081
  915MPD2    C113446   2.039   2.016  15.710 -0.5311 -0.0177  0.2956
  915MPD2    C213447   1.929   2.068  15.774 -0.2164 -0.3165 -0.6437
  915MPD2    C313448   1.898   2.037  15.902  0.3797 -0.0914  0.0413
  915MPD2    C413449   1.987   1.965  15.982  0.4610  0.2089  0.0990
  915MPD2    C513450   2.083   1.904  15.915  0.2492 -0.3978 -0.0231
  915MPD2     H13451   1.864   2.137  15.721  0.5257  1.0532  0.2341
  915MPD2    H113452   1.973   1.944  16.088  2.1467 -0.2537  0.2346
  915MPD2    H213453   2.197   1.882  15.734 -0.8846  0.0367 -3.2694
  915MPD2    H313454   2.148   1.843  15.976 -0.1594  0.1115  0.9085
  915MPD2     N13455   1.770   2.083  15.949  0.0230 -0.0745 -0.3339
  915MPD2    H513456   1.725   2.157  15.897  1.1355  0.3803 -0.6451
  915MPD2    N113457   2.070   2.041  15.571  0.0994 -0.2647  0.1521
  915MPD2    H713458   2.139   1.982  15.527 -0.3840  0.7407 -1.9534
  916MPD2     C13459   4.372   4.699  15.766  0.1412 -0.4702 -0.1407
  916MPD2    C113460   4.345   4.570  15.809  0.1171  0.1089 -0.2021
  916MPD2    C213461   4.447   4.471  15.796 -0.1730  0.4206  0.2476
  916MPD2    C313462   4.569   4.510  15.731  0.2678  0.2270 -0.2899
  916MPD2    C413463   4.589   4.639  15.684 -0.1235  0.2605  0.0686
  916MPD2    C513464   4.490   4.733  15.699  0.1985  0.8810 -0.0903
  916MPD2     H13465   4.435   4.368  15.827  2.3835  0.2716  0.7200
  916MPD2    H113466   4.679   4.673  15.635 -1.2817  0.7122 -1.7415
  916MPD2    H213467   4.298   0.043  15.768  0.6245 -0.0091 -0.4555
  916MPD2    H313468   4.507   0.100  15.668  0.5202  0.7939 -0.1946
  916MPD2     N13469   4.657   4.404  15.708 -0.2178  0.0901 -0.0004
  916MPD2    H513470   4.638   4.315  15.752 -1.0800  0.3413  0.1203
  916MPD2    N113471   4.224   4.540  15.874 -0.3203  0.2022  0.1818
  916MPD2    H713472   4.157   4.614  15.890 -2.7052 -1.9535  0.2688
  917MPD2     C13473   0.374   2.315  11.394 -1.1548 -0.0485  0.1181
  917MPD2    C113474   0.391   2.404  11.496 -0.6403 -0.0696 -0.0365
  917MPD2    C213475   0.473   2.520  11.478 -0.4343 -0.1163 -0.2178
  917MPD2    C313476   0.538   2.533  11.358  0.3138 -0.2399  0.2856
  917MPD2    C413477   0.513   2.444  11.252  0.3956  0.0473  0.1189
  917MPD2    C513478   0.435   2.336  11.272 -0.1866  0.3042 -0.2687
  917MPD2     H13479   0.501   2.585  11.560 -0.4778 -0.3732  0.0017
  917MPD2    H113480   0.566   2.452  11.158  0.4432  0.8029  0.2158
  917MPD2    H213481   0.318   2.224  11.410 -1.1897  0.4370  2.7044
  917MPD2    H313482   0.427   2.270  11.186  1.0092  1.4999 -1.3177
  917MPD2     N13483   0.618   2.650  11.335  0.2737 -0.4544  0.2281
  917MPD2    H513484   0.660   2.650  11.242 -1.2514  1.3647 -0.4561
  917MPD2    N113485   0.318   2.376  11.611 -0.7499 -0.0980 -0.0715
  917MPD2    H713486   0.287   2.279  11.620  1.6935 -0.9508 -0.7834
  918MPD2     C13487   0.421   2.839  12.469 -0.3441  0.7969  0.3633
  918MPD2    C113488   0.499   2.764  12.387  0.6986  0.7015  0.2653
  918MPD2    C213489   0.443   2.689  12.283  0.0797 -0.5809  0.1837
  918MPD2    C313490   0.306   2.690  12.264 -0.2918  0.1177  0.8396
  918MPD2    C413491   0.227   2.764  12.349 -0.4245 -0.0135 -0.0504
  918MPD2    C513492   0.290   2.845  12.442  0.1484 -0.2219 -0.7464
  918MPD2     H13493   0.510   2.634  12.219 -0.0448  0.1335 -0.5669
  918MPD2    H113494   0.123   2.779  12.325 -0.6781  1.4654  1.9302
  918MPD2    H213495   0.460   2.904  12.547 -0.9420 -1.0267  2.2082
  918MPD2    H313496   0.219   2.901  12.500  1.2196  0.4300 -0.0641
  918MPD2     N13497   0.251   2.610  12.162 -0.4139 -0.7209 -0.4725
  918MPD2    H513498   0.310   2.563  12.094  1.8190  2.5870 -0.8084
  918MPD2    N113499   0.638   2.749  12.401  0.0658  0.2834  0.1312
  918MPD2    H713500   0.694   2.706  12.328 -0.8667 -0.0120 -0.4142
  919MPD2     C13501   0.816   1.457  11.584  0.0934 -0.8918  0.3634
  919MPD2    C113502   0.812   1.328  11.529  0.0952  0.1092 -0.0300
  919MPD2    C213503   0.801   1.324  11.386 -0.2040  0.4936  0.5859
  919MPD2    C313504   0.782   1.443  11.312 -0.5039 -0.1039  0.1609
  919MPD2    C413505   0.773   1.565  11.379  0.3380  0.2721  0.2676
  919MPD2    C513506   0.802   1.571  11.510  1.4759 -0.9324 -0.3070
  919MPD2     H13507   0.803   1.232  11.329 -0.0822  0.3477  0.8265
  919MPD2    H113508   0.756   1.658  11.326  1.4722  0.7906  0.8206
  919MPD2    H213509   0.822   1.469  11.692  1.8805 -2.6976  0.4688
  919MPD2    H313510   0.804   1.665  11.564  0.0908  0.4158 -2.6584
  919MPD2     N13511   0.738   1.442  11.174  0.0814 -0.4185  0.1437
  919MPD2    H513512   0.706   1.533  11.144  1.1483 -0.0787  0.0389
  919MPD2    N113513   0.835   1.212  11.611  0.3512  0.4599  0.2831
  919MPD2    H713514   0.838   1.119  11.569 -0.9870  0.0683  1.0575
  920MPD2     C13515   0.516   1.970  10.410  0.2526 -0.2951  0.2239
  920MPD2    C113516   0.400   1.893  10.426  0.0257  0.0989 -0.3762
  920MPD2    C213517   0.408   1.771  10.498  0.2275 -0.2566  0.5122
  920MPD2    C313518   0.525   1.737  10.551  0.1177 -0.1093  0.5421
  920MPD2    C413519   0.640   1.808  10.523  0.3921 -1.2243  0.1862
  920MPD2    C513520   0.638   1.925  10.447 -0.3394  0.0559 -0.4615
  920MPD2     H13521   0.321   1.706  10.504  0.4008 -0.4833  0.5586
  920MPD2    H113522   0.735   1.776  10.563  0.8854  0.8750  0.6941
  920MPD2    H213523   0.504   2.066  10.360 -1.6892 -0.9528 -0.5829
  920MPD2    H313524   0.727   1.986  10.431 -0.3804  0.3750  0.4929
  920MPD2     N13525   0.531   1.611  10.614  0.9099 -0.4584 -0.1607
  920MPD2    H513526   0.454   1.547  10.596  1.3123 -0.8242 -0.5584
  920MPD2    N113527   0.274   1.935  10.374  0.1294 -0.0461  0.0127
  920MPD2    H713528   0.213   1.856  10.354 -0.2065 -0.2805  1.9899
  921MPD2     C13529   1.762   1.073  16.952  0.2080 -0.2241 -0.4688
  921MPD2    C113530   1.778   0.990  16.847  0.0195  0.2768  0.3746
  921MPD2    C213531   1.677   0.900  16.811 -0.0300 -0.1642 -1.0362
  921MPD2    C313532   1.560   0.888  16.882  0.3355  0.0130 -0.8414
  921MPD2    C413533   1.540   0.971  16.988  0.2823 -0.5769  1.0158
  921MPD2    C513534   1.643   1.062  17.019 -0.2818  0.5280 -0.1245
  921MPD2     H13535   1.692   0.843  16.720  2.5192  1.5651 -1.7067
  921MPD2    H113536   1.453   0.962  17.052 -0.9860  0.2491 -0.6038
  921MPD2    H213537   1.843   1.138  16.980 -1.2699  0.9104  1.1341
  921MPD2    H313538   1.626   1.123  17.107 -0.5476  2.8880 -1.7969
  921MPD2     N13539   1.468   0.784  16.841 -0.7470  0.1236 -0.8022
  921MPD2    H513540   1.500   0.729  16.762 -1.9040 -1.5516 -0.1031
  921MPD2    N113541   1.896   1.003  16.776  0.2971  0.1336 -0.0596
  921MPD2    H713542   1.962   1.075  16.803 -1.1037  2.0504 -1.6726
  922MPD2     C13543   1.571   2.787   0.020 -0.8673 -0.1459 -0.4701
  922MPD2    C113544   1.595   2.902  17.686  0.1586 -0.1684  0.1721
  922MPD2    C213545   1.525   2.919  17.567  0.9130  0.2781  0.2773
  922MPD2    C313546   1.426   2.825  17.537  0.0662 -0.2219  0.4700
  922MPD2    C413547   1.407   2.711  17.618  0.3885 -0.9856  0.3889
  922MPD2    C513548   1.479   2.687  17.723  0.3569 -0.0668  0.1058
  922MPD2     H13549   1.541   3.001  17.497 -1.7883 -0.0446 -0.7189
  922MPD2    H113550   1.323   2.647  17.595  0.1097 -0.1983 -0.7786
  922MPD2    H213551   1.631   2.781   0.110 -0.3177 -1.0664 -0.9067
  922MPD2    H313552   1.463   2.602   0.049  2.8930 -1.4178 -1.0433
  922MPD2     N13553   1.364   2.842  17.413  0.1527  0.5336 -0.2092
  922MPD2    H513554   1.389   2.922  17.355 -1.8018  1.0613 -0.3033
  922MPD2    N113555   1.681   3.002  17.724 -0.0095  0.1535  0.2325
  922MPD2    H713556   1.701   3.070  17.651  1.0097  0.1438  0.5026
  923MPD2     C13557   3.890   0.929   9.222  0.1732 -0.0238 -0.8178
  923MPD2    C113558   3.901   1.040   9.301  0.2187  0.5189  0.1924
  923MPD2    C213559   4.015   1.070   9.364 -0.0643  0.6307  0.6115
  923MPD2    C313560   4.126   0.993   9.349 -1.0265  0.5021 -0.2507
  923MPD2    C413561   4.127   0.885   9.258 -0.7176 -0.1466 -0.3671
  923MPD2    C513562   4.007   0.848   9.200 -0.4655 -0.6366 -0.4605
  923MPD2     H13563   4.018   1.164   9.418 -1.7023  0.4319  1.0498
  923MPD2    H113564   4.214   0.824   9.236 -1.2099 -0.8167 -0.4750
  923MPD2    H213565   3.795   0.899   9.179 -0.3371 -0.3784  0.5509
  923MPD2    H313566   4.001   0.764   9.132  1.1411  0.1622 -1.5871
  923MPD2     N13567   4.241   1.036   9.427 -0.3887 -0.3018  0.0006
  923MPD2    H513568   4.227   1.122   9.481 -1.5376 -0.2527 -0.3768
  923MPD2    N113569   3.797   1.137   9.311  0.2575  0.0086  0.3273
  923MPD2    H713570   3.703   1.113   9.282  0.0316  1.0696  0.1827
  924MPD2     C13571   2.801   3.355  15.827  0.1018 -0.5673 -0.8070
  924MPD2    C113572   2.865   3.376  15.945 -1.2792  0.5667  0.2015
  924MPD2    C213573   2.925   3.498  15.968  0.6201 -0.2697 -0.2843
  924MPD2    C313574   2.918   3.600  15.875  0.9712 -0.3017  0.3577
  924MPD2    C413575   2.850   3.576  15.753  0.0216 -0.3595 -0.3147
  924MPD2    C513576   2.797   3.453  15.732 -0.2423  0.0493  0.1985
  924MPD2     H13577   2.952   3.527  16.069  0.5731  1.3377 -0.7262
  924MPD2    H113578   2.862   3.650  15.674  4.4942 -1.3087 -0.5308
  924MPD2    H213579   2.742   3.265  15.817 -0.9687 -0.1180  1.5627
  924MPD2    H313580   2.739   3.421  15.647 -0.0877 -1.1076  0.5303
  924MPD2     N13581   2.970   3.728  15.897  0.4430  0.2086  0.3782
  924MPD2    H513582   2.953   3.803  15.832 -0.4385 -0.8031 -0.5540
  924MPD2    N113583   2.862   3.282  16.049  0.3780  0.3623 -0.2085
  924MPD2    H713584   2.780   3.224  16.061 -0.4985  1.5598 -0.4090
  925MPD2     C13585   2.520   1.434  14.670 -0.3603 -0.0554  0.3044
  925MPD2    C113586   2.382   1.443  14.660  0.4885  0.1994 -0.3271
  925MPD2    C213587   2.304   1.433  14.764  0.2246  0.6851  0.6016
  925MPD2    C313588   2.357   1.421  14.896 -0.7469 -0.0108 -0.1007
  925MPD2    C413589   2.490   1.397  14.910  0.0860  0.1804  0.1592
  925MPD2    C513590   2.571   1.405  14.798  0.5759  0.1628 -0.4596
  925MPD2     H13591   2.200   1.447  14.735 -0.9717 -0.9199  4.0713
  925MPD2    H113592   2.532   1.384  15.009 -1.7403  2.1233  1.1967
  925MPD2    H213593   2.580   1.432  14.580 -1.5564 -1.4149 -0.4559
  925MPD2    H313594   2.676   1.381  14.813  0.3994  0.4535  1.2746
  925MPD2     N13595   2.281   1.434  15.016  0.0826  0.2451 -0.1603
  925MPD2    H513596   2.334   1.418  15.102 -0.4335  1.4067  0.3707
  925MPD2    N113597   2.324   1.428  14.531  0.1293 -0.1344 -0.8055
  925MPD2    H713598   2.229   1.392  14.533 -0.1570  0.6916  0.3608
  926MPD2     C13599   1.013   4.260  14.127 -0.1438  0.6177 -1.0377
  926MPD2    C113600   0.962   4.341  14.028 -0.1100 -0.0942 -0.4242
  926MPD2    C213601   1.049   4.385  13.933  0.3596 -0.0969 -0.3015
  926MPD2    C313602   1.185   4.366  13.933 -0.0941  0.2772  0.3506
  926MPD2    C413603   1.237   4.279  14.030  0.2048 -0.5386 -0.0403
  926MPD2    C513604   1.148   4.227  14.120  0.3853 -0.2179 -0.7255
  926MPD2     H13605   1.009   4.448  13.855 -1.3966  1.3284  1.7608
  926MPD2    H113606   1.342   4.255  14.036  0.8152  1.5737 -2.1062
  926MPD2    H213607   0.955   4.213  14.205 -1.2492 -0.2171 -2.3621
  926MPD2    H313608   1.194   4.156  14.188  0.7879  1.0944  0.3565
  926MPD2     N13609   1.276   4.422  13.841 -0.1817 -0.3968  0.0447
  926MPD2    H513610   1.371   4.430  13.877 -0.2052  1.6746 -0.3234
  926MPD2    N113611   0.818   4.380  14.031  0.4338  0.3781 -0.2144
  926MPD2    H713612   0.791   4.440  13.954  0.9715  0.0441 -0.6675
  927MPD2     C13613   0.254   2.042   0.096  0.3204 -0.0353 -0.0993
  927MPD2    C113614   0.364   1.963   0.121 -0.0375 -0.5386  0.1512
  927MPD2    C213615   0.456   1.948   0.019 -0.2208  0.5176 -0.5340
  927MPD2    C313616   0.450   2.022  17.645 -0.2734 -0.2835  0.2258
  927MPD2    C413617   0.341   2.104  17.619  0.9102 -0.7927  0.4815
  927MPD2    C513618   0.244   2.104  17.715  0.4111  0.8148  0.0321
  927MPD2     H13619   0.534   1.873   0.023  0.2100  1.1765  2.8742
  927MPD2    H113620   0.320   2.162  17.529 -1.0919 -1.0449  0.7819
  927MPD2    H213621   0.171   2.054   0.165  2.0296  2.2546  1.5647
  927MPD2    H313622   0.158   2.170  17.705 -0.3904 -0.4324 -1.3538
  927MPD2     N13623   0.555   2.004  17.549  0.0938 -0.5979  0.6377
  927MPD2    H513624   0.627   1.938  17.575 -0.4201 -0.7067  1.7795
  927MPD2    N113625   0.380   1.900   0.246 -0.5096  0.0019 -0.4453
  927MPD2    H713626   0.471   1.869   0.279 -0.0340 -1.1743 -2.8877
  928MPD2     C13627   3.385   0.147   0.977  0.4333 -0.3446 -0.2635
  928MPD2    C113628   3.318   0.150   0.856  0.5076 -0.0176 -0.8055
  928MPD2    C213629   3.383   0.184   0.738 -0.7047 -0.2251 -0.5621
  928MPD2    C313630   3.519   0.221   0.748 -0.1928 -0.3970 -0.7372
  928MPD2    C413631   3.576   0.233   0.869 -0.2154  0.3035  0.0399
  928MPD2    C513632   3.514   0.194   0.979  1.3303 -0.1243  0.1429
  928MPD2     H13633   3.333   0.196   0.643  0.7802  0.8775 -1.2066
  928MPD2    H113634   3.673   0.282   0.869  0.0921 -0.2961 -2.0799
  928MPD2    H213635   3.331   0.115   1.065  2.0735 -1.4755  0.3426
  928MPD2    H313636   3.565   0.204   1.074  0.4827  1.5264  0.4219
  928MPD2     N13637   3.600   0.270   0.637  0.1137 -0.6601  0.1280
  928MPD2    H513638   3.688   0.313   0.662  0.0820 -0.2059 -0.5651
  928MPD2    N113639   3.190   0.096   0.865 -0.5606 -0.4553 -0.3978
  928MPD2    H713640   3.168   0.051   0.953 -0.9200 -0.8429 -0.6848
  929MPD2     C13641   4.530   0.341  10.313 -0.6615  0.0727  0.0278
  929MPD2    C113642   4.433   0.250  10.277 -0.0114 -0.0831 -0.4184
  929MPD2    C213643   4.375   0.254  10.149  0.3672  0.2926 -0.5546
  929MPD2    C313644   4.403   0.363  10.065 -0.2618 -0.0848  0.2379
  929MPD2    C413645   4.507   0.442  10.109 -0.3848  0.0148  0.9642
  929MPD2    C513646   4.570   0.434  10.227  0.6651  0.9039  0.4912
  929MPD2     H13647   4.296   0.183  10.130 -1.2344  1.1578  2.7335
  929MPD2    H113648   4.539   0.524  10.046 -1.7323 -0.1068  0.1167
  929MPD2    H213649   4.574   0.345  10.412  0.7167 -0.5089 -0.5606
  929MPD2    H313650   4.647   0.504  10.259 -1.9198  3.4855  1.0459
  929MPD2     N13651   4.334   0.388   9.943 -0.0599 -0.4826 -0.3234
  929MPD2    H513652   4.353   0.475   9.895 -2.6630 -0.0451 -0.5931
  929MPD2    N113653   4.398   0.150  10.369 -0.6025 -0.9007 -0.5149
  929MPD2    H713654   4.443   0.147  10.460 -1.1382  2.0611 -0.1786
  930MPD2     C13655   0.731   2.308  14.337  0.7004 -0.7574  0.6923
  930MPD2    C113656   0.658   2.411  14.286 -0.7250 -0.4920 -1.2700
  930MPD2    C213657   0.568   2.391  14.188 -0.7558 -0.1657 -0.1997
  930MPD2    C313658   0.551   2.272  14.128 -0.0940 -0.1849  0.0779
  930MPD2    C413659   0.627   2.167  14.176 -0.0937 -0.3654 -1.1207
  930MPD2    C513660   0.720   2.184  14.278  0.7838  0.5653  0.1471
  930MPD2     H13661   0.519   2.482  14.157 -1.1705 -0.4783 -0.4765
  930MPD2    H113662   0.622   2.073  14.124 -0.7792 -0.7323 -0.3875
  930MPD2    H213663   0.806   2.332  14.411 -0.2734  1.4590  0.9249
  930MPD2    H313664   0.771   2.099  14.322  0.4155  0.8459  1.1206
  930MPD2     N13665   0.464   2.243  14.024 -0.3841 -0.1506  0.0282
  930MPD2    H513666   0.466   2.149  13.986 -1.7307  0.5068 -1.6372
  930MPD2    N113667   0.674   2.542  14.333 -0.1127 -0.1134 -0.3850
  930MPD2    H713668   0.651   2.614  14.265 -0.9760 -0.7153 -0.7385
  931MPD2     C13669   0.863   1.521   0.408 -0.4240 -0.0537 -0.0482
  931MPD2    C113670   0.759   1.505   0.495  0.0947  0.3996  0.1250
  931MPD2    C213671   0.787   1.427   0.606  1.0626 -0.1475  0.7354
  931MPD2    C313672   0.917   1.382   0.637 -0.9342  0.3114  0.0637
  931MPD2    C413673   1.014   1.408   0.548 -0.3781 -1.1888 -0.5024
  931MPD2    C513674   0.979   1.475   0.440  0.1492 -0.5615 -0.0513
  931MPD2     H13675   0.724   1.449   0.692 -0.0412 -1.0810  0.1639
  931MPD2    H113676   1.118   1.381   0.567  0.3552  1.5267 -0.6687
  931MPD2    H213677   0.839   1.582   0.321  1.1776  1.8230  0.8420
  931MPD2    H313678   1.061   1.492   0.372  1.5986  1.5957  2.2411
  931MPD2     N13679   0.958   1.321   0.758 -0.5684  0.2433 -0.2861
  931MPD2    H513680   1.055   1.292   0.763 -0.4262  0.6632 -0.5291
  931MPD2    N113681   0.636   1.560   0.465 -0.3328 -0.0605  0.3397
  931MPD2    H713682   0.627   1.608   0.376  1.5964  0.0886  0.2316
  932MPD2     C13683   2.528   1.116  11.142 -0.2053 -0.5060 -0.2508
  932MPD2    C113684   2.656   1.138  11.084  0.1888  0.2250  0.3356
  932MPD2    C213685   2.749   1.035  11.097  0.0764 -0.3356  0.3668
  932MPD2    C313686   2.721   0.919  11.171  0.1488 -0.1146  0.2424
  932MPD2    C413687   2.597   0.901  11.223 -0.3408 -0.5761  1.0599
  932MPD2    C513688   2.506   0.999  11.212 -0.6478  0.6470 -0.8291
  932MPD2     H13689   2.848   1.045  11.052  0.3298 -2.0416  0.5336
  932MPD2    H113690   2.579   0.803  11.265 -0.6058 -1.1405 -0.3868
  932MPD2    H213691   2.449   1.190  11.127  1.6786  1.5406 -0.0163
  932MPD2    H313692   2.401   0.981  11.229 -0.6760 -0.2563 -1.9398
  932MPD2     N13693   2.820   0.821  11.187  0.2203  0.2812  0.0321
  932MPD2    H513694   2.799   0.746  11.252 -2.1666 -0.1923 -1.3047
  932MPD2    N113695   2.691   1.254  11.025 -0.2796  0.1667  0.5166
  932MPD2    H713696   2.789   1.272  11.004 -0.1734 -1.3753 -0.3136
  933MPD2     C13697   2.290   0.210   0.837  0.7175  0.7201 -0.3131
  933MPD2    C113698   2.417   0.266   0.814  0.1756  0.4083 -1.0049
  933MPD2    C213699   2.421   0.404   0.804  0.2108  0.1590  0.4444
  933MPD2    C313700   2.301   0.479   0.817  0.0312  0.5443  0.4095
  933MPD2    C413701   2.177   0.425   0.836 -0.2869 -0.3040 -0.5430
  933MPD2    C513702   2.170   0.289   0.839 -0.4354  0.0353 -0.8911
  933MPD2     H13703   2.516   0.453   0.786 -0.2015  1.5575  2.1136
  933MPD2    H113704   2.087   0.485   0.842 -0.7044 -1.0467  0.5404
  933MPD2    H213705   2.286   0.103   0.849  1.5638  0.7905  0.6188
  933MPD2    H313706   2.079   0.231   0.854 -0.4866  0.6263  1.0369
  933MPD2     N13707   2.318   0.619   0.825  0.5434  0.1086  0.5367
  933MPD2    H513708   2.415   0.648   0.814  0.5902 -0.9641 -1.8915
  933MPD2    N113709   2.537   0.186   0.814 -0.2735  0.3675 -0.3419
  933MPD2    H713710   2.518   0.093   0.849  0.7235  0.3197  0.0426
  934MPD2     C13711   0.196   1.766   1.297  0.1974 -0.1746 -0.3379
  934MPD2    C113712   0.126   1.888   1.280  0.1180  1.0417  0.3908
  934MPD2    C213713   4.727   1.890   1.244 -0.4702  0.2625 -0.3619
  934MPD2    C313714   4.660   1.772   1.225 -0.1348  0.8634 -0.2219
  934MPD2    C413715   4.727   1.651   1.251  0.3405  0.2398 -0.6049
  934MPD2    C513716   0.121   1.654   1.283 -0.8322 -0.8181  0.3174
  934MPD2     H13717   4.681   1.985   1.217  0.0004  0.8071  0.7491
  934MPD2    H113718   4.680   1.553   1.252  0.5334  0.1486  0.2215
  934MPD2    H213719   0.302   1.764   1.322 -0.1908  0.1804  1.3251
  934MPD2    H313720   0.164   1.557   1.304  3.0710  1.0460  0.8590
  934MPD2     N13721   4.529   1.764   1.176 -0.1251  0.2295 -0.1893
  934MPD2    H513722   4.495   1.670   1.156 -1.2901  0.6636 -0.2503
  934MPD2    N113723   0.187   2.017   1.288 -0.2226 -0.1779  0.2049
  934MPD2    H713724   0.133   2.098   1.262 -0.4256  0.0833  1.4774
  935MPD2     C13725   4.188   1.065   0.874  0.2270  0.3901 -0.2651
  935MPD2    C113726   4.074   1.143   0.885 -0.6662  0.1412  0.5601
  935MPD2    C213727   4.087   1.262   0.948  0.0749  0.2084  0.2526
  935MPD2    C313728   4.207   1.304   1.005  0.3147  0.1507 -0.1676
  935MPD2    C413729   4.319   1.223   0.991 -0.2968 -0.5530 -0.0474
  935MPD2    C513730   4.309   1.109   0.919  0.2261 -0.2775  0.6642
  935MPD2     H13731   3.997   1.323   0.953  0.9118  1.4340  0.5627
  935MPD2    H113732   4.416   1.256   1.025 -0.0119 -0.6733 -0.7379
  935MPD2    H213733   4.181   0.972   0.818 -1.6935 -0.1853  0.9257
  935MPD2    H313734   4.398   1.047   0.910  1.2079  1.1241  0.7998
  935MPD2     N13735   4.221   1.432   1.068  0.6508 -0.4893 -0.3276
  935MPD2    H513736   4.319   1.447   1.087  0.6668 -2.0352  0.8305
  935MPD2    N113737   3.948   1.107   0.841  0.2593  0.2120 -0.1496
  935MPD2    H713738   3.871   1.156   0.885  1.8777  1.4132  1.3164
  936MPD2     C13739   3.494   3.780  13.082 -0.2223  0.1794  0.0812
  936MPD2    C113740   3.408   3.779  12.972  0.4244 -0.2089  0.0984
  936MPD2    C213741   3.465   3.800  12.843 -0.2717  0.3180 -0.1720
  936MPD2    C313742   3.601   3.814  12.834 -0.1474  1.2184 -0.1785
  936MPD2    C413743   3.684   3.784  12.940  0.1465  0.9849 -0.0532
  936MPD2    C513744   3.632   3.778  13.065 -0.6430  0.6087  0.1811
  936MPD2     H13745   3.403   3.803  12.754  2.9786  0.7042 -2.4152
  936MPD2    H113746   3.792   3.788  12.929  0.3092  0.3847  1.4138
  936MPD2    H213747   3.456   3.772  13.183  1.7468 -1.2639  0.6994
  936MPD2    H313748   3.698   3.777  13.150 -1.0228  0.6394  0.4793
  936MPD2     N13749   3.651   3.851  12.707  0.5140  0.0198  0.7921
  936MPD2    H513750   3.579   3.867  12.637 -0.0601 -2.7403  0.7536
  936MPD2    N113751   3.271   3.778  12.983 -0.3482  0.1968  0.0764
  936MPD2    H713752   3.215   3.761  12.900 -1.9595  0.8944  1.0310
  937MPD2     C13753   1.278   0.615  11.686 -1.1782 -0.0683 -0.5677
  937MPD2    C113754   1.228   0.730  11.625 -0.1524 -0.9055 -0.3567
  937MPD2    C213755   1.295   0.770  11.514 -0.3254  0.3629  0.7287
  937MPD2    C313756   1.394   0.700  11.465 -0.4875 -0.8337 -0.1314
  937MPD2    C413757   1.428   0.577  11.516  0.2673 -0.6824 -0.1047
  937MPD2    C513758   1.373   0.538  11.633  0.8260  0.4251  0.7061
  937MPD2     H13759   1.263   0.868  11.482 -0.2580  0.0510 -0.2766
  937MPD2    H113760   1.510   0.513  11.483  1.0914 -0.2054  0.9812
  937MPD2    H213761   1.243   0.577  11.781 -0.4587 -0.5720 -0.5026
  937MPD2    H313762   1.405   0.451  11.688  0.1893 -0.4079 -0.2498
  937MPD2     N13763   1.480   0.771  11.369 -0.4302  0.3706 -0.1442
  937MPD2    H513764   1.452   0.861  11.332 -1.5581  0.3668  0.6882
  937MPD2    N113765   1.143   0.814  11.691  0.1221  0.8569 -0.2182
  937MPD2    H713766   1.121   0.899  11.641  1.0278  1.3693  0.2410
  938MPD2     C13767   3.140   2.194   0.509  0.6124 -0.0770  0.8063
  938MPD2    C113768   3.241   2.207   0.603 -0.5436  0.3331 -0.8040
  938MPD2    C213769   3.291   2.097   0.674 -0.0873 -0.7546  0.1758
  938MPD2    C313770   3.221   1.982   0.675 -0.3462 -0.7258  1.2689
  938MPD2    C413771   3.121   1.965   0.581  0.1426 -0.4576  0.1329
  938MPD2    C513772   3.081   2.075   0.498 -0.2091  0.2698 -0.0585
  938MPD2     H13773   3.379   2.119   0.733 -0.3015 -1.8915  0.9201
  938MPD2    H113774   3.063   1.874   0.574 -2.4144  1.1323  0.6715
  938MPD2    H213775   3.119   2.272   0.436 -3.6847 -0.6359  1.4379
  938MPD2    H313776   2.999   2.070   0.428  0.1268 -2.7258 -0.2496
  938MPD2     N13777   3.258   1.873   0.758 -0.8857  0.4626  0.4864
  938MPD2    H513778   3.205   1.787   0.753 -1.3236  0.6917  1.1659
  938MPD2    N113779   3.309   2.329   0.636 -0.0666  0.0071  1.2337
  938MPD2    H713780   3.390   2.322   0.698  1.6808  0.0404 -1.0405
  939MPD2     C13781   4.150   2.955   0.528  0.0643  0.0856  0.0018
  939MPD2    C113782   4.203   3.082   0.527 -0.5555 -0.2615  0.1021
  939MPD2    C213783   4.231   3.144   0.412  0.3196 -0.4678 -0.1444
  939MPD2    C313784   4.227   3.070   0.296  0.1017  0.0407 -0.4472
  939MPD2    C413785   4.183   2.943   0.294 -0.4939  0.4289  0.0101
  939MPD2    C513786   4.141   2.890   0.411 -0.4019  0.0336  0.6539
  939MPD2     H13787   4.274   3.244   0.416  2.0547 -1.3042  2.3541
  939MPD2    H113788   4.175   2.883   0.204  0.0176 -0.9433  0.8770
  939MPD2    H213789   4.116   2.919   0.624  0.0213 -0.3652 -0.1826
  939MPD2    H313790   4.093   2.793   0.419 -0.2226 -0.1582 -0.6309
  939MPD2     N13791   4.284   3.132   0.181  0.2077 -0.2962  0.7742
  939MPD2    H513792   4.306   3.229   0.197  1.8266 -0.7921  1.5783
  939MPD2    N113793   4.225   3.148   0.650 -0.4644 -0.3134  0.7533
  939MPD2    H713794   4.216   3.098   0.738  0.4510  1.0140  1.6074
  940MPD2     C13795   4.264   3.849  12.508 -0.0026  0.2780 -0.0227
  940MPD2    C113796   4.156   3.845  12.590 -0.0302 -0.8578  0.2972
  940MPD2    C213797   4.073   3.738  12.563 -0.5347  0.6129 -0.4954
  940MPD2    C313798   4.084   3.657  12.455  0.4894 -0.2960  0.6876
  940MPD2    C413799   4.193   3.665  12.377  0.5192  0.0560  1.1132
  940MPD2    C513800   4.285   3.759  12.397 -0.0655 -0.0903 -0.0279
  940MPD2     H13801   3.993   3.718  12.635  0.4063  1.3718  0.7568
  940MPD2    H113802   4.220   3.592  12.301  0.3164  1.7938 -0.6311
  940MPD2    H213803   4.346   3.918  12.519  0.0962  0.3753 -1.4635
  940MPD2    H313804   4.371   3.772  12.333 -0.3661  0.7624 -0.2663
  940MPD2     N13805   3.999   3.546  12.417 -0.5871  0.5104  0.5520
  940MPD2    H513806   4.038   3.477  12.353 -0.5836 -0.6725  1.8100
  940MPD2    N113807   4.138   3.920  12.705 -0.7576  0.1058  0.5847
  940MPD2    H713808   4.067   3.888  12.770 -1.3832 -3.0156 -1.6324
  941MPD2     C13809   3.084   3.936   9.644 -0.1822 -0.6380 -0.2559
  941MPD2    C113810   3.166   3.896   9.746  0.3516  0.4339  0.8364
  941MPD2    C213811   3.111   3.827   9.854 -0.1398 -0.4622 -0.7965
  941MPD2    C313812   2.972   3.808   9.867  0.2253  0.5318 -0.8950
  941MPD2    C413813   2.891   3.854   9.763  0.3869  0.2313  0.7332
  941MPD2    C513814   2.953   3.906   9.655 -0.1378  0.4028 -0.0570
  941MPD2     H13815   3.180   3.810   9.937 -0.7897 -0.7742 -0.3173
  941MPD2    H113816   2.784   3.843   9.757  0.4740 -0.1262 -0.0609
  941MPD2    H213817   3.120   3.994   9.560 -2.7705 -0.6288 -1.3486
  941MPD2    H313818   2.888   3.942   9.576  0.6667 -0.6246 -1.1972
  941MPD2     N13819   2.914   3.757   9.986  0.1347 -0.1475 -0.4469
  941MPD2    H513820   2.816   3.774  10.009 -0.1720  1.8921 -3.3087
  941MPD2    N113821   3.305   3.920   9.745 -0.3696  0.0543 -0.3512
  941MPD2    H713822   3.354   3.919   9.834  0.8380 -2.3285 -1.0550
  942MPD2     C13823   2.402   1.012   9.687  0.9176 -0.2848 -0.6670
  942MPD2    C113824   2.466   0.910   9.754  0.1311 -0.3936 -0.1785
  942MPD2    C213825   2.579   0.856   9.710  0.3156 -0.1221  0.0222
  942MPD2    C313826   2.639   0.896   9.594 -0.3231 -0.7857 -0.8458
  942MPD2    C413827   2.571   0.997   9.526 -0.0984 -0.4561 -0.4083
  942MPD2    C513828   2.455   1.055   9.570  0.5419  0.6750  0.5064
  942MPD2     H13829   2.618   0.773   9.767  0.3591  1.5570  2.4439
  942MPD2    H113830   2.614   1.045   9.439 -2.8622  1.2324 -0.8526
  942MPD2    H213831   2.311   1.059   9.725 -0.0746 -2.1608 -0.7096
  942MPD2    H313832   2.413   1.136   9.513  0.9822  0.3733 -0.2414
  942MPD2     N13833   2.757   0.843   9.535  1.2275  0.8825 -0.0341
  942MPD2    H513834   2.777   0.877   9.441 -3.0217  4.0953  0.2343
  942MPD2    N113835   2.409   0.855   9.873 -0.7198  0.1534  0.3578
  942MPD2    H713836   2.463   0.779   9.915  0.1911  1.5368  1.7087
  943MPD2     C13837   1.941   2.242   9.997  0.7770  0.6494 -0.0723
  943MPD2    C113838   1.986   2.360  10.054  0.4254 -0.5249  0.3423
  943MPD2    C213839   2.088   2.432   9.990  0.1282  0.0805 -0.1884
  943MPD2    C313840   2.132   2.388   9.868 -0.3167 -0.9372 -0.1583
  943MPD2    C413841   2.089   2.270   9.816  0.3888 -0.2145 -0.2848
  943MPD2    C513842   1.990   2.199   9.882  0.6713 -0.4252  0.0937
  943MPD2     H13843   2.137   2.521  10.027 -2.0081  0.4905  1.7002
  943MPD2    H113844   2.129   2.222   9.727  1.8085  0.4714 -0.0132
  943MPD2    H213845   1.874   2.178  10.054 -1.4581 -0.0502 -3.4894
  943MPD2    H313846   1.958   2.108   9.832  2.6194 -1.4043  0.6098
  943MPD2     N13847   2.231   2.467   9.803  0.6780 -0.6949 -1.0925
  943MPD2    H513848   2.258   2.550   9.855 -0.0868  0.1842 -2.0746
  943MPD2    N113849   1.938   2.393  10.184 -0.4489  0.6016  0.5713
  943MPD2    H713850   1.863   2.335  10.220  0.8912 -2.1947 -1.1920
  944MPD2     C13851   2.235   2.050  11.683  0.0146  0.0385  0.1915
  944MPD2    C113852   2.152   2.086  11.575  0.4534  0.0385 -0.3189
  944MPD2    C213853   2.059   2.185  11.597 -0.7212 -0.2352  0.1868
  944MPD2    C313854   2.048   2.254  11.711  1.3801  0.0369 -0.8560
  944MPD2    C413855   2.126   2.216  11.817 -0.0917  0.2084 -0.1204
  944MPD2    C513856   2.222   2.112  11.805  0.3689 -0.0428  0.9306
  944MPD2     H13857   1.996   2.222  11.516 -0.9478 -1.2612 -0.1064
  944MPD2    H113858   2.116   2.267  11.912  0.0830  0.3978 -0.2046
  944MPD2    H213859   2.313   1.979  11.659 -0.6833 -0.6461 -0.0813
  944MPD2    H313860   2.297   2.095  11.882  2.0711  0.3658 -0.6329
  944MPD2     N13861   1.948   2.351  11.716  0.2732 -0.0211 -0.3881
  944MPD2    H513862   1.915   2.391  11.629 -0.1528 -1.1152 -0.7334
  944MPD2    N113863   2.172   2.021  11.449 -0.6778  0.2629  0.4590
  944MPD2    H713864   2.251   1.958  11.448  1.4396  2.8965  0.7833
    1TMC1    C113865   0.028   2.908  14.495  0.9385 -0.0589 -0.4315
    1TMC1    C213866   0.056   2.775  14.522  0.5028  0.3389 -0.2067
    1TMC1    C313867   0.042   2.684  14.421 -0.6240  0.8257  0.5143
    1TMC1    C413868   4.723   2.955  14.368  1.4603  0.2065 -0.0308
    1TMC1    C513869   4.719   2.857  14.268  0.1518  0.4227 -0.1143
    1TMC1    C613870   0.013   2.725  14.293 -0.2234  0.2007  0.1451
    1TMC1     C13871   0.021   2.991  14.613 -0.8097 -0.5179 -1.5107
    1TMC1     O13872   0.077   2.950  14.709  0.3015  0.4998  0.2548
    1TMC1     H13873   0.053   2.747  14.627  1.9973 -0.8692 -0.4984
    1TMC1    H113874   4.719   3.062  14.351  0.8541  0.1532 -0.2108
    1TMC1    H213875   0.009   2.652  14.213  1.0243  1.5385 -1.1408
    1TMC1    C713876   4.676   2.885  14.135  0.0825 -0.2829  0.1366
    1TMC1    C813877   0.002   2.547  14.460  0.2375 -0.1498 -0.4525
    1TMC1    O113878   4.668   2.797  14.048 -0.4405  0.1575 -0.8662
    1TMC1    O213879   4.628   2.526  14.504  0.4363  0.0706 -0.2019
    1TMC1    O313880   4.590   2.990  14.154  0.1869 -0.2589  0.3641
    1TMC1    H313881   4.591   3.017  14.248  1.1295 -1.2521  0.6333
    1TMC1    O513882   0.058   2.454  14.381 -0.2754 -0.2664  0.4017
    1TMC1    H513883   0.143   2.487  14.343  0.2480  0.0568  1.8535
    2MPD2     C13884   4.563   3.401  14.855 -0.1860 -0.6829  0.3606
    2MPD2    C113885   4.524   3.405  14.722 -0.2389  0.7701  0.1026
    2MPD2    C213886   4.553   3.300  14.641  0.5977 -0.4446  0.2055
    2MPD2    C313887   4.637   3.192  14.689  0.2403 -0.2829  0.4410
    2MPD2    C413888   4.686   3.207  14.818  0.0635  0.2111  0.3121
    2MPD2    C513889   4.649   3.311  14.898 -0.8336  0.3386 -0.1953
    2MPD2     H13890   4.531   3.297  14.535  2.5323 -0.1124 -0.2148
    2MPD2    H113891   0.030   3.149  14.863  1.4161  0.8531 -1.2058
    2MPD2    H213892   4.518   3.481  14.913 -0.9574 -0.1243 -1.0133
    2MPD2    H313893   4.674   3.321  15.003 -2.4229  2.3259 -0.0204
    2MPD2     N13894   4.665   3.094  14.593 -0.3259  0.7294 -0.0951
    2MPD2    H513895   4.614   3.096  14.506  2.2035  0.9975 -1.5615
    2MPD2    N113896   4.462   3.526  14.673  0.4839 -0.2860 -0.5049
    2MPD2    H713897   4.442   3.599  14.741  2.5423  0.9057 -1.1642
    3TMC2    C113898   4.394   3.671  14.509 -0.2769  0.2641 -0.7240
    3TMC2    C213899   4.436   3.777  14.584  0.1021  0.1223  0.0144
    3TMC2    C313900   4.438   3.896  14.518 -0.0163  0.1999 -0.7172
    3TMC2    C413901   4.349   3.675  14.380  0.1173 -0.3049  0.3466
    3TMC2    C513902   4.363   3.798  14.317 -0.5839 -0.3910 -0.4585
    3TMC2    C613903   4.403   3.908  14.386 -0.0971 -0.3044  0.5094
    3TMC2     C13904   4.428   3.537  14.543  0.6962  0.2011  0.3691
    3TMC2     O13905   4.451   3.473  14.442 -0.1145  0.0854  0.2084
    3TMC2     H13906   4.467   3.770  14.688 -3.0700  3.6873  1.1993
    3TMC2    H113907   4.316   3.587  14.327 -1.1557  1.6204 -2.0801
    3TMC2    H213908   4.425   4.005  14.342  1.8184 -1.3473 -0.8779
    3TMC2    C713909   4.299   3.806  14.185  0.4945 -0.5970  0.9283
    3TMC2    C813910   4.503   4.002  14.591  0.0329  0.1099 -0.3875
    3TMC2    O113911   4.241   3.709  14.153 -0.8848  0.1670 -0.0222
    3TMC2    O213912   4.471   4.115  14.564  0.2467 -0.0291  0.2436
    3TMC2    O513913   4.631   3.961  14.609  0.1278 -0.4936  0.0407
    3TMC2    H513914   4.638   3.869  14.641 -1.7441 -0.4391  0.6378
    4TMC2    C113915   4.195   4.608  13.714  0.0241  0.9788  0.1084
    4TMC2    C213916   4.248   4.707  13.799 -0.7771 -0.0324  0.1423
    4TMC2    C313917   4.368   4.687  13.858 -0.0046 -0.0854  0.6443
    4TMC2    C413918   4.265   4.489  13.694  0.2042 -0.1029 -0.1224
    4TMC2    C513919   4.377   4.468  13.766 -0.1546 -0.2692  0.0105
    4TMC2    C613920   4.430   4.562  13.857 -0.0206  0.9156  0.5273
    4TMC2     C13921   4.056   4.613  13.695  0.4055 -0.2756  0.2609
    4TMC2     O13922   3.986   4.669  13.779  0.2994  0.8600  0.3632
    4TMC2     H13923   4.192   0.064  13.812  1.5858  1.3484  0.4798
    4TMC2    H113924   4.222   4.414  13.629  0.8027 -0.5724  0.0188
    4TMC2    H213925   4.512   4.531  13.921 -0.1054 -1.0380 -0.3094
    4TMC2    C713926   4.384   4.332  13.819 -0.2760 -0.7024 -0.1603
    4TMC2    C813927   4.413   0.034  13.970 -0.8167 -0.1435  0.2069
    4TMC2    O113928   4.436   4.327  13.931 -0.4272  0.4776  0.0290
    4TMC2    O213929   4.472   4.720  14.062 -0.3269 -0.0986 -0.2403
    4TMC2    O513930   4.414   0.162  13.953  0.0088 -0.0930  0.0583
    4TMC2    H513931   4.381   0.189  13.864  1.6805  0.6613 -0.3318
    5MPD2     C13932   3.622   4.444  13.468 -0.6110  0.2689  0.1083
    5MPD2    C113933   3.729   4.438  13.374 -0.1577 -0.0474 -0.0342
    5MPD2    C213934   3.857   4.469  13.411 -0.6590 -0.3486 -0.7448
    5MPD2    C313935   3.886   4.515  13.539 -0.0707 -0.1785  0.2490
    5MPD2    C413936   3.778   4.525  13.625 -0.9425  0.1572 -0.8934
    5MPD2    C513937   3.656   4.491  13.589  0.3426 -0.2655 -0.5939
    5MPD2     H13938   3.943   4.456  13.347  0.8574  1.5670  0.9086
    5MPD2    H113939   3.786   4.566  13.725  0.8817 -0.3447 -0.8230
    5MPD2    H213940   3.520   4.420  13.443 -0.3673 -2.9223  2.1068
    5MPD2    H313941   3.575   4.521  13.654  0.8698  0.6894 -0.3587
    5MPD2     N13942   4.020   4.538  13.583  1.0974 -0.4268  0.3321
    5MPD2    H513943   4.098   4.509  13.524  1.5744 -0.1663  0.8340
    5MPD2    N113944   3.687   4.382  13.251  0.3834  0.4569  0.0976
    5MPD2    H713945   3.590   4.352  13.246  0.8764 -0.8772 -1.7875
    6MPD1     C13946   2.417   0.572  13.006  0.1077 -0.0695 -0.8926
    6MPD1    C113947   2.497   0.584  12.899  0.0547 -0.0420 -0.4318
    6MPD1    C213948   2.580   0.482  12.855  0.1515 -0.6429  0.5333
    6MPD1    C313949   2.612   0.377  12.945 -0.1241  0.0722 -0.1046
    6MPD1    C413950   2.542   0.378  13.067  0.1513  0.9703  0.0803
    6MPD1    C513951   2.441   0.469  13.094  0.1295  0.1273 -0.5869
    6MPD1     H13952   2.636   0.483  12.762 -0.8196 -2.1622 -0.0627
    6MPD1    H113953   2.573   0.303  13.138  0.9158 -0.6468 -1.9606
    6MPD1    H213954   2.339   0.639  13.040  1.9880  1.3386  0.5910
    6MPD1    H313955   2.372   0.442  13.173  4.3635 -1.1287  2.7039
    6MPD1     N13956   2.712   0.275  12.919 -0.5116 -0.1988 -0.2752
    6MPD1    H513957   2.729   0.214  12.998  1.8882 -0.4068 -0.9398
    6MPD1    N113958   2.471   0.694  12.822 -1.0439 -0.6728 -0.2904
    6MPD1    H613959   2.457   0.783  12.871  1.4233  0.1526 -1.0833
    6MPD1    H713960   2.538   0.719  12.750 -1.6695 -0.8176 -0.9162
    7MPD2     C13961   3.027   4.346  13.178 -0.1708  0.4083 -0.4989
    7MPD2    C113962   3.085   4.372  13.058  0.1045 -0.1540  0.0106
    7MPD2    C213963   3.194   4.286  13.024 -0.1335  0.4766  0.2557
    7MPD2    C313964   3.247   4.193  13.111  0.5663 -0.2509 -0.1646
    7MPD2    C413965   3.184   4.178  13.230 -0.2281  0.1149 -0.8798
    7MPD2    C513966   3.077   4.255  13.262  0.2089  0.3596 -0.0020
    7MPD2     H13967   3.251   4.309  12.935  1.0285  0.8603  1.1055
    7MPD2    H113968   3.212   4.111  13.310  0.5310  0.0184 -1.2228
    7MPD2    H213969   2.956   4.416  13.221  0.6295  1.5762 -1.0831
    7MPD2    H313970   3.033   4.247  13.361  2.4616  1.5893  1.0746
    7MPD2     N13971   3.360   4.123  13.083 -0.1950 -0.8829 -0.2579
    7MPD2    H513972   3.417   4.091  13.160  1.3449  0.1201 -0.9637
    7MPD2    N113973   3.057   4.482  12.977 -0.0632  1.2091 -0.2304
    7MPD2    H713974   3.102   4.489  12.886  0.2669 -3.0935 -0.3952
    8TMC3    C113975   3.559   4.141  12.949 -0.0682  0.2059 -0.2561
    8TMC3    C213976   3.620   4.197  13.059 -0.3257 -0.5343  0.0186
    8TMC3    C313977   3.710   4.289  13.026  0.7461  0.2057 -0.5501
    8TMC3    C413978   3.605   4.163  12.823  0.0149  0.1959  0.0293
    8TMC3    C513979   3.708   4.253  12.792 -0.2042 -0.2316 -0.5732
    8TMC3    C613980   3.767   4.313  12.902 -0.6412  0.8010  0.4568
    8TMC3     C13981   3.416   4.114  12.958  0.5745 -0.3749 -0.3174
    8TMC3     O13982   3.349   4.097  12.856 -0.2746  0.5139 -0.1571
    8TMC3     H13983   3.585   4.180  13.161  2.6054  0.4212  1.1959
    8TMC3    H113984   3.556   4.115  12.739  1.4704 -0.0057 -0.7161
    8TMC3    H213985   3.839   4.393  12.892  1.9071 -1.8351 -2.1329
    8TMC3    C713986   3.654   4.357  12.710 -0.1194 -1.0026 -0.6222
    8TMC3    C813987   3.767   4.361  13.138  0.3802  0.1934  0.2247
    8TMC3    O113988   3.539   4.338  12.667  0.3061 -0.5674 -0.1098
    8TMC3    O213989   3.880   4.409  13.122 -0.1881  0.7422 -0.1004
    9TMC3    C113990   2.896   0.162  12.823  0.7908  0.4252 -0.4445
    9TMC3    C213991   3.017   0.193  12.768  0.1443  0.5339 -0.3257
    9TMC3    C313992   3.118   0.101  12.789 -0.0193 -0.1436  0.2658
    9TMC3    C413993   2.876   0.050  12.900  0.1741 -0.6636  0.1240
    9TMC3    C513994   2.978   4.695  12.913  0.0660  0.0635  0.2465
    9TMC3    C613995   3.096   4.715  12.852  0.0906  0.1341 -0.7451
    9TMC3     C13996   2.789   0.263  12.805  0.4908  0.8748 -0.4486
    9TMC3     O13997   2.792   0.326  12.700  0.1554 -0.3675  0.2476
    9TMC3     H13998   3.028   0.288  12.716  3.2579  0.0112 -0.5952
    9TMC3    H113999   2.782   0.023  12.949 -0.2195 -2.2971 -1.5410
    9TMC3    H214000   3.181   4.650  12.870  0.3420  1.3801  2.6585
    9TMC3    C714001   2.960   4.578  12.999  0.4719 -0.0475  0.5449
    9TMC3    C814002   3.246   0.124  12.729 -0.0117 -0.1519  0.2376
    9TMC3    O114003   2.862   4.576  13.074  0.3803  0.5638 -0.7500
    9TMC3    O214004   3.282   0.238  12.697 -0.3833  0.4395  0.2101
   10MPD2     C14005   3.733   4.715  12.702  0.4409  0.3177  0.5927
   10MPD2    C114006   3.654   4.603  12.704 -0.3770 -0.4627  0.8452
   10MPD2    C214007   3.520   4.622  12.707 -0.1106  0.0808  0.1509
   10MPD2    C314008   3.467   0.014  12.695 -0.0294 -0.1583 -0.2872
   10MPD2    C414009   3.548   0.123  12.683  0.3552  0.0689 -0.2646
   10MPD2    C514010   3.683   0.103  12.687 -0.3093  0.0048  0.4142
   10MPD2     H14011   3.452   4.543  12.737  1.7701 -2.0523 -1.2562
   10MPD2    H114012   3.510   0.224  12.671 -2.7305 -0.9572  0.8159
   10MPD2    H214013   3.840   4.710  12.713  0.5091  0.0194 -0.2262
   10MPD2    H314014   3.744   0.193  12.680 -3.4656  2.2810  1.8539
   10MPD2     N14015   3.327   0.014  12.716  0.4598  0.1362  0.1333
   10MPD2    H514016   3.288   4.655  12.726 -1.6637  1.0077  0.1428
   10MPD2    N114017   3.715   4.478  12.723  0.1904 -0.3270  0.3302
   10MPD2    H714018   3.816   4.474  12.725  0.1809 -0.1421  1.4451
   11MPD2     C14019   4.179   3.873  13.899 -0.4238 -0.5592  0.1686
   11MPD2    C114020   4.272   3.950  13.978 -0.3565  0.0451 -0.4540
   11MPD2    C214021   4.306   4.075  13.930  0.6312 -0.1941 -0.3535
   11MPD2    C314022   4.274   4.118  13.802 -0.8307 -0.0434 -0.1144
   11MPD2    C414023   4.197   4.029  13.722 -0.4497 -0.0659  0.8800
   11MPD2    C514024   4.140   3.918  13.774  0.0803 -0.0538 -0.4506
   11MPD2     H14025   4.364   4.134  14.000  0.7830 -1.0352  0.2351
   11MPD2    H114026   4.155   4.064  13.628 -0.7509  0.9462  1.3847
   11MPD2    H214027   4.128   3.789  13.946  0.5794  0.0628  2.3596
   11MPD2    H314028   4.075   3.863  13.707 -0.9871 -3.1248  3.1308
   11MPD2     N14029   4.303   4.243  13.755 -0.0007 -0.1980  0.0974
   11MPD2    H514030   4.261   4.262  13.665  0.7337  0.0554 -0.1946
   11MPD2    N114031   4.319   3.919  14.110 -0.6707  0.6336 -0.6191
   11MPD2    H714032   4.381   3.984  14.157 -0.6599 -0.9589  1.5965
    1MPD1     C14033   1.567   0.818  17.606  0.1730  0.0235  0.5118
    1MPD1    C114034   1.609   0.789  17.477  0.3573  0.3839 -0.7104
    1MPD1    C214035   1.710   0.862  17.416 -1.1742  0.5437 -0.4094
    1MPD1    C314036   1.778   0.965  17.489 -0.7232  0.5650 -0.5910
    1MPD1    C414037   1.742   0.986  17.623  0.5357  0.4454  0.4478
    1MPD1    C514038   1.637   0.917  17.681  0.5163 -0.1343 -0.2000
    1MPD1     H14039   1.733   0.846  17.312 -0.2156 -1.8676  0.1663
    1MPD1    H114040   1.790   1.062  17.683  1.4272 -0.9251  1.4698
    1MPD1    H214041   1.496   0.756  17.660 -0.9443 -0.1709 -1.1591
    1MPD1    H314042   1.598   0.936   0.041  1.8781 -0.3185  0.3678
    1MPD1     N14043   1.883   1.052  17.438 -0.3313  0.7748 -0.5739
    1MPD1    H514044   1.906   1.134  17.493 -0.2398  1.2739 -1.3470
    1MPD1    N114045   1.530   0.712  17.394 -0.1140 -0.0163 -0.5223
    1MPD1    H614046   1.482   0.643  17.452 -0.4903  1.9316  1.4914
    1MPD1    H714047   1.566   0.662  17.313 -0.0927 -2.7571  1.1736
    2MPD1     C14048   2.468   1.832  17.384  0.0176 -0.2802 -0.8038
    2MPD1    C114049   2.545   1.760  17.302 -0.9290 -0.1138 -0.5980
    2MPD1    C214050   2.498   1.630  17.294 -0.1307  0.0335  0.1128
    2MPD1    C314051   2.391   1.584  17.372 -0.0859 -0.6703  0.2932
    2MPD1    C414052   2.343   1.651  17.480 -0.1930 -0.5479 -0.4049
    2MPD1    C514053   2.378   1.783  17.480  0.0538 -0.2949 -0.2602
    2MPD1     H14054   2.531   1.570  17.210  0.1397 -0.5168  0.6090
    2MPD1    H114055   2.276   1.607  17.552  1.2150 -3.2202 -0.7386
    2MPD1    H214056   2.490   1.939  17.386 -0.8659 -0.1103 -0.1734
    2MPD1    H314057   2.342   1.846  17.560  1.2181 -0.9075  0.7373
    2MPD1     N14058   2.350   1.456  17.333 -0.6235  0.2604  0.6436
    2MPD1    H514059   2.396   1.406  17.257  0.0992 -0.2758  1.4336
    2MPD1    N114060   2.638   1.818  17.213  0.5201 -0.2243  0.4871
    2MPD1    H614061   2.692   1.890  17.260  0.2162  0.5405 -0.3244
    2MPD1    H714062   2.712   1.754  17.187 -0.4923 -0.8668 -0.7814
    3TMC3    C114063   2.179   1.304  17.291 -0.1879  0.6012 -0.1271
    3TMC3    C214064   2.208   1.321  17.159 -0.9635  0.2252  0.2645
    3TMC3    C314065   2.149   1.218  17.085  0.0742  1.1399 -0.3552
    3TMC3    C414066   2.080   1.227  17.343 -0.3729  0.1384 -0.7150
    3TMC3    C514067   2.028   1.136  17.267  0.2608 -0.0332  0.0231
    3TMC3    C614068   2.056   1.132  17.133 -0.0893 -0.2381 -0.1644
    3TMC3     C14069   2.237   1.401  17.382 -0.6280 -0.8509  0.2377
    3TMC3     O14070   2.184   1.412  17.490  0.2183 -0.0989 -0.5168
    3TMC3     H14071   2.274   1.397  17.120 -2.0100  0.5366 -0.9037
    3TMC3    H114072   2.063   1.224  17.451  2.2348  1.9275 -0.2540
    3TMC3    H214073   2.037   1.048  17.067 -3.5520 -0.7016  1.4101
    3TMC3    C714074   1.934   1.036  17.307 -0.0677 -0.0972  1.0230
    3TMC3    C814075   2.171   1.212  16.946  0.1946  0.6212  0.5115
    3TMC3    O114076   1.923   0.945  17.229 -0.6174  0.0034 -0.1826
    3TMC3    O214077   2.082   1.188  16.863 -0.9373 -0.1169  0.4580
    4MPD1     C14078   2.433   1.348  16.533  0.1577 -0.4161 -0.3271
    4MPD1    C114079   2.510   1.361  16.642  0.1555 -0.8469 -0.6923
    4MPD1    C214080   2.467   1.324  16.768 -0.3116  0.5938  1.1672
    4MPD1    C314081   2.340   1.281  16.782  0.0197 -0.0805 -0.4530
    4MPD1    C414082   2.262   1.269  16.671 -0.2232  0.4075 -0.1335
    4MPD1    C514083   2.307   1.294  16.547  0.5233  0.4198 -0.2681
    4MPD1     H14084   2.538   1.333  16.849  0.3311 -1.2279  0.8217
    4MPD1    H114085   2.158   1.240  16.674 -0.3019  0.5721 -1.2073
    4MPD1    H214086   2.462   1.396  16.441  0.1269  0.0214 -0.1059
    4MPD1    H314087   2.238   1.284  16.464  0.8732  0.0195 -0.5067
    4MPD1     N14088   2.295   1.255  16.914  0.9134 -0.1121  0.5509
    4MPD1    H514089   2.362   1.266  16.989  0.5350 -1.6512  1.1086
    4MPD1    N114090   2.638   1.418  16.629  0.4239  0.6122  0.1512
    4MPD1    H614091   2.678   1.420  16.535  0.0257 -1.5782 -0.0649
    4MPD1    H714092   2.702   1.373  16.694  0.7870  2.3582  1.0242
    1TCq1    O114093   2.671   0.010  12.626  0.3689  0.2613 -0.2756
    1TCq1    C114094   2.776   4.667  12.588  0.5875 -0.2449  0.5954
    1TCq1    O214095   2.815   4.569  12.654  0.2737 -0.0496 -0.0007
    1TCq1    C214096   2.865   0.006  12.510 -0.2298 -0.0319 -0.9016
    1TCq1    C314097   2.987   4.679  12.470 -0.0181  0.0260  0.3531
    1TCq1    C414098   3.068   0.003  12.385 -0.1825  0.1737  0.0442
    1TCq1    C514099   3.049   0.138  12.344 -0.0390 -0.1785  0.1078
    1TCq1    C614100   2.925   0.190  12.377 -0.4917 -0.6611  0.1926
    1TCq1    C714101   2.835   0.132  12.463  0.4787  0.1999  0.3950
    1TCq1    C814102   2.863   0.283  12.276 -0.0572  0.0746 -0.0423
    1TCq1    O414103   2.764   0.347  12.306  0.3838 -0.4846 -0.0110
    1TCq1    C914104   3.203   4.687  12.369  0.0713  0.1779  0.0027
    1TCq1    O514105   3.234   4.587  12.444 -0.1578  0.0780 -0.0905
    1TCq1    O614106   3.275   0.018  12.292 -0.4455 -0.1542  0.3667
    1TCq1    H114107   2.637   0.080  12.566  0.5143  0.7582  0.2164
    1TCq1    H214108   3.007   4.575  12.496 -1.9569 -0.3856  0.2293
    1TCq1    H314109   3.124   0.190  12.286  0.1722  0.0288  0.5671
    1TCq1    H414110   2.748   0.186  12.498  0.1294  0.5683 -1.0567
    2MPD1     C14111   2.788   0.460  11.800 -0.0202  0.7710  0.9134
    2MPD1    C114112   2.912   0.398  11.804 -0.1846  0.0758 -0.3577
    2MPD1    C214113   2.944   0.334  11.919  0.0772  0.6913  0.3852
    2MPD1    C314114   2.870   0.345  12.037  0.2907  0.3577  0.1539
    2MPD1    C414115   2.739   0.406  12.022  0.2972 -1.2088  0.3276
    2MPD1    C514116   2.700   0.463  11.905 -0.1230 -0.6789 -0.2750
    2MPD1     H14117   3.037   0.279  11.929 -0.7913 -0.6685  0.9740
    2MPD1    H114118   2.675   0.407  12.109 -0.6318 -0.8824 -0.3558
    2MPD1    H214119   2.746   0.476  11.701  1.8741 -0.4199 -0.0667
    2MPD1    H314120   2.604   0.514  11.900 -0.9068 -2.2893 -1.5403
    2MPD1     N14121   2.927   0.287  12.156 -0.0005  0.1588 -0.1583
    2MPD1    H514122   3.016   0.238  12.153  1.6153  3.2040 -2.3394
    2MPD1    N114123   2.986   0.369  11.685 -0.3381  0.3342  0.3242
    2MPD1    H614124   3.083   0.340  11.696 -1.3377 -2.3985  1.8510
    2MPD1    H714125   2.993   0.454  11.628  2.2055 -0.0673  0.0671
    1TMC1    C114126   3.061   1.078   1.310 -0.1034  0.5372  0.1675
    1TMC1    C214127   2.972   1.131   1.404  0.0182  0.4108 -0.2020
    1TMC1    C314128   2.980   1.263   1.439 -0.0097 -0.0573 -0.1598
    1TMC1    C414129   3.144   1.163   1.244  0.1372  0.4619 -0.1668
    1TMC1    C514130   3.139   1.294   1.274 -0.4397  0.2578 -0.0908
    1TMC1    C614131   3.063   1.346   1.372 -0.5420  0.0127  0.1356
    1TMC1     C14132   3.046   0.934   1.285 -0.5110 -0.5298  0.6463
    1TMC1     O14133   2.942   0.884   1.321  0.4943 -0.4440  0.4141
    1TMC1     H14134   2.901   1.067   1.456 -1.4872  0.5766 -2.0433
    1TMC1    H114135   3.204   1.129   1.161 -2.1203 -0.0715 -1.5798
    1TMC1    H214136   3.068   1.454   1.386 -0.3146 -0.0381  0.4403
    1TMC1    C714137   3.247   1.370   1.244 -0.3570 -0.3461 -0.0994
    1TMC1    C814138   2.885   1.313   1.532 -1.1053 -0.0830 -0.5875
    1TMC1    O114139   3.235   1.496   1.236 -0.0876 -0.1082 -0.1813
    1TMC1    O214140   2.788   1.243   1.567  0.5446 -0.0508  0.1814
    1TMC1    O314141   3.335   1.307   1.318  0.4127 -0.7702  0.2052
    1TMC1    H314142   3.300   1.223   1.355 -0.4323 -0.3260  0.3965
    1TMC1    O514143   2.915   1.442   1.567 -0.5005  0.1000 -0.3648
    1TMC1    H514144   3.006   1.469   1.546 -0.2514  0.2319  0.9030
    2MPD1     C14145   3.150   0.503   1.025  0.4226 -0.0525 -0.2777
    2MPD1    C114146   3.262   0.579   1.044 -0.2208  0.4918 -0.0692
    2MPD1    C214147   3.263   0.701   1.106 -0.4318 -0.0742 -0.3562
    2MPD1    C314148   3.146   0.752   1.166  0.0517 -0.4021 -0.3619
    2MPD1    C414149   3.031   0.674   1.158 -0.4412 -0.7577  0.0988
    2MPD1    C514150   3.035   0.558   1.089 -0.1041 -0.4922 -0.2469
    2MPD1     H14151   3.359   0.753   1.103 -0.8092  0.3930 -3.8164
    2MPD1    H114152   2.940   0.703   1.210  0.3227  0.2447  0.8717
    2MPD1    H214153   3.135   0.403   0.988 -0.6440  0.1451 -0.3674
    2MPD1    H314154   2.947   0.496   1.074 -0.2827 -0.5743  1.1225
    2MPD1     N14155   3.154   0.878   1.226 -0.2397 -0.9076 -0.0879
    2MPD1    H514156   3.231   0.938   1.199 -0.1126 -0.3120  1.5989
    2MPD1    N114157   3.386   0.519   0.996 -0.1125  0.4177 -0.2569
    2MPD1    H614158   3.383   0.458   0.914 -0.2221 -0.7544  0.6270
    2MPD1    H714159   3.470   0.576   1.001 -0.5655  1.0207  0.5307
    1MPD1     C14160   4.665   4.567  12.361 -0.3747  0.1717  0.3118
    1MPD1    C114161   4.646   4.698  12.388 -0.2557 -0.0090  0.0828
    1MPD1    C214162   0.012   0.041  12.332  0.1785  0.0269 -0.3526
    1MPD1    C314163   0.109   4.726  12.246 -0.2975 -0.1772 -0.6100
    1MPD1    C414164   0.106   4.596  12.214 -0.0220 -0.1098 -0.1156
    1MPD1    C514165   0.016   4.518  12.272 -0.4301 -0.4080 -0.2656
    1MPD1     H14166   0.022   0.146  12.354 -1.4935  0.1620 -0.2340
    1MPD1    H114167   0.180   4.535  12.164 -1.6472 -1.5462 -0.7728
    1MPD1    H214168   4.606   4.498  12.419 -1.6132 -1.0342 -2.3754
    1MPD1    H314169   0.019   4.411  12.251 -0.8975 -0.3086 -0.8323
    1MPD1     N14170   0.214   0.078  12.212  0.5109 -0.4425 -0.1561
    1MPD1    H514171   0.216   0.170  12.254 -0.7216 -0.7650  0.5875
    1MPD1    N114172   4.561   0.007  12.494  0.2577 -0.5067  0.4256
    1MPD1    H614173   4.483   4.676  12.493 -2.1313  2.3566 -0.2760
    1MPD1    H714174   4.530   0.101  12.473  2.8696  0.0223 -1.1114
    2MPD1     C14175   4.637   0.295  11.616  0.0609 -0.0967  0.7713
    2MPD1    C114176   4.599   0.238  11.494  0.6987 -1.2964 -0.0423
    2MPD1    C214177   4.588   0.313  11.384  0.5743 -0.4255 -0.8975
    2MPD1    C314178   4.621   0.446  11.387 -0.4429  0.0583 -0.2439
    2MPD1    C414179   4.656   0.505  11.505 -0.1776 -0.0627 -0.2539
    2MPD1    C514180   4.661   0.429  11.619 -0.3451 -0.5975  0.0648
    2MPD1     H14181   4.564   0.262  11.292  1.9411 -0.3391 -1.3008
    2MPD1    H114182   4.663   0.610  11.532 -0.6516 -0.6521  2.1818
    2MPD1    H214183   4.639   0.242  11.711  0.0257 -3.2306 -0.9807
    2MPD1    H314184   4.689   0.469  11.716 -0.3216  0.4141 -0.3614
    2MPD1     N14185   4.607   0.524  11.272 -0.1369  0.7505 -0.0131
    2MPD1    H514186   4.638   0.621  11.269 -2.9083  1.5461 -2.8666
    2MPD1    N114187   4.542   0.105  11.498  0.7484 -0.1037  0.4813
    2MPD1    H614188   4.580   0.043  11.570  0.6765 -2.0854 -1.2014
    2MPD1    H714189   4.546   0.045  11.416 -2.5061  0.7348 -0.3009
    3MPD1     C14190   4.451   0.807  10.231  0.5271  0.1048 -0.9376
    3MPD1    C114191   4.563   0.878  10.278  0.6183  0.3652 -0.3622
    3MPD1    C214192   4.613   0.842  10.405  0.0456  0.2118 -0.3555
    3MPD1    C314193   4.547   0.745  10.484 -0.6512  0.1044  0.3131
    3MPD1    C414194   4.441   0.682  10.425  0.0847 -0.8138 -0.1335
    3MPD1    C514195   4.389   0.717  10.304 -0.5985  0.7032 -0.6288
    3MPD1     H14196   4.699   0.895  10.445  1.1247 -1.6743 -0.1535
    3MPD1    H114197   4.398   0.595  10.473 -0.2356 -0.7925 -0.3820
    3MPD1    H214198   4.414   0.821  10.130 -1.3265  0.5465 -0.1996
    3MPD1    H314199   4.304   0.656  10.276 -0.3918 -0.2288  0.7301
    3MPD1     N14200   4.605   0.709  10.605 -0.0024  0.5975 -0.6917
    3MPD1    H514201   4.677   0.773  10.637  0.2374 -0.0734  0.1089
    3MPD1    N114202   4.634   0.971  10.195  0.0419  0.3455  0.1609
    3MPD1    H614203   4.655   1.051  10.254  0.3412  0.6704 -0.3846
    3MPD1    H714204   4.579   1.002  10.115  0.9988 -1.2012 -1.0900
    4MPD2     C14205   0.482   0.729  11.917  0.0842 -0.4760  0.1913
    4MPD2    C114206   0.561   0.616  11.913  0.2249 -0.1186  0.3312
    4MPD2    C214207   0.661   0.610  11.817  0.4439  0.0967 -0.1900
    4MPD2    C314208   0.674   0.709  11.722 -0.7859 -0.0024  0.4018
    4MPD2    C414209   0.603   0.826  11.744 -0.0563  0.1323 -0.3102
    4MPD2    C514210   0.504   0.836  11.836  0.1586  0.0030  0.4993
    4MPD2     H14211   0.717   0.518  11.809  0.7015  0.3055 -0.8116
    4MPD2    H114212   0.630   0.913  11.685 -0.5476  1.3177  1.2108
    4MPD2    H214213   0.408   0.738  11.995  1.1342 -0.6180  1.2055
    4MPD2    H314214   0.463   0.936  11.846  0.4884  0.1079  0.7946
    4MPD2     N14215   0.757   0.706  11.609 -0.2123 -0.0475  0.4590
    4MPD2    H514216   0.742   0.785  11.546 -0.2286  0.3749  0.9874
    4MPD2    N114217   0.550   0.502  12.002 -0.7778  0.4787  0.1581
    4MPD2    H714218   0.614   0.425  11.984 -0.2841  0.8035  0.5227
    5TMC3    C114219   0.492   0.357  12.156 -0.4857  0.3856  0.3938
    5TMC3    C214220   0.385   0.273  12.147  0.2506  0.4480 -0.1783
    5TMC3    C314221   0.418   0.146  12.116 -0.5348 -0.3167 -0.2702
    5TMC3    C414222   0.618   0.318  12.128 -0.2221 -0.0860 -0.2430
    5TMC3    C514223   0.647   0.194  12.082 -0.5034 -0.4360  0.3539
    5TMC3    C614224   0.545   0.101  12.081 -0.3748  1.0602 -0.3851
    5TMC3     C14225   0.459   0.479  12.098 -0.3270 -0.0091 -0.0561
    5TMC3     O14226   0.358   0.538  12.139 -0.7623  0.4392 -0.2630
    5TMC3     H14227   0.285   0.309  12.170 -0.0782 -0.6384  0.1037
    5TMC3    H114228   0.698   0.388  12.150  0.6469 -0.8678 -0.9378
    5TMC3    H214229   0.569   4.732  12.065  3.2859  1.5427  2.0066
    5TMC3    C714230   0.723   0.200  11.961  0.6204  0.1610 -0.1178
    5TMC3    C814231   0.318   0.045  12.126  0.1237  0.0233 -0.5225
    5TMC3    O114232   0.753   0.313  11.922  0.6114 -0.2231  0.0714
    5TMC3    O214233   0.329   4.688  12.040  0.1405 -0.2564  0.1723
    6TMC3    C114234   4.622   0.547  11.038  1.2500  0.2491 -0.2125
    6TMC3    C214235   4.574   0.534  10.912 -0.1042  0.1044  0.1819
    6TMC3    C314236   4.646   0.585  10.807 -0.5642  0.0847  0.4721
    6TMC3    C414237   0.016   0.597  11.060  0.3829  0.0677 -0.9382
    6TMC3    C514238   0.089   0.643  10.950  0.2587  0.7808 -0.1553
    6TMC3    C614239   0.028   0.647  10.819 -0.6749 -0.7042  0.6254
    6TMC3     C14240   4.559   0.481  11.151  0.9943  0.8912  0.2195
    6TMC3     O14241   4.473   0.402  11.116 -0.6702  0.0046  0.0577
    6TMC3     H14242   4.480   0.481  10.903  0.2439 -0.5725  0.5685
    6TMC3    H114243   0.070   0.565  11.148 -1.6788 -0.9909 -0.0461
    6TMC3    H214244   0.072   0.669  10.722 -0.2924 -1.6155  0.5888
    6TMC3    C714245   0.229   0.661  10.967  0.1296 -0.0508  0.1033
    6TMC3    C814246   4.565   0.606  10.693  0.9542  0.4624 -0.3262
    6TMC3    O114247   0.267   0.664  11.083 -0.2646 -0.1200 -0.1558
    6TMC3    O214248   4.481   0.522  10.672 -0.0731  0.8055 -0.4446
    7MPD2     C14249   0.980   0.049  11.546 -0.2717 -0.2266  0.2274
    7MPD2    C114250   0.918   0.171  11.579  0.2073 -0.8818  0.1274
    7MPD2    C214251   0.833   0.186  11.691 -0.2082 -0.4706 -0.0488
    7MPD2    C314252   0.821   0.079  11.779 -0.2457  0.5715  0.2206
    7MPD2    C414253   0.877   4.695  11.743  0.5614 -0.0024  1.0227
    7MPD2    C514254   0.942   4.679  11.622 -0.6678  0.1077  0.1878
    7MPD2     H14255   0.789   0.283  11.714  1.3289 -0.2094  1.7546
    7MPD2    H114256   0.864   4.607  11.804 -0.5734  0.5310  1.5509
    7MPD2    H214257   1.051   0.034  11.466  0.5694  3.3152  0.3163
    7MPD2    H314258   0.991   4.585  11.601  0.4626  0.5855  0.6604
    7MPD2     N14259   0.761   0.080  11.904 -0.1901 -0.1214 -0.4821
    7MPD2    H514260   0.760   4.729  11.958  1.0390  0.5951  0.6838
    7MPD2    N114261   0.944   0.290  11.509 -0.3428 -0.2349 -0.4512
    7MPD2    H714262   0.919   0.377  11.556  2.8422  1.7908 -2.4765
    8TMC3    C114263   0.996   0.445  11.343  0.1656 -0.0486  0.0721
    8TMC3    C214264   0.910   0.473  11.242  0.8597  0.1633  0.0598
    8TMC3    C314265   0.830   0.582  11.253 -0.2231 -0.4808  0.7497
    8TMC3    C414266   1.008   0.522  11.452  0.2833  0.7176 -0.0887
    8TMC3    C514267   0.917   0.624  11.459 -0.2404 -0.0487  0.4207
    8TMC3    C614268   0.826   0.654  11.370 -0.2006 -0.2364  0.0037
    8TMC3     C14269   0.991   0.303  11.377 -0.2505 -0.2441 -0.3645
    8TMC3     O14270   1.015   0.218  11.293  0.2780  0.1023  0.3305
    8TMC3     H14271   0.896   0.390  11.174 -1.7175  0.2892  0.4392
    8TMC3    H114272   1.078   0.495  11.531 -0.1774  0.1376  0.1166
    8TMC3    H214273   0.752   0.733  11.374 -0.7110 -0.8395  2.7025
    8TMC3    C714274   0.862   0.627  11.589  0.7752  0.0587  0.1306
    8TMC3    C814275   0.734   0.614  11.154 -0.3805  0.8006  0.5990
    8TMC3    O114276   0.899   0.540  11.662  0.5069  0.2197  0.1632
    8TMC3    O214277   0.636   0.678  11.193 -0.1679 -0.8528 -0.3268
    9MPD2     C14278   0.703   0.514  10.802  0.3519 -0.3377  0.4712
    9MPD2    C114279   0.661   0.558  10.925  0.4516 -0.4067  0.6751
    9MPD2    C214280   0.529   0.608  10.942 -0.6068  0.7763  0.4064
    9MPD2    C314281   0.437   0.599  10.838 -0.6849  0.0963  1.1821
    9MPD2    C414282   0.484   0.563  10.712  0.1797 -0.2225  0.0913
    9MPD2    C514283   0.608   0.502  10.699  1.0807  0.4971  0.0826
    9MPD2     H14284   0.489   0.650  11.033  1.0946 -0.3788  1.6896
    9MPD2    H114285   0.416   0.558  10.628  0.8464  0.1942 -0.4766
    9MPD2    H214286   0.807   0.494  10.777  0.1025 -2.1757  0.9556
    9MPD2    H314287   0.635   0.477  10.598  2.3571 -0.2431  0.6142
    9MPD2     N14288   0.298   0.636  10.852 -0.1877  0.9289 -0.4687
    9MPD2    H514289   0.240   0.593  10.780 -0.3431  0.4372 -0.0488
    9MPD2    N114290   0.753   0.563  11.029  0.0125 -0.2892 -0.2089
    9MPD2    H714291   0.845   0.530  11.002 -0.2068  1.0254 -2.5635
    1MPD1     C14292   3.715   3.955  16.222  0.2594 -0.8755  0.5248
    1MPD1    C114293   3.700   3.957  16.083 -0.5680  0.2455  0.0115
    1MPD1    C214294   3.804   3.935  16.000 -0.9022 -0.0662 -0.1470
    1MPD1    C314295   3.935   3.941  16.049 -0.4627  0.4408 -0.4632
    1MPD1    C414296   3.950   3.935  16.185 -0.2973  0.1909 -0.0401
    1MPD1    C514297   3.838   3.945  16.269 -0.0488 -0.3094 -0.3329
    1MPD1     H14298   3.791   3.942  15.893 -0.4843  1.8467 -0.0791
    1MPD1    H114299   4.051   3.934  16.224 -0.7939  0.1251  1.2260
    1MPD1    H214300   3.642   3.972  16.300 -1.3853 -2.7349 -0.6241
    1MPD1    H314301   3.843   3.936  16.377  1.1296  0.7048 -0.3103
    1MPD1     N14302   4.053   3.932  15.968 -0.3978  0.0928 -0.4937
    1MPD1    H514303   4.141   3.914  16.015 -0.7931 -0.2161  0.1274
    1MPD1    N114304   3.569   3.962  16.038 -0.0377  0.6986 -0.0860
    1MPD1    H614305   3.575   4.009  15.948 -1.6591 -0.1518 -0.6362
    1MPD1    H714306   3.511   4.030  16.085 -0.1159 -0.6308  1.7404
    2TMC2    C114307   4.354   3.815  15.663  1.0954  0.5231 -0.2823
    2TMC2    C214308   4.438   3.893  15.721 -0.0937  0.0296 -0.4541
    2TMC2    C314309   4.398   3.989  15.814 -0.3676  0.3144  1.2393
    2TMC2    C414310   4.218   3.832  15.684  0.4278  0.2109  0.4020
    2TMC2    C514311   4.178   3.923  15.776  0.7117 -0.6918 -0.6623
    2TMC2    C614312   4.264   4.012  15.843 -0.8809  0.2826  0.7876
    2TMC2     C14313   4.392   3.746  15.540  0.1013  0.0371  0.3417
    2TMC2     O14314   4.495   3.784  15.490  0.1421 -0.4967 -0.1503
    2TMC2     H14315   4.538   3.855  15.706 -0.5140 -1.0995 -0.4180
    2TMC2    H114316   4.157   3.765  15.625 -0.9545  0.8760  1.0918
    2TMC2    H214317   4.218   4.104  15.876 -0.1894  0.7703  0.3725
    2TMC2    C714318   4.049   3.895  15.833  0.2678  0.0839  0.3624
    2TMC2    C814319   4.495   4.078  15.881 -0.3690  0.1588  0.0810
    2TMC2    O114320   3.975   3.819  15.775  0.2255 -0.3811  0.2494
    2TMC2    O214321   4.554   4.155  15.810  0.0075 -0.2547 -0.0849
    2TMC2    O514322   4.463   4.093  16.010 -0.5420 -0.1839 -0.5264
    2TMC2    H514323   4.417   4.012  16.041 -0.4051 -0.7261 -1.7398
    3MPD1     C14324   4.381   3.366  15.202  0.0303  0.6422 -0.1820
    3MPD1    C114325   4.279   3.350  15.293 -0.0715 -0.0223 -0.3454
    3MPD1    C214326   4.270   3.435  15.400  0.4570 -0.0010 -0.1346
    3MPD1    C314327   4.361   3.536  15.424  0.9339 -0.2355 -0.2484
    3MPD1    C414328   4.464   3.549  15.328 -0.3530 -0.1641  0.4233
    3MPD1    C514329   4.469   3.467  15.219  0.1605  0.1442  0.6625
    3MPD1     H14330   4.200   3.425  15.482  0.6417  4.2102  0.4910
    3MPD1    H114331   4.526   3.638  15.318 -0.1940 -0.3075  0.1393
    3MPD1    H214332   4.399   3.298  15.119 -1.6690  0.3312 -0.2881
    3MPD1    H314333   4.552   3.482  15.150  0.0806 -1.0563  0.3041
    3MPD1     N14334   4.325   3.632  15.520 -0.1845  0.7781  0.1075
    3MPD1    H514335   4.246   3.613  15.580  0.2968  0.4485  0.6338
    3MPD1    N114336   4.191   3.233  15.290 -0.0356 -0.1379 -0.5923
    3MPD1    H614337   4.101   3.257  15.329  0.4109 -0.0657  0.3914
    3MPD1    H714338   4.181   3.195  15.196  0.5282  0.7499 -1.0163
    1TMC1    C114339   2.559   3.477  13.083  0.2166 -0.2783 -0.3488
    1TMC1    C214340   2.507   3.494  13.210  0.4112 -0.6599  0.3874
    1TMC1    C314341   2.373   3.480  13.221 -0.3968  0.4868  0.6479
    1TMC1    C414342   2.484   3.464  12.974  0.6001  0.1764 -0.0491
    1TMC1    C514343   2.347   3.462  12.991  0.1924  0.4660  0.2363
    1TMC1    C614344   2.293   3.466  13.116  0.0402  0.3038 -0.4016
    1TMC1     C14345   2.704   3.479  13.064  0.4715 -0.1774  0.5133
    1TMC1     O14346   2.751   3.430  12.961 -0.2661 -0.4144  0.1451
    1TMC1     H14347   2.562   3.506  13.303 -0.2892 -0.7080  0.8149
    1TMC1    H114348   2.517   3.449  12.872  0.9887  0.6077  0.0134
    1TMC1    H214349   2.187   3.477  13.136  0.1161 -0.4178  0.3974
    1TMC1    C714350   2.250   3.457  12.883  0.2106 -0.1688  0.4191
    1TMC1    C814351   2.319   3.470  13.357  0.5597  0.2673 -0.2870
    1TMC1    O114352   2.146   3.392  12.899 -0.5367 -0.3762  1.1589
    1TMC1    O214353   2.358   3.536  13.451  0.1007 -1.2002 -0.3747
    1TMC1    O314354   2.266   3.577  12.822  0.0666  0.5541 -0.5215
    1TMC1    H314355   2.352   3.623  12.838 -0.0109  0.0744  1.2909
    1TMC1    O514356   2.214   3.384  13.360 -0.0353  0.3753 -0.3246
    1TMC1    H514357   2.216   3.323  13.283 -0.2181  0.3763 -0.3286
    2MPD2     C14358   2.988   3.507  13.088 -0.0195 -0.8930 -0.4404
    2MPD2    C114359   2.902   3.543  13.186 -0.1159 -0.0878 -0.4868
    2MPD2    C214360   2.945   3.577  13.314  0.4281  0.1895  1.0448
    2MPD2    C314361   3.075   3.580  13.343  0.3983  0.4072 -0.3440
    2MPD2    C414362   3.161   3.555  13.239 -0.4394  0.3015  0.5993
    2MPD2    C514363   3.119   3.514  13.116  0.3367 -0.0514 -0.7390
    2MPD2     H14364   2.871   3.603  13.389  0.0697 -0.2828  0.8598
    2MPD2    H114365   3.269   3.563  13.249 -0.3298  0.0750 -0.4529
    2MPD2    H214366   2.965   3.458  12.994 -0.4695 -0.7030 -0.4258
    2MPD2    H314367   3.193   3.488  13.042  1.8362 -3.0872  1.8456
    2MPD2     N14368   3.117   3.600  13.481  0.8161 -0.2523 -0.1609
    2MPD2    H514369   3.045   3.622  13.548 -0.3104  2.9160 -2.4217
    2MPD2    N114370   2.763   3.550  13.164 -0.5997 -0.1570 -0.4921
    2MPD2    H714371   2.703   3.596  13.232  0.2320 -0.2387  0.2950
    3TCq1    O114372   3.048   3.727  14.080  0.0016  0.6716 -0.6616
    3TCq1    C114373   3.053   3.764  13.950  0.1525 -0.1368 -0.6467
    3TCq1    O214374   2.982   3.846  13.895  0.5799  0.1846  0.4708
    3TCq1    C214375   3.160   3.690  13.875 -0.1767 -0.3303 -0.1985
    3TCq1    C314376   3.273   3.652  13.948  0.1223  0.8425  0.2110
    3TCq1    C414377   3.365   3.586  13.878  0.0971 -0.5618  0.0916
    3TCq1    C514378   3.354   3.564  13.741 -0.5683 -0.6342 -0.4396
    3TCq1    C614379   3.242   3.602  13.676  0.0662 -0.7502  0.5372
    3TCq1    C714380   3.144   3.673  13.738  0.4455  0.1028  0.6017
    3TCq1    C814381   3.244   3.582  13.530  0.5202  0.7074  0.3934
    3TCq1    O414382   3.336   3.537  13.466  0.9826  0.1550 -0.2595
    3TCq1    C914383   3.479   3.530  13.937 -0.7852 -0.2016 -0.9117
    3TCq1    O514384   3.495   3.565  14.057 -0.5318 -0.4472  0.0174
    3TCq1    O614385   3.532   3.433  13.870  0.0742  0.4764  0.3448
    3TCq1    H114386   3.089   3.641  14.104 -2.2638 -0.3660 -0.4803
    3TCq1    H214387   3.279   3.667  14.056 -0.3071 -0.9201  0.4790
    3TCq1    H314388   3.426   3.514  13.677 -1.1555 -0.2112 -1.4345
    3TCq1    H414389   3.066   3.726  13.684  0.8094 -1.3739 -1.3611
    1MPD2     C14390   2.211   0.224  14.982 -0.7807 -0.4754 -0.3543
    1MPD2    C114391   2.103   0.154  15.033 -0.0544 -0.9523 -0.5163
    1MPD2    C214392   2.124   0.022  15.073 -0.0290  0.3116  0.0493
    1MPD2    C314393   2.252   4.699  15.071  0.3604 -0.1714 -0.4747
    1MPD2    C414394   2.355   0.037  15.021  0.2910 -0.6285  0.2104
    1MPD2    C514395   2.334   0.166  14.974  0.1280  0.3493 -0.1327
    1MPD2     H14396   2.045   4.709  15.130  0.1153  0.2278  0.1782
    1MPD2    H114397   2.447   4.720  14.996  0.5811 -0.4001  0.7780
    1MPD2    H214398   2.219   0.330  14.959 -0.4905 -0.1076  1.4514
    1MPD2    H314399   2.415   0.217  14.923  0.4963 -1.6770 -1.5748
    1MPD2     N14400   2.278   4.568  15.109 -0.0987 -0.1412 -1.1214
    1MPD2    H514401   2.372   4.528  15.110  0.9540  2.3524  1.1303
    1MPD2    N114402   1.972   0.212  15.028 -0.4079  0.3809  0.3322
    1MPD2    H714403   1.962   0.302  14.983  1.0316  1.1434  1.5025
    2TMC3    C114404   1.741   0.194  15.001  0.2925  0.1216 -0.2709
    2TMC3    C214405   1.647   0.098  14.990 -0.9647 -0.3786  0.1837
    2TMC3    C314406   1.556   0.100  14.882  0.3792  0.8267 -0.4032
    2TMC3    C414407   1.735   0.304  14.922 -0.2268  0.2184  0.0353
    2TMC3    C514408   1.641   0.312  14.817 -0.0892 -0.6435 -0.0859
    2TMC3    C614409   1.555   0.203  14.796 -0.0393  0.1905 -0.1509
    2TMC3     C14410   1.861   0.154  15.069  0.2200 -0.1966 -0.1182
    2TMC3     O14411   1.849   0.051  15.143 -0.8699 -0.2113  0.3456
    2TMC3     H14412   1.622   0.034  15.073 -2.9906  0.0936 -0.0548
    2TMC3    H114413   1.798   0.391  14.940  2.9897 -1.3722 -3.6784
    2TMC3    H214414   1.487   0.204  14.711  0.1177 -1.6911 -0.3015
    2TMC3    C714415   1.635   0.428  14.732 -0.2995 -0.6896 -0.2152
    2TMC3    C814416   1.535   4.698  14.841 -0.3934  0.6543  0.4323
    2TMC3    O114417   1.535   0.425  14.665  0.1774  0.3720 -0.0076
    2TMC3    O214418   1.445   4.666  14.766  0.1385  0.2486  0.8931
    3TCq1    O114419   2.608   1.056  14.528  0.6145 -0.1673 -0.2333
    3TCq1    C114420   2.495   1.122  14.486 -0.6235 -0.2434 -0.1455
    3TCq1    O214421   2.475   1.125  14.367  0.3581 -0.2370  0.1838
    3TCq1    C214422   2.386   1.090  14.579 -0.1836  0.1448 -0.6451
    3TCq1    C314423   2.402   1.102  14.712  0.0137 -0.2010  0.1855
    3TCq1    C414424   2.300   1.058  14.794  0.2243 -0.0773 -0.7925
    3TCq1    C514425   2.177   1.025  14.741  0.2519  0.2058  0.1515
    3TCq1    C614426   2.164   1.044  14.613 -0.1264 -0.6298  1.3342
    3TCq1    C714427   2.265   1.063  14.520 -0.2869 -0.5280  0.1964
    3TCq1    C814428   2.044   0.993  14.554  0.2972  0.3316  0.2144
    3TCq1    O414429   1.988   1.060  14.465  0.3018 -0.0560 -0.0154
    3TCq1    C914430   2.302   1.066  14.943 -0.4499 -0.3028  0.1106
    3TCq1    O514431   2.405   1.103  15.002  0.0012  0.1174  0.0210
    3TCq1    O614432   2.216   0.999  15.005 -0.0183 -0.0739 -0.0426
    3TCq1    H114433   2.613   1.059  14.626  1.4637 -0.1630 -0.2749
    3TCq1    H214434   2.492   1.146  14.754  0.4555 -0.2620 -0.6956
    3TCq1    H314435   2.091   1.016  14.805  1.1053 -1.9821  0.9975
    3TCq1    H414436   2.244   1.064  14.414 -1.2920  1.4936  0.4183
    4MPD2     C14437   1.797   0.854  14.508 -0.1110  0.4625  0.0852
    4MPD2    C114438   1.888   0.809  14.594  0.2319  0.3287 -0.0407
    4MPD2    C214439   1.874   0.700  14.666  0.2781 -0.0897  0.1489
    4MPD2    C314440   1.760   0.621  14.652  0.3643  0.6067  0.7873
    4MPD2    C414441   1.659   0.675  14.577 -0.5362  0.1537  0.2181
    4MPD2    C514442   1.682   0.780  14.493 -0.0622  0.0525  0.3358
    4MPD2     H14443   1.950   0.672  14.738 -2.1705 -1.4986  2.1992
    4MPD2    H114444   1.563   0.626  14.570 -0.4328 -0.0421  0.1699
    4MPD2    H214445   1.797   0.945  14.449 -0.6905 -2.1033 -3.8596
    4MPD2    H314446   1.601   0.819  14.433 -0.9369 -1.2368  0.6918
    4MPD2     N14447   1.743   0.508  14.734  0.3899 -0.5127 -0.0866
    4MPD2    H514448   1.823   0.482  14.791  0.9468  1.7612  0.1672
    4MPD2    N114449   2.011   0.877  14.617 -0.1448 -0.3564  0.0793
    4MPD2    H714450   2.086   0.844  14.677  0.7984 -0.4748 -1.1530
    5TMC2    C114451   2.119   4.155  15.060 -0.0218 -0.0730  0.2814
    5TMC2    C214452   2.134   4.095  15.182  0.7517  0.7194 -0.1328
    5TMC2    C314453   2.195   4.182  15.278 -0.1541 -0.5669 -0.6024
    5TMC2    C414454   2.167   4.278  15.035  0.0528  0.5568 -0.1021
    5TMC2    C514455   2.242   4.348  15.122 -0.5789  0.8025  0.6863
    5TMC2    C614456   2.248   4.303  15.252  0.3586  0.1067  0.2260
    5TMC2     C14457   1.986   4.134  14.997  0.1897  0.4997  1.0641
    5TMC2     O14458   1.954   4.018  14.967  0.2657  0.1240  0.0601
    5TMC2     H14459   2.087   4.001  15.206  2.0921  0.9512  3.4300
    5TMC2    H114460   2.149   4.323  14.938  5.3138  1.1631 -0.8336
    5TMC2    H214461   2.286   4.365  15.333 -2.3715  1.3031  0.5656
    5TMC2    C714462   2.181   4.473  15.112 -0.2361 -0.0482 -0.2244
    5TMC2    C814463   2.204   4.136  15.414  0.0532 -1.1240  0.3970
    5TMC2    O114464   2.064   4.475  15.079 -0.5882 -0.4450 -0.4689
    5TMC2    O214465   2.279   4.186  15.496  0.3602  0.1007 -0.9207
    5TMC2    O514466   2.071   4.108  15.430  0.0319  0.3536  0.5426
    5TMC2    H514467   2.012   4.157  15.369  1.2145  0.7903 -0.2525
    6MPD2     C14468   1.562   4.394  14.839 -0.3967  0.0177  0.6007
    6MPD2    C114469   1.662   4.484  14.877 -0.2287 -1.2308  0.5391
    6MPD2    C214470   1.781   4.429  14.919  0.1715  0.0398 -0.3120
    6MPD2    C314471   1.809   4.295  14.915 -0.1588 -0.1305  0.5996
    6MPD2    C414472   1.715   4.207  14.878  0.2275  0.5837  0.5532
    6MPD2    C514473   1.594   4.259  14.848  0.2552 -0.1950 -0.2212
    6MPD2     H14474   1.849   4.510  14.945 -1.3395  1.2038  0.0270
    6MPD2    H114475   1.743   4.103  14.869 -1.1110  0.2383  0.4129
    6MPD2    H214476   1.463   4.428  14.810  0.3453  0.2920 -1.6596
    6MPD2    H314477   1.510   4.193  14.830  0.9318 -1.3919  0.9866
    6MPD2     N14478   1.928   4.261  14.977 -0.2615 -0.3384  0.2771
    6MPD2    H514479   1.970   4.341  15.022 -2.2146  0.4838  0.6317
    6MPD2    N114480   1.647   4.628  14.877  0.0572 -0.0268 -0.2831
    6MPD2    H714481   1.727   4.679  14.913 -0.9925  1.2482  0.2383
  945NH4     N114482   0.971   2.364   2.744 -0.3007 -0.2114  0.1480
  945NH4     H214483   1.010   2.460   2.751  0.5064 -0.7611  3.2066
  945NH4     H314484   0.982   2.313   2.834 -0.1161  2.7276  1.7858
  945NH4     H414485   1.008   2.312   2.662 -1.5169 -3.6346  1.7767
  945NH4     H514486   0.870   2.366   2.720 -0.4013  2.6358  0.8763
  946SOD     NA14487   4.367   0.422  14.069  0.5644 -0.2388  0.1629
  947SOD     NA14488   3.638   1.709  16.761 -0.2159 -0.6453  0.4482
  948SOD     NA14489   4.234   2.145  12.192 -0.2462 -0.1744 -0.3776
  949SOD     NA14490   4.425   4.296  16.123 -0.4912  0.0136  0.8251
  950SOD     NA14491   2.024   3.224  15.595 -0.1240  0.5339 -0.1877
  951SOD     NA14492   1.688   0.072  12.187  0.1884 -0.3313  0.1873
  952SOD     NA14493   3.268   0.671   2.327 -0.2346 -0.4693  0.1899
  953SOL     OW14494   0.374   0.454   3.851 -0.5396 -0.0660  0.3027
  953SOL    HW114495   0.370   0.493   3.938 -1.1628  1.4805 -0.3999
  953SOL    HW214496   0.399   0.533   3.801 -0.0728 -0.1251  0.4477
  954SOL     OW14497   0.932   0.742   3.349  0.1126  0.1074 -0.0811
  954SOL    HW114498   0.947   0.837   3.343 -1.4290  0.4327  1.1140
  954SOL    HW214499   0.953   0.715   3.260 -0.2396  0.3357 -0.2350
  955SOL     OW14500   3.333   2.371   8.938 -0.0691 -0.1374 -0.2517
  955SOL    HW114501   3.346   2.455   8.895  0.2950 -0.4432 -0.7434
  955SOL    HW214502   3.307   2.405   9.024  1.2968 -0.3631  0.2418
  956SOL     OW14503   3.492   4.545   0.956 -0.5284 -0.3054 -0.6259
  956SOL    HW114504   3.402   4.517   0.969 -0.7314 -0.4239 -2.2945
  956SOL    HW214505   3.479   4.640   0.956  1.6959  0.0206  0.0638
  957SOL     OW14506   0.484   0.507   5.874 -0.4172 -0.2246  0.1083
  957SOL    HW114507   0.486   0.600   5.897 -0.0351 -0.4705  1.0744
  957SOL    HW214508   0.392   0.493   5.851 -1.1321  1.3532  1.9899
  958SOL     OW14509   1.641   3.767  17.330  0.1569  0.1267  0.2200
  958SOL    HW114510   1.708   3.724  17.276 -0.0808 -1.4066  1.1592
  958SOL    HW214511   1.590   3.823  17.271  0.6162  0.0642 -0.2381
  959SOL     OW14512   2.219   4.118   8.278  0.5852 -0.1904 -0.5314
  959SOL    HW114513   2.163   4.089   8.206  1.5220  0.3673 -1.4996
  959SOL    HW214514   2.176   4.080   8.354  3.3111  0.3603  1.2751
  960SOL     OW14515   1.067   0.065  16.739 -0.6661 -0.5649  0.1162
  960SOL    HW114516   0.999   0.061  16.806 -0.1993  1.8044  0.7129
  960SOL    HW214517   1.033   0.125  16.673  0.4908  0.6483  0.6098
  961SOL     OW14518   0.728   3.919   2.838  0.7092 -0.2672 -0.2451
  961SOL    HW114519   0.736   3.828   2.866 -0.7353  0.1046  1.3885
  961SOL    HW214520   0.653   3.938   2.893  1.3688 -1.2199  0.9747
  962SOL     OW14521   1.489   3.970   3.329  0.0535 -0.2305  0.1598
  962SOL    HW114522   1.478   3.974   3.424 -0.7465  2.6588 -0.0527
  962SOL    HW214523   1.585   3.971   3.321  0.2212  1.4022  2.3068
  963SOL     OW14524   2.950   1.954  15.984 -0.1951  0.1492 -0.5357
  963SOL    HW114525   2.942   1.939  16.078 -0.7792  0.4637 -0.5320
  963SOL    HW214526   2.913   1.879  15.938 -0.5591 -1.0281  1.7066
  964SOL     OW14527   2.366   4.036   7.520 -0.3924  0.4163  1.1426
  964SOL    HW114528   2.371   4.070   7.610  1.6299  2.7486  0.1593
  964SOL    HW214529   2.413   4.113   7.486  0.6059 -0.9393 -0.5476
  965SOL     OW14530   2.928   2.798   6.288  0.0487 -0.6319 -0.3088
  965SOL    HW114531   2.962   2.863   6.349  2.0672 -1.5505 -0.4181
  965SOL    HW214532   3.018   2.772   6.267 -0.7289 -1.4261 -2.6007
  966SOL     OW14533   1.123   4.558  14.725  0.0197  0.0488  0.3343
  966SOL    HW114534   1.108   4.474  14.770 -0.1486  0.2566  0.6673
  966SOL    HW214535   1.217   4.559  14.711 -0.5235  1.3988 -3.1926
  967SOL     OW14536   0.439   0.827  11.286  0.3395 -0.1047  0.3924
  967SOL    HW114537   0.364   0.784  11.246 -0.2122 -1.0625  2.4334
  967SOL    HW214538   0.516   0.774  11.265 -0.9452 -1.1436 -1.7459
  968SOL     OW14539   0.375   0.600   1.364 -0.1145  0.4582 -0.4799
  968SOL    HW114540   0.470   0.598   1.358 -0.0938  1.5042 -0.4332
  968SOL    HW214541   0.361   0.542   1.439 -2.2192  0.3539 -0.9596
  969SOL     OW14542   0.205   3.674   9.439  0.3094  0.7164 -0.0178
  969SOL    HW114543   0.114   3.698   9.423 -0.2838 -1.6611 -0.1679
  969SOL    HW214544   0.200   3.665   9.534  0.1970 -0.9040 -0.1832
  970SOL     OW14545   3.812   0.525  10.427  0.3280 -0.2200  0.4364
  970SOL    HW114546   3.898   0.564  10.412  1.4237 -2.3477  1.2713
  970SOL    HW214547   3.799   0.479  10.344 -1.4798  0.3135  0.4071
  971SOL     OW14548   1.153   0.989   8.936  0.2847 -0.0710 -0.0637
  971SOL    HW114549   1.210   0.968   8.862  1.1394  0.4918  0.4348
  971SOL    HW214550   1.217   1.024   8.998  2.9587 -2.7293 -1.3047
  972SOL     OW14551   1.302   1.814   8.213  0.4238  0.3223 -0.3000
  972SOL    HW114552   1.315   1.890   8.156  3.8185  0.8798  1.2350
  972SOL    HW214553   1.332   1.739   8.162 -2.3153 -1.4086  0.6886
  973SOL     OW14554   2.183   1.796  13.493  0.0860  0.1388  0.1960
  973SOL    HW114555   2.148   1.826  13.578 -1.7360 -0.8496 -0.1977
  973SOL    HW214556   2.109   1.803  13.433  1.3309 -0.2445 -1.3864
  974SOL     OW14557   1.400   3.320   5.662  0.3453 -0.1802 -0.0205
  974SOL    HW114558   1.451   3.249   5.625 -0.2849 -0.8057  0.3172
  974SOL    HW214559   1.328   3.281   5.711 -0.5141  0.6475 -0.6226
  975SOL     OW14560   1.178   2.780   9.163 -0.3192 -0.4962 -0.2181
  975SOL    HW114561   1.187   2.738   9.078  2.2782 -1.0250  0.2988
  975SOL    HW214562   1.176   2.873   9.139  0.9391 -0.6343 -0.8701
  976SOL     OW14563   2.426   2.806   5.155 -0.5033  0.2209 -0.3262
  976SOL    HW114564   2.358   2.759   5.204 -0.7474  1.0547  0.1283
  976SOL    HW214565   2.402   2.893   5.186  0.2319 -0.2356  1.5314
  977SOL     OW14566   1.595   1.450   1.964 -0.0694  0.1041 -0.0131
  977SOL    HW114567   1.500   1.436   1.963 -0.4435  2.4641  1.5416
  977SOL    HW214568   1.610   1.523   1.904  0.6129  0.5045  0.6316
  978SOL     OW14569   0.751   4.189   2.595  0.3954 -0.3043  0.0597
  978SOL    HW114570   0.689   4.260   2.613  1.1017 -0.3788  2.7311
  978SOL    HW214571   0.730   4.178   2.502  1.3080 -0.5866 -0.1145
  979SOL     OW14572   1.816   3.086   6.022  0.5719  0.1071  0.1166
  979SOL    HW114573   1.806   2.992   6.038  0.3697  0.5562  2.6415
  979SOL    HW214574   1.835   3.116   6.110 -2.0556  2.3626 -0.0616
  980SOL     OW14575   2.531   1.243   1.512  0.3133 -0.3223  0.2121
  980SOL    HW114576   2.522   1.157   1.471 -0.6114 -0.4163  0.6083
  980SOL    HW214577   2.619   1.251   1.549 -0.9366 -0.9471  3.3259
  981SOL     OW14578   2.650   0.348   5.579  0.8547  0.0482  0.1800
  981SOL    HW114579   2.686   0.344   5.490 -1.6763  0.3419 -0.8435
  981SOL    HW214580   2.621   0.439   5.582  0.1001 -0.1813 -0.1367
  982SOL     OW14581   3.005   0.075   7.266 -0.0186 -0.2478 -0.4596
  982SOL    HW114582   3.025   4.724   7.229 -1.7180 -0.6180 -0.5050
  982SOL    HW214583   2.986   0.120   7.185  0.6976 -0.7579 -0.9125
  983SOL     OW14584   3.059   2.889  14.867  0.0997 -0.3953 -0.2090
  983SOL    HW114585   3.038   2.938  14.787 -0.7192 -1.6311 -0.7654
  983SOL    HW214586   3.021   2.942  14.936 -0.5642 -0.7971 -0.2701
  984SOL     OW14587   1.119   0.716   5.124 -0.3389 -0.1873  0.2873
  984SOL    HW114588   1.049   0.658   5.093  0.8545 -1.3149 -0.2919
  984SOL    HW214589   1.106   0.801   5.081 -1.1066 -0.6881 -0.4897
  985SOL     OW14590   2.175   0.503   1.949  1.0686  0.3941 -0.1802
  985SOL    HW114591   2.137   0.580   1.907 -2.3639 -1.2677 -0.2123
  985SOL    HW214592   2.269   0.510   1.932  0.8278  0.5050 -1.4886
  986SOL     OW14593   1.367   1.880   0.193 -0.0700 -0.4246  0.2007
  986SOL    HW114594   1.398   1.854   0.106 -1.7983  0.0418 -0.5588
  986SOL    HW214595   1.446   1.855   0.240  0.0745 -0.1969  0.0837
  987SOL     OW14596   0.457   1.128   9.611  0.2521  0.5263 -0.0464
  987SOL    HW114597   0.470   1.091   9.523 -0.4870 -1.4710  0.6968
  987SOL    HW214598   0.378   1.087   9.646 -0.4290  2.6233  0.8936
  988SOL     OW14599   0.572   1.481   9.723  0.7209 -0.3752  0.2165
  988SOL    HW114600   0.547   1.533   9.799 -1.5657 -1.0049 -0.0931
  988SOL    HW214601   0.604   1.553   9.668  1.1958 -0.7834 -0.0307
  989SOL     OW14602   1.094   3.797   9.526 -0.0145 -0.2403  0.7441
  989SOL    HW114603   1.077   3.804   9.432  1.1622 -0.0198  0.5418
  989SOL    HW214604   1.121   3.707   9.544  1.1336 -0.0432  0.0225
  990SOL     OW14605   0.177   4.213   7.255 -0.2922 -0.1301 -0.1680
  990SOL    HW114606   0.266   4.240   7.233 -0.2032 -1.0732 -0.9737
  990SOL    HW214607   0.143   4.301   7.240 -0.8629 -0.3140  0.0437
  991SOL     OW14608   2.639   2.595   1.848 -0.3407  0.5206 -0.7986
  991SOL    HW114609   2.723   2.550   1.840 -0.4067  0.5398 -1.5545
  991SOL    HW214610   2.603   2.516   1.889  0.9610 -0.1097 -0.8539
  992SOL     OW14611   0.055   0.048   4.098 -0.5461  0.1177 -0.6818
  992SOL    HW114612   0.128   0.007   4.144 -1.0264  0.1678  0.1252
  992SOL    HW214613   0.094   0.136   4.093  0.5330 -0.3940 -1.2747
  993SOL     OW14614   0.988   0.112   6.325  0.2521  0.0510  0.4612
  993SOL    HW114615   0.924   0.146   6.263  0.3171 -1.5742 -0.5078
  993SOL    HW214616   1.031   0.197   6.333 -0.3409  0.4255 -0.3145
  994SOL     OW14617   1.104   4.271   2.837  0.0894 -0.1208 -0.2156
  994SOL    HW114618   1.078   4.234   2.921  0.5390 -1.5927 -0.7357
  994SOL    HW214619   1.198   4.252   2.834  0.6004  1.6997  3.6698
  995SOL     OW14620   2.750   3.788   6.242 -0.5278 -0.3890  0.4484
  995SOL    HW114621   2.701   3.735   6.305 -1.0442  0.8939  1.1049
  995SOL    HW214622   2.692   3.784   6.166 -0.6956 -0.1337  0.5664
  996SOL     OW14623   0.425   3.103   2.713  0.4444 -0.2602 -0.0458
  996SOL    HW114624   0.451   3.184   2.670  0.2573  0.3025  0.9065
  996SOL    HW214625   0.400   3.041   2.644 -2.5544  3.3942 -2.2497
  997SOL     OW14626   4.583   0.541  12.499  0.6595  0.3264  0.2450
  997SOL    HW114627   4.499   0.584  12.484  0.5217  0.2656  0.8240
  997SOL    HW214628   4.611   0.512  12.412  0.2988  1.2321 -0.1740
  998SOL     OW14629   0.556   3.654   7.204  0.2700 -0.1727  0.8896
  998SOL    HW114630   0.462   3.670   7.202  0.4465  0.8024  0.5441
  998SOL    HW214631   0.600   3.737   7.221 -0.6117  0.9934 -2.3798
  999SOL     OW14632   2.410   1.878  11.471 -0.2887 -0.6528  0.2856
  999SOL    HW114633   2.491   1.927  11.483 -0.6420 -0.0544  0.1939
  999SOL    HW214634   2.441   1.800  11.425 -1.1439 -1.2698  0.7625
 1000SOL     OW14635   0.275   3.618   3.485  0.3909  0.0378  0.3354
 1000SOL    HW114636   0.332   3.673   3.539  0.8243 -1.7160  1.6674
 1000SOL    HW214637   0.201   3.673   3.460  0.2212 -0.6881 -0.7343
 1001SOL     OW14638   0.035   3.613   0.457  0.1333  0.0882  0.8507
 1001SOL    HW114639   0.051   3.691   0.510 -1.0254  1.6699 -1.1125
 1001SOL    HW214640   4.686   3.583   0.490 -0.4588  1.6395  0.7368
 1002SOL     OW14641   1.080   0.026   5.310 -0.1913  0.1630  0.1290
 1002SOL    HW114642   1.106   0.117   5.300 -2.2125  0.6596 -0.5642
 1002SOL    HW214643   1.023   0.020   5.386 -0.7134  1.2328 -0.1746
 1003SOL     OW14644   2.296   2.255   6.289  0.2814  0.4841  0.1386
 1003SOL    HW114645   2.222   2.293   6.336  0.1377 -0.5228  0.7366
 1003SOL    HW214646   2.245   2.182   6.254 -0.5302  0.8553  0.5594
 1004SOL     OW14647   4.018   0.846  13.614  0.3208 -0.0048  0.4117
 1004SOL    HW114648   3.929   0.857  13.648 -0.1886  3.0450 -1.9082
 1004SOL    HW214649   4.015   0.816  13.523 -2.1144  1.2501  0.0464
 1005SOL     OW14650   0.072   4.256   5.720  0.1680 -0.0329 -0.2230
 1005SOL    HW114651   0.099   4.282   5.807 -0.8173  0.3416 -0.0260
 1005SOL    HW214652   0.146   4.200   5.697 -0.5910 -1.4106  0.6873
 1006SOL     OW14653   0.190   1.217   7.045 -0.3761  0.4229 -0.1464
 1006SOL    HW114654   0.193   1.132   7.001  1.9097  0.5890 -0.2961
 1006SOL    HW214655   0.269   1.251   7.003 -0.1660  0.9714  0.6911
 1007SOL     OW14656   1.649   3.996   7.428  0.2073  0.0554  0.5988
 1007SOL    HW114657   1.637   4.002   7.523  3.0141  1.2868  0.8783
 1007SOL    HW214658   1.592   3.923   7.404 -1.3164  0.6757  2.4069
 1008SOL     OW14659   1.950   3.091   1.899 -0.6316 -0.8690  0.1786
 1008SOL    HW114660   1.914   3.055   1.980 -0.6056 -0.3299  0.4250
 1008SOL    HW214661   2.042   3.082   1.924 -0.3547 -1.2875 -1.0084
 1009SOL     OW14662   4.072   3.204   5.262 -0.0738 -0.3743  0.3620
 1009SOL    HW114663   4.106   3.293   5.250 -1.5365  0.0341 -0.8036
 1009SOL    HW214664   4.127   3.163   5.330 -1.7602 -0.2704  1.7827
 1010SOL     OW14665   3.936   0.779   5.240 -0.6027  0.6529 -0.1809
 1010SOL    HW114666   3.969   0.773   5.329  1.7915 -0.8809 -1.1851
 1010SOL    HW214667   3.876   0.705   5.233 -0.7428  0.8687 -1.3977
 1011SOL     OW14668   2.878   0.571  13.672  0.0162 -0.6161  0.1699
 1011SOL    HW114669   2.817   0.599  13.604  1.4195  1.1669 -0.3608
 1011SOL    HW214670   2.874   0.476  13.668  0.3195 -0.6447  0.5849
 1012SOL     OW14671   1.098   4.215   5.761  0.1282 -0.4684 -0.0050
 1012SOL    HW114672   1.115   4.136   5.813  0.7182 -1.9317 -2.4377
 1012SOL    HW214673   1.006   4.202   5.740 -0.1966  0.7045  0.6973
 1013SOL     OW14674   0.415   3.006   9.640 -0.1180 -0.2071  0.1893
 1013SOL    HW114675   0.493   2.952   9.650  0.4403  0.5641 -0.0683
 1013SOL    HW214676   0.459   3.090   9.650 -0.8943  0.1801  0.3474
 1014SOL     OW14677   0.806   2.784   5.262 -0.0583 -0.3357 -0.4142
 1014SOL    HW114678   0.787   2.734   5.341 -1.4483  1.0314  0.1398
 1014SOL    HW214679   0.716   2.814   5.248 -0.0124 -0.1380 -0.2909
 1015SOL     OW14680   0.441   3.934  12.014 -0.5216  0.1139  0.6032
 1015SOL    HW114681   0.361   3.925  12.066 -2.0761 -0.4558 -1.9309
 1015SOL    HW214682   0.401   3.959  11.931 -0.0947 -0.1626  0.3145
 1016SOL     OW14683   3.114   2.571  16.245 -0.2188  0.5363  0.1838
 1016SOL    HW114684   3.035   2.581  16.193  0.9279 -0.2138 -1.7314
 1016SOL    HW214685   3.073   2.532  16.322  0.0704 -1.4079 -0.6571
 1017SOL     OW14686   1.109   0.488   5.861  0.1496 -0.1833  0.5416
 1017SOL    HW114687   1.030   0.486   5.915  0.7041 -1.7663  1.2988
 1017SOL    HW214688   1.125   0.583   5.859 -0.0669 -0.1564  0.1699
 1018SOL     OW14689   3.860   4.432   4.697 -0.1333  0.0085 -0.3942
 1018SOL    HW114690   3.858   4.336   4.701  0.9407 -0.0009 -0.1641
 1018SOL    HW214691   3.942   4.446   4.649  0.6203  0.2969  0.9902
 1019SOL     OW14692   3.949   4.101   0.090  0.5529  0.1719  0.3230
 1019SOL    HW114693   3.955   4.005   0.086  0.2324  0.0852  2.0212
 1019SOL    HW214694   4.018   4.131   0.030  1.9653 -2.7682  0.4352
 1020SOL     OW14695   0.667   4.413   1.340 -0.2885  0.0876  0.1573
 1020SOL    HW114696   0.581   4.371   1.345 -0.6055  0.8798  1.3051
 1020SOL    HW214697   0.662   4.443   1.250  1.3414 -2.1845 -0.6911
 1021SOL     OW14698   0.726   0.840   9.497  0.1209 -0.3225  0.5235
 1021SOL    HW114699   0.773   0.907   9.548  1.6670 -1.2591  0.3062
 1021SOL    HW214700   0.666   0.887   9.439 -1.2076 -2.7258 -0.0385
 1022SOL     OW14701   4.702   4.055   0.474 -0.4589  0.2805 -0.2451
 1022SOL    HW114702   4.698   4.080   0.381 -0.3712  2.8775  0.4547
 1022SOL    HW214703   0.033   4.121   0.492 -0.9695 -0.3725  3.8760
 1023SOL     OW14704   0.837   1.367   5.587  0.8391  0.1188 -0.4856
 1023SOL    HW114705   0.916   1.394   5.632  1.2830 -0.4289 -0.9312
 1023SOL    HW214706   0.795   1.323   5.661 -0.5515  0.5811 -1.0008
 1024SOL     OW14707   3.691   2.537   0.530 -0.1185 -0.2530  0.1384
 1024SOL    HW114708   3.611   2.526   0.480 -0.9200  2.5711  0.7827
 1024SOL    HW214709   3.755   2.499   0.470 -0.2450 -0.1081 -0.0888
 1025SOL     OW14710   2.520   1.316   5.158  0.0691 -0.2755 -0.2369
 1025SOL    HW114711   2.437   1.318   5.112  0.4002 -0.4407 -0.8401
 1025SOL    HW214712   2.537   1.409   5.173 -1.5355 -0.0880  0.4135
 1026SOL     OW14713   1.303   3.902  10.663 -0.0476  0.6121  0.5392
 1026SOL    HW114714   1.363   3.959  10.615 -0.2056  0.6551  0.3904
 1026SOL    HW214715   1.334   3.906  10.753  0.3798  1.0359  0.3706
 1027SOL     OW14716   1.941   4.284   1.594  0.1279 -0.4910  0.0246
 1027SOL    HW114717   2.013   4.311   1.651  1.5153 -0.8497 -1.5393
 1027SOL    HW214718   1.873   4.253   1.654  0.1061 -0.4649  0.0136
 1028SOL     OW14719   1.058   2.283   4.317  0.1704  0.3048  0.1072
 1028SOL    HW114720   1.141   2.279   4.366  0.0598  2.8243  0.4696
 1028SOL    HW214721   1.084   2.351   4.256 -1.2375  0.3320 -0.4553
 1029SOL     OW14722   1.276   1.838  16.844  0.2214  0.5914 -0.3995
 1029SOL    HW114723   1.299   1.745  16.838 -1.5169  0.1818 -0.7755
 1029SOL    HW214724   1.198   1.844  16.789  0.0186  1.2126 -0.0442
 1030SOL     OW14725   3.893   3.857  15.187  0.3355  0.6096 -0.6184
 1030SOL    HW114726   3.953   3.803  15.238 -0.7527  0.6652  0.7397
 1030SOL    HW214727   3.954   3.880  15.117 -0.4718  0.8933 -1.2193
 1031SOL     OW14728   3.088   0.467   8.047  0.0876  0.2965 -0.0682
 1031SOL    HW114729   3.179   0.462   8.076  1.4156  2.4587 -3.9369
 1031SOL    HW214730   3.089   0.518   7.966  0.1305  2.0291  1.0195
 1032SOL     OW14731   0.176   0.171   8.066 -0.2997  0.5298 -0.0694
 1032SOL    HW114732   0.123   0.196   8.142 -1.1209  1.9005 -1.0761
 1032SOL    HW214733   0.263   0.167   8.105 -0.9900 -0.6119  1.3494
 1033SOL     OW14734   0.259   3.185   6.882  0.7478  0.0419 -0.0752
 1033SOL    HW114735   0.199   3.120   6.919 -0.1781 -0.4228 -2.3707
 1033SOL    HW214736   0.191   3.238   6.840 -0.8911 -0.6953  1.6786
 1034SOL     OW14737   2.658   3.047   8.416 -0.4866  0.4274 -0.3005
 1034SOL    HW114738   2.660   3.100   8.496  1.3333 -3.6678  2.3728
 1034SOL    HW214739   2.654   3.118   8.352  0.1304  1.9892  1.3990
 1035SOL     OW14740   1.456   4.218   9.129  0.0474  0.4856  0.1197
 1035SOL    HW114741   1.532   4.197   9.074  0.0354 -3.7823  1.7416
 1035SOL    HW214742   1.402   4.140   9.115 -0.0334  0.7863 -1.2403
 1036SOL     OW14743   2.443   2.278  12.464  0.4190  0.5179 -0.0157
 1036SOL    HW114744   2.513   2.281  12.530 -0.1878 -1.0101  0.7038
 1036SOL    HW214745   2.364   2.297  12.514  0.6343  0.5414  0.3152
 1037SOL     OW14746   3.001   1.109   0.162  0.0188 -0.0285  0.3094
 1037SOL    HW114747   3.051   1.084   0.240 -1.1722 -1.4703  0.6192
 1037SOL    HW214748   2.960   1.190   0.191  1.3513  0.8996 -0.3926
 1038SOL     OW14749   2.644   3.137   3.605 -0.1066  0.7440 -0.3000
 1038SOL    HW114750   2.708   3.159   3.538  0.2498 -1.3676 -0.6674
 1038SOL    HW214751   2.662   3.209   3.666  1.9445 -0.7582  0.8683
 1039SOL     OW14752   3.930   2.147  14.223 -0.1003 -0.4639 -0.2119
 1039SOL    HW114753   4.021   2.125  14.241 -0.8336 -3.0369  0.3499
 1039SOL    HW214754   3.943   2.228  14.173 -0.4386  0.4146  1.1144
 1040SOL     OW14755   3.762   0.337  12.153  0.3584  0.6261 -0.2103
 1040SOL    HW114756   3.676   0.373  12.174  0.9545  3.4202 -2.5392
 1040SOL    HW214757   3.751   0.328  12.058 -1.2746 -0.8906  0.1241
 1041SOL     OW14758   0.249   3.266   3.758 -0.5096  0.4907  0.1170
 1041SOL    HW114759   0.317   3.239   3.696  0.7166  0.3754  1.5346
 1041SOL    HW214760   0.274   3.225   3.840  0.4847  0.5798 -0.1395
 1042SOL     OW14761   3.069   2.710   2.205  0.1391  0.3398  0.1831
 1042SOL    HW114762   3.020   2.631   2.184 -1.3142  0.9353  1.3358
 1042SOL    HW214763   2.988   2.759   2.221  0.5741  0.5478  1.7884
 1043SOL     OW14764   1.362   4.271   5.730 -0.1558  0.5066  0.0372
 1043SOL    HW114765   1.375   4.280   5.635  2.1968  1.4554  0.4448
 1043SOL    HW214766   1.278   4.228   5.744 -0.5300  0.0083 -3.7387
 1044SOL     OW14767   0.584   1.006   4.439 -0.1080  0.1484  0.1517
 1044SOL    HW114768   0.670   0.974   4.411 -0.5350 -0.7752 -0.1108
 1044SOL    HW214769   0.561   1.074   4.376  2.0307 -0.0227 -0.8289
 1045SOL     OW14770   2.755   2.961   1.192 -0.2143  0.4368 -1.1073
 1045SOL    HW114771   2.728   3.047   1.160 -3.3116  0.1288  0.7351
 1045SOL    HW214772   2.790   2.990   1.276 -1.1160  0.7033 -0.8301
 1046SOL     OW14773   0.071   1.201   7.286  0.7465  0.5031 -0.3298
 1046SOL    HW114774   0.050   1.294   7.286  1.0888  0.5742  0.3116
 1046SOL    HW214775   0.105   1.191   7.196 -2.5591 -0.7842 -1.4233
 1047SOL     OW14776   0.691   1.672   7.568  0.5622  0.2302 -0.2498
 1047SOL    HW114777   0.637   1.646   7.493 -1.7340  0.7050  1.2388
 1047SOL    HW214778   0.719   1.585   7.598 -2.3244  0.0286  1.8065
 1048SOL     OW14779   3.126   1.514   9.371  0.4365 -0.0841 -0.1013
 1048SOL    HW114780   3.034   1.537   9.374 -0.2572 -2.7173 -1.1329
 1048SOL    HW214781   3.146   1.558   9.288 -1.7201 -0.3617 -0.7552
 1049SOL     OW14782   0.143   3.014   3.897 -0.6350  0.8227 -0.3084
 1049SOL    HW114783   0.202   2.980   3.830  0.2620 -0.3646  1.0989
 1049SOL    HW214784   0.106   2.930   3.924  1.6495  0.4103  1.5818
 1050SOL     OW14785   2.545   1.483   6.408 -0.5740  0.1829  0.6380
 1050SOL    HW114786   2.641   1.485   6.400 -0.3807 -0.8751  2.6620
 1050SOL    HW214787   2.516   1.562   6.363  0.6790 -0.4260 -1.2748
 1051SOL     OW14788   2.968   3.333   0.084 -0.4949  0.3359  0.1005
 1051SOL    HW114789   2.965   3.238   0.068 -3.8084  0.0829  2.0622
 1051SOL    HW214790   2.886   3.359   0.042  0.1117  2.2498  0.1255
 1052SOL     OW14791   2.273   0.803   3.609  0.2754 -0.1992  0.4564
 1052SOL    HW114792   2.309   0.870   3.550  0.2162 -0.0223  0.6214
 1052SOL    HW214793   2.190   0.792   3.563  0.5354  1.1746 -0.3583
 1053SOL     OW14794   3.012   2.475   2.101  0.5159  0.0005 -0.1466
 1053SOL    HW114795   2.965   2.392   2.106  1.2621 -0.4004  0.1062
 1053SOL    HW214796   3.099   2.441   2.081  0.8951  0.2599  1.0731
 1054SOL     OW14797   0.182   4.373   1.040 -0.3355  0.2120 -0.3349
 1054SOL    HW114798   0.203   4.281   1.023  0.3852  0.6849 -1.9188
 1054SOL    HW214799   0.151   4.404   0.955  0.8090  0.1974 -0.7514
 1055SOL     OW14800   1.819   3.405   0.836 -0.1172 -0.3107 -0.0457
 1055SOL    HW114801   1.875   3.470   0.793 -1.0509 -0.6242 -1.7356
 1055SOL    HW214802   1.850   3.316   0.820 -2.0180 -0.3936 -3.1549
 1056SOL     OW14803   2.226   0.257   2.075  0.4832  0.1226 -0.1827
 1056SOL    HW114804   2.219   0.320   2.003  0.2000 -0.0673 -0.3189
 1056SOL    HW214805   2.274   0.314   2.136  2.2794 -0.8192 -0.7040
 1057SOL     OW14806   1.331   4.281   4.121 -0.1151  0.0092 -0.4134
 1057SOL    HW114807   1.371   4.347   4.064  0.3020 -0.0014 -0.1336
 1057SOL    HW214808   1.377   4.207   4.082  0.6335 -0.8799  2.2338
 1058SOL     OW14809   1.221   3.130   6.593  0.5776 -0.0596 -0.4306
 1058SOL    HW114810   1.260   3.056   6.638  2.0010  1.5421  0.9368
 1058SOL    HW214811   1.134   3.122   6.633 -0.1798 -0.1275 -2.0632
 1059SOL     OW14812   1.101   0.205   7.680  0.0143  0.1682  0.0703
 1059SOL    HW114813   1.118   0.220   7.587 -2.7112 -2.5912 -0.8735
 1059SOL    HW214814   1.098   0.292   7.719 -2.2447 -0.5281  1.4362
 1060SOL     OW14815   0.922   4.192   3.456  0.4977 -0.1965 -0.2302
 1060SOL    HW114816   0.978   4.193   3.533  1.2204 -1.1134 -0.7478
 1060SOL    HW214817   0.845   4.243   3.482  0.4476  0.1478 -1.0627
 1061SOL     OW14818   3.906   3.117   2.063  0.5437 -0.4176 -0.0180
 1061SOL    HW114819   3.896   3.144   2.154  0.7295  1.2008 -0.4691
 1061SOL    HW214820   3.999   3.133   2.048  0.1589  2.5488  0.6791
 1062SOL     OW14821   2.510   0.255   8.173  0.0788 -0.0282 -0.1884
 1062SOL    HW114822   2.525   0.257   8.267 -2.0210 -1.8750  0.2075
 1062SOL    HW214823   2.593   0.287   8.137  0.7242 -0.9323  0.4982
 1063SOL     OW14824   3.139   2.101   2.307  0.2838  0.4865 -0.2539
 1063SOL    HW114825   3.209   2.072   2.247 -0.0283  1.4082 -1.0677
 1063SOL    HW214826   3.195   2.153   2.365  2.5518  1.0562 -2.9129
 1064SOL     OW14827   2.799   0.779   3.567 -0.1279  0.1237 -0.0951
 1064SOL    HW114828   2.777   0.771   3.660 -0.0850 -0.9794 -0.1753
 1064SOL    HW214829   2.851   0.858   3.579 -0.0592 -0.2318  1.8765
 1065SOL     OW14830   1.597   2.921  17.271  0.2063 -0.8297  0.4317
 1065SOL    HW114831   1.669   2.962  17.319 -0.5286 -1.5472  2.1360
 1065SOL    HW214832   1.626   2.892  17.185 -3.6911 -1.5368 -0.6382
 1066SOL     OW14833   3.158   4.622   4.363 -0.3849  0.3815  0.2148
 1066SOL    HW114834   3.153   4.709   4.401 -0.2290  0.6176 -0.3159
 1066SOL    HW214835   3.248   4.590   4.374  0.4981  2.5589 -0.8019
 1067SOL     OW14836   2.669   2.482   8.139  0.0040 -0.1623  0.4311
 1067SOL    HW114837   2.596   2.521   8.091  0.5320  2.4618  1.8066
 1067SOL    HW214838   2.691   2.408   8.082 -0.1603 -0.1137  0.3036
 1068SOL     OW14839   3.227   2.948   3.387  0.1507 -0.7879 -0.0178
 1068SOL    HW114840   3.222   2.924   3.479  1.8397 -0.6075  0.1233
 1068SOL    HW214841   3.316   2.923   3.363  0.0395 -0.5267 -0.7157
 1069SOL     OW14842   1.385   2.090  11.456 -0.0109  0.2796  0.2838
 1069SOL    HW114843   1.391   2.122  11.546 -1.4435 -0.3790  0.6109
 1069SOL    HW214844   1.310   2.033  11.473  2.1664 -2.3590  1.0198
 1070SOL     OW14845   3.956   4.465  16.823 -0.1197 -0.1085  0.1411
 1070SOL    HW114846   3.878   4.518  16.803  0.6947 -0.1744 -3.3062
 1070SOL    HW214847   4.021   4.535  16.816 -0.6869  0.5510  1.4014
 1071SOL     OW14848   1.664   2.995   7.574 -0.0189  0.2338 -0.0516
 1071SOL    HW114849   1.638   3.074   7.525  2.8996  0.8123 -0.6260
 1071SOL    HW214850   1.581   2.948   7.563  0.7481 -1.0130 -0.4842
 1072SOL     OW14851   2.406   0.188   4.497 -0.5392  0.0309 -0.2695
 1072SOL    HW114852   2.410   0.279   4.467  0.4431  0.2146  0.4132
 1072SOL    HW214853   2.314   0.186   4.524 -1.0486 -0.9062 -2.0076
 1073SOL     OW14854   3.468   4.025  14.772 -0.3258  0.2429  0.2725
 1073SOL    HW114855   3.512   3.974  14.703  1.1013  2.6881 -0.6002
 1073SOL    HW214856   3.478   3.958  14.840 -0.1817  0.8339  0.8318
 1074SOL     OW14857   3.938   1.529  15.605  0.1016 -0.1030 -0.4529
 1074SOL    HW114858   3.936   1.445  15.651  2.1555  0.0126 -0.1291
 1074SOL    HW214859   3.955   1.505  15.514 -1.9675  0.9326 -1.1153
 1075SOL     OW14860   0.007   1.166  12.835 -0.2616 -0.1458  0.4486
 1075SOL    HW114861   0.025   1.081  12.794  0.2133  0.8866 -1.5047
 1075SOL    HW214862   4.649   1.163  12.856 -0.3139 -2.6358 -0.1544
 1076SOL     OW14863   4.630   3.172   6.267  0.4539  0.0838 -0.3208
 1076SOL    HW114864   4.642   3.093   6.214  0.1740  0.0968 -0.4051
 1076SOL    HW214865   4.536   3.183   6.254 -0.1479 -5.0964 -0.4395
 1077SOL     OW14866   4.621   4.331   3.197  0.0171  0.1795 -0.0142
 1077SOL    HW114867   4.594   4.239   3.188 -1.5277  1.0283 -4.1996
 1077SOL    HW214868   4.582   4.369   3.118 -2.6729 -0.1632  1.1796
 1078SOL     OW14869   1.629   3.173  13.213 -0.0619  0.0635  0.0495
 1078SOL    HW114870   1.659   3.186  13.302  0.4790  0.8296 -0.2473
 1078SOL    HW214871   1.534   3.164  13.220 -0.1521  0.7754 -0.2874
 1079SOL     OW14872   3.842   2.201   7.224 -0.3967 -0.0975 -0.1668
 1079SOL    HW114873   3.897   2.132   7.261  0.4499  0.3745 -0.5229
 1079SOL    HW214874   3.811   2.174   7.138  0.3418  1.8023 -1.0442
 1080SOL     OW14875   0.750   3.329   2.643 -0.3561 -0.3983  0.0075
 1080SOL    HW114876   0.824   3.369   2.689  0.0969  0.3975 -1.4118
 1080SOL    HW214877   0.797   3.276   2.579 -1.2003 -0.5330 -0.4995
 1081SOL     OW14878   1.785   0.313   2.692 -0.3590  0.3956 -0.1990
 1081SOL    HW114879   1.869   0.289   2.730 -1.0476 -1.1519  0.3794
 1081SOL    HW214880   1.737   0.229   2.688 -1.1579  0.9152 -1.5670
 1082SOL     OW14881   1.134   0.179   6.961  0.8342  0.0183  0.4496
 1082SOL    HW114882   1.039   0.174   6.969  0.8366  1.0277  1.0521
 1082SOL    HW214883   1.174   0.093   6.975  1.8839  0.6525  1.3733
 1083SOL     OW14884   2.379   2.018   2.410 -0.4806  0.7100  0.3893
 1083SOL    HW114885   2.389   1.928   2.381 -1.1387  0.9887 -0.6918
 1083SOL    HW214886   2.432   2.067   2.347 -0.7673 -0.5321 -0.8181
 1084SOL     OW14887   3.010   4.182  14.224 -0.4437  0.2586 -0.0966
 1084SOL    HW114888   2.974   4.154  14.308  0.6725  1.4052  0.7522
 1084SOL    HW214889   2.950   4.253  14.200  0.7254  1.7021  1.2314
 1085SOL     OW14890   0.326   0.436  16.071  0.1439 -0.2323 -0.0660
 1085SOL    HW114891   0.408   0.485  16.084 -0.3224  0.2944  0.8704
 1085SOL    HW214892   0.368   0.351  16.084  1.3944  0.4444  0.3733
 1086SOL     OW14893   0.193   1.097   4.816 -0.5739  0.1635 -0.1651
 1086SOL    HW114894   0.167   1.184   4.786  1.3532  0.6412 -0.4537
 1086SOL    HW214895   0.227   1.056   4.737  0.9501 -0.3252  0.7230
 1087SOL     OW14896   0.276   1.628   7.007  0.8657  0.3227  0.8226
 1087SOL    HW114897   0.205   1.692   7.003  0.2705 -0.4350 -1.2468
 1087SOL    HW214898   0.320   1.645   6.924 -0.3947  0.0314  0.0858
 1088SOL     OW14899   2.434   1.982  12.729 -0.2236  0.0873  0.3036
 1088SOL    HW114900   2.408   1.973  12.821  0.3317 -1.6227  0.3067
 1088SOL    HW214901   2.366   1.929  12.686 -1.9376  1.4044  1.3715
 1089SOL     OW14902   2.525   3.064   7.554  0.3180 -0.3870  0.2234
 1089SOL    HW114903   2.568   3.094   7.473 -0.4771  1.8255  0.6312
 1089SOL    HW214904   2.439   3.046   7.517  0.9090 -1.9924 -0.3850
 1090SOL     OW14905   1.849   0.343   9.098 -0.0474  0.2699 -0.4643
 1090SOL    HW114906   1.865   0.390   9.180 -0.9554 -0.2568  0.0157
 1090SOL    HW214907   1.794   0.271   9.129  1.5178 -0.2803  1.0128
 1091SOL     OW14908   4.273   3.637  17.022  0.5278  0.1794 -0.6476
 1091SOL    HW114909   4.260   3.667  16.932 -1.4723  0.8344 -0.1444
 1091SOL    HW214910   4.242   3.712  17.073  1.8170  0.9136 -0.9150
 1092SOL     OW14911   2.381   0.269  16.789 -0.2347 -0.5040 -0.1403
 1092SOL    HW114912   2.457   0.286  16.733  0.4023  1.0389  1.2171
 1092SOL    HW214913   2.319   0.228  16.728  1.4969 -0.4308 -1.9630
 1093SOL     OW14914   3.934   0.828   7.140 -0.7075  0.2719 -0.0648
 1093SOL    HW114915   3.990   0.904   7.154  2.3348 -2.0587  0.5734
 1093SOL    HW214916   3.860   0.854   7.194 -0.9186 -0.2001 -0.1210
 1094SOL     OW14917   3.110   0.013   8.489 -0.3372 -0.0969 -0.3901
 1094SOL    HW114918   3.106   4.729   8.395 -0.7780 -0.9473 -0.1938
 1094SOL    HW214919   3.148   4.663   8.508 -1.7733 -0.4316  0.9941
 1095SOL     OW14920   1.875   2.926   4.465 -0.1442  0.4678  0.1314
 1095SOL    HW114921   1.832   2.847   4.432 -1.2243  1.4964 -0.8946
 1095SOL    HW214922   1.937   2.921   4.393 -0.6485 -1.8299 -0.1396
 1096SOL     OW14923   2.863   1.272   8.275  0.0826 -0.1895  0.2047
 1096SOL    HW114924   2.855   1.353   8.325  0.8812  0.4475 -0.6966
 1096SOL    HW214925   2.770   1.259   8.256 -0.1735  0.1644  1.2429
 1097SOL     OW14926   2.668   0.000   3.727 -0.4674 -0.2527 -0.0119
 1097SOL    HW114927   2.642   0.076   3.779  1.2443 -0.1517  0.7054
 1097SOL    HW214928   2.678   4.667   3.792  1.2443 -1.3491 -1.4352
 1098SOL     OW14929   0.512   3.480   3.040 -0.5243  0.7500  0.5901
 1098SOL    HW114930   0.489   3.413   2.976 -1.4347  2.6676 -1.1159
 1098SOL    HW214931   0.579   3.420   3.072  1.2961  0.8389 -2.9700
 1099SOL     OW14932   4.547   2.581   9.175 -0.0572 -0.6467 -0.0265
 1099SOL    HW114933   4.524   2.534   9.095 -1.7547 -1.3042  0.8279
 1099SOL    HW214934   4.642   2.583   9.171  0.0101  0.0119  1.8594
 1100SOL     OW14935   3.283   0.884   8.009 -0.0418  0.1845 -0.1394
 1100SOL    HW114936   3.312   0.965   7.968 -0.0176  0.4701  0.4365
 1100SOL    HW214937   3.189   0.877   7.996 -0.3821  3.2961  0.7164
 1101SOL     OW14938   3.573   0.454   7.889  0.3865 -0.5943 -0.6025
 1101SOL    HW114939   3.562   0.464   7.984  0.6337 -3.9425 -0.2245
 1101SOL    HW214940   3.489   0.421   7.858  0.2358 -1.1993  0.4333
 1102SOL     OW14941   0.075   0.354   9.228  0.4411  0.3360 -0.2300
 1102SOL    HW114942   0.164   0.345   9.262 -0.5569  0.4314  2.4251
 1102SOL    HW214943   0.064   0.449   9.227  0.7102  0.3542 -1.0231
 1103SOL     OW14944   3.681   3.354   7.481  0.5776  0.3228  0.1280
 1103SOL    HW114945   3.604   3.396   7.519  1.7468  1.9101  0.7252
 1103SOL    HW214946   3.747   3.379   7.546  1.3577 -2.2192  0.3031
 1104SOL     OW14947   2.173   3.528   6.994  0.5928  0.0728 -0.2187
 1104SOL    HW114948   2.230   3.487   6.929 -0.3763 -1.7908  0.0963
 1104SOL    HW214949   2.223   3.605   7.022  1.6904  0.4332 -3.1271
 1105SOL     OW14950   4.217   3.353  16.011  0.2061 -0.4520 -0.0060
 1105SOL    HW114951   4.277   3.290  16.050  1.4765  0.9646  0.3327
 1105SOL    HW214952   4.132   3.312  16.027 -0.3078  0.7400  0.3509
 1106SOL     OW14953   4.243   3.560   7.524  0.3027 -0.8928  0.5292
 1106SOL    HW114954   4.190   3.543   7.446 -1.4752 -1.1793  1.8036
 1106SOL    HW214955   4.316   3.499   7.512 -0.4195 -1.3394 -1.5748
 1107SOL     OW14956   4.720   4.663  12.717 -0.5007 -0.1950 -0.1906
 1107SOL    HW114957   4.659   4.604  12.762  0.1095 -1.1464 -0.6229
 1107SOL    HW214958   4.671   4.688  12.639  0.6888  1.7597 -0.2902
 1108SOL     OW14959   1.802   0.857   5.932  0.1436  0.4036  0.2779
 1108SOL    HW114960   1.768   0.945   5.947 -0.0474  0.5846 -1.1699
 1108SOL    HW214961   1.790   0.829   6.023 -0.8709 -0.4180 -0.1104
 1109SOL     OW14962   4.245   3.676   3.835 -0.6519  0.2643 -0.3342
 1109SOL    HW114963   4.339   3.664   3.818 -0.7338 -0.9962  0.1314
 1109SOL    HW214964   4.221   3.588   3.864  0.6149  0.1240  0.3282
 1110SOL     OW14965   0.178   1.897  12.407 -0.0683 -0.3360  0.1473
 1110SOL    HW114966   0.269   1.925  12.417 -0.0074  0.2188 -1.9105
 1110SOL    HW214967   0.169   1.834  12.478 -1.7650 -2.5055 -1.9765
 1111SOL     OW14968   1.027   2.846   8.353  0.0800  0.0681  0.3739
 1111SOL    HW114969   1.091   2.797   8.405 -0.4159  1.3343  2.1610
 1111SOL    HW214970   1.064   2.837   8.265 -1.1729 -2.9695  0.1391
 1112SOL     OW14971   3.613   4.183   5.891 -0.3663 -0.0511  0.0304
 1112SOL    HW114972   3.660   4.100   5.900  2.4120  1.3824 -1.0189
 1112SOL    HW214973   3.562   4.168   5.970 -0.6190 -0.3338 -0.1828
 1113SOL     OW14974   0.291   0.724   1.776  0.0531  0.5183 -0.1165
 1113SOL    HW114975   0.366   0.784   1.769 -1.1051  2.4142  3.8768
 1113SOL    HW214976   0.334   0.646   1.810 -0.3542  0.0943 -0.5798
 1114SOL     OW14977   2.239   0.540   4.609  0.7585  0.1986  0.0710
 1114SOL    HW114978   2.146   0.533   4.588  0.5187 -1.4686  1.6595
 1114SOL    HW214979   2.238   0.634   4.629  0.8583  0.5675 -1.6639
 1115SOL     OW14980   0.897   0.436   4.076  0.1268  0.7850 -0.5238
 1115SOL    HW114981   0.870   0.471   4.160  0.7715  1.7387 -0.7148
 1115SOL    HW214982   0.839   0.478   4.011 -1.1951 -2.3738 -1.4032
 1116SOL     OW14983   4.669   2.367   5.705  0.2780  0.3353  0.1737
 1116SOL    HW114984   4.648   2.306   5.634 -1.3853  0.4085  0.5993
 1116SOL    HW214985   4.730   2.327   5.767 -1.0395 -1.2227  0.4731
 1117SOL     OW14986   3.005   2.294   3.493 -0.0225 -0.1230  0.0098
 1117SOL    HW114987   2.963   2.242   3.562  1.0831  0.8855  1.4657
 1117SOL    HW214988   2.939   2.364   3.487 -0.4998 -0.9239 -4.0937
 1118SOL     OW14989   3.254   0.671  14.917  0.3612  0.1451  0.3161
 1118SOL    HW114990   3.239   0.744  14.858 -1.7947 -0.2632  0.3543
 1118SOL    HW214991   3.348   0.656  14.905  0.1616  0.3228 -1.4217
 1119SOL     OW14992   3.496   1.774   6.302  0.4387 -0.1625 -0.0410
 1119SOL    HW114993   3.534   1.838   6.243 -0.1763  0.8101  0.6063
 1119SOL    HW214994   3.529   1.820   6.380  2.7406 -0.3251 -0.9286
 1120SOL     OW14995   3.468   2.501   4.296  0.9685 -0.4406 -0.2668
 1120SOL    HW114996   3.461   2.449   4.376 -3.2800  0.9765  0.2574
 1120SOL    HW214997   3.382   2.485   4.256  1.6859  2.4817 -2.9687
 1121SOL     OW14998   2.500   0.650  10.873 -0.2879 -0.5225  0.4345
 1121SOL    HW114999   2.475   0.667  10.782 -1.0010 -0.1755  0.6975
 1121SOL    HW215000   2.495   0.555  10.868 -1.4366 -0.4448  0.1993
 1122SOL     OW15001   2.620   4.690   1.297 -0.5476  0.3508 -0.6087
 1122SOL    HW115002   2.527   4.708   1.285 -0.5506  0.3470 -0.5916
 1122SOL    HW215003   2.620   4.595   1.281  1.0911  0.5612 -1.8342
 1123SOL     OW15004   0.178   1.058  11.137  0.3980  0.6430 -0.3532
 1123SOL    HW115005   0.212   1.147  11.142 -0.1753  0.8279  0.3474
 1123SOL    HW215006   0.243   1.024  11.075 -1.2506  0.2908 -1.8837
 1124SOL     OW15007   2.805   4.329   7.092 -0.2490  0.2845 -0.5320
 1124SOL    HW115008   2.876   4.288   7.043  1.1431  2.0935 -0.0008
 1124SOL    HW215009   2.799   4.410   7.043  1.6550  2.2928  2.5426
 1125SOL     OW15010   2.579   3.706   6.044  0.1236  0.5084  0.5617
 1125SOL    HW115011   2.509   3.766   6.018 -0.5089 -0.3040  0.3658
 1125SOL    HW215012   2.628   3.697   5.962  1.5997  0.9181  1.4017
 1126SOL     OW15013   2.321   4.417   3.542  0.0140 -0.6223 -0.1257
 1126SOL    HW115014   2.240   4.375   3.572  0.4937 -0.2533  1.7008
 1126SOL    HW215015   2.381   4.361   3.593  0.6463 -0.2014 -0.4071
 1127SOL     OW15016   3.525   4.566   8.078  0.1582  0.2488  0.3197
 1127SOL    HW115017   3.564   4.654   8.085 -1.2721  0.7681  1.7484
 1127SOL    HW215018   3.432   4.580   8.064 -0.3144  1.0847  4.1579
 1128SOL     OW15019   1.779   2.579   1.422  0.1351 -0.7251  0.1771
 1128SOL    HW115020   1.762   2.485   1.410  1.5273 -0.8305 -1.0640
 1128SOL    HW215021   1.784   2.609   1.332 -0.8426  0.4018  0.5133
 1129SOL     OW15022   3.811   0.284  16.989 -0.6341 -0.5216  0.2351
 1129SOL    HW115023   3.833   0.245  16.905  2.3643 -0.7901  1.1575
 1129SOL    HW215024   3.882   0.345  17.007  1.4097 -2.4182 -1.4425
 1130SOL     OW15025   3.648   1.602   4.414  0.4054 -0.0557  0.0713
 1130SOL    HW115026   3.691   1.517   4.425  0.2655  0.0830  1.5638
 1130SOL    HW215027   3.600   1.607   4.496 -1.1689  0.8546 -0.8967
 1131SOL     OW15028   4.097   0.037   4.286  0.0956 -0.1619  0.2266
 1131SOL    HW115029   4.167   0.101   4.275  0.2209 -0.0566  1.6889
 1131SOL    HW215030   4.117   4.699   4.228  0.9903  0.1384  0.1618
 1132SOL     OW15031   1.363   1.619  17.112  0.1492  0.1334  0.5229
 1132SOL    HW115032   1.337   1.579  17.029 -1.7313  1.7695  0.3303
 1132SOL    HW215033   1.458   1.603  17.116  0.4028  1.3277 -0.9910
 1133SOL     OW15034   0.054   4.600   5.516 -0.3885 -0.2771  0.0484
 1133SOL    HW115035   4.728   4.628   5.448 -1.4744 -0.1384  1.0962
 1133SOL    HW215036   0.122   4.664   5.496 -0.1610 -0.7579 -0.7116
 1134SOL     OW15037   4.413   1.413   5.149  0.2691  0.0456  0.0252
 1134SOL    HW115038   4.330   1.388   5.189 -0.4741  0.0834 -1.5000
 1134SOL    HW215039   4.445   1.323   5.147  2.1939  0.7080  0.9085
 1135SOL     OW15040   2.873   1.567  15.123  0.3915 -0.7097 -0.1566
 1135SOL    HW115041   2.813   1.610  15.061  2.0040  0.9369 -0.5947
 1135SOL    HW215042   2.835   1.576  15.210 -0.6008 -1.6347 -0.4831
 1136SOL     OW15043   4.321   2.697  15.117  0.2802 -0.5905  0.6138
 1136SOL    HW115044   4.350   2.759  15.050  1.0719 -1.1817  0.4070
 1136SOL    HW215045   4.263   2.657  15.053 -0.2147 -0.0423  0.7154
 1137SOL     OW15046   3.596   2.706   6.751  0.1435 -0.0695  0.3028
 1137SOL    HW115047   3.660   2.636   6.754  2.5141  2.0083 -1.3305
 1137SOL    HW215048   3.654   2.782   6.753 -0.8981  0.8216 -2.6604
 1138SOL     OW15049   2.917   1.194  15.168 -0.1798  0.7274  0.3277
 1138SOL    HW115050   2.844   1.165  15.112 -2.5328  3.2236  2.0869
 1138SOL    HW215051   2.950   1.269  15.119  0.3458 -0.4254 -1.0863
 1139SOL     OW15052   1.468   1.598   5.209 -0.2251 -0.7747  0.7441
 1139SOL    HW115053   1.557   1.582   5.176 -1.2038  0.9168 -2.6720
 1139SOL    HW215054   1.464   1.558   5.296  0.6733 -1.3661  0.5181
 1140SOL     OW15055   0.538   1.504   0.069  0.5330 -0.3056 -0.2820
 1140SOL    HW115056   0.598   1.432   0.087  1.5015  0.0651 -2.0510
 1140SOL    HW215057   0.596   1.577   0.091  0.1824 -0.0175 -0.3202
 1141SOL     OW15058   3.091   4.734  14.835  0.3038 -0.0304 -0.4534
 1141SOL    HW115059   3.085   4.638  14.831  1.7902 -0.2681  2.5484
 1141SOL    HW215060   3.130   0.024  14.752 -0.6095 -1.1988 -1.2274
 1142SOL     OW15061   1.296   0.251   5.185 -0.3909 -0.0713 -0.0007
 1142SOL    HW115062   1.309   0.337   5.226 -0.6905 -0.4232  0.8374
 1142SOL    HW215063   1.319   0.189   5.254 -0.4753  0.3217  0.3847
 1143SOL     OW15064   1.610   4.024   2.308 -0.5001  0.6948  0.3189
 1143SOL    HW115065   1.585   3.932   2.322 -0.9309  1.2386  3.0880
 1143SOL    HW215066   1.612   4.046   2.401 -0.5669 -0.4911  0.6007
 1144SOL     OW15067   2.963   4.588   6.505  0.2579  0.2541  1.1018
 1144SOL    HW115068   3.048   4.545   6.510  0.5522  0.6498 -0.5283
 1144SOL    HW215069   2.984   4.660   6.446 -0.5453  0.1535  0.6945
 1145SOL     OW15070   0.448   3.732   1.318  0.6582  0.0762  0.2504
 1145SOL    HW115071   0.460   3.786   1.396  0.3820  0.1606  0.2351
 1145SOL    HW215072   0.539   3.731   1.287  0.8838 -1.8764  1.0077
 1146SOL     OW15073   0.986   0.980   2.598 -0.0907 -0.1795 -0.0043
 1146SOL    HW115074   1.076   0.956   2.619 -0.3995 -1.9223 -0.6862
 1146SOL    HW215075   0.941   0.910   2.644  1.0340  0.0788  1.4827
 1147SOL     OW15076   3.126   4.055   3.401 -0.2023  0.0777  0.3803
 1147SOL    HW115077   3.200   4.046   3.461  1.1162  0.9684 -1.1514
 1147SOL    HW215078   3.161   4.123   3.345 -0.9079  0.0469 -0.1037
 1148SOL     OW15079   3.178   2.808   8.200 -0.4903 -0.1679 -0.0369
 1148SOL    HW115080   3.105   2.832   8.257 -0.4362 -2.4407  1.0224
 1148SOL    HW215081   3.149   2.809   8.109  2.4026  0.4833 -0.9680
 1149SOL     OW15082   1.759   4.543   5.854 -0.6448  0.3105  0.0763
 1149SOL    HW115083   1.801   4.490   5.922 -2.6605 -0.6780  0.5439
 1149SOL    HW215084   1.794   4.632   5.859  0.6999 -0.1066 -1.5600
 1150SOL     OW15085   2.649   2.165   7.274 -0.2932 -0.0492  0.1791
 1150SOL    HW115086   2.655   2.083   7.322  0.7623  1.0101  1.8316
 1150SOL    HW215087   2.568   2.149   7.225 -1.6837 -1.0934  2.8362
 1151SOL     OW15088   1.315   1.061  17.586  0.2492  0.1224 -0.4740
 1151SOL    HW115089   1.307   1.044  17.492  1.1908 -0.0981 -0.5119
 1151SOL    HW215090   1.391   1.012  17.616  0.7545  0.7278 -0.7829
 1152SOL     OW15091   0.430   0.697   2.400 -0.3142  0.6352 -0.2040
 1152SOL    HW115092   0.358   0.685   2.462 -0.7225  0.1543 -0.7603
 1152SOL    HW215093   0.466   0.609   2.386 -1.6048  0.0295  0.2686
 1153SOL     OW15094   4.483   3.439   3.709  0.1932  0.3054 -0.6732
 1153SOL    HW115095   4.473   3.351   3.673 -1.3310  0.4482 -0.6020
 1153SOL    HW215096   4.500   3.426   3.802  2.2604 -1.2090 -1.2531
 1154SOL     OW15097   1.028   4.269   6.462 -0.1639 -0.3435  0.1790
 1154SOL    HW115098   0.940   4.258   6.498 -0.6762 -2.4700 -1.7643
 1154SOL    HW215099   1.051   4.177   6.451 -3.4722 -1.0345 -0.9438
 1155SOL     OW15100   3.100   2.383   4.396  0.4328  0.2659  0.3655
 1155SOL    HW115101   3.140   2.465   4.425  0.9285 -0.2454  1.1045
 1155SOL    HW215102   3.144   2.378   4.312  0.3237  0.1637  0.3146
 1156SOL     OW15103   3.807   2.445  11.712  0.3345 -1.1363 -0.2827
 1156SOL    HW115104   3.808   2.534  11.749 -1.1551 -1.0983 -0.3109
 1156SOL    HW215105   3.753   2.448  11.633  0.9914 -0.7926 -0.7189
 1157SOL     OW15106   4.492   0.113   4.878  0.3948 -0.3986  0.1256
 1157SOL    HW115107   4.510   0.165   4.957 -0.3208 -1.1154  0.7712
 1157SOL    HW215108   4.575   0.069   4.861 -0.1684 -1.1511 -0.7174
 1158SOL     OW15109   3.319   1.915   6.872  0.1253 -0.8126 -0.1123
 1158SOL    HW115110   3.235   1.875   6.896 -0.4082 -1.1640 -2.5961
 1158SOL    HW215111   3.304   1.941   6.781 -1.0747  0.5456  0.4554
 1159SOL     OW15112   4.533   4.579   1.388 -0.2062  0.1183  0.6110
 1159SOL    HW115113   4.502   4.670   1.387  1.3294  0.6335  0.4026
 1159SOL    HW215114   4.593   4.584   1.462  0.0797 -1.3409  0.4655
 1160SOL     OW15115   1.283   3.503   1.556 -0.5184 -0.3104  0.0201
 1160SOL    HW115116   1.351   3.557   1.596 -0.5396  0.1807 -0.6133
 1160SOL    HW215117   1.287   3.428   1.615 -0.9572  0.4899  1.0708
 1161SOL     OW15118   4.233   2.364  15.017 -0.0203 -0.3437  0.7853
 1161SOL    HW115119   4.243   2.351  15.111  1.2774  1.2756  0.8650
 1161SOL    HW215120   4.194   2.282  14.988 -0.9409  0.4481 -0.2350
 1162SOL     OW15121   1.322   1.446   3.562 -0.1885 -0.1702 -0.6250
 1162SOL    HW115122   1.317   1.536   3.596 -0.1331 -0.7947  1.0568
 1162SOL    HW215123   1.405   1.461   3.516  0.0578  0.1708 -0.0779
 1163SOL     OW15124   3.285   3.757   7.698 -0.1250  0.3037  0.6743
 1163SOL    HW115125   3.321   3.827   7.754 -0.5690 -0.8035  2.3474
 1163SOL    HW215126   3.194   3.782   7.711 -0.8449 -1.8214 -0.3328
 1164SOL     OW15127   3.396   2.785   2.615 -0.7561  0.3962 -0.1903
 1164SOL    HW115128   3.385   2.874   2.582  1.0473  0.3023 -1.0474
 1164SOL    HW215129   3.455   2.810   2.687 -1.2250 -1.0138  0.6738
 1165SOL     OW15130   0.652   2.350   4.904  0.3891 -0.3222 -0.0739
 1165SOL    HW115131   0.699   2.347   4.988  0.0615  2.1431  0.2188
 1165SOL    HW215132   0.603   2.268   4.911 -0.9378  0.4587 -0.1764
 1166SOL     OW15133   3.133   2.299   6.011 -0.0016 -0.1314 -0.5931
 1166SOL    HW115134   3.127   2.335   6.100  1.2953 -0.2082 -0.4803
 1166SOL    HW215135   3.216   2.252   6.013 -0.1171 -0.4063 -2.4782
 1167SOL     OW15136   3.487   2.587   8.871 -0.1547 -0.0145 -0.2133
 1167SOL    HW115137   3.468   2.665   8.819  0.0485 -0.0432 -0.3309
 1167SOL    HW215138   3.500   2.625   8.958 -1.5367  1.3068 -0.5763
 1168SOL     OW15139   0.489   1.710   8.124 -0.5448  0.3717 -0.4451
 1168SOL    HW115140   0.551   1.740   8.190  1.0502 -3.3756 -0.2092
 1168SOL    HW215141   0.497   1.615   8.133  0.0567  0.3058 -1.6223
 1169SOL     OW15142   1.765   3.820   9.133 -0.4568 -0.0176  0.3230
 1169SOL    HW115143   1.783   3.850   9.222 -3.3020 -1.5695  1.4469
 1169SOL    HW215144   1.819   3.742   9.127 -0.6420 -0.1190 -0.0414
 1170SOL     OW15145   2.369   1.035  15.870  0.1429  0.0302  0.3578
 1170SOL    HW115146   2.298   1.003  15.815 -0.1520 -2.3451  2.1216
 1170SOL    HW215147   2.354   1.129  15.865 -0.3521 -0.1043 -0.5028
 1171SOL     OW15148   1.379   2.698   6.257 -0.2559 -0.1343 -0.6612
 1171SOL    HW115149   1.325   2.619   6.250  0.5962 -0.8082  0.3282
 1171SOL    HW215150   1.457   2.656   6.220  0.7041  0.7058  0.4070
 1172SOL     OW15151   3.981   3.427   4.430 -0.4814  0.3948 -0.4591
 1172SOL    HW115152   3.903   3.475   4.403 -0.3268  0.2735 -1.1193
 1172SOL    HW215153   3.946   3.340   4.450  0.7541  0.2265  0.9417
 1173SOL     OW15154   4.317   1.476  11.533 -0.2943  0.2738  0.8243
 1173SOL    HW115155   4.243   1.420  11.509 -0.6066  1.6059 -1.3724
 1173SOL    HW215156   4.303   1.465  11.627  2.7651  0.9639  1.3657
 1174SOL     OW15157   3.151   0.733   6.085  1.3741  0.5417  0.6643
 1174SOL    HW115158   3.086   0.665   6.071  1.8390  0.5288 -1.4096
 1174SOL    HW215159   3.139   0.782   6.003  0.9605 -0.3734  0.1810
 1175SOL     OW15160   0.514   2.102   2.625 -0.4604 -0.0326  0.4182
 1175SOL    HW115161   0.513   2.123   2.531  0.9922  0.3596  0.4921
 1175SOL    HW215162   0.490   2.009   2.625 -1.1946  0.1353 -3.1576
 1176SOL     OW15163   4.683   3.804   2.708  0.9327 -0.3796  0.2474
 1176SOL    HW115164   4.595   3.804   2.671  1.4934 -1.0254 -1.1044
 1176SOL    HW215165   4.730   3.774   2.630  1.5008 -0.3427  0.5718
 1177SOL     OW15166   1.527   4.103   4.024  0.4284  0.1665  0.2842
 1177SOL    HW115167   1.503   4.034   4.086  0.3534 -2.1417 -2.3377
 1177SOL    HW215168   1.558   4.044   3.955  0.3294  1.6425 -1.0050
 1178SOL     OW15169   0.270   3.261   4.587  0.6969  0.0395  0.2075
 1178SOL    HW115170   0.356   3.222   4.571 -0.6720 -1.9170 -2.2802
 1178SOL    HW215171   0.284   3.290   4.677  0.3246  0.6324  0.0700
 1179SOL     OW15172   4.466   2.481   7.635  0.0497 -0.0856  0.0257
 1179SOL    HW115173   4.546   2.532   7.620 -0.0457  0.2188  0.5484
 1179SOL    HW215174   4.501   2.417   7.697  0.1164  0.3753  0.4649
 1180SOL     OW15175   0.643   1.736  11.827 -0.0863  0.0772  0.0343
 1180SOL    HW115176   0.548   1.720  11.825 -0.1932  0.9029 -1.6624
 1180SOL    HW215177   0.670   1.699  11.911  0.7576  0.0005 -0.2684
 1181SOL     OW15178   0.729   2.456   0.563  0.6950 -1.0592 -0.2286
 1181SOL    HW115179   0.750   2.523   0.498  1.5368 -0.7069  0.4124
 1181SOL    HW215180   0.745   2.374   0.516 -1.6536 -0.8836 -1.3644
 1182SOL     OW15181   3.596   0.144   6.341 -0.0090 -0.1073 -0.3749
 1182SOL    HW115182   3.538   0.136   6.265  0.5594 -2.5472 -0.5535
 1182SOL    HW215183   3.536   0.150   6.415 -0.0503  0.8280 -0.4797
 1183SOL     OW15184   3.931   4.366   4.995 -0.4301  0.5522 -0.1588
 1183SOL    HW115185   3.925   4.453   4.954 -1.1729  0.0025 -1.2257
 1183SOL    HW215186   4.024   4.364   5.015 -0.7452 -2.3670  0.9620
 1184SOL     OW15187   1.953   2.985  16.584  0.9602 -0.1109 -0.4960
 1184SOL    HW115188   1.917   3.058  16.634 -0.2819 -0.8608 -0.2952
 1184SOL    HW215189   1.926   2.905  16.630  2.4168  0.4386  1.3219
 1185SOL     OW15190   2.442   3.447   6.094 -0.2561 -0.6804 -0.1545
 1185SOL    HW115191   2.472   3.536   6.080 -2.6745  0.0795 -0.4853
 1185SOL    HW215192   2.521   3.394   6.083  0.3759 -0.3473  2.6473
 1186SOL     OW15193   1.301   2.015   3.264 -0.0449 -0.4537 -0.4348
 1186SOL    HW115194   1.233   1.947   3.263 -0.2216 -0.2986  0.5773
 1186SOL    HW215195   1.324   2.021   3.172 -0.4011  1.6114 -0.3925
 1187SOL     OW15196   0.305   2.302  12.712  0.7825 -0.2206  0.1799
 1187SOL    HW115197   0.228   2.353  12.689  0.9679  0.1891  0.4832
 1187SOL    HW215198   0.373   2.336  12.654 -0.3352  0.4454 -0.7103
 1188SOL     OW15199   4.712   1.655   9.209  0.9597 -0.4559  0.0612
 1188SOL    HW115200   4.711   1.738   9.257 -2.3981  0.4610 -1.5786
 1188SOL    HW215201   0.027   1.682   9.132  1.6653  2.1471  1.4303
 1189SOL     OW15202   0.423   3.400   6.955 -0.0420 -0.0482 -0.0948
 1189SOL    HW115203   0.348   3.346   6.929 -0.3481  0.6578 -0.6658
 1189SOL    HW215204   0.468   3.342   7.016  0.2462  2.6183  2.2162
 1190SOL     OW15205   0.824   0.079   2.080 -0.5718 -0.0134  0.2960
 1190SOL    HW115206   0.893   0.089   2.015 -1.5717  0.4300 -0.6941
 1190SOL    HW215207   0.882   0.054   2.153 -1.7032  0.0013  1.1962
 1191SOL     OW15208   0.578   1.555   6.805 -0.1987  0.0756  0.2442
 1191SOL    HW115209   0.566   1.562   6.711 -0.5911 -1.1423  0.1977
 1191SOL    HW215210   0.543   1.640   6.832  0.3097  0.0784  0.8903
 1192SOL     OW15211   2.234   2.119   7.583 -0.1674  0.6576  0.7715
 1192SOL    HW115212   2.199   2.152   7.500 -0.0253 -1.2192 -0.0473
 1192SOL    HW215213   2.154   2.106   7.636 -0.2552  1.7407  0.9028
 1193SOL     OW15214   3.094   3.533  12.390  0.0456 -0.3163 -0.7682
 1193SOL    HW115215   3.159   3.465  12.406 -0.2653 -0.3940  0.1177
 1193SOL    HW215216   3.148   3.607  12.418  1.1802 -1.1045 -0.8556
 1194SOL     OW15217   3.476   4.420   1.243 -0.3636  0.3782  0.4794
 1194SOL    HW115218   3.507   4.505   1.211  1.5343 -0.1635  0.8799
 1194SOL    HW215219   3.464   4.378   1.157 -1.0330  0.6482  0.4410
 1195SOL     OW15220   4.635   1.998   2.767 -0.2553  0.0629 -0.7600
 1195SOL    HW115221   4.666   2.005   2.857 -0.8669 -2.9140 -0.3096
 1195SOL    HW215222   4.594   2.084   2.760  2.2988  1.5053  2.0158
 1196SOL     OW15223   4.439   3.046   3.024 -0.6636  0.2270 -0.6116
 1196SOL    HW115224   4.386   2.976   3.061  1.4334 -2.7812 -3.2765
 1196SOL    HW215225   4.436   2.998   2.941  0.3734 -1.6829  0.4595
 1197SOL     OW15226   3.317   1.567   1.900 -0.2527  0.6999 -0.7478
 1197SOL    HW115227   3.359   1.638   1.849  0.9316 -1.1046 -2.2917
 1197SOL    HW215228   3.329   1.597   1.990  0.6158 -0.2861 -0.5378
 1198SOL     OW15229   3.177   1.509   3.814 -0.2913 -0.2771  0.5177
 1198SOL    HW115230   3.243   1.578   3.806  0.3750 -0.9739 -0.1641
 1198SOL    HW215231   3.102   1.553   3.774 -0.8090 -0.0867  1.6916
 1199SOL     OW15232   4.632   1.374  15.493  0.3572 -0.2378 -0.3705
 1199SOL    HW115233   4.605   1.283  15.482  1.0104 -0.7051  1.9882
 1199SOL    HW215234   4.728   1.365  15.487  0.2178 -0.7820 -1.9393
 1200SOL     OW15235   4.049   0.113   1.879  0.4184  0.0186  0.3029
 1200SOL    HW115236   3.998   0.109   1.960 -0.7910 -3.1574 -0.6298
 1200SOL    HW215237   4.025   0.201   1.850  0.3681 -0.5050 -1.2315
 1201SOL     OW15238   2.863   4.106   6.502 -0.1324 -0.1460 -0.4074
 1201SOL    HW115239   2.826   4.057   6.576  1.1832 -3.0659 -1.6949
 1201SOL    HW215240   2.850   4.193   6.541  1.6541 -0.7992  1.6898
 1202SOL     OW15241   2.192   4.355   2.412 -0.3989 -0.2793 -0.2922
 1202SOL    HW115242   2.177   4.418   2.342 -1.2480  0.0472  0.1782
 1202SOL    HW215243   2.183   4.410   2.490  0.3402  0.3065 -0.6204
 1203SOL     OW15244   2.815   0.648   6.618  0.1660 -0.6080  0.7127
 1203SOL    HW115245   2.793   0.675   6.707 -1.7532 -1.0577  0.3739
 1203SOL    HW215246   2.910   0.640   6.626  0.1153 -0.2228  1.7293
 1204SOL     OW15247   0.515   4.614   4.500  0.2764  0.3320 -0.1871
 1204SOL    HW115248   0.531   4.524   4.474 -0.5763 -0.5096  2.2383
 1204SOL    HW215249   0.475   4.591   4.583  1.5575 -1.9208 -0.2098
 1205SOL     OW15250   3.789   3.192   5.274 -1.1942  0.1721 -0.1319
 1205SOL    HW115251   3.882   3.175   5.265 -0.5180  2.9292  1.4454
 1205SOL    HW215252   3.775   3.282   5.306  0.8850  0.1658  0.8161
 1206SOL     OW15253   2.762   0.265   3.620 -0.6441  0.1654  0.0398
 1206SOL    HW115254   2.697   0.194   3.615 -1.6554  1.3042 -3.4906
 1206SOL    HW215255   2.795   0.244   3.707 -0.0041  3.7085  0.6150
 1207SOL     OW15256   2.951   3.269   4.103 -0.4014  0.6003  1.0725
 1207SOL    HW115257   2.923   3.284   4.193 -0.0775 -3.4292  1.8145
 1207SOL    HW215258   3.037   3.238   4.131 -0.2288 -1.1816 -1.4722
 1208SOL     OW15259   1.514   1.635   2.364 -0.1739  0.3323  0.3906
 1208SOL    HW115260   1.523   1.619   2.458  0.3607  0.2564  0.3275
 1208SOL    HW215261   1.431   1.592   2.343  0.5275 -2.7490  3.8145
 1209SOL     OW15262   4.619   3.278  11.036  0.1402 -0.2015  0.7020
 1209SOL    HW115263   4.615   3.222  10.959 -3.8366 -1.2913  1.6903
 1209SOL    HW215264   4.527   3.296  11.057 -0.7124 -2.4525 -1.1348
 1210SOL     OW15265   1.428   3.229  15.323  0.0247 -0.2044  0.3933
 1210SOL    HW115266   1.505   3.204  15.374  0.3491  0.0441  0.0291
 1210SOL    HW215267   1.374   3.285  15.379 -1.0189  0.0543 -0.8743
 1211SOL     OW15268   3.163   4.100   0.977  0.1956  0.0786  0.0628
 1211SOL    HW115269   3.076   4.062   0.961  0.1678  1.1522 -2.4053
 1211SOL    HW215270   3.191   4.046   1.051 -0.1151 -0.5017 -0.2427
 1212SOL     OW15271   1.016   0.142   3.582 -0.1288 -0.0659 -0.0987
 1212SOL    HW115272   0.926   0.174   3.570 -0.0758  0.4226  0.8224
 1212SOL    HW215273   1.025   0.077   3.513  0.2345  1.0762 -1.1188
 1213SOL     OW15274   4.320   2.050   8.442  0.2215 -0.6589  0.0505
 1213SOL    HW115275   4.368   2.031   8.361 -0.1700  1.4370 -0.6675
 1213SOL    HW215276   4.316   1.961   8.478  3.7352 -1.2975 -1.1271
 1214SOL     OW15277   1.959   2.585   2.414  0.3178 -0.0718  0.1214
 1214SOL    HW115278   1.965   2.656   2.350  2.7705  1.1609  1.7345
 1214SOL    HW215279   2.041   2.576   2.462  0.7624 -1.2032 -0.8616
 1215SOL     OW15280   0.233   0.623   1.127  0.0400 -0.7409 -0.3084
 1215SOL    HW115281   0.289   0.625   1.204 -1.6889  1.7505  0.8656
 1215SOL    HW215282   0.277   0.680   1.065 -0.8584  0.3026  0.0060
 1216SOL     OW15283   2.351   0.925   4.972 -0.4517  0.2856  0.0941
 1216SOL    HW115284   2.285   0.946   5.038  1.4348 -0.4657  2.2109
 1216SOL    HW215285   2.427   0.981   4.988  1.0043 -1.1632 -1.6951
 1217SOL     OW15286   3.188   3.726   1.979 -0.0826  0.0156 -0.1518
 1217SOL    HW115287   3.282   3.735   1.997  0.4287 -5.6524 -0.0746
 1217SOL    HW215288   3.186   3.695   1.889  2.0630  0.2272 -0.2826
 1218SOL     OW15289   0.077   3.480  10.884 -0.1140 -0.0260 -0.4275
 1218SOL    HW115290   0.040   3.394  10.905 -1.5404  1.2811  2.4818
 1218SOL    HW215291   0.052   3.520  10.968 -1.3296  0.1098 -0.8540
 1219SOL     OW15292   3.347   3.974   6.279  0.3596  0.6279 -0.0640
 1219SOL    HW115293   3.312   3.958   6.367 -0.6690 -1.9182 -0.9279
 1219SOL    HW215294   3.360   3.882   6.256  0.2247  0.5038  0.3480
 1220SOL     OW15295   3.518   4.586  17.470 -0.3492 -0.1823  0.0142
 1220SOL    HW115296   3.482   4.511  17.518 -2.5913  1.6394  1.1647
 1220SOL    HW215297   3.530   4.652  17.538  0.8851 -0.6370  0.2248
 1221SOL     OW15298   0.975   3.006  17.425  0.4759  0.0991 -0.2621
 1221SOL    HW115299   0.984   2.944  17.497  1.8389  1.4510  0.7271
 1221SOL    HW215300   1.048   3.068  17.429  2.5999 -2.4544  0.4212
 1222SOL     OW15301   4.238   4.239   4.577  0.1561 -0.2539 -0.0146
 1222SOL    HW115302   4.173   4.309   4.567 -1.0873 -1.3970 -0.0077
 1222SOL    HW215303   4.249   4.238   4.672 -0.2001  1.8522  0.0549
 1223SOL     OW15304   4.596   2.925   8.885 -0.4947  0.0807 -0.0913
 1223SOL    HW115305   4.505   2.906   8.906 -1.2565 -1.1733 -4.6144
 1223SOL    HW215306   4.630   2.976   8.959  2.7697 -0.7268 -1.0079
 1224SOL     OW15307   3.038   2.614   8.791 -0.0406 -0.0574  0.9848
 1224SOL    HW115308   3.103   2.679   8.816 -0.0358 -0.2723  1.5358
 1224SOL    HW215309   3.011   2.638   8.702  0.4837 -0.4424  0.7172
 1225SOL     OW15310   1.453   1.701   1.557  0.2103 -0.8246 -0.0488
 1225SOL    HW115311   1.514   1.651   1.610  0.6078 -0.8253 -0.5111
 1225SOL    HW215312   1.452   1.785   1.603 -1.2803  0.5204 -2.4766
 1226SOL     OW15313   3.185   2.550   6.852 -0.7392  0.0613  0.7109
 1226SOL    HW115314   3.137   2.523   6.931  2.5127 -0.1137  2.6226
 1226SOL    HW215315   3.268   2.577   6.891  0.0848  0.2181 -1.1581
 1227SOL     OW15316   3.874   3.900   0.445 -0.1054  0.8754 -0.4685
 1227SOL    HW115317   3.859   3.814   0.407  1.7262  0.3952 -0.1121
 1227SOL    HW215318   3.800   3.923   0.501  0.6488  2.3639 -0.0737
 1228SOL     OW15319   1.521   0.015  17.682 -0.4333  0.0290  0.6285
 1228SOL    HW115320   1.547   0.092  17.733  0.5396  0.1502 -0.0548
 1228SOL    HW215321   1.547   0.036  17.593  0.3204 -0.8668  0.6363
 1229SOL     OW15322   2.984   4.141   1.244  0.5087 -0.4577 -0.5739
 1229SOL    HW115323   2.986   4.060   1.193 -0.0359 -1.2173  0.6065
 1229SOL    HW215324   3.049   4.125   1.313 -1.1159 -2.6098  0.4825
 1230SOL     OW15325   1.856   4.454   5.142  0.5064  0.3982  0.6846
 1230SOL    HW115326   1.760   4.452   5.137  0.4323 -0.0766  2.4620
 1230SOL    HW215327   1.881   4.426   5.054 -2.6081  2.4191 -0.8580
 1231SOL     OW15328   1.403   4.297   5.461  0.2017 -1.0055 -0.1029
 1231SOL    HW115329   1.329   4.326   5.408 -2.0255 -1.2888  2.8610
 1231SOL    HW215330   1.427   4.208   5.435 -1.0632 -1.4251  0.1728
 1232SOL     OW15331   2.404   0.921  12.976  0.3262  0.2517 -0.4644
 1232SOL    HW115332   2.460   0.947  13.049 -0.5374  0.2163  0.2053
 1232SOL    HW215333   2.406   1.000  12.922  2.0661 -1.5675 -3.0692
 1233SOL     OW15334   3.195   1.257  14.794  0.3270  0.4878 -0.2411
 1233SOL    HW115335   3.108   1.265  14.834  0.8305  0.3197  0.8844
 1233SOL    HW215336   3.211   1.162  14.790 -0.0561  0.4890 -1.6389
 1234SOL     OW15337   2.673   4.625  11.723  0.0474 -0.1637 -0.5852
 1234SOL    HW115338   2.755   4.674  11.716  0.0764 -0.3361 -1.5539
 1234SOL    HW215339   2.701   4.543  11.681 -0.5950 -1.6503  1.9086
 1235SOL     OW15340   3.956   0.218  15.436  0.6007 -0.1826  0.2767
 1235SOL    HW115341   3.889   0.158  15.466  0.9389 -0.6756  0.0431
 1235SOL    HW215342   3.911   0.241  15.354 -0.1492  0.8488  0.9760
 1236SOL     OW15343   0.455   2.957  12.883 -0.3165  0.3861  0.2066
 1236SOL    HW115344   0.534   3.011  12.885 -0.0948  0.0801 -0.3969
 1236SOL    HW215345   0.432   2.950  12.976 -0.3222  2.6317  0.3680
 1237SOL     OW15346   3.915   2.664   6.194  0.5876 -0.2071  0.4329
 1237SOL    HW115347   3.893   2.577   6.160  0.5527  0.0145 -0.1151
 1237SOL    HW215348   3.849   2.664   6.263  0.1733  1.5681  0.0434
 1238SOL     OW15349   4.718   1.061   8.956  0.1219 -0.1368  0.4550
 1238SOL    HW115350   0.056   1.096   9.007  1.5076 -0.7965 -1.0801
 1238SOL    HW215351   4.692   0.995   9.021  0.4323  0.3224  1.0425
 1239SOL     OW15352   4.160   2.986   8.053 -0.5464 -0.4186 -0.0740
 1239SOL    HW115353   4.224   2.939   8.000  2.4993 -0.0215  3.2384
 1239SOL    HW215354   4.160   3.072   8.012 -1.0768 -1.1653 -1.6502
 1240SOL     OW15355   1.225   4.007   8.740  0.6147  0.1136 -0.1372
 1240SOL    HW115356   1.246   4.096   8.769  1.2463 -0.6775  1.8402
 1240SOL    HW215357   1.305   3.982   8.694  1.1075 -0.8638  1.2145
 1241SOL     OW15358   0.032   1.513   3.186  0.0572  0.0637 -0.3894
 1241SOL    HW115359   0.095   1.447   3.159 -0.1983 -0.7486  0.9848
 1241SOL    HW215360   4.723   1.466   3.257 -0.9048  0.8488 -0.4600
 1242SOL     OW15361   0.461   2.856   2.147 -0.0668  0.1900  0.2394
 1242SOL    HW115362   0.547   2.815   2.139  1.3514  3.3072 -0.4676
 1242SOL    HW215363   0.414   2.773   2.150 -0.0006  0.0925 -1.3354
 1243SOL     OW15364   4.270   0.669  15.979 -0.6938 -0.3122  0.2235
 1243SOL    HW115365   4.272   0.762  16.001 -2.7780 -0.5941  1.6487
 1243SOL    HW215366   4.253   0.683  15.885  1.1971 -2.2328 -0.3928
 1244SOL     OW15367   0.011   2.717   2.001  0.5324  0.3205 -0.1577
 1244SOL    HW115368   0.066   2.795   2.000  0.8776  0.0766 -0.0217
 1244SOL    HW215369   0.033   2.672   1.919  0.4514  0.0885 -0.0523
 1245SOL     OW15370   0.602   2.901   4.309 -0.4066  0.0144  0.3146
 1245SOL    HW115371   0.634   2.840   4.376  0.9927  2.2154  1.6753
 1245SOL    HW215372   0.683   2.949   4.288 -0.1587  0.3003  1.9304
 1246SOL     OW15373   2.544   2.275   9.283  0.1772  0.3353 -0.3044
 1246SOL    HW115374   2.561   2.367   9.264 -0.1403  0.3328 -0.5930
 1246SOL    HW215375   2.631   2.236   9.284  0.1842  0.3654  0.2832
 1247SOL     OW15376   3.205   4.062   3.812 -0.2547  0.0051 -0.2033
 1247SOL    HW115377   3.299   4.049   3.825 -0.4385 -0.5787  0.5036
 1247SOL    HW215378   3.219   4.098   3.724 -3.0949  2.2013  0.2533
 1248SOL     OW15379   2.284   0.276  17.466 -0.2162 -0.6013 -0.2634
 1248SOL    HW115380   2.354   0.304  17.407 -0.8755 -1.1608 -1.3067
 1248SOL    HW215381   2.203   0.292  17.417  0.3992  0.5227 -0.9072
 1249SOL     OW15382   3.097   1.656  15.319  0.2827 -0.3593 -0.0397
 1249SOL    HW115383   3.092   1.602  15.397 -2.2421 -2.0847 -1.4078
 1249SOL    HW215384   3.114   1.593  15.249 -0.6030  0.5949 -1.1197
 1250SOL     OW15385   2.018   1.481   7.286 -0.0381  0.6351  0.1208
 1250SOL    HW115386   1.925   1.504   7.273  0.2777  1.6762 -0.3288
 1250SOL    HW215387   2.050   1.505   7.199 -1.2558  2.6743  0.2194
 1251SOL     OW15388   2.854   3.361   5.523 -0.0580 -0.3461 -0.1968
 1251SOL    HW115389   2.820   3.306   5.453  1.3262  0.2482 -1.3256
 1251SOL    HW215390   2.788   3.360   5.593  0.0289 -0.1021 -0.1112
 1252SOL     OW15391   4.356   2.304   7.195  0.7594  0.4001  0.2811
 1252SOL    HW115392   4.401   2.233   7.240  0.6885 -0.7062 -1.3859
 1252SOL    HW215393   4.397   2.383   7.232  1.0382  1.5585 -2.4917
 1253SOL     OW15394   2.710   2.877   4.641 -0.1437  0.5186 -0.6989
 1253SOL    HW115395   2.629   2.851   4.597  0.3938 -1.1978 -0.6887
 1253SOL    HW215396   2.781   2.846   4.585  0.3041  3.2473 -1.6296
 1254SOL     OW15397   1.128   3.255  11.917 -0.4460  0.2802 -0.1375
 1254SOL    HW115398   1.223   3.251  11.902 -0.2965  3.5002 -0.0749
 1254SOL    HW215399   1.115   3.180  11.976 -1.5459  0.5607 -0.0360
 1255SOL     OW15400   3.217   0.755   6.505 -0.1836  0.6507  0.2330
 1255SOL    HW115401   3.242   0.820   6.439  0.4537  1.0441  0.8630
 1255SOL    HW215402   3.132   0.729   6.470  0.0433  0.1056  0.0889
 1256SOL     OW15403   2.978   4.077   1.966  1.3559  0.6787 -0.0548
 1256SOL    HW115404   2.955   3.994   1.926  0.7516 -0.2153  2.1752
 1256SOL    HW215405   2.895   4.113   1.997  0.2689 -1.8217 -0.1401
 1257SOL     OW15406   1.932   2.053   2.628 -0.6280  0.0153 -0.0666
 1257SOL    HW115407   1.993   2.108   2.579 -1.0211  0.2161 -0.3329
 1257SOL    HW215408   1.871   2.028   2.559 -0.6870 -0.0111 -0.0051
 1258SOL     OW15409   1.335   1.864  14.708 -0.2114  0.2561  0.1322
 1258SOL    HW115410   1.287   1.862  14.790 -1.9601  1.5010 -0.8427
 1258SOL    HW215411   1.331   1.958  14.686 -0.6236 -0.0672 -1.2099
 1259SOL     OW15412   3.632   4.161  15.384  0.2367  0.4831  0.0606
 1259SOL    HW115413   3.544   4.124  15.374  0.7019 -0.4799 -0.4883
 1259SOL    HW215414   3.677   4.079  15.405 -0.3605 -0.1194 -1.0382
 1260SOL     OW15415   1.659   1.194   9.517 -0.4469  0.4556  0.0237
 1260SOL    HW115416   1.701   1.216   9.600  2.0078 -0.5571 -0.9595
 1260SOL    HW215417   1.657   1.276   9.469 -2.4216 -0.5061 -1.5329
 1261SOL     OW15418   2.432   4.435   2.737  1.1128 -0.1017  0.1628
 1261SOL    HW115419   2.499   4.395   2.681  1.4102  1.2145 -0.4097
 1261SOL    HW215420   2.357   4.437   2.679  1.7951 -1.0868 -0.7570
 1262SOL     OW15421   0.860   3.510   9.457 -0.1165  0.1989  0.2172
 1262SOL    HW115422   0.793   3.569   9.421  0.8731  1.4547  0.4172
 1262SOL    HW215423   0.930   3.505   9.392 -0.5919 -0.7720 -0.2214
 1263SOL     OW15424   2.293   4.675   0.092  0.2382 -0.2297  0.3917
 1263SOL    HW115425   2.382   4.654   0.117  0.1415 -1.8063 -0.6285
 1263SOL    HW215426   2.310   4.719   0.008 -1.5001  0.3151  0.3174
 1264SOL     OW15427   4.087   2.333   6.874 -0.0265 -0.4484  0.4780
 1264SOL    HW115428   4.071   2.317   6.967 -1.6653  1.1098  0.4879
 1264SOL    HW215429   4.100   2.428   6.882 -0.8727 -0.2338 -0.6517
 1265SOL     OW15430   1.383   3.008   9.213 -0.3420  0.1658 -0.5788
 1265SOL    HW115431   1.347   3.086   9.172  0.5841 -0.0301 -1.7821
 1265SOL    HW215432   1.423   2.967   9.136  0.4305 -0.9958  0.4403
 1266SOL     OW15433   0.789   0.856   4.943  0.2932 -0.1499  0.1688
 1266SOL    HW115434   0.742   0.916   5.001 -2.6304 -3.0997  0.8311
 1266SOL    HW215435   0.768   0.889   4.856  0.0727  2.5022  1.2458
 1267SOL     OW15436   3.962   0.298   2.531  0.3266 -0.4022 -0.3556
 1267SOL    HW115437   3.875   0.325   2.562  0.2604 -1.2028  0.1508
 1267SOL    HW215438   4.023   0.352   2.582 -1.4446  1.2653  0.0239
 1268SOL     OW15439   3.178   0.817  11.738 -0.2506  0.6514 -0.2976
 1268SOL    HW115440   3.186   0.864  11.821  2.7129 -1.7783  0.7810
 1268SOL    HW215441   3.084   0.810  11.721  0.1033  0.8282 -2.4195
 1269SOL     OW15442   1.379   1.575   6.745 -0.2107 -0.0043 -0.1830
 1269SOL    HW115443   1.367   1.626   6.664  0.2901 -0.9707 -0.8621
 1269SOL    HW215444   1.292   1.582   6.784  0.3492 -0.2392  1.1032
 1270SOL     OW15445   0.057   2.795   2.275 -0.4529  0.1463  0.0560
 1270SOL    HW115446   0.004   2.797   2.195 -1.7052  2.6367  0.9282
 1270SOL    HW215447   0.110   2.870   2.248  0.0066  0.2493  1.2532
 1271SOL     OW15448   1.106   4.126   7.565 -0.0069 -0.1987 -0.2876
 1271SOL    HW115449   1.147   4.108   7.649 -0.2776  0.3640 -0.0329
 1271SOL    HW215450   1.179   4.153   7.510 -1.1816  0.2676 -1.6190
 1272SOL     OW15451   0.914   4.648   5.544 -0.2481 -0.5482 -0.3003
 1272SOL    HW115452   0.955   4.721   5.590 -1.4276  1.1122 -1.8969
 1272SOL    HW215453   0.832   4.643   5.594  0.1971 -0.9591  0.3895
 1273SOL     OW15454   4.057   1.921   8.523  0.0635 -0.1026  0.1904
 1273SOL    HW115455   4.140   1.877   8.538 -0.3954 -0.4819  1.6463
 1273SOL    HW215456   4.038   1.917   8.429 -0.4484 -1.2367  0.3478
 1274SOL     OW15457   1.570   0.627   8.052  0.1192  0.0257  0.0914
 1274SOL    HW115458   1.534   0.716   8.057 -1.7615 -0.6455 -1.2935
 1274SOL    HW215459   1.494   0.578   8.083  1.2086 -0.8698  1.3205
 1275SOL     OW15460   2.678   3.324   5.797  0.5449 -0.1310 -0.0806
 1275SOL    HW115461   2.587   3.353   5.801  0.9390  1.2935 -1.5251
 1275SOL    HW215462   2.709   3.294   5.882  1.0820 -0.6433 -0.4554
 1276SOL     OW15463   2.972   0.220   5.518 -0.3422  0.4316 -0.4649
 1276SOL    HW115464   3.017   0.192   5.439  0.7611  0.5671  0.1110
 1276SOL    HW215465   2.897   0.161   5.530  0.2666 -0.1928  0.2804
 1277SOL     OW15466   0.012   3.758  15.220  0.2046  0.0417  0.5959
 1277SOL    HW115467   0.095   3.748  15.175 -0.9301 -2.0801 -1.0369
 1277SOL    HW215468   4.698   3.810  15.156  1.7869 -0.4638 -1.0259
 1278SOL     OW15469   3.999   3.608  14.982  0.3822  0.2151 -0.5011
 1278SOL    HW115470   3.923   3.567  14.940 -0.4802  1.1162  0.1939
 1278SOL    HW215471   4.064   3.540  14.963 -2.2531 -2.8833  1.6149
 1279SOL     OW15472   3.460   3.382   3.041 -0.5989  0.0403 -0.5101
 1279SOL    HW115473   3.392   3.338   2.991 -0.6701  0.7216 -1.0100
 1279SOL    HW215474   3.436   3.474   3.054 -0.7923 -0.3659  1.9687
 1280SOL     OW15475   0.039   4.196  15.282 -0.5971  0.5943  0.1104
 1280SOL    HW115476   4.697   4.139  15.279  0.0922 -0.4115  1.1680
 1280SOL    HW215477   0.021   4.252  15.207 -0.2296  1.2557  0.5174
 1281SOL     OW15478   4.698   2.362  17.140 -0.0503 -0.1307  0.0868
 1281SOL    HW115479   4.629   2.362  17.206 -0.3196 -0.6353 -0.1993
 1281SOL    HW215480   4.675   2.285  17.089  0.3932  0.1330 -0.5179
 1282SOL     OW15481   1.273   1.729   3.530 -0.4232 -0.2317 -0.1009
 1282SOL    HW115482   1.246   1.720   3.439  1.7396  0.7701 -0.8530
 1282SOL    HW215483   1.365   1.752   3.515 -0.3260  0.2310  1.2439
 1283SOL     OW15484   4.495   1.794  13.315  0.6502  0.1184 -0.0017
 1283SOL    HW115485   4.509   1.829  13.227 -1.5237 -0.8811 -0.7247
 1283SOL    HW215486   4.493   1.701  13.297 -2.0599  0.4384 -1.3521
 1284SOL     OW15487   2.297   0.769   4.280 -0.0453  1.0589  0.5385
 1284SOL    HW115488   2.330   0.786   4.369 -0.5861 -1.1538  1.1834
 1284SOL    HW215489   2.250   0.685   4.283 -0.2744  1.2283  1.7727
 1285SOL     OW15490   1.024   3.793   9.258 -0.1006 -0.2051 -0.6003
 1285SOL    HW115491   0.999   3.828   9.172  0.6644  0.2668 -0.6327
 1285SOL    HW215492   1.084   3.724   9.228  4.7847  1.5705  5.0680
 1286SOL     OW15493   0.135   1.400  12.912  0.3037 -0.2949 -0.2118
 1286SOL    HW115494   0.108   1.309  12.900 -0.4427 -0.0807 -0.2090
 1286SOL    HW215495   0.096   1.411  12.999  0.7967  0.5950 -0.1031
 1287SOL     OW15496   0.185   0.467   4.863 -0.0542 -0.3142  0.4201
 1287SOL    HW115497   0.140   0.430   4.940 -2.5458 -1.3100 -1.5096
 1287SOL    HW215498   0.234   0.391   4.833 -2.1581 -1.3004 -0.5455
 1288SOL     OW15499   1.515   4.405   3.357  0.1207  0.4201  0.3310
 1288SOL    HW115500   1.587   4.467   3.359 -0.2330  0.9104 -2.2964
 1288SOL    HW215501   1.514   4.377   3.266  0.3187 -0.8935  0.7245
 1289SOL     OW15502   3.073   3.070   7.065  0.4612  0.3401 -0.0193
 1289SOL    HW115503   3.058   2.986   7.021 -0.2560  1.2441 -1.4816
 1289SOL    HW215504   3.168   3.073   7.070  0.3514  1.0571  1.5539
 1290SOL     OW15505   4.443   3.968   9.108  0.1739 -0.6043 -0.1264
 1290SOL    HW115506   4.368   3.994   9.161  0.9315 -0.3096  0.8061
 1290SOL    HW215507   4.412   3.877   9.104 -0.1610 -0.4583 -0.8482
 1291SOL     OW15508   2.643   3.878   1.539  0.1812 -0.0415  0.1045
 1291SOL    HW115509   2.672   3.968   1.526  0.2892 -0.0903  0.0123
 1291SOL    HW215510   2.727   3.841   1.512 -1.2886 -3.6719  0.4834
 1292SOL     OW15511   3.577   0.447   8.163 -0.3960 -0.3551  0.2061
 1292SOL    HW115512   3.662   0.409   8.183  0.6456  2.0200  0.2397
 1292SOL    HW215513   3.595   0.539   8.185 -1.6418 -0.8824  3.4777
 1293SOL     OW15514   3.457   2.383   3.331  0.2240 -0.1498  0.0712
 1293SOL    HW115515   3.366   2.395   3.302 -0.0927 -1.9522  0.3351
 1293SOL    HW215516   3.449   2.395   3.425  1.5652  1.4769 -0.0096
 1294SOL     OW15517   3.441   4.506  10.775  0.1172 -0.1569  0.4855
 1294SOL    HW115518   3.394   4.489  10.693 -0.8748  0.8304  0.8655
 1294SOL    HW215519   3.476   4.595  10.772 -1.7237  0.5508  0.3346
 1295SOL     OW15520   0.940   3.730   1.831 -0.5721  0.3391  0.0905
 1295SOL    HW115521   0.904   3.779   1.756 -0.5548 -0.6597 -0.5650
 1295SOL    HW215522   0.874   3.664   1.851 -1.0550  0.9671  0.5799
 1296SOL     OW15523   3.742   3.691   6.348  0.3493  0.1166  0.0896
 1296SOL    HW115524   3.768   3.599   6.354  0.0354  0.0545  0.4515
 1296SOL    HW215525   3.758   3.705   6.254  2.6264  1.4795  0.6660
 1297SOL     OW15526   2.533   2.197   3.620 -0.1177  0.1625  0.0296
 1297SOL    HW115527   2.529   2.291   3.639 -0.4135  0.0786  0.3835
 1297SOL    HW215528   2.476   2.165   3.691  1.3678  0.5124  1.3758
 1298SOL     OW15529   4.559   4.602   7.658  0.1752 -0.4193  0.1220
 1298SOL    HW115530   4.583   4.653   7.581 -1.9284 -1.2500 -1.0936
 1298SOL    HW215531   4.466   4.583   7.647 -0.4975  3.9114 -1.6151
 1299SOL     OW15532   2.439   3.834   8.322 -0.4316  0.6921  0.6730
 1299SOL    HW115533   2.448   3.885   8.403 -0.8511 -0.7915  1.6626
 1299SOL    HW215534   2.344   3.834   8.306  0.0584  2.3825 -2.1773
 1300SOL     OW15535   4.331   3.503   9.881 -0.0877  0.5389  0.0242
 1300SOL    HW115536   4.270   3.437   9.847  1.2676 -1.5500  1.6730
 1300SOL    HW215537   4.301   3.508   9.971 -1.1154  1.1956 -0.3528
 1301SOL     OW15538   4.135   1.375   2.671  0.4927 -0.2926  0.2234
 1301SOL    HW115539   4.155   1.381   2.765  0.8481 -0.3527  0.1542
 1301SOL    HW215540   4.125   1.469   2.657 -1.3381 -0.6639 -0.8514
 1302SOL     OW15541   2.312   3.787   1.495 -0.4349 -0.3028  0.2893
 1302SOL    HW115542   2.217   3.794   1.507 -0.6006 -0.2109 -1.0874
 1302SOL    HW215543   2.317   3.876   1.461 -0.8858 -1.2225 -2.1547
 1303SOL     OW15544   1.017   1.466   5.748  0.1711 -0.0305  0.0484
 1303SOL    HW115545   1.098   1.504   5.781  1.6962 -2.3829 -0.9837
 1303SOL    HW215546   0.966   1.459   5.828 -0.2142 -0.0552 -0.1994
 1304SOL     OW15547   0.547   4.601  10.398  0.1273  0.2948  0.1283
 1304SOL    HW115548   0.612   4.640  10.455  0.4086 -0.4315  0.3105
 1304SOL    HW215549   0.503   4.678  10.362 -2.3638 -0.4172  1.6827
 1305SOL     OW15550   4.683   1.688   3.810  0.6737  0.5642  0.0527
 1305SOL    HW115551   4.660   1.765   3.758 -1.2753  0.1854  0.3580
 1305SOL    HW215552   4.725   1.629   3.747  1.1382 -1.2809  2.1112
 1306SOL     OW15553   0.517   2.075   7.013  0.5689  0.0077  0.1715
 1306SOL    HW115554   0.499   2.146   6.952 -0.0405 -0.6445 -0.4142
 1306SOL    HW215555   0.431   2.032   7.018  0.4930 -0.1269 -2.7535
 1307SOL     OW15556   1.204   4.559   8.938 -0.4446 -0.6040  0.2153
 1307SOL    HW115557   1.113   4.585   8.955 -0.1177  2.4655 -2.7621
 1307SOL    HW215558   1.236   4.529   9.023  1.0688  0.9809  0.1934
 1308SOL     OW15559   2.516   1.452   7.511 -0.4679 -0.2395  0.2728
 1308SOL    HW115560   2.528   1.514   7.583 -1.7440 -0.1242  0.3926
 1308SOL    HW215561   2.451   1.509   7.470 -0.6406  0.5598  1.6665
 1309SOL     OW15562   4.502   1.479   1.099 -0.5276  0.0889 -0.7596
 1309SOL    HW115563   4.526   1.397   1.142 -3.3862 -0.0276  0.6125
 1309SOL    HW215564   4.577   1.502   1.044 -0.1404  1.8714  0.5355
 1310SOL     OW15565   4.094   1.765   7.353  0.9788  0.3196 -0.1277
 1310SOL    HW115566   4.142   1.703   7.406 -0.2551 -0.5854 -0.0762
 1310SOL    HW215567   4.066   1.824   7.423 -0.0451 -0.2811 -0.0322
 1311SOL     OW15568   4.505   2.645   3.106 -0.7356  0.1370 -0.2830
 1311SOL    HW115569   4.529   2.692   3.185 -1.9458 -1.8137  1.2341
 1311SOL    HW215570   4.421   2.683   3.082 -1.3984 -0.4604  1.0880
 1312SOL     OW15571   3.643   0.716  10.780  0.5913  0.6308  0.4201
 1312SOL    HW115572   3.713   0.780  10.793  1.5708 -0.3252 -0.1008
 1312SOL    HW215573   3.617   0.713  10.872 -0.6117 -0.2075  0.0582
 1313SOL     OW15574   0.151   1.854   7.396  0.1558 -0.3941 -0.0353
 1313SOL    HW115575   0.120   1.777   7.444 -1.8522  0.9053  0.7783
 1313SOL    HW215576   0.097   1.868   7.319  1.3152 -0.9889 -0.9467
 1314SOL     OW15577   4.554   3.670   9.844  0.1855 -0.0345  0.5267
 1314SOL    HW115578   4.488   3.601   9.852  1.0114 -1.0081 -0.9338
 1314SOL    HW215579   4.616   3.649   9.914 -1.3803  0.3236  2.0036
 1315SOL     OW15580   2.790   3.050   3.341  0.3985 -0.3396 -0.8295
 1315SOL    HW115581   2.846   2.991   3.391 -1.5180 -1.5013 -0.0651
 1315SOL    HW215582   2.772   2.992   3.267  1.6158 -2.4050  0.5111
 1316SOL     OW15583   1.300   3.964  14.029  0.1167 -0.3991 -0.9412
 1316SOL    HW115584   1.279   4.037  13.970  0.2466  1.2893  1.0706
 1316SOL    HW215585   1.343   4.006  14.104 -3.6371  1.2971  0.3018
 1317SOL     OW15586   2.189   0.762   7.217 -0.3541 -0.6020  0.5678
 1317SOL    HW115587   2.239   0.706   7.276 -1.4398 -1.4687  0.6478
 1317SOL    HW215588   2.261   0.801   7.166 -2.3080  2.2045 -0.0324
 1318SOL     OW15589   0.467   1.393   8.051  0.0337 -0.2449 -0.2301
 1318SOL    HW115590   0.539   1.374   8.112  0.1927  0.1862 -0.2837
 1318SOL    HW215591   0.490   1.326   7.987  0.0682 -0.1842 -0.2802
 1319SOL     OW15592   3.734   4.233   4.370  0.3727 -0.2067 -0.5022
 1319SOL    HW115593   3.717   4.281   4.451  1.2092  0.9321 -0.9999
 1319SOL    HW215594   3.679   4.158   4.393 -0.9051  0.7004 -0.6034
 1320SOL     OW15595   1.294   2.946   6.810 -0.5508  0.2852  0.2947
 1320SOL    HW115596   1.256   2.887   6.875  0.3592 -2.9270 -2.0695
 1320SOL    HW215597   1.284   3.033   6.848 -0.7748  0.2736  0.2593
 1321SOL     OW15598   3.251   0.408   7.210  0.2195 -0.1736  0.5025
 1321SOL    HW115599   3.212   0.487   7.249 -0.5598 -0.7034  0.7936
 1321SOL    HW215600   3.182   0.397   7.145  0.2420 -1.4961  0.7023
 1322SOL     OW15601   4.208   2.972   4.929 -0.3541 -0.3148 -0.1463
 1322SOL    HW115602   4.244   3.017   4.853 -0.5221  3.1349  1.7917
 1322SOL    HW215603   4.291   2.935   4.958 -0.0994  0.8573  0.6268
 1323SOL     OW15604   4.186   3.059   6.398 -0.5098 -0.0736 -0.0820
 1323SOL    HW115605   4.114   3.011   6.355 -1.9673  0.2691  1.9699
 1323SOL    HW215606   4.154   3.052   6.488  1.9788  1.5405  0.8965
 1324SOL     OW15607   1.619   2.572   7.601  0.3195 -0.1970 -0.3823
 1324SOL    HW115608   1.655   2.505   7.659  2.5194  1.7898  0.5401
 1324SOL    HW215609   1.554   2.623   7.649  1.0157  0.8686 -0.5751
 1325SOL     OW15610   3.256   2.424  14.889 -0.1322  0.0312 -0.0918
 1325SOL    HW115611   3.182   2.363  14.886  0.0916 -0.2632  0.4830
 1325SOL    HW215612   3.202   2.501  14.909  2.1494  1.7745 -0.5906
 1326SOL     OW15613   2.332   2.903   6.979  0.8217 -0.5528  0.0262
 1326SOL    HW115614   2.392   2.942   6.915  0.7261 -0.5491 -0.0595
 1326SOL    HW215615   2.367   2.814   6.975  1.3197 -0.3521 -0.0868
 1327SOL     OW15616   2.231   3.113   3.931  0.1365  0.0143  0.2087
 1327SOL    HW115617   2.207   3.160   4.010  2.1046  2.5566 -0.7102
 1327SOL    HW215618   2.321   3.085   3.949  0.0718 -2.0941 -2.6397
 1328SOL     OW15619   3.700   2.526   2.246 -0.2921  0.6159 -0.4847
 1328SOL    HW115620   3.764   2.493   2.309 -0.5206 -0.2319 -0.6975
 1328SOL    HW215621   3.676   2.610   2.287 -1.4441  0.7513 -1.4471
 1329SOL     OW15622   4.246   0.481   6.506  0.2301 -0.2635  0.4491
 1329SOL    HW115623   4.288   0.565   6.491 -1.2481  0.4244  0.1502
 1329SOL    HW215624   4.155   0.510   6.518  0.0712 -0.5211 -0.1075
 1330SOL     OW15625   0.504   2.630   2.635  0.0410 -0.2348 -0.1150
 1330SOL    HW115626   0.486   2.684   2.712 -2.4501  1.7375 -2.1018
 1330SOL    HW215627   0.433   2.566   2.640  0.7353 -0.7939  2.8758
 1331SOL     OW15628   3.641   2.634   5.187 -0.2680 -0.5530 -0.0767
 1331SOL    HW115629   3.664   2.677   5.105 -0.9100 -0.5200 -0.2396
 1331SOL    HW215630   3.716   2.576   5.201 -1.9767 -2.8624 -0.4175
 1332SOL     OW15631   3.026   0.904   7.400 -0.0341 -0.0450  0.1408
 1332SOL    HW115632   2.939   0.944   7.403 -1.4001 -2.7920 -2.0822
 1332SOL    HW215633   3.074   0.980   7.432  0.3989 -0.3131  0.1250
 1333SOL     OW15634   1.715   3.639   9.551  0.0459 -0.0356 -0.1250
 1333SOL    HW115635   1.801   3.663   9.587  0.0944 -0.1762 -0.1449
 1333SOL    HW215636   1.702   3.550   9.584  3.9504 -0.7937 -0.5541
 1334SOL     OW15637   4.162   4.176   0.445 -0.2296  0.1983 -0.6088
 1334SOL    HW115638   4.111   4.243   0.401 -1.1715  0.1526  0.4093
 1334SOL    HW215639   4.255   4.191   0.429  0.1658 -1.6294 -0.1188
 1335SOL     OW15640   4.730   1.371   5.905 -0.3928 -0.9390  0.2421
 1335SOL    HW115641   4.658   1.407   5.852 -0.1658 -1.3837 -0.3684
 1335SOL    HW215642   4.680   1.362   5.986 -0.0397  1.4355  0.7015
 1336SOL     OW15643   2.390   0.240   7.423  0.2770  0.7154 -0.3790
 1336SOL    HW115644   2.405   0.310   7.488 -1.5370  1.1840 -0.4649
 1336SOL    HW215645   2.460   0.180   7.447  1.0204  2.0110  0.7514
 1337SOL     OW15646   1.324   3.639   8.079  0.3700  0.0915 -0.1716
 1337SOL    HW115647   1.319   3.559   8.131 -0.4671  0.1525 -0.1495
 1337SOL    HW215648   1.409   3.635   8.035  1.0277  1.4496  0.9729
 1338SOL     OW15649   1.449   1.432  14.724 -0.2531  0.2751 -0.4037
 1338SOL    HW115650   1.487   1.516  14.698  0.9659  0.0860  0.7670
 1338SOL    HW215651   1.510   1.373  14.679 -1.6050  0.1037 -2.0182
 1339SOL     OW15652   0.413   2.217   7.587  0.4111 -0.2777  0.0511
 1339SOL    HW115653   0.428   2.250   7.675 -0.1061  2.7775 -1.0010
 1339SOL    HW215654   0.482   2.151   7.586 -0.1337 -0.8661  0.7103
 1340SOL     OW15655   0.594   3.098   2.376  0.4438  0.0071  0.1879
 1340SOL    HW115656   0.552   3.053   2.450  1.7944 -0.8619  0.4318
 1340SOL    HW215657   0.642   3.025   2.337 -0.4859  0.9572 -2.6708
 1341SOL     OW15658   0.519   2.877   4.902 -0.0737  0.1384  0.1257
 1341SOL    HW115659   0.550   2.787   4.914 -0.6016  0.3454  3.1003
 1341SOL    HW215660   0.512   2.901   4.995 -0.3271 -2.5685  0.8170
 1342SOL     OW15661   2.293   4.524   0.391  0.3068 -1.0889 -0.1276
 1342SOL    HW115662   2.317   4.463   0.322  0.0680 -0.1050 -1.0762
 1342SOL    HW215663   2.349   4.599   0.371 -1.3224  1.0241  3.1878
 1343SOL     OW15664   0.172   3.889  16.388  0.5386  0.0003 -0.3637
 1343SOL    HW115665   0.091   3.839  16.397  1.1414 -0.9805 -0.3478
 1343SOL    HW215666   0.225   3.827  16.338  4.0511  3.2061 -0.6002
 1344SOL     OW15667   4.583   2.750   5.158 -0.2192 -0.2568 -0.7509
 1344SOL    HW115668   4.605   2.826   5.212  1.5343 -0.7599 -0.7628
 1344SOL    HW215669   4.511   2.790   5.109 -1.8155 -0.9335  1.0490
 1345SOL     OW15670   2.778   2.265   1.680 -0.0955 -0.0482  0.0105
 1345SOL    HW115671   2.808   2.350   1.713 -0.4510  0.6971 -1.6043
 1345SOL    HW215672   2.769   2.210   1.757  1.6093 -1.7213 -1.0016
 1346SOL     OW15673   4.436   2.497  15.395  0.1302 -0.0176  0.8016
 1346SOL    HW115674   4.515   2.444  15.389 -0.9249 -1.6079  1.1094
 1346SOL    HW215675   4.464   2.586  15.415  1.1281 -0.5504  1.7167
 1347SOL     OW15676   0.627   4.088  12.152  0.1243  0.4815  0.5095
 1347SOL    HW115677   0.578   4.043  12.083  0.1414  1.3506 -0.0582
 1347SOL    HW215678   0.559   4.098  12.219 -2.4016 -1.3823 -1.7552
 1348SOL     OW15679   2.279   2.564   6.519 -0.8293  0.0331 -0.0873
 1348SOL    HW115680   2.190   2.595   6.506 -0.9624  0.5712  2.0493
 1348SOL    HW215681   2.266   2.470   6.534  1.0037 -0.5199 -1.9151
 1349SOL     OW15682   0.851   2.090   2.272 -0.9038  0.0128  0.1116
 1349SOL    HW115683   0.931   2.092   2.325 -0.3973  2.7542 -0.7408
 1349SOL    HW215684   0.847   1.997   2.249 -1.4654  0.1173 -0.2144
 1350SOL     OW15685   1.201   3.906   5.573 -0.2598  0.3213  0.2006
 1350SOL    HW115686   1.265   3.903   5.644  2.2108  2.1616 -1.9830
 1350SOL    HW215687   1.252   3.889   5.494 -0.8573 -1.5641  0.2205
 1351SOL     OW15688   1.774   3.193   9.817 -0.4850  0.0916 -0.1611
 1351SOL    HW115689   1.751   3.118   9.761 -1.4726  0.3179 -0.0616
 1351SOL    HW215690   1.859   3.209   9.777  0.9830  0.7272  3.2392
 1352SOL     OW15691   2.639   3.852   4.687 -0.4661 -0.0490 -0.1568
 1352SOL    HW115692   2.699   3.926   4.696 -2.9474  1.8663  0.6178
 1352SOL    HW215693   2.557   3.893   4.714 -1.8562 -1.1715 -2.6489
 1353SOL     OW15694   4.142   1.131   5.991 -0.0649 -0.2112  0.8708
 1353SOL    HW115695   4.083   1.112   6.063 -0.2511 -0.5477  0.6306
 1353SOL    HW215696   4.209   1.182   6.037  0.7148  0.3487 -0.8673
 1354SOL     OW15697   2.352   2.112   4.203 -0.3935  0.1899  0.2623
 1354SOL    HW115698   2.269   2.067   4.221 -0.0175  0.4358  2.6268
 1354SOL    HW215699   2.395   2.031   4.176  1.4350  1.4287 -0.5140
 1355SOL     OW15700   3.660   4.352   6.740  0.0826 -0.3606  0.2146
 1355SOL    HW115701   3.671   4.282   6.804  1.3066 -0.0318  0.3651
 1355SOL    HW215702   3.652   4.314   6.652  2.1043 -0.8576  0.2454
 1356SOL     OW15703   0.430   2.190  12.087 -0.3807  0.3012 -0.7809
 1356SOL    HW115704   0.364   2.125  12.111 -1.6591  2.1491  0.7132
 1356SOL    HW215705   0.478   2.141  12.020 -0.8337 -0.7749 -0.3123
 1357SOL     OW15706   2.877   2.524   7.193 -0.0238  0.1873  0.1874
 1357SOL    HW115707   2.871   2.617   7.173  0.6352 -0.2776 -2.0845
 1357SOL    HW215708   2.964   2.493   7.167  0.6895  1.2674  1.2902
 1358SOL     OW15709   1.640   3.428   9.027  0.2559 -0.1504 -0.4871
 1358SOL    HW115710   1.621   3.407   9.119  1.4393  3.3840  0.5484
 1358SOL    HW215711   1.590   3.508   9.011 -1.2112 -0.5672  2.0679
 1359SOL     OW15712   0.865   0.255   2.966 -0.1256 -0.6808 -0.5415
 1359SOL    HW115713   0.902   0.281   3.051 -2.9178 -0.4775  0.6342
 1359SOL    HW215714   0.918   0.178   2.949  1.1716  0.1602 -0.2516
 1360SOL     OW15715   4.463   3.095   3.870  0.0030 -0.1661  0.2956
 1360SOL    HW115716   4.517   3.032   3.917  1.1766 -0.0143 -0.8357
 1360SOL    HW215717   4.481   3.178   3.914  0.8690 -0.5161  0.5891
 1361SOL     OW15718   3.551   3.482   8.654 -0.3461  0.0247 -0.8833
 1361SOL    HW115719   3.524   3.574   8.659  1.0970  0.4227 -0.3420
 1361SOL    HW215720   3.561   3.473   8.559 -0.6320 -0.0050 -0.9121
 1362SOL     OW15721   0.078   3.237   8.866  0.1802  0.0296 -0.2561
 1362SOL    HW115722   0.014   3.283   8.811  1.4163 -0.6068 -2.2272
 1362SOL    HW215723   0.019   3.181   8.917  0.1314  1.5705  1.3844
 1363SOL     OW15724   3.496   3.267   7.249 -0.5401 -0.1492  0.2332
 1363SOL    HW115725   3.546   3.333   7.297  0.0582  0.3767 -1.0976
 1363SOL    HW215726   3.546   3.189   7.274  2.0903  1.8652  1.2274
 1364SOL     OW15727   0.312   3.257  11.912 -0.0802 -0.3196  0.1864
 1364SOL    HW115728   0.404   3.280  11.924  1.0444 -4.9562  0.5079
 1364SOL    HW215729   0.278   3.338  11.876  0.4090  0.0965  0.6618
 1365SOL     OW15730   3.962   2.729   2.941 -0.5632  0.2955  0.3613
 1365SOL    HW115731   3.950   2.824   2.941  0.5776  0.4357  0.5557
 1365SOL    HW215732   3.906   2.711   2.866  1.4538 -1.1738 -0.7763
 1366SOL     OW15733   2.882   3.395  11.271 -0.0792  0.4499  0.4705
 1366SOL    HW115734   2.917   3.368  11.356  2.5643 -2.6054 -1.5680
 1366SOL    HW215735   2.834   3.317  11.242  0.9330 -0.9332  2.4830
 1367SOL     OW15736   2.641   0.736  10.008  0.1066 -0.0099 -0.4830
 1367SOL    HW115737   2.707   0.805  10.019 -0.3809  0.2022  1.1101
 1367SOL    HW215738   2.689   0.653  10.017  2.6243  1.5761  0.7408
 1368SOL     OW15739   2.851   4.290  17.501  0.2566  0.3383 -0.0731
 1368SOL    HW115740   2.755   4.296  17.503  0.3236  1.7779 -1.6452
 1368SOL    HW215741   2.874   4.376  17.537  0.7501  0.1501  0.0622
 1369SOL     OW15742   1.420   3.202   4.096 -0.0606  0.5472  0.4042
 1369SOL    HW115743   1.330   3.196   4.066  0.0957 -0.5238  0.1488
 1369SOL    HW215744   1.419   3.298   4.098  1.2074  0.5081  2.8172
 1370SOL     OW15745   0.687   0.747   6.030  0.7229  0.4138 -0.1247
 1370SOL    HW115746   0.610   0.789   5.991 -0.7720 -0.7555  1.5280
 1370SOL    HW215747   0.666   0.749   6.124 -0.6274  0.0498 -0.4200
 1371SOL     OW15748   1.227   1.533   5.568  0.2505 -0.1702  0.1195
 1371SOL    HW115749   1.320   1.529   5.548  0.4593  3.1505  0.3173
 1371SOL    HW215750   1.232   1.558   5.660 -0.5108  1.5743 -0.3021
 1372SOL     OW15751   3.020   3.799   4.069 -0.0337  0.1060  0.0217
 1372SOL    HW115752   2.986   3.858   4.136  0.8913  1.9522 -1.1353
 1372SOL    HW215753   2.949   3.736   4.056  1.3191 -1.4857  0.4517
 1373SOL     OW15754   0.435   4.045   2.890 -0.2587 -0.5493 -0.4053
 1373SOL    HW115755   0.372   4.116   2.878 -1.2918 -1.3583  0.2738
 1373SOL    HW215756   0.462   4.055   2.982 -1.2547  2.0833 -0.4048
 1374SOL     OW15757   1.314   4.644   5.615  0.0786  0.1026  0.4295
 1374SOL    HW115758   1.350   4.575   5.670  0.1731 -2.1861 -2.4834
 1374SOL    HW215759   1.228   4.624   5.579 -0.1907 -0.1641  1.2403
 1375SOL     OW15760   1.341   2.067  15.106  0.1553 -0.7150 -0.5128
 1375SOL    HW115761   1.313   1.993  15.052 -2.4649  0.3349 -0.5814
 1375SOL    HW215762   1.436   2.068  15.090  0.0844 -0.9471 -0.9517
 1376SOL     OW15763   3.694   1.312   4.056 -0.4889  0.9005  0.5949
 1376SOL    HW115764   3.671   1.300   3.964 -0.2998 -0.5792  0.7432
 1376SOL    HW215765   3.606   1.310   4.095 -0.5466 -1.3459  0.3786
 1377SOL     OW15766   2.862   3.909  15.722  0.0898  0.1418  0.0861
 1377SOL    HW115767   2.767   3.912  15.716  0.0946 -1.4555 -0.9691
 1377SOL    HW215768   2.891   3.911  15.630 -1.7241  0.3760 -0.4744
 1378SOL     OW15769   0.094   2.175   7.599  0.1120  0.0454 -0.4246
 1378SOL    HW115770   0.133   2.089   7.614  2.3040  1.0807 -0.2684
 1378SOL    HW215771   0.165   2.231   7.629  0.4490 -0.1032 -0.9365
 1379SOL     OW15772   0.872   2.413   5.839  0.2976 -0.1505  0.7199
 1379SOL    HW115773   0.828   2.498   5.848  0.2239 -0.0312 -0.7608
 1379SOL    HW215774   0.796   2.355   5.828  1.4595 -1.4140 -0.8012
 1380SOL     OW15775   0.634   4.263  17.240 -0.4042 -0.7393  0.2722
 1380SOL    HW115776   0.653   4.319  17.164 -1.3878 -0.2615  0.3720
 1380SOL    HW215777   0.621   4.185  17.187  1.3513 -0.7117 -0.2122
 1381SOL     OW15778   2.419   1.559  12.792 -0.2143  0.2165 -0.2036
 1381SOL    HW115779   2.369   1.623  12.741  0.2776  0.3351 -0.5302
 1381SOL    HW215780   2.470   1.616  12.849 -0.3154 -0.6020  0.7323
 1382SOL     OW15781   0.737   4.297  12.786  1.0203  0.4587  0.3387
 1382SOL    HW115782   0.701   4.240  12.718  0.7603  0.2491  0.6573
 1382SOL    HW215783   0.819   4.320  12.741  1.0791 -1.0193 -0.2849
 1383SOL     OW15784   2.357   3.343   1.039 -0.2474 -0.2848  0.1785
 1383SOL    HW115785   2.374   3.417   0.981 -0.7922  1.5072  2.3261
 1383SOL    HW215786   2.261   3.337   1.041 -0.3092  2.0934  3.1352
 1384SOL     OW15787   1.335   2.084   5.207 -0.0710 -0.2631 -0.3490
 1384SOL    HW115788   1.322   2.084   5.112  1.4889  0.0377 -0.5563
 1384SOL    HW215789   1.388   2.006   5.221  2.1807  1.4557  0.7077
 1385SOL     OW15790   4.673   2.294   7.394 -0.3097  0.5162 -0.1072
 1385SOL    HW115791   4.709   2.246   7.469 -0.7735  1.5798  0.7866
 1385SOL    HW215792   4.638   2.220   7.344  0.4320  1.0088 -1.3330
 1386SOL     OW15793   3.025   0.512   3.651  0.1421  0.5052 -0.1199
 1386SOL    HW115794   3.086   0.565   3.600 -1.7239  2.3963 -0.3768
 1386SOL    HW215795   3.066   0.427   3.666 -2.1116 -0.7288 -1.0363
 1387SOL     OW15796   3.517   4.415  17.250 -0.7515 -0.1881 -0.3848
 1387SOL    HW115797   3.490   4.329  17.284 -0.4059  0.0548  0.5119
 1387SOL    HW215798   3.502   4.472  17.325 -1.1326 -2.5756  1.3722
 1388SOL     OW15799   2.714   4.147   7.284  0.0256  0.2216  0.4502
 1388SOL    HW115800   2.801   4.148   7.324  0.0457 -1.0425  0.4455
 1388SOL    HW215801   2.728   4.215   7.218 -1.4317 -0.6213 -0.7398
 1389SOL     OW15802   1.773   2.559   6.600  0.4332 -0.1163  0.2761
 1389SOL    HW115803   1.801   2.596   6.683 -0.7201 -0.7703  0.9569
 1389SOL    HW215804   1.721   2.483   6.628 -0.0435 -0.1625 -0.7334
 1390SOL     OW15805   4.026   1.822   2.351  0.2073 -0.1663 -0.3542
 1390SOL    HW115806   4.027   1.732   2.320  2.9037  0.2826 -1.5445
 1390SOL    HW215807   4.120   1.833   2.367  0.8644 -2.8151 -2.5063
 1391SOL     OW15808   0.303   0.670   4.477  0.2479  0.1037  0.0400
 1391SOL    HW115809   0.244   0.715   4.538 -1.6782 -0.2065 -1.5912
 1391SOL    HW215810   0.356   0.740   4.440  1.8473 -1.5692 -0.8149
 1392SOL     OW15811   0.807   2.933  12.847 -0.6720 -0.1056 -0.2937
 1392SOL    HW115812   0.754   2.904  12.773  3.1564 -0.0556 -3.0376
 1392SOL    HW215813   0.758   3.014  12.862 -0.1912 -0.1688  1.5809
 1393SOL     OW15814   2.588   3.689  13.529  0.3941  0.0499  0.2063
 1393SOL    HW115815   2.505   3.642  13.532  0.6847 -0.3925  1.3694
 1393SOL    HW215816   2.565   3.757  13.592  1.2864 -1.1000  1.7717
 1394SOL     OW15817   0.202   1.262   2.584 -0.2515 -0.9369 -0.6697
 1394SOL    HW115818   0.271   1.325   2.562  0.2754 -1.7048 -1.1995
 1394SOL    HW215819   0.209   1.201   2.511 -3.2984 -1.4781 -0.5276
 1395SOL     OW15820   2.631   3.741  11.673  0.2101 -0.0932 -0.0942
 1395SOL    HW115821   2.609   3.745  11.580  0.9304 -2.0378 -0.3612
 1395SOL    HW215822   2.705   3.682  11.658  0.9322  0.8437 -0.2696
 1396SOL     OW15823   0.597   0.205   6.865 -0.0517 -0.3119  0.0337
 1396SOL    HW115824   0.547   0.133   6.903 -1.0282  1.2841  1.8057
 1396SOL    HW215825   0.530   0.249   6.813 -0.7619 -1.2651  0.1339
 1397SOL     OW15826   4.444   3.615  16.754 -0.4305 -0.3733 -0.2520
 1397SOL    HW115827   4.538   3.623  16.744 -0.4268  0.2961  0.3395
 1397SOL    HW215828   4.427   3.544  16.692  1.3685 -0.8224 -0.2163
 1398SOL     OW15829   4.575   0.917   5.050  0.4561 -0.4238  0.0687
 1398SOL    HW115830   4.562   0.903   4.956 -2.1815 -1.0985  0.5276
 1398SOL    HW215831   4.638   0.848   5.071  0.3413 -0.9831 -1.4043
 1399SOL     OW15832   3.662   1.667   5.403 -0.1853  0.1244  0.0152
 1399SOL    HW115833   3.609   1.595   5.438 -0.2680 -0.2354 -0.8646
 1399SOL    HW215834   3.695   1.627   5.323 -2.7085 -0.5257 -0.7154
 1400SOL     OW15835   3.677   2.633   1.693  0.0389  0.1668 -0.4004
 1400SOL    HW115836   3.695   2.602   1.605  0.2542 -0.0703 -0.2743
 1400SOL    HW215837   3.588   2.601   1.706  0.3933 -1.6350 -2.4173
 1401SOL     OW15838   4.165   3.503   7.799  0.3707  0.6179  0.0115
 1401SOL    HW115839   4.180   3.539   7.712 -0.5987  0.0439 -0.3830
 1401SOL    HW215840   4.245   3.537   7.840  0.5938 -0.7522  0.6995
 1402SOL     OW15841   2.587   3.992   0.327 -0.0097  0.5244  0.1649
 1402SOL    HW115842   2.523   4.016   0.260  0.7024 -0.4193 -0.8664
 1402SOL    HW215843   2.661   3.961   0.273  1.2822  0.6276  1.8820
 1403SOL     OW15844   3.140   3.105   2.005 -0.6764  0.1031 -0.5907
 1403SOL    HW115845   3.229   3.123   1.975 -1.9434  0.5846 -4.1237
 1403SOL    HW215846   3.152   3.014   2.032 -0.2361 -0.1217 -1.5574
 1404SOL     OW15847   3.725   4.407  14.536  0.9039 -0.2286 -0.1117
 1404SOL    HW115848   3.751   4.493  14.570 -0.1413 -0.8616  2.2842
 1404SOL    HW215849   3.707   4.425  14.444  1.9248 -0.9555 -0.4594
 1405SOL     OW15850   0.923   1.771   2.758 -0.3850 -0.2560 -0.0292
 1405SOL    HW115851   0.849   1.831   2.749  0.2653  0.8337  1.6581
 1405SOL    HW215852   0.920   1.756   2.853  1.5573  0.1296  0.1066
 1406SOL     OW15853   4.370   3.233   6.244  0.1352  0.2279  0.2535
 1406SOL    HW115854   4.292   3.206   6.292 -0.9915  0.7521 -1.2562
 1406SOL    HW215855   4.337   3.273   6.163  0.5443  1.0784  0.5164
 1407SOL     OW15856   2.862   0.908   6.490 -0.0742 -0.6470  0.4492
 1407SOL    HW115857   2.908   0.824   6.480 -1.2341 -1.3514  0.9201
 1407SOL    HW215858   2.930   0.973   6.503  0.9702 -1.9206  1.3956
 1408SOL     OW15859   2.060   1.329   1.784 -0.4902 -0.3276 -0.0295
 1408SOL    HW115860   2.090   1.322   1.693 -0.9402 -0.8125 -0.1412
 1408SOL    HW215861   2.096   1.416   1.802  1.1985 -0.9510 -0.3828
 1409SOL     OW15862   3.631   0.257  16.547 -0.3100 -0.2938  0.7219
 1409SOL    HW115863   3.590   0.248  16.461  1.6292 -1.6802 -0.0677
 1409SOL    HW215864   3.561   0.231  16.606  0.7083 -1.1196  1.5763
 1410SOL     OW15865   4.489   2.169   3.471  0.3468  0.1579  0.0590
 1410SOL    HW115866   4.575   2.210   3.468  0.5900 -0.4313 -0.9435
 1410SOL    HW215867   4.465   2.162   3.563  1.5073  0.9872  0.4187
 1411SOL     OW15868   3.279   1.139  13.822 -0.3249 -0.0805 -0.0247
 1411SOL    HW115869   3.317   1.059  13.784 -0.4377  0.5171 -1.4122
 1411SOL    HW215870   3.332   1.208  13.782 -0.0051 -1.7857 -2.5429
 1412SOL     OW15871   1.251   3.574   6.729  0.2692 -0.0169  0.1135
 1412SOL    HW115872   1.237   3.510   6.660 -4.1757  1.6389 -0.5246
 1412SOL    HW215873   1.171   3.625   6.717 -0.0680 -0.5631  0.0761
 1413SOL     OW15874   3.243   3.902   1.146 -0.8632  0.2630  0.3629
 1413SOL    HW115875   3.228   3.810   1.125  0.2066  0.1908 -0.1037
 1413SOL    HW215876   3.198   3.911   1.229 -2.5325  0.0990 -0.5249
 1414SOL     OW15877   2.466   1.416   8.807  0.1476  0.0286  0.2205
 1414SOL    HW115878   2.454   1.470   8.729  1.3636 -0.8875 -0.6037
 1414SOL    HW215879   2.469   1.482   8.876  1.2491  0.1244  0.0785
 1415SOL     OW15880   1.511   3.174   8.891 -0.1715 -0.1111  0.2445
 1415SOL    HW115881   1.562   3.245   8.931  3.1131 -1.0878 -2.1672
 1415SOL    HW215882   1.434   3.161   8.946 -0.2175 -0.9483 -0.0065
 1416SOL     OW15883   4.638   1.840   5.501 -0.5488 -0.8595  0.0312
 1416SOL    HW115884   4.585   1.825   5.423 -1.4692  2.6367 -0.0154
 1416SOL    HW215885   4.718   1.799   5.470  0.4672 -0.5334  2.1818
 1417SOL     OW15886   1.458   0.028  11.151  0.3028 -0.1431 -0.1887
 1417SOL    HW115887   1.485   4.718  11.071 -1.5515 -2.6458  0.5780
 1417SOL    HW215888   1.461   4.689  11.211  0.2311  0.1395  0.1630
 1418SOL     OW15889   3.328   1.440   7.091 -0.3527 -0.2441  0.3360
 1418SOL    HW115890   3.322   1.355   7.048  2.1223 -0.3655  0.1918
 1418SOL    HW215891   3.414   1.453   7.131 -0.3269  0.3626  0.0811
 1419SOL     OW15892   2.947   1.003   9.316  0.1296  0.4752 -0.5770
 1419SOL    HW115893   2.873   1.060   9.334  1.7149  2.2627  0.3366
 1419SOL    HW215894   3.012   1.068   9.288 -0.0903  0.1722 -1.7850
 1420SOL     OW15895   1.019   4.434   4.371  0.1270  0.1436 -0.1154
 1420SOL    HW115896   1.100   4.387   4.353 -0.7060 -0.4257 -2.3815
 1420SOL    HW215897   1.010   4.424   4.465 -0.1740 -4.0789 -0.5970
 1421SOL     OW15898   0.225   0.032  13.440  0.1378 -0.1325  0.2144
 1421SOL    HW115899   0.201   0.118  13.404  0.3179 -0.0696  0.2451
 1421SOL    HW215900   0.175   0.036  13.521  1.7819 -4.3507  1.4012
 1422SOL     OW15901   1.322   0.351   7.219  0.2173 -0.2201  0.2307
 1422SOL    HW115902   1.295   0.261   7.236  1.4739 -0.8802 -1.3044
 1422SOL    HW215903   1.416   0.352   7.236  0.0668 -2.5980  1.1964
 1423SOL     OW15904   0.225   2.116   7.208  0.0878  0.3773 -0.5347
 1423SOL    HW115905   0.253   2.051   7.272  2.1973 -0.2867 -2.1177
 1423SOL    HW215906   0.267   2.201   7.218 -0.6942  1.0835 -3.1728
 1424SOL     OW15907   1.256   1.552   1.424 -0.4738 -0.0034 -0.5034
 1424SOL    HW115908   1.329   1.582   1.478 -1.2857 -1.6438  1.4977
 1424SOL    HW215909   1.299   1.468   1.409  1.2862  0.9984 -1.1177
 1425SOL     OW15910   1.110   0.467   7.417 -0.5964  0.0666 -0.6885
 1425SOL    HW115911   1.088   0.560   7.408  1.7459  0.6885  0.0303
 1425SOL    HW215912   1.153   0.447   7.334  0.7993  0.7533 -0.1212
 1426SOL     OW15913   4.484   2.223  15.617  0.4046 -0.0450  0.6849
 1426SOL    HW115914   4.534   2.304  15.608  0.1571  0.0095 -0.2091
 1426SOL    HW215915   4.557   2.162  15.624  1.3222  0.9919  0.0557
 1427SOL     OW15916   4.014   0.636  10.121 -0.4959  0.3356  0.6832
 1427SOL    HW115917   3.925   0.599  10.117 -0.0602 -0.8320  1.7468
 1427SOL    HW215918   4.050   0.609  10.206 -1.6301 -0.7887  0.8180
 1428SOL     OW15919   1.276   0.342  11.183 -0.1838  0.3523 -0.4022
 1428SOL    HW115920   1.293   0.435  11.166 -0.2182  0.4840  0.2715
 1428SOL    HW215921   1.187   0.324  11.152 -0.7321 -0.1771  1.5074
 1429SOL     OW15922   0.067   3.683   9.685  0.6956  0.4041 -0.3000
 1429SOL    HW115923   4.707   3.674   9.693  0.5654  1.0439 -1.1803
 1429SOL    HW215924   0.093   3.667   9.776 -1.8148  0.9961  0.5268
 1430SOL     OW15925   1.126   1.753   4.593 -0.0467  0.2830  0.1169
 1430SOL    HW115926   1.051   1.693   4.601 -0.1489  0.7274  2.3785
 1430SOL    HW215927   1.188   1.697   4.638 -1.1124  0.0405  1.2978
 1431SOL     OW15928   0.192   3.502   5.710 -0.0239 -0.4187 -0.2806
 1431SOL    HW115929   0.143   3.573   5.752 -0.9794 -1.6064  0.5977
 1431SOL    HW215930   0.279   3.514   5.748  0.7532 -1.3681 -1.7544
 1432SOL     OW15931   0.338   0.471  15.238  0.2887 -0.2618  0.8625
 1432SOL    HW115932   0.356   0.421  15.158 -1.5998  0.9232 -0.2754
 1432SOL    HW215933   0.343   0.397  15.299 -0.6857 -1.2813 -0.3010
 1433SOL     OW15934   1.423   3.766   6.599 -0.8838 -0.7815 -0.5009
 1433SOL    HW115935   1.391   3.800   6.515  3.1203  0.3092 -1.5552
 1433SOL    HW215936   1.347   3.735   6.649  0.0495  0.1655  1.5076
 1434SOL     OW15937   3.357   4.420  16.937  0.1330 -0.5471  0.5183
 1434SOL    HW115938   3.346   4.476  17.013 -0.6551  1.5711 -1.1632
 1434SOL    HW215939   3.311   4.347  16.979 -0.3546 -1.6281 -1.9145
 1435SOL     OW15940   1.916   2.608   5.861  0.1972 -0.5225 -0.1627
 1435SOL    HW115941   1.952   2.579   5.945  3.3257  0.6301 -1.0739
 1435SOL    HW215942   1.965   2.690   5.850 -0.8764  0.1080 -0.2768
 1436SOL     OW15943   0.269   0.714  16.186 -0.0106  0.1270  0.4960
 1436SOL    HW115944   0.176   0.693  16.186 -0.3009  1.5326 -2.2361
 1436SOL    HW215945   0.274   0.757  16.101 -1.5866 -0.5372  0.0777
 1437SOL     OW15946   4.100   1.627   3.318  0.4390 -0.1795 -0.3166
 1437SOL    HW115947   4.018   1.601   3.359  1.7859  0.1172  2.5929
 1437SOL    HW215948   4.067   1.689   3.254 -0.5732  0.6326  1.0045
 1438SOL     OW15949   3.228   1.860   7.218  0.0431  0.1990  0.1497
 1438SOL    HW115950   3.250   1.842   7.309  1.7596  2.4452  0.1718
 1438SOL    HW215951   3.281   1.938   7.204 -0.5336  0.8946  1.9396
 1439SOL     OW15952   2.268   4.230   2.898  0.1019  0.0388 -0.3086
 1439SOL    HW115953   2.307   4.310   2.935  1.1665 -0.6522  0.0392
 1439SOL    HW215954   2.277   4.237   2.803 -0.4471 -2.1436 -0.5089
 1440SOL     OW15955   4.672   1.868   3.294 -0.3244 -0.4017 -0.2932
 1440SOL    HW115956   4.577   1.866   3.280 -0.6439 -0.2431  1.7642
 1440SOL    HW215957   4.667   1.849   3.388 -0.6785 -1.0576 -0.4450
 1441SOL     OW15958   2.588   3.763   6.752  0.4725  0.6478  0.1235
 1441SOL    HW115959   2.494   3.769   6.737  0.3312  0.5723  1.0097
 1441SOL    HW215960   2.595   3.759   6.847  0.5536  1.6436  0.1549
 1442SOL     OW15961   1.383   3.040   7.199 -0.2465 -0.1225 -0.2401
 1442SOL    HW115962   1.330   2.962   7.218  1.1189 -1.3330 -1.4607
 1442SOL    HW215963   1.459   3.023   7.254  2.1211  0.8820 -3.2470
 1443SOL     OW15964   0.593   4.285   1.072 -0.3410 -0.0443  0.6516
 1443SOL    HW115965   0.668   4.283   1.012 -0.4422 -0.6970  0.5466
 1443SOL    HW215966   0.600   4.192   1.094  0.6162  0.2361  1.5474
 1444SOL     OW15967   3.954   0.533   6.560  0.1896 -0.3003 -0.3164
 1444SOL    HW115968   3.873   0.580   6.541  0.8945  1.3187  0.6940
 1444SOL    HW215969   3.937   0.454   6.509  0.8009 -0.3014 -0.5178
 1445SOL     OW15970   0.616   2.687   8.912 -1.0520  0.2743  0.1787
 1445SOL    HW115971   0.581   2.776   8.910 -0.3973  0.4304 -3.1176
 1445SOL    HW215972   0.703   2.698   8.873 -0.9056 -0.9529  0.1586
 1446SOL     OW15973   1.975   0.473   8.623 -0.3533 -0.5028  0.3725
 1446SOL    HW115974   2.040   0.534   8.657 -1.9408  1.4284 -0.0830
 1446SOL    HW215975   1.917   0.527   8.569 -1.0684 -0.3433  1.3160
 1447SOL     OW15976   3.393   2.697   5.256  0.3966 -0.1739 -0.4506
 1447SOL    HW115977   3.384   2.612   5.301 -2.5983  0.3125 -0.1210
 1447SOL    HW215978   3.485   2.685   5.236  1.1790  0.0812  2.8955
 1448SOL     OW15979   2.559   1.660   5.386 -0.1783 -0.3793 -0.5830
 1448SOL    HW115980   2.641   1.699   5.354 -0.0125 -1.6266 -1.7089
 1448SOL    HW215981   2.593   1.622   5.467  0.0256  0.4658 -0.2716
 1449SOL     OW15982   0.666   3.479   3.408  0.1382 -0.1083 -0.5786
 1449SOL    HW115983   0.635   3.413   3.469  2.0116 -1.5609 -1.1960
 1449SOL    HW215984   0.705   3.543   3.468 -2.5767  1.7636 -0.8224
 1450SOL     OW15985   1.386   0.546   2.419 -0.1704  0.7990 -0.6491
 1450SOL    HW115986   1.451   0.518   2.484 -0.0710  2.6382  0.0351
 1450SOL    HW215987   1.443   0.606   2.371  0.3053 -1.3384 -2.7462
 1451SOL     OW15988   4.516   1.863  13.712 -0.8667 -0.1098 -1.0831
 1451SOL    HW115989   4.434   1.862  13.762 -0.0794 -2.5122  0.1913
 1451SOL    HW215990   4.547   1.952  13.724 -3.6191  0.9241 -1.4569
 1452SOL     OW15991   2.320   3.350   5.081  0.9443 -0.2401 -0.6929
 1452SOL    HW115992   2.376   3.424   5.106  0.0315  0.1735  0.1231
 1452SOL    HW215993   2.237   3.386   5.112  0.0222 -2.1464 -0.9449
 1453SOL     OW15994   3.095   3.954   2.865 -0.0273 -0.0351 -0.0181
 1453SOL    HW115995   3.158   3.963   2.795 -0.7825  1.8105 -0.4542
 1453SOL    HW215996   3.141   4.007   2.930  0.4768  0.1864 -0.5666
 1454SOL     OW15997   4.027   1.824  11.169 -0.5106  1.1534  0.1749
 1454SOL    HW115998   4.085   1.875  11.113 -0.2456  2.1347  1.3452
 1454SOL    HW215999   4.041   1.867  11.253 -1.3506 -0.8781  1.3706
 1455SOL     OW16000   2.557   0.507   3.941 -0.3128  0.7788 -0.2091
 1455SOL    HW116001   2.523   0.596   3.949 -0.3960  0.6165  1.2168
 1455SOL    HW216002   2.538   0.478   4.030  0.9915  0.9419  0.1255
 1456SOL     OW16003   4.442   0.648   3.199 -0.1736 -0.4235  0.1993
 1456SOL    HW116004   4.527   0.607   3.215  0.1780  0.7202  1.3018
 1456SOL    HW216005   4.448   0.709   3.273 -2.8856 -1.7802  1.5523
 1457SOL     OW16006   4.044   1.207  11.943 -0.5908 -0.2115  0.2399
 1457SOL    HW116007   4.100   1.141  11.903 -1.2641 -2.7663  3.5688
 1457SOL    HW216008   4.074   1.194  12.033  1.7936 -1.4029 -0.7432
 1458SOL     OW16009   4.308   0.861   7.877  0.0120 -0.6886 -0.4000
 1458SOL    HW116010   4.344   0.899   7.957 -0.3451  0.6248 -0.8603
 1458SOL    HW216011   4.383   0.879   7.819  0.5888 -1.4468  0.1153
 1459SOL     OW16012   1.899   4.148   6.826 -0.3032 -0.4737  0.6489
 1459SOL    HW116013   1.979   4.098   6.811 -1.2276 -1.2811 -1.5427
 1459SOL    HW216014   1.867   4.108   6.907 -0.2083 -0.8238  0.5103
 1460SOL     OW16015   3.704   1.590   9.062  0.1713  0.1172 -0.2768
 1460SOL    HW116016   3.653   1.510   9.051  0.5568 -0.1816  0.0962
 1460SOL    HW216017   3.671   1.639   8.988 -0.2438 -0.3466 -0.4041
 1461SOL     OW16018   0.238   4.262   6.694  0.2328 -0.0640 -0.4376
 1461SOL    HW116019   0.151   4.294   6.670 -0.4929 -2.3792 -0.9135
 1461SOL    HW216020   0.222   4.181   6.743 -2.7864  1.0591  0.3835
 1462SOL     OW16021   0.680   1.013   8.504 -0.5222  0.4922  0.1884
 1462SOL    HW116022   0.757   1.068   8.488 -0.9722  1.0207 -0.1641
 1462SOL    HW216023   0.645   1.006   8.416 -0.7946 -1.6754  0.4675
 1463SOL     OW16024   3.950   2.707  13.130 -0.4696 -0.5111 -0.5319
 1463SOL    HW116025   3.967   2.687  13.038 -1.2895 -1.9291 -0.3640
 1463SOL    HW216026   4.035   2.689  13.169 -0.9758  0.0066  0.8252
 1464SOL     OW16027   1.678   0.511  10.526  0.0648 -0.0440 -0.0787
 1464SOL    HW116028   1.743   0.510  10.597 -0.7051  0.9526  0.6483
 1464SOL    HW216029   1.601   0.479  10.573 -0.0342  1.3947  0.7604
 1465SOL     OW16030   2.933   4.102   5.937  0.4762  0.4842  0.0048
 1465SOL    HW116031   2.921   4.026   5.993 -1.2668  0.4255 -0.4657
 1465SOL    HW216032   2.896   4.071   5.854 -0.3855  1.7275 -0.0800
 1466SOL     OW16033   1.951   0.093   6.718  0.2070  0.1102 -0.2485
 1466SOL    HW116034   1.901   0.014   6.699  2.4221 -1.2944 -0.2386
 1466SOL    HW216035   2.011   0.057   6.782 -1.3514 -2.1520 -0.0716
 1467SOL     OW16036   4.477   3.977   4.543  0.2851 -0.1472 -0.0714
 1467SOL    HW116037   4.417   3.920   4.497  0.5269 -0.7368  0.3492
 1467SOL    HW216038   4.464   4.048   4.480  1.1171 -1.0003 -1.1939
 1468SOL     OW16039   0.507   1.596   4.876 -0.3832 -0.2548 -0.2103
 1468SOL    HW116040   0.528   1.542   4.800 -1.5108 -0.1578 -0.5760
 1468SOL    HW216041   0.427   1.550   4.900  0.1186 -1.8218 -1.5118
 1469SOL     OW16042   0.637   3.431   4.812  0.5390  0.2644  0.0902
 1469SOL    HW116043   0.713   3.387   4.850  0.9601  0.9972  0.0912
 1469SOL    HW216044   0.676   3.516   4.792 -2.2337  1.1734 -1.3420
 1470SOL     OW16045   0.283   3.663  16.265 -0.5068 -0.3043 -0.2215
 1470SOL    HW116046   0.367   3.616  16.262 -0.2740  0.1976 -1.8977
 1470SOL    HW216047   0.265   3.659  16.171  0.9397  1.1313 -0.5566
 1471SOL     OW16048   0.692   3.476   5.867  0.1076 -0.1163  0.0286
 1471SOL    HW116049   0.646   3.558   5.888  0.4755  0.1083 -0.0424
 1471SOL    HW216050   0.773   3.511   5.829 -0.4502  1.6839  0.4908
 1472SOL     OW16051   2.256   0.866   3.874 -0.2773 -0.5283  0.6135
 1472SOL    HW116052   2.333   0.833   3.919  0.8167  0.0311 -0.8665
 1472SOL    HW216053   2.263   0.847   3.780 -0.7779  0.0866  0.4537
 1473SOL     OW16054   0.394   2.350   7.327 -0.3687 -0.1038 -0.6199
 1473SOL    HW116055   0.414   2.285   7.394 -0.7914  0.2975 -0.1025
 1473SOL    HW216056   0.305   2.371   7.354 -0.7965  0.2979 -2.3507
 1474SOL     OW16057   1.076   4.277   9.844 -0.2628 -0.3831  0.6438
 1474SOL    HW116058   1.021   4.302   9.770  2.3275  0.6797 -0.9358
 1474SOL    HW216059   1.164   4.287   9.808 -0.7071  0.8260 -0.1075
 1475SOL     OW16060   3.104   2.278  10.077 -0.0319  0.0842 -0.4323
 1475SOL    HW116061   3.155   2.253  10.000  0.8740 -2.2956  0.9170
 1475SOL    HW216062   3.013   2.253  10.061 -0.0562 -0.7569  1.0779
 1476SOL     OW16063   1.799   1.304   5.022 -0.1725  0.4928  0.0525
 1476SOL    HW116064   1.754   1.387   5.039 -0.0679  0.3391  1.0778
 1476SOL    HW216065   1.730   1.253   5.065 -0.2643  1.0263  0.5318
 1477SOL     OW16066   4.050   0.647  10.411 -0.4337  0.1357  0.2437
 1477SOL    HW116067   4.029   0.740  10.411  1.9230  0.6585 -3.7070
 1477SOL    HW216068   4.119   0.655  10.476  0.0462 -0.4796 -0.1796
 1478SOL     OW16069   0.995   2.807  17.591 -0.0457 -0.3846  0.1043
 1478SOL    HW116070   1.012   2.793  17.684  0.1654  2.9661  0.5918
 1478SOL    HW216071   0.988   2.716  17.563  2.8746 -1.6213  3.3669
 1479SOL     OW16072   0.881   2.639   8.830 -0.2764  0.4994  0.0570
 1479SOL    HW116073   0.974   2.656   8.844 -0.0892 -0.9424  0.5128
 1479SOL    HW216074   0.864   2.556   8.874  0.5107  1.0631  1.4148
 1480SOL     OW16075   3.818   0.720   4.507  0.5213  0.3769  0.2255
 1480SOL    HW116076   3.787   0.641   4.462 -0.6138  0.9206  0.0509
 1480SOL    HW216077   3.901   0.725   4.458  0.7401 -0.4503  0.5076
 1481SOL     OW16078   0.611   0.779   7.853  0.1280  0.2112 -0.1014
 1481SOL    HW116079   0.688   0.802   7.905 -1.2484 -0.6858  2.3169
 1481SOL    HW216080   0.643   0.700   7.811  2.0340  0.7466  0.3634
 1482SOL     OW16081   4.249   0.482   7.896  0.1886 -0.7831 -0.2947
 1482SOL    HW116082   4.200   0.411   7.937  1.8003 -1.4808  0.4234
 1482SOL    HW216083   4.181   0.548   7.881  1.7603  1.1825  1.1646
 1483SOL     OW16084   4.088   2.310   9.339  0.0749 -0.0053 -0.3426
 1483SOL    HW116085   4.045   2.293   9.422  2.0669 -3.0588  0.0656
 1483SOL    HW216086   4.041   2.390   9.318 -2.6756 -0.5165  4.0247
 1484SOL     OW16087   3.681   2.127   6.983  0.5153 -0.2915  0.3400
 1484SOL    HW116088   3.660   2.036   7.005  2.2634 -1.0487 -1.1420
 1484SOL    HW216089   3.766   2.114   6.940  0.8640 -1.5753  1.4238
 1485SOL     OW16090   3.597   0.047  15.009 -0.1887  1.3719 -0.4704
 1485SOL    HW116091   3.684   0.074  14.981 -0.0123  1.4669  0.1735
 1485SOL    HW216092   3.551   0.129  14.989 -1.5780  1.0321  1.3474
 1486SOL     OW16093   3.742   3.719   4.952 -0.0637 -0.1316  0.1073
 1486SOL    HW116094   3.680   3.693   5.021 -0.3942  0.3932  0.0060
 1486SOL    HW216095   3.749   3.644   4.893 -1.7903  0.6151 -1.0558
 1487SOL     OW16096   2.139   1.306  16.243 -0.1318  0.4944 -0.1669
 1487SOL    HW116097   2.090   1.279  16.165  0.2189 -0.5357 -0.0313
 1487SOL    HW216098   2.103   1.394  16.255 -2.9927 -0.6605 -0.3510
 1488SOL     OW16099   0.595   4.210  13.818 -0.4606 -0.7913  0.5405
 1488SOL    HW116100   0.624   4.171  13.735 -0.5999  1.3613 -0.5152
 1488SOL    HW216101   0.511   4.252  13.798 -0.0525 -0.1813  0.1123
 1489SOL     OW16102   2.887   2.752   7.979  0.2762  0.1958 -0.2530
 1489SOL    HW116103   2.928   2.834   7.951  1.2979 -0.1832  0.1563
 1489SOL    HW216104   2.921   2.703   7.904 -0.7040 -0.2586 -0.4110
 1490SOL     OW16105   4.034   3.373   2.044 -0.4262  0.0485  0.0467
 1490SOL    HW116106   3.959   3.400   2.096 -0.5851  1.5989 -0.9965
 1490SOL    HW216107   4.107   3.422   2.083 -0.6958  1.0893 -0.7676
 1491SOL     OW16108   2.463   3.080   4.284  0.2277  0.2558 -0.3234
 1491SOL    HW116109   2.521   3.157   4.285  2.3256 -1.3618  1.6650
 1491SOL    HW216110   2.476   3.046   4.195 -1.3579 -0.9623 -0.0879
 1492SOL     OW16111   3.470   3.984  17.664 -0.3202  0.1258  0.8270
 1492SOL    HW116112   3.527   4.023  17.730  0.1119 -0.9633  1.0821
 1492SOL    HW216113   3.411   4.059  17.658 -0.7215 -0.3374 -1.1730
 1493SOL     OW16114   3.546   2.369  17.580  0.3340 -0.3358  0.0654
 1493SOL    HW116115   3.526   2.384  17.488  0.8363 -0.1222 -0.0124
 1493SOL    HW216116   3.490   2.292  17.584  0.5434 -0.3847  2.5308
 1494SOL     OW16117   0.990   0.642   0.462 -0.7175  0.0156  0.3069
 1494SOL    HW116118   0.953   0.701   0.527 -1.7862 -0.8025  0.4435
 1494SOL    HW216119   0.997   0.555   0.503 -1.0472  1.6662  3.8767
 1495SOL     OW16120   3.063   1.533   7.816 -0.1431 -0.1730 -0.2771
 1495SOL    HW116121   3.021   1.603   7.867 -0.4162 -0.5127 -0.0425
 1495SOL    HW216122   3.154   1.538   7.848 -0.3655  1.8975  0.0789
 1496SOL     OW16123   0.338   1.353  15.734 -0.1730 -0.3057 -0.0871
 1496SOL    HW116124   0.297   1.421  15.681 -0.4683 -2.1821 -2.3085
 1496SOL    HW216125   0.269   1.340  15.799 -1.5535  3.3390 -0.8276
 1497SOL     OW16126   1.816   0.914  12.422 -0.5637 -0.2330  0.4140
 1497SOL    HW116127   1.809   0.895  12.328  0.5197 -1.1975  0.5281
 1497SOL    HW216128   1.853   0.837  12.465  1.1617 -1.2941 -2.9425
 1498SOL     OW16129   1.135   3.091   8.507 -0.2128  0.5792 -0.6630
 1498SOL    HW116130   1.158   3.050   8.590 -1.4557  2.2146  0.4989
 1498SOL    HW216131   1.089   3.025   8.455 -1.8751 -0.2092  1.8256
 1499SOL     OW16132   1.696   0.443   5.841 -0.1515 -0.3818 -0.0036
 1499SOL    HW116133   1.773   0.387   5.854 -0.1189 -0.2314  0.4369
 1499SOL    HW216134   1.629   0.415   5.903 -1.7499  0.9259 -1.1266
 1500SOL     OW16135   2.021   3.255   3.789 -0.3211 -0.1980 -0.0262
 1500SOL    HW116136   1.991   3.206   3.713  0.7263  1.5437 -1.5491
 1500SOL    HW216137   2.100   3.205   3.812  0.5139  1.5253  0.9221
 1501SOL     OW16138   1.866   1.883   9.688  0.2208 -0.0262 -0.2681
 1501SOL    HW116139   1.773   1.895   9.704  0.5500  0.4250  1.2463
 1501SOL    HW216140   1.889   1.856   9.777 -0.2835 -0.8066 -0.3729
 1502SOL     OW16141   0.322   2.451   7.996 -0.6202 -0.2375  0.3711
 1502SOL    HW116142   0.286   2.535   7.967 -0.5879  0.4204  2.1940
 1502SOL    HW216143   0.376   2.477   8.071 -1.2751  1.4317  0.2716
 1503SOL     OW16144   2.524   2.343   6.428 -0.4824  0.8700 -0.1930
 1503SOL    HW116145   2.448   2.320   6.373  1.9347 -1.3622 -2.5715
 1503SOL    HW216146   2.569   2.405   6.372  0.3618  0.4230 -0.0049
 1504SOL     OW16147   3.570   2.775   2.315  0.1086  0.3193 -0.7519
 1504SOL    HW116148   3.512   2.843   2.282  1.3696  2.0451  0.5985
 1504SOL    HW216149   3.622   2.821   2.381  1.2463 -1.4023 -0.4594
 1505SOL     OW16150   0.203   0.406   4.572  0.3156  0.2443  0.2227
 1505SOL    HW116151   0.116   0.396   4.612 -0.1750 -0.8365 -1.1186
 1505SOL    HW216152   0.185   0.493   4.538 -0.9632  0.2349  0.8341
 1506SOL     OW16153   0.001   2.501   2.715  0.0484  0.1745 -0.7947
 1506SOL    HW116154   0.031   2.521   2.626  2.6215 -1.1048 -0.2062
 1506SOL    HW216155   4.704   2.586   2.743 -0.7813 -0.1888 -0.6587
 1507SOL     OW16156   0.476   0.326   3.128  0.4637  0.1685  0.0303
 1507SOL    HW116157   0.533   0.250   3.114 -0.2406 -0.3786  0.1061
 1507SOL    HW216158   0.497   0.380   3.052 -1.7881  0.2511 -0.5081
 1508SOL     OW16159   4.554   4.148  12.819  0.2805  0.1736 -0.3880
 1508SOL    HW116160   4.638   4.184  12.848  0.9253 -2.1056  0.5871
 1508SOL    HW216161   4.529   4.115  12.905  1.5604  0.6339  0.1674
 1509SOL     OW16162   1.294   3.497   2.163 -0.2706  0.0765 -0.4079
 1509SOL    HW116163   1.345   3.428   2.120 -0.6550 -0.4075 -0.0862
 1509SOL    HW216164   1.345   3.575   2.140 -1.3188  0.8366 -0.1102
 1510SOL     OW16165   0.319   2.265  17.221 -0.2945  0.2995  0.6544
 1510SOL    HW116166   0.395   2.220  17.259 -0.4157 -0.0531  0.4715
 1510SOL    HW216167   0.255   2.270  17.292 -0.6474  0.4477  0.3211
 1511SOL     OW16168   2.770   0.007   8.869  0.4250  0.3375  0.2408
 1511SOL    HW116169   2.733   0.058   8.940 -0.8416 -0.1491 -0.0603
 1511SOL    HW216170   2.811   4.673   8.921  0.6578  1.6302  1.7833
 1512SOL     OW16171   1.231   2.015   2.746  0.1160 -0.1514  0.0499
 1512SOL    HW116172   1.195   1.946   2.802  0.6086 -0.7353 -0.3487
 1512SOL    HW216173   1.262   1.967   2.669 -0.5780 -1.6706  0.7217
 1513SOL     OW16174   3.502   3.903  17.378 -0.4148  0.1059  0.2521
 1513SOL    HW116175   3.487   3.919  17.471 -3.1898 -1.0889  0.0058
 1513SOL    HW216176   3.534   3.813  17.367 -1.9211 -0.4912  0.7205
 1514SOL     OW16177   1.695   2.468   9.541  0.1314  0.3657  0.5458
 1514SOL    HW116178   1.716   2.375   9.532  0.6306  0.5566 -0.3112
 1514SOL    HW216179   1.624   2.477   9.477  1.3394  1.5468 -0.6598
 1515SOL     OW16180   4.315   1.597  10.758 -0.1831  0.4779 -0.0542
 1515SOL    HW116181   4.248   1.665  10.751 -1.1538 -0.7388 -2.4221
 1515SOL    HW216182   4.326   1.595  10.853  3.0544  0.9876 -0.3893
 1516SOL     OW16183   1.967   3.699   9.697 -0.1018 -0.0024  0.4562
 1516SOL    HW116184   1.947   3.775   9.752  0.2604  0.1465  0.3863
 1516SOL    HW216185   2.025   3.736   9.631  0.1231  2.2528  1.8941
 1517SOL     OW16186   2.677   2.357  14.570  0.1967 -0.0703 -0.0204
 1517SOL    HW116187   2.768   2.328  14.564 -0.0407 -1.0730  1.1072
 1517SOL    HW216188   2.682   2.426  14.504  3.0592 -0.7960 -0.5300
 1518SOL     OW16189   2.820   3.365   8.694 -0.1166  0.4374  0.7275
 1518SOL    HW116190   2.838   3.398   8.782 -0.7466  0.8459  0.7049
 1518SOL    HW216191   2.765   3.288   8.711 -2.2088  1.7820  0.1095
 1519SOL     OW16192   0.109   1.629   7.838 -0.2220  0.1601 -0.3295
 1519SOL    HW116193   0.079   1.680   7.912 -2.9217 -2.2682  0.2580
 1519SOL    HW216194   0.110   1.541   7.876 -3.9884  0.5659  0.6805
 1520SOL     OW16195   4.562   4.565   8.817  0.1962  0.3275  0.4392
 1520SOL    HW116196   4.552   4.479   8.777  0.1369  0.0835  0.9855
 1520SOL    HW216197   4.636   4.555   8.876  0.8511  0.0336 -0.4408
 1521SOL     OW16198   1.087   1.578   7.686  0.1811 -0.7212 -0.3151
 1521SOL    HW116199   1.141   1.547   7.758 -0.3262 -0.4189  0.1961
 1521SOL    HW216200   1.079   1.499   7.633  2.2918  0.3167 -2.1815
 1522SOL     OW16201   2.700   3.865  14.778  0.0750  0.0151 -0.1797
 1522SOL    HW116202   2.613   3.830  14.799 -0.1042  1.0163  0.7403
 1522SOL    HW216203   2.739   3.778  14.772  0.5482  0.2585 -0.6465
 1523SOL     OW16204   1.317   1.564   1.936  0.1367  0.4849  0.2412
 1523SOL    HW116205   1.293   1.643   1.889 -0.8924 -0.3101 -0.5729
 1523SOL    HW216206   1.342   1.512   1.860 -0.0972  1.5618 -0.5656
 1524SOL     OW16207   4.294   3.413   9.203  0.4095  0.2330 -0.2593
 1524SOL    HW116208   4.260   3.342   9.148 -4.6820  2.1367  0.4156
 1524SOL    HW216209   4.386   3.412   9.176  0.5267 -2.5777  0.1758
 1525SOL     OW16210   2.075   2.984   2.936 -0.3938  0.5719 -0.1949
 1525SOL    HW116211   2.025   3.027   3.005 -0.1108 -0.2274  0.4960
 1525SOL    HW216212   2.067   2.892   2.962 -1.3655  0.1533 -1.9521
 1526SOL     OW16213   2.846   0.261   4.701 -0.5971 -0.2016 -0.5792
 1526SOL    HW116214   2.852   0.268   4.796 -2.3146 -3.1643 -0.2480
 1526SOL    HW216215   2.875   0.348   4.674 -1.5234 -0.0246 -1.0069
 1527SOL     OW16216   2.413   3.468   0.804 -0.4565  0.2722  0.1971
 1527SOL    HW116217   2.459   3.534   0.751 -0.5850  0.8187  0.7654
 1527SOL    HW216218   2.359   3.438   0.732 -0.7963 -0.8025  0.9027
 1528SOL     OW16219   3.279   0.332  16.909 -0.2155  0.3165 -0.3756
 1528SOL    HW116220   3.288   0.404  16.971  1.6029 -0.3892  0.1757
 1528SOL    HW216221   3.321   0.266  16.965 -2.1943 -1.2587 -0.7222
 1529SOL     OW16222   3.948   3.747   0.917  0.2937 -0.1620 -0.0373
 1529SOL    HW116223   4.035   3.715   0.892  0.1083  0.2265 -1.1817
 1529SOL    HW216224   3.968   3.762   1.009 -0.3148 -0.5134  0.1468
 1530SOL     OW16225   0.116   1.320   9.147 -0.5596 -0.3493  0.0390
 1530SOL    HW116226   0.177   1.247   9.149 -0.2517 -0.1025 -0.3501
 1530SOL    HW216227   0.165   1.371   9.083  1.8060 -1.8056  0.6738
 1531SOL     OW16228   3.177   1.475   1.617  0.4522  0.2604 -0.2477
 1531SOL    HW116229   3.193   1.565   1.644  0.7276 -1.0119  3.8746
 1531SOL    HW216230   3.267   1.453   1.641  0.1428 -0.0944  0.5957
 1532SOL     OW16231   3.212   0.976   1.920 -0.0390  0.0001  0.3224
 1532SOL    HW116232   3.267   1.028   1.980 -1.8843  0.2453  1.7988
 1532SOL    HW216233   3.172   0.912   1.979 -0.3559 -2.0575 -2.1521
 1533SOL     OW16234   0.164   3.482  15.450 -0.2504  0.3738 -0.3745
 1533SOL    HW116235   0.124   3.430  15.380  2.3786 -1.3988 -0.5233
 1533SOL    HW216236   0.095   3.484  15.517  0.5307 -0.5526  0.4601
 1534SOL     OW16237   0.390   4.063  16.377  0.0227  0.5408  0.0769
 1534SOL    HW116238   0.311   4.021  16.346  1.9068 -1.7072 -1.6517
 1534SOL    HW216239   0.406   3.992  16.439 -2.8129  2.3498  2.9144
 1535SOL     OW16240   2.546   1.394   8.461 -0.1681  0.5150 -0.0659
 1535SOL    HW116241   2.486   1.322   8.441 -2.7717  2.2341  1.5555
 1535SOL    HW216242   2.497   1.450   8.521  0.2261 -0.5219  1.2059
 1536SOL     OW16243   2.693   2.906   8.110  0.7734  0.2693 -0.0849
 1536SOL    HW116244   2.714   2.998   8.096 -0.6803  0.5991 -0.0142
 1536SOL    HW216245   2.781   2.867   8.110  0.6631  0.0225 -0.0645
 1537SOL     OW16246   2.180   0.820  15.625 -0.1838 -0.1448  0.0947
 1537SOL    HW116247   2.086   0.805  15.630 -0.2461  0.3704  0.4269
 1537SOL    HW216248   2.211   0.735  15.593 -0.6501 -0.3523  0.2036
 1538SOL     OW16249   1.741   1.569   2.825 -0.4065  0.1451  0.3570
 1538SOL    HW116250   1.771   1.512   2.896  0.6241  1.6657  1.1376
 1538SOL    HW216251   1.796   1.548   2.750 -0.5453 -1.9642  0.8308
 1539SOL     OW16252   0.671   0.161   0.870 -0.4880  0.1432  0.1988
 1539SOL    HW116253   0.692   0.147   0.778  1.0970  0.0434  0.5916
 1539SOL    HW216254   0.755   0.165   0.915 -0.7710  1.7398  0.5723
 1540SOL     OW16255   1.324   3.127   0.763 -0.4338  0.3901  0.1275
 1540SOL    HW116256   1.333   3.106   0.856 -0.8872  1.0079  0.3073
 1540SOL    HW216257   1.407   3.164   0.735  0.0741 -1.7780 -1.2254
 1541SOL     OW16258   1.709   4.701   7.934  0.0183 -0.0066  0.6466
 1541SOL    HW116259   1.699   0.031   8.004  1.3631  0.7225  0.1755
 1541SOL    HW216260   1.733   4.639   8.002  1.6075  1.4929  1.4702
 1542SOL     OW16261   2.088   0.750   2.415 -0.6740 -0.1129 -0.2805
 1542SOL    HW116262   2.176   0.776   2.388 -0.8365  0.8948  0.1538
 1542SOL    HW216263   2.027   0.780   2.348 -2.2315 -3.1219 -0.1861
 1543SOL     OW16264   1.431   1.710   6.511  0.8694  0.2922  0.0275
 1543SOL    HW116265   1.500   1.720   6.577  1.8003  0.6984 -1.0065
 1543SOL    HW216266   1.418   1.801   6.484  1.0676 -0.4943 -2.6443
 1544SOL     OW16267   3.553   2.789   4.701 -0.1159 -0.3958  0.5446
 1544SOL    HW116268   3.473   2.762   4.655  0.5318 -1.9311  0.3432
 1544SOL    HW216269   3.617   2.726   4.669  0.1370 -0.1285  0.5245
 1545SOL     OW16270   1.183   1.895   8.474  0.2193 -0.2441  0.8281
 1545SOL    HW116271   1.091   1.922   8.482 -0.1734 -1.0341 -1.0985
 1545SOL    HW216272   1.199   1.940   8.557  1.8548  0.5648  0.0668
 1546SOL     OW16273   1.653   3.885   8.641  0.0694 -0.2833 -0.0855
 1546SOL    HW116274   1.716   3.905   8.711 -0.4868 -3.7082  1.4109
 1546SOL    HW216275   1.581   3.849   8.694 -1.9256  2.4727 -0.9542
 1547SOL     OW16276   0.811   2.559   8.556  0.0724  0.0248  0.2255
 1547SOL    HW116277   0.809   2.547   8.651  0.0992  0.9853  0.3531
 1547SOL    HW216278   0.902   2.562   8.525 -0.4324  0.2811 -1.2246
 1548SOL     OW16279   2.619   1.153   2.283 -0.2431  0.0768  0.0704
 1548SOL    HW116280   2.604   1.154   2.377 -1.6782  1.6718 -0.1788
 1548SOL    HW216281   2.670   1.073   2.271 -1.9228 -1.2019  1.5190
 1549SOL     OW16282   0.916   1.823   9.230  0.0047 -0.1056  0.0142
 1549SOL    HW116283   0.955   1.823   9.317 -1.1251 -2.3127  0.5258
 1549SOL    HW216284   0.928   1.914   9.204 -1.7709  0.1782  0.1816
 1550SOL     OW16285   3.117   2.329   7.075  0.2221 -0.1211  0.1664
 1550SOL    HW116286   3.048   2.291   7.129  0.5318 -0.1538  0.5357
 1550SOL    HW216287   3.108   2.265   7.005  1.2050 -0.5686  0.4402
 1551SOL     OW16288   2.472   2.234  17.333  0.0647 -0.0929 -0.0993
 1551SOL    HW116289   2.447   2.317  17.372 -0.3077 -0.3677  0.2510
 1551SOL    HW216290   2.556   2.223  17.378 -1.1789 -1.7479  1.8278
 1552SOL     OW16291   0.596   0.353  12.862  0.1237 -0.3969  0.1536
 1552SOL    HW116292   0.583   0.400  12.944  0.9323 -0.1953  0.1757
 1552SOL    HW216293   0.617   0.427  12.805  2.0659 -1.2250 -0.2152
 1553SOL     OW16294   2.413   2.126   5.688  0.0182  0.6634 -0.0362
 1553SOL    HW116295   2.399   2.109   5.595 -0.2352 -3.3011  0.7555
 1553SOL    HW216296   2.329   2.105   5.728 -0.2610 -2.1825 -2.1471
 1554SOL     OW16297   1.251   3.423  14.538  0.1985 -0.2576 -0.2279
 1554SOL    HW116298   1.186   3.407  14.469  0.5768 -1.9409 -0.2092
 1554SOL    HW216299   1.197   3.458  14.609  0.3675  0.1363 -0.2934
 1555SOL     OW16300   3.464   2.246   6.328  0.2493 -0.1247 -0.0855
 1555SOL    HW116301   3.392   2.184   6.341 -1.8361  1.9718 -1.6088
 1555SOL    HW216302   3.544   2.194   6.320 -0.7871 -1.3275 -2.4612
 1556SOL     OW16303   3.718   3.033   3.724 -0.2595  0.0180  0.7368
 1556SOL    HW116304   3.659   3.091   3.678 -1.3238  0.0896  2.2004
 1556SOL    HW216305   3.778   3.000   3.656  0.2801  0.9173  0.7890
 1557SOL     OW16306   1.079   1.019  17.289  0.0610 -0.0672 -0.9312
 1557SOL    HW116307   1.170   1.018  17.258  0.6215  0.2662  0.7122
 1557SOL    HW216308   1.078   0.939  17.341 -1.8145  0.7822  0.3345
 1558SOL     OW16309   2.665   1.370   3.883 -0.1440  0.1147 -0.2133
 1558SOL    HW116310   2.694   1.431   3.951 -2.1389  0.8370  0.0061
 1558SOL    HW216311   2.569   1.365   3.884 -0.1412  0.0537 -0.2814
 1559SOL     OW16312   0.029   2.102  12.406 -0.0716  0.0042  0.1334
 1559SOL    HW116313   0.069   2.015  12.416  0.8751  0.5948  1.4555
 1559SOL    HW216314   0.083   2.155  12.465 -0.2726 -1.6032  1.7899
 1560SOL     OW16315   4.464   3.938   1.717  0.2091 -0.0791  0.0165
 1560SOL    HW116316   4.400   4.008   1.701  2.7410  2.3772  0.8514
 1560SOL    HW216317   4.541   3.965   1.668 -0.7764 -1.1663 -2.1462
 1561SOL     OW16318   2.657   0.644   0.665  0.4020 -0.2749  0.1798
 1561SOL    HW116319   2.711   0.641   0.744 -0.1401 -2.6478  0.4498
 1561SOL    HW216320   2.711   0.599   0.599  1.5278  0.7463  0.4093
 1562SOL     OW16321   0.206   1.906   2.594  0.0716  0.3196  0.4540
 1562SOL    HW116322   0.296   1.878   2.610  0.0254  0.7645  1.5401
 1562SOL    HW216323   0.159   1.828   2.624  1.6608 -0.5517  0.6975
 1563SOL     OW16324   1.514   4.392   6.936 -0.6115  0.4701  0.2240
 1563SOL    HW116325   1.492   4.454   7.005  1.9810  1.4972  0.1016
 1563SOL    HW216326   1.609   4.402   6.937 -0.5218 -0.5320  0.8249
 1564SOL     OW16327   2.962   3.895   2.351 -0.5416  0.5585 -0.0400
 1564SOL    HW116328   3.027   3.903   2.281  0.2130 -2.6753  0.3139
 1564SOL    HW216329   2.929   3.807   2.334  0.5751 -0.1366  1.4253
 1565SOL     OW16330   3.670   0.901   8.850  0.3776  0.2095 -0.5677
 1565SOL    HW116331   3.718   0.978   8.879  0.4044 -0.4509  1.1733
 1565SOL    HW216332   3.579   0.914   8.876  0.8071 -0.5958  1.3434
 1566SOL     OW16333   0.923   2.745   6.972 -0.1655 -0.0301 -0.1635
 1566SOL    HW116334   0.977   2.796   7.032  1.1337 -0.9827 -0.5285
 1566SOL    HW216335   0.849   2.805   6.965  0.5339  0.5361 -2.7205
 1567SOL     OW16336   1.217   1.071   3.563  0.2322 -0.4385 -0.2313
 1567SOL    HW116337   1.232   1.134   3.633  2.3073 -1.9948  0.7559
 1567SOL    HW216338   1.306   1.043   3.539  0.1492  0.0054 -1.0177
 1568SOL     OW16339   3.716   1.852  13.501 -0.3521 -1.0149 -0.0645
 1568SOL    HW116340   3.706   1.759  13.524  0.3018 -1.7843 -2.8227
 1568SOL    HW216341   3.623   1.864  13.478  0.6693  3.3582 -1.7717
 1569SOL     OW16342   4.617   4.459   6.100  0.1500  0.1056 -0.2959
 1569SOL    HW116343   4.564   4.522   6.149 -0.7979  0.1482 -1.3872
 1569SOL    HW216344   4.558   4.432   6.030 -2.1163  1.6902  1.0139
 1570SOL     OW16345   3.685   0.274   7.633  0.2228 -0.0910 -0.0908
 1570SOL    HW116346   3.682   0.241   7.723  0.9100  1.7752  0.6203
 1570SOL    HW216347   3.771   0.247   7.604  0.7384  1.0811  0.3309
 1571SOL     OW16348   0.852   0.714   2.256  0.1600  0.5768  0.2575
 1571SOL    HW116349   0.860   0.808   2.269 -0.0667  0.6861 -0.4163
 1571SOL    HW216350   0.880   0.673   2.338 -0.6782  0.7690  0.6404
 1572SOL     OW16351   1.755   0.796   7.358 -0.1623 -0.0140 -0.2126
 1572SOL    HW116352   1.666   0.814   7.387  0.9115  0.4950  2.8235
 1572SOL    HW216353   1.796   0.881   7.340  1.0154  0.0860  2.9641
 1573SOL     OW16354   2.714   1.798   6.477 -0.5809  0.3030  0.7661
 1573SOL    HW116355   2.735   1.708   6.451 -1.3839 -0.0767  1.4354
 1573SOL    HW216356   2.634   1.814   6.427 -0.4314  3.2691  1.4643
 1574SOL     OW16357   2.446   0.046  17.134 -0.6133 -0.2501  0.1899
 1574SOL    HW116358   2.528   4.735  17.117 -0.1888 -0.0267  1.6168
 1574SOL    HW216359   2.468   0.125  17.086 -1.1633 -1.0265 -1.3382
 1575SOL     OW16360   4.031   2.580   3.732 -0.3406 -0.4673  0.0655
 1575SOL    HW116361   4.057   2.668   3.759  2.0801 -1.6239  1.4862
 1575SOL    HW216362   3.997   2.548   3.815 -1.1259 -1.6356 -0.7069
 1576SOL     OW16363   4.018   1.777   5.721  0.0497 -0.4352 -0.7036
 1576SOL    HW116364   4.105   1.787   5.683 -0.9352  4.4916 -1.6384
 1576SOL    HW216365   3.967   1.767   5.641 -0.2422 -2.3252 -0.2777
 1577SOL     OW16366   2.396   2.839   3.969 -0.5113  0.2535  0.5095
 1577SOL    HW116367   2.406   2.847   3.875 -1.7150 -1.8814  0.1909
 1577SOL    HW216368   2.485   2.870   3.988 -0.6017 -0.0125  1.3789
 1578SOL     OW16369   1.315   4.372  16.695 -0.0830  0.0558  0.4588
 1578SOL    HW116370   1.318   4.387  16.790  1.6232 -1.2038  0.6196
 1578SOL    HW216371   1.394   4.415  16.662  0.0974 -0.9508 -0.4196
 1579SOL     OW16372   0.397   3.228   1.647  0.7357 -0.0157  0.4391
 1579SOL    HW116373   0.373   3.287   1.576  0.8371 -0.0798  0.3528
 1579SOL    HW216374   0.461   3.287   1.687 -0.4348  0.5230  1.5234
 1580SOL     OW16375   1.165   2.569  16.602  0.1883 -0.1662  0.0888
 1580SOL    HW116376   1.155   2.530  16.689  1.8892  0.4485  0.5511
 1580SOL    HW216377   1.087   2.542  16.553 -1.3428  0.4907  2.2153
 1581SOL     OW16378   4.250   1.434   6.019 -0.0756 -0.4698 -0.4328
 1581SOL    HW116379   4.265   1.527   6.006  0.4310 -0.3025  1.3289
 1581SOL    HW216380   4.216   1.411   5.933 -1.7011  2.4609 -0.5755
 1582SOL     OW16381   3.403   1.836  13.977  0.5181  0.5938 -0.6471
 1582SOL    HW116382   3.450   1.788  14.045 -0.4365  0.7622  0.1322
 1582SOL    HW216383   3.349   1.901  14.022 -0.1824  0.6148 -1.5185
 1583SOL     OW16384   0.557   3.669   9.017 -0.1511 -0.2476  0.7964
 1583SOL    HW116385   0.476   3.672   8.966  0.6737 -1.4518 -0.5865
 1583SOL    HW216386   0.524   3.687   9.105 -0.1645 -0.7953  0.9063
 1584SOL     OW16387   3.806   0.508   2.204  0.1123 -0.0238 -0.3214
 1584SOL    HW116388   3.752   0.472   2.133 -0.9089 -0.0274  0.4543
 1584SOL    HW216389   3.786   0.601   2.196  0.7479 -0.1262 -3.1018
 1585SOL     OW16390   4.028   0.790   6.382 -0.4041 -0.8231  0.4051
 1585SOL    HW116391   3.962   0.740   6.333  0.4590 -0.3576 -1.2141
 1585SOL    HW216392   3.996   0.738   6.457 -0.0584  0.0887  1.1804
 1586SOL     OW16393   1.647   2.972   3.039 -0.4678 -0.0832 -0.1691
 1586SOL    HW116394   1.596   3.047   3.011  0.9916  0.4720 -1.3003
 1586SOL    HW216395   1.633   2.907   2.970 -0.9453 -0.2950  0.1259
 1587SOL     OW16396   1.645   2.003  14.245 -0.1052  0.3585 -0.1304
 1587SOL    HW116397   1.656   2.011  14.151  1.0428 -1.0921 -0.1316
 1587SOL    HW216398   1.664   2.095  14.261 -1.6526  0.4836  0.9365
 1588SOL     OW16399   1.027   2.779   7.925 -0.3635  0.3648 -0.6569
 1588SOL    HW116400   1.078   2.762   8.004 -1.0490 -2.5835 -0.8289
 1588SOL    HW216401   0.957   2.839   7.948 -1.4260 -1.3907  0.6736
 1589SOL     OW16402   3.169   1.087   7.505  0.6734  0.1538  0.3297
 1589SOL    HW116403   3.150   1.165   7.557  0.9826 -0.2381  1.0441
 1589SOL    HW216404   3.248   1.120   7.463  1.6954  0.5929  2.5774
 1590SOL     OW16405   2.055   3.063  15.217  0.8672  0.2398 -0.5288
 1590SOL    HW116406   2.132   3.008  15.230  0.8665  0.6135  1.0360
 1590SOL    HW216407   1.982   3.002  15.228  0.8805  0.2644 -0.3139
 1591SOL     OW16408   2.422   3.356   6.346 -0.5327 -0.2507 -0.4483
 1591SOL    HW116409   2.393   3.432   6.397 -4.8844 -1.3003 -1.4134
 1591SOL    HW216410   2.428   3.402   6.263 -0.1928  1.4694  0.5133
 1592SOL     OW16411   4.333   1.749  15.955  0.1782  0.5853 -0.2596
 1592SOL    HW116412   4.418   1.790  15.935 -0.2678  0.7324 -1.8218
 1592SOL    HW216413   4.278   1.827  15.959  0.1173  0.5004  0.5619
 1593SOL     OW16414   2.118   4.548   2.238  0.4862  0.7092 -0.1879
 1593SOL    HW116415   2.047   4.569   2.177 -0.3415 -3.5660 -0.6760
 1593SOL    HW216416   2.174   4.626   2.232  1.7573 -0.2675 -1.3690
 1594SOL     OW16417   1.508   0.880   7.421  0.4435 -0.0228  0.1715
 1594SOL    HW116418   1.453   0.874   7.343 -2.0007 -4.1826  2.1767
 1594SOL    HW216419   1.444   0.850   7.486  0.2339 -2.3147 -1.0811
 1595SOL     OW16420   2.914   2.874   8.340  0.0363  0.2747  0.8948
 1595SOL    HW116421   2.971   2.949   8.360 -0.1534  0.5194  0.5256
 1595SOL    HW216422   2.831   2.911   8.369 -0.1231  0.1950  0.5491
 1596SOL     OW16423   0.946   1.082   8.646 -0.0362  0.0400 -0.5854
 1596SOL    HW116424   0.989   0.997   8.635 -1.6019 -0.7910 -0.1897
 1596SOL    HW216425   1.001   1.131   8.585  1.3365 -1.0266 -0.2174
 1597SOL     OW16426   0.492   3.783   6.451 -0.0984  0.7008  0.7281
 1597SOL    HW116427   0.529   3.868   6.431  1.5534 -0.6510 -1.8568
 1597SOL    HW216428   0.433   3.771   6.377 -0.0176  2.3322  0.4078
 1598SOL     OW16429   3.972   0.594   6.215 -0.2028  0.7136  0.1488
 1598SOL    HW116430   4.061   0.623   6.194  0.3979 -1.0912  0.2260
 1598SOL    HW216431   3.975   0.501   6.194 -0.8695  1.2971 -2.5736
 1599SOL     OW16432   2.816   3.376   7.533  0.0360 -0.3352  0.3003
 1599SOL    HW116433   2.893   3.433   7.541 -0.7801  0.7305  0.5307
 1599SOL    HW216434   2.853   3.320   7.465 -0.6680 -1.2201  0.6470
 1600SOL     OW16435   2.301   2.039  16.548 -0.0989 -0.4835  0.0886
 1600SOL    HW116436   2.302   1.969  16.613  0.5674 -0.2464  0.3372
 1600SOL    HW216437   2.345   2.100  16.606  1.4745  0.3407 -1.9554
 1601SOL     OW16438   0.268   4.182  12.071 -0.6163  0.2290  0.4050
 1601SOL    HW116439   0.195   4.237  12.045  0.6651  1.5791 -0.3316
 1601SOL    HW216440   0.333   4.252  12.083  1.8297 -2.0867  0.7589
 1602SOL     OW16441   1.354   2.111   5.485  0.4712  0.9768  0.3011
 1602SOL    HW116442   1.293   2.038   5.480  2.8654 -0.9967 -0.6539
 1602SOL    HW216443   1.348   2.146   5.396 -2.9716  1.2956  0.6673
 1603SOL     OW16444   1.290   0.609   2.117  0.1838  0.0398  0.0992
 1603SOL    HW116445   1.303   0.573   2.029  1.5596  0.0462  0.3031
 1603SOL    HW216446   1.198   0.636   2.111  1.0410  2.1207 -4.1421
 1604SOL     OW16447   1.834   4.182   9.163  0.5016  0.2458  0.3804
 1604SOL    HW116448   1.824   4.225   9.078  0.4785 -0.2179  0.1516
 1604SOL    HW216449   1.911   4.126   9.156  1.3074  1.2648  1.0086
 1605SOL     OW16450   3.468   3.488   9.120  0.2373  0.4705  0.3057
 1605SOL    HW116451   3.471   3.566   9.064 -1.2305  0.6187  0.4269
 1605SOL    HW216452   3.496   3.515   9.208  2.2566 -1.0814  0.1228
 1606SOL     OW16453   3.963   2.689  10.694  0.4166 -0.4676 -0.4052
 1606SOL    HW116454   3.875   2.652  10.698  0.2932  0.0533  1.5815
 1606SOL    HW216455   3.988   2.686  10.601  1.5318  0.1417 -0.1135
 1607SOL     OW16456   3.015   2.371  16.665  0.5170  0.3935 -0.3812
 1607SOL    HW116457   2.935   2.415  16.696  0.8755  1.0785 -0.4167
 1607SOL    HW216458   3.052   2.325  16.740  0.6150  0.9365 -0.0945
 1608SOL     OW16459   0.019   4.663   2.560 -0.6695 -0.3839 -0.2449
 1608SOL    HW116460   0.111   4.661   2.584 -1.4487 -1.5903  2.6567
 1608SOL    HW216461   0.011   4.607   2.482 -0.5123 -0.7245 -0.0154
 1609SOL     OW16462   2.290   2.324  13.667 -0.3715  0.7502  0.1458
 1609SOL    HW116463   2.214   2.332  13.725  1.3500  2.7474  2.1180
 1609SOL    HW216464   2.350   2.379  13.717 -0.6421  1.3973 -0.2397
 1610SOL     OW16465   1.061   3.360  10.376  0.4037 -0.1437 -0.0794
 1610SOL    HW116466   1.134   3.416  10.401  0.4415 -0.5512  0.7366
 1610SOL    HW216467   1.093   3.321  10.294  1.0787 -0.5663  0.3881
 1611SOL     OW16468   2.593   0.852   3.395  0.3340  0.0064  0.0416
 1611SOL    HW116469   2.622   0.882   3.310 -0.4797  1.1505  0.1806
 1611SOL    HW216470   2.675   0.844   3.444 -0.3940  1.3120  1.5052
 1612SOL     OW16471   0.663   4.045   1.180 -0.0477 -0.7944  0.1140
 1612SOL    HW116472   0.733   3.980   1.175  0.4697  0.0386 -3.7003
 1612SOL    HW216473   0.653   4.042   1.275  2.3594 -2.9485  0.2808
 1613SOL     OW16474   1.422   2.690   7.731 -0.2211  0.2586  0.0125
 1613SOL    HW116475   1.335   2.717   7.701  0.7844  2.7839 -0.6428
 1613SOL    HW216476   1.406   2.683   7.825 -0.5961  0.0583 -0.0621
 1614SOL     OW16477   0.105   0.606  12.533  0.2179  0.0197  0.0240
 1614SOL    HW116478   0.136   0.524  12.495  3.5770  1.4009 -0.2770
 1614SOL    HW216479   0.012   0.584  12.539 -0.3531  2.4436  0.0679
 1615SOL     OW16480   3.997   0.350   4.984 -0.0895  0.7392  0.0302
 1615SOL    HW116481   4.019   0.300   5.063 -0.0755 -1.8541 -1.6424
 1615SOL    HW216482   3.940   0.290   4.937 -1.1706  2.3291 -0.6932
 1616SOL     OW16483   4.431   0.394   5.640  0.8397  0.0025  0.1568
 1616SOL    HW116484   4.522   0.409   5.666  0.9408  0.1497 -0.2837
 1616SOL    HW216485   4.414   0.479   5.600  4.7431  1.3198  1.3090
 1617SOL     OW16486   2.311   0.792   2.261  0.0752 -0.2749 -0.3347
 1617SOL    HW116487   2.376   0.847   2.306  0.8330 -2.8375  1.7077
 1617SOL    HW216488   2.293   0.842   2.182  2.3602 -2.5032 -2.2633
 1618SOL     OW16489   3.969   2.595  12.196  0.0007  0.1729  0.3695
 1618SOL    HW116490   3.957   2.643  12.278  3.0806 -0.6363  1.3154
 1618SOL    HW216491   3.963   2.508  12.236  0.7921 -0.7925 -1.5930
 1619SOL     OW16492   1.751   1.221   9.767  0.3791 -0.0274  0.5732
 1619SOL    HW116493   1.841   1.237   9.795  0.6196 -0.2301 -0.0701
 1619SOL    HW216494   1.720   1.179   9.847  1.4809 -1.6499  0.1578
 1620SOL     OW16495   3.346   3.189   6.277  0.1270 -0.1614  0.4487
 1620SOL    HW116496   3.283   3.182   6.349 -0.2115 -0.5331  0.1174
 1620SOL    HW216497   3.401   3.113   6.298  0.9695  0.2152 -0.4216
 1621SOL     OW16498   2.832   0.870   8.340  0.2979  0.0958  0.5864
 1621SOL    HW116499   2.824   0.855   8.434  1.4261  2.2861  1.0307
 1621SOL    HW216500   2.920   0.905   8.331 -0.9604  2.9577 -0.8493
 1622SOL     OW16501   4.576   1.174   5.055 -0.2017 -0.6005  0.5173
 1622SOL    HW116502   4.530   1.180   4.972 -0.3954 -1.6747  0.5551
 1622SOL    HW216503   4.586   1.079   5.049 -1.7367 -0.7252 -0.0974
 1623SOL     OW16504   1.638   0.622   0.993  0.1881 -0.2351  0.2972
 1623SOL    HW116505   1.617   0.677   0.918 -2.2026  1.2971  2.0933
 1623SOL    HW216506   1.645   0.536   0.951  1.4420  0.9903 -2.0040
 1624SOL     OW16507   0.832   3.969   7.043 -0.2811  0.3855 -0.0318
 1624SOL    HW116508   0.927   3.976   7.032 -0.4538  4.4228  0.9823
 1624SOL    HW216509   0.809   3.918   6.966 -0.2343  0.8267 -0.3432
 1625SOL     OW16510   2.016   4.489   7.120 -0.5207  0.0637  0.9038
 1625SOL    HW116511   2.057   4.404   7.137 -1.9582 -1.0039 -0.9379
 1625SOL    HW216512   2.078   4.509   7.050  0.1324 -0.9755  1.1744
 1626SOL     OW16513   4.240   1.160   0.606 -0.0714 -0.1789  0.6061
 1626SOL    HW116514   4.154   1.122   0.623  0.3639 -0.5984  1.8212
 1626SOL    HW216515   4.242   1.216   0.683  1.0515  1.5775 -0.6849
 1627SOL     OW16516   2.049   0.960   7.796 -0.0599 -0.5645 -0.0277
 1627SOL    HW116517   1.999   0.933   7.873 -1.3361  1.5290 -0.1127
 1627SOL    HW216518   2.064   0.870   7.766 -0.0292 -0.5160 -0.1595
 1628SOL     OW16519   4.600   0.159  13.398 -0.2690 -0.0961  0.1978
 1628SOL    HW116520   4.605   0.248  13.363 -0.1147 -0.1151  0.1721
 1628SOL    HW216521   4.644   0.117  13.324  1.8489  1.7997  0.3762
 1629SOL     OW16522   1.584   2.258   9.829 -0.1022 -0.6292  0.4528
 1629SOL    HW116523   1.627   2.256   9.744 -0.6568 -2.1794  0.2223
 1629SOL    HW216524   1.527   2.182   9.832 -0.3321 -0.5880 -2.8819
 1630SOL     OW16525   2.205   1.713   4.572  0.1870  0.3176 -0.3201
 1630SOL    HW116526   2.130   1.710   4.513  0.7745 -1.5783 -0.9786
 1630SOL    HW216527   2.269   1.760   4.518 -1.2409  2.3619 -0.2030
 1631SOL     OW16528   4.545   0.011   6.277  0.3717  0.1696 -0.2668
 1631SOL    HW116529   4.618   0.027   6.336 -0.0770 -0.0280  0.3458
 1631SOL    HW216530   4.554   0.091   6.225 -2.0859  0.7841  0.2354
 1632SOL     OW16531   3.702   1.516   2.527 -0.1413  0.1447 -0.2861
 1632SOL    HW116532   3.781   1.544   2.572 -0.2092  1.4255 -0.9478
 1632SOL    HW216533   3.642   1.560   2.588  0.4954 -1.5942  1.5871
 1633SOL     OW16534   2.972   0.691   0.709 -0.5120 -0.1984  0.0026
 1633SOL    HW116535   2.950   0.608   0.666 -1.0116  0.6827 -1.4436
 1633SOL    HW216536   2.945   0.671   0.799  1.5021 -3.3826 -0.0578
 1634SOL     OW16537   0.757   1.934   3.238 -0.0651 -0.0074 -0.9436
 1634SOL    HW116538   0.682   1.987   3.264 -0.5434 -0.1838 -1.9391
 1634SOL    HW216539   0.800   1.907   3.319  0.6152  0.2068 -1.2321
 1635SOL     OW16540   0.146   1.001   6.466 -0.5708  0.6526  0.3566
 1635SOL    HW116541   0.062   0.978   6.428 -0.3195 -1.6971  1.2621
 1635SOL    HW216542   0.175   0.921   6.508  0.0913  0.5810 -0.2212
 1636SOL     OW16543   0.843   1.685   5.859  0.4500 -0.2828 -0.3857
 1636SOL    HW116544   0.911   1.750   5.874 -1.2301  0.8196  2.5062
 1636SOL    HW216545   0.828   1.695   5.765 -2.9043  2.7304  0.4594
 1637SOL     OW16546   0.540   1.836   4.437  0.1346  0.1842  0.0525
 1637SOL    HW116547   0.462   1.807   4.389  0.5660 -2.1080  0.7559
 1637SOL    HW216548   0.605   1.812   4.371 -0.6519  0.4418 -0.8162
 1638SOL     OW16549   0.539   0.928   2.500  0.3573  0.2926 -0.7828
 1638SOL    HW116550   0.507   0.838   2.494 -1.2489  0.8135  0.2107
 1638SOL    HW216551   0.614   0.938   2.440 -1.2659 -0.7543 -2.9990
 1639SOL     OW16552   1.176   0.461   7.705 -0.2808 -0.7701 -0.3694
 1639SOL    HW116553   1.143   0.453   7.616 -1.0333 -2.0772  0.0275
 1639SOL    HW216554   1.262   0.494   7.678 -0.4785  0.7629  0.8663
 1640SOL     OW16555   0.399   1.820   1.636 -0.6490  0.0966  0.1395
 1640SOL    HW116556   0.362   1.900   1.673  0.8787 -0.0129  1.9551
 1640SOL    HW216557   0.457   1.852   1.568 -0.0267  1.3935  1.2842
 1641SOL     OW16558   1.067   2.936  15.277 -0.1461  1.0234 -0.1869
 1641SOL    HW116559   1.128   2.999  15.238  1.5542  0.8060  2.0947
 1641SOL    HW216560   1.117   2.857  15.255  1.1045  2.0305 -0.9482
 1642SOL     OW16561   2.244   1.852   5.668  0.3841 -0.1342  0.0250
 1642SOL    HW116562   2.155   1.849   5.701  0.9794  0.8978  1.7294
 1642SOL    HW216563   2.288   1.778   5.710 -0.6219  0.0149  1.3233
 1643SOL     OW16564   4.491   2.024  11.078  0.2464 -0.4471 -0.4208
 1643SOL    HW116565   4.569   1.972  11.097  1.1344  1.3112  0.6836
 1643SOL    HW216566   4.508   2.084  11.006  1.0643  1.0184  1.0154
 1644SOL     OW16567   0.351   3.862   1.855 -0.0961 -0.3055 -0.5210
 1644SOL    HW116568   0.266   3.818   1.859 -0.0032 -0.4185  0.0937
 1644SOL    HW216569   0.406   3.799   1.902 -1.4149 -1.6086 -0.7354
 1645SOL     OW16570   2.456   2.453  13.814 -0.4024  0.0852  0.9625
 1645SOL    HW116571   2.538   2.499  13.795 -1.1844  1.7418  1.6348
 1645SOL    HW216572   2.494   2.391  13.876  1.1173  0.0276 -0.0060
 1646SOL     OW16573   4.125   0.893   1.844  1.0626  0.4158  0.0593
 1646SOL    HW116574   4.035   0.900   1.873  1.5211  1.3332  1.2601
 1646SOL    HW216575   4.164   0.830   1.905 -1.1670 -0.1238  0.9137
 1647SOL     OW16576   3.025   2.967   0.420 -0.0797  0.0564 -0.0857
 1647SOL    HW116577   3.093   2.919   0.467  0.5185 -1.0699 -2.0946
 1647SOL    HW216578   3.074   3.040   0.382 -0.3577  0.3920  0.1965
 1648SOL     OW16579   2.270   4.432   0.657  1.2246  0.6800  0.5080
 1648SOL    HW116580   2.282   4.447   0.563 -2.0427  0.4468  0.0518
 1648SOL    HW216581   2.300   4.342   0.667  0.9815  0.6508  0.9728
 1649SOL     OW16582   1.956   2.076   8.697  0.1972 -0.1993  0.7357
 1649SOL    HW116583   2.050   2.091   8.690  0.0459 -0.7226 -2.0488
 1649SOL    HW216584   1.929   2.157   8.740  1.2235 -0.4650  1.8963
 1650SOL     OW16585   1.421   1.046  11.344 -0.3679  0.3159  0.3348
 1650SOL    HW116586   1.378   1.088  11.419 -1.3819 -0.2984  0.0981
 1650SOL    HW216587   1.422   1.115  11.278  1.3673 -0.8159 -0.8094
 1651SOL     OW16588   1.794   3.958   2.764  0.3188  0.1918 -0.2738
 1651SOL    HW116589   1.875   4.006   2.745 -0.7240  1.6541 -0.9922
 1651SOL    HW216590   1.820   3.867   2.748  0.1953  0.2317 -0.6916
 1652SOL     OW16591   0.870   0.239  10.851  0.2105 -0.4339  0.2102
 1652SOL    HW116592   0.794   0.286  10.885 -0.4153 -0.1845 -1.5286
 1652SOL    HW216593   0.822   0.160  10.826 -0.7849  0.6107 -1.1310
 1653SOL     OW16594   2.561   0.160   4.774 -0.2254 -0.0619  0.3609
 1653SOL    HW116595   2.511   0.088   4.813 -2.1124  1.3576  0.5721
 1653SOL    HW216596   2.647   0.120   4.762 -0.0985 -0.1657  1.5484
 1654SOL     OW16597   2.297   2.415  17.435 -0.7957  0.2754  0.0603
 1654SOL    HW116598   2.288   2.486  17.499  0.2742  0.1398  0.3659
 1654SOL    HW216599   2.206   2.417  17.406 -0.2943  2.1629 -1.3782
 1655SOL     OW16600   4.356   1.599   8.049  0.2197 -0.0407  0.0406
 1655SOL    HW116601   4.266   1.577   8.026 -0.0538  1.7112 -0.5456
 1655SOL    HW216602   4.399   1.520   8.081 -0.0973  0.1903  1.0246
 1656SOL     OW16603   4.391   3.862   5.822 -0.0729  0.5969 -0.1086
 1656SOL    HW116604   4.461   3.810   5.785  1.4532  2.8841 -0.4371
 1656SOL    HW216605   4.374   3.825   5.908 -0.2779 -0.4771 -0.6043
 1657SOL     OW16606   3.991   2.794   8.997  0.3123  0.1199 -0.3537
 1657SOL    HW116607   3.925   2.780   8.930 -0.2994  0.3590  0.2034
 1657SOL    HW216608   4.045   2.714   8.996  2.3886  1.5019  0.8353
 1658SOL     OW16609   2.797   3.551  14.425 -0.6188 -0.4576 -0.2506
 1658SOL    HW116610   2.854   3.491  14.473 -0.2764  0.5254  0.5661
 1658SOL    HW216611   2.709   3.513  14.432 -1.3924  1.2738 -0.6017
 1659SOL     OW16612   1.794   4.394   6.929  0.3729  0.3254 -0.5374
 1659SOL    HW116613   1.839   4.316   6.896  1.2959  0.9305 -0.7169
 1659SOL    HW216614   1.860   4.432   6.988  1.7961 -0.9566 -1.2920
 1660SOL     OW16615   2.452   3.920   3.475  0.2129 -1.1158 -0.4411
 1660SOL    HW116616   2.367   3.959   3.456 -0.0517 -1.0245  0.9361
 1660SOL    HW216617   2.433   3.873   3.556 -1.6054  1.0094  0.3384
 1661SOL     OW16618   4.616   0.213   6.076  0.1873  0.4371  0.1364
 1661SOL    HW116619   4.564   0.193   5.998  0.3363 -0.4266  0.2550
 1661SOL    HW216620   4.705   0.181   6.062 -0.2054 -0.8997  0.6911
 1662SOL     OW16621   2.486   3.536   8.677 -0.3521  0.1261  0.3935
 1662SOL    HW116622   2.526   3.519   8.592  0.5062  0.7384  0.6752
 1662SOL    HW216623   2.543   3.607   8.708  0.2362  0.5975 -1.7522
 1663SOL     OW16624   2.199   2.611   8.481 -0.0353 -0.0768 -0.0376
 1663SOL    HW116625   2.261   2.546   8.513 -0.9229 -0.1789  1.4493
 1663SOL    HW216626   2.262   2.680   8.460 -0.7348  1.1125  1.8505
 1664SOL     OW16627   0.102   0.650   6.791 -0.2091  0.3685 -0.0763
 1664SOL    HW116628   0.010   0.625   6.799 -0.4680  0.6567 -2.3746
 1664SOL    HW216629   0.147   0.594   6.854  0.2702  1.3132  0.4177
 1665SOL     OW16630   2.908   3.046  13.546  0.1579 -0.2883 -0.5409
 1665SOL    HW116631   2.877   3.013  13.631  0.1172  1.3138  0.0782
 1665SOL    HW216632   2.841   3.113  13.529  0.5496  0.0754 -0.6520
 1666SOL     OW16633   3.488   3.459   6.463  0.4325 -0.5368  0.4176
 1666SOL    HW116634   3.539   3.381   6.480 -0.0586 -0.3716  2.6372
 1666SOL    HW216635   3.399   3.427   6.479 -0.2345  0.9875 -0.1677
 1667SOL     OW16636   4.050   4.011   5.093 -0.5162 -0.1999 -0.2289
 1667SOL    HW116637   3.991   3.950   5.135  0.3731 -0.3616  0.7669
 1667SOL    HW216638   4.002   4.035   5.014 -0.7811  1.8879  0.5522
 1668SOL     OW16639   3.444   3.643   7.348 -0.3060 -0.5016  0.0810
 1668SOL    HW116640   3.446   3.632   7.253  1.5899  0.3134  0.0228
 1668SOL    HW216641   3.513   3.705   7.373 -0.7005 -0.7027  1.6832
 1669SOL     OW16642   1.179   0.151   6.092  0.3199 -0.4696 -0.0680
 1669SOL    HW116643   1.232   0.170   6.169 -0.1849  1.6880 -0.2642
 1669SOL    HW216644   1.206   0.062   6.067 -3.2557 -1.3890 -0.6703
 1670SOL     OW16645   0.604   3.680  16.283  0.2848  0.7812  0.0248
 1670SOL    HW116646   0.658   3.745  16.238 -0.6796  1.0621 -0.7303
 1670SOL    HW216647   0.625   3.603  16.229 -0.3656  0.5698  0.0758
 1671SOL     OW16648   2.949   1.616   7.563 -0.2224  0.0283  0.2191
 1671SOL    HW116649   2.994   1.700   7.572 -1.5234  0.6056  1.3695
 1671SOL    HW216650   2.997   1.571   7.633 -2.1447  0.5762  1.9179
 1672SOL     OW16651   4.070   1.603  12.624  0.1565  0.2608 -0.0674
 1672SOL    HW116652   4.031   1.520  12.596  2.3624 -1.1657  1.0108
 1672SOL    HW216653   3.989   1.652  12.621 -0.0317  0.0206  0.8645
 1673SOL     OW16654   2.681   2.554   8.662 -0.4287 -0.0110 -0.3860
 1673SOL    HW116655   2.701   2.643   8.690 -0.3961 -0.3886  0.7699
 1673SOL    HW216656   2.742   2.498   8.710 -3.2161 -2.0263  0.7357
 1674SOL     OW16657   3.894   2.749   6.567  0.3504 -0.4170  0.2177
 1674SOL    HW116658   3.908   2.707   6.653 -0.5875  3.4733  2.2510
 1674SOL    HW216659   3.943   2.827   6.593 -1.0284  0.7547 -0.7840
 1675SOL     OW16660   1.722   1.820   1.117 -0.0213  0.1416  0.0668
 1675SOL    HW116661   1.659   1.776   1.060 -0.5467 -0.6669  1.2534
 1675SOL    HW216662   1.709   1.908   1.081  0.6055 -0.4735 -1.6473
 1676SOL     OW16663   0.918   1.467   1.483  0.2664 -0.0023  0.0105
 1676SOL    HW116664   0.979   1.505   1.546  3.4555 -1.1828 -2.3241
 1676SOL    HW216665   0.970   1.391   1.456  0.3430 -0.0323  0.2406
 1677SOL     OW16666   0.169   3.345   8.579  0.1497 -0.1469 -0.1154
 1677SOL    HW116667   0.139   3.255   8.588  1.2005 -0.8086 -3.2010
 1677SOL    HW216668   0.245   3.353   8.637  0.5923 -1.0137 -0.5739
 1678SOL     OW16669   1.057   2.739   1.392  0.3308  0.7174  0.0842
 1678SOL    HW116670   1.056   2.652   1.431  1.9071  0.2645 -0.8507
 1678SOL    HW216671   0.966   2.766   1.402 -0.1217  0.4829 -3.2665
 1679SOL     OW16672   3.857   4.256  11.239 -0.3081  0.2464  0.4313
 1679SOL    HW116673   3.808   4.175  11.223  0.5553 -0.2729  0.4102
 1679SOL    HW216674   3.796   4.327  11.218  1.0614  2.1077  2.7065
 1680SOL     OW16675   0.689   3.777  10.535  0.1115 -0.8582  0.3809
 1680SOL    HW116676   0.705   3.749  10.445 -2.7986  0.3198 -0.5017
 1680SOL    HW216677   0.598   3.759  10.559  0.1396 -1.0037  0.3806
 1681SOL     OW16678   1.768   4.174   4.461  0.1590 -0.0828  0.1459
 1681SOL    HW116679   1.735   4.252   4.504  0.8935  0.5798 -0.4803
 1681SOL    HW216680   1.861   4.200   4.457  0.1840 -0.1448  0.3677
 1682SOL     OW16681   2.836   1.633   4.922 -0.1415  0.3382 -0.1230
 1682SOL    HW116682   2.840   1.690   4.845  0.7658  0.2028 -0.1768
 1682SOL    HW216683   2.785   1.690   4.979  0.1690 -0.7815  1.2804
 1683SOL     OW16684   0.590   1.003   3.867 -0.0295  0.2598 -0.7658
 1683SOL    HW116685   0.613   1.078   3.922 -0.7918  0.1576 -0.3068
 1683SOL    HW216686   0.496   1.015   3.862 -0.1611  0.2136  1.7405
 1684SOL     OW16687   2.892   3.814   1.906  0.6201 -0.6461  0.3100
 1684SOL    HW116688   2.850   3.740   1.862  0.8804 -2.1726  2.6308
 1684SOL    HW216689   2.965   3.760   1.938  1.9756  0.6107 -0.6265
 1685SOL     OW16690   3.409   2.387   8.441 -0.5016  0.2318 -0.7831
 1685SOL    HW116691   3.352   2.463   8.428  0.8418  1.6525  1.7469
 1685SOL    HW216692   3.471   2.420   8.506  0.9831  0.6175 -2.3896
 1686SOL     OW16693   1.608   2.891   2.296  0.4148 -0.2062 -0.1952
 1686SOL    HW116694   1.638   2.979   2.320  0.4492 -0.5120  0.8817
 1686SOL    HW216695   1.614   2.880   2.201  1.7035  0.3504 -0.1796
 1687SOL     OW16696   2.033   1.685   4.357  0.4683 -0.0398  0.3270
 1687SOL    HW116697   2.013   1.608   4.303  3.5451  0.8169 -1.9875
 1687SOL    HW216698   1.955   1.737   4.336  1.6182  1.5806  0.1083
 1688SOL     OW16699   1.148   2.697   8.904  0.0752  0.0180  0.1849
 1688SOL    HW116700   1.210   2.625   8.905  1.2918  1.0500 -0.1905
 1688SOL    HW216701   1.121   2.697   8.812  2.6246 -1.1891 -0.5472
 1689SOL     OW16702   0.508   1.224   2.185 -0.2206 -0.4729 -0.2402
 1689SOL    HW116703   0.450   1.238   2.110 -0.2063 -1.9321 -0.5239
 1689SOL    HW216704   0.543   1.138   2.162  1.7928  0.2214  0.1569
 1690SOL     OW16705   4.245   1.189  10.907  0.4155 -0.3548  0.0030
 1690SOL    HW116706   4.257   1.235  10.990  1.7529  0.7500 -0.8114
 1690SOL    HW216707   4.325   1.139  10.890  0.1522 -0.5082 -0.7626
 1691SOL     OW16708   3.302   4.702   3.096  0.4718  0.1501 -0.3462
 1691SOL    HW116709   3.219   4.699   3.144  1.1309 -1.7941  0.6829
 1691SOL    HW216710   3.334   4.614   3.116  3.0934  1.0408 -0.5893
 1692SOL     OW16711   0.110   0.008   4.475 -0.5761  0.0422  0.1001
 1692SOL    HW116712   0.157   4.675   4.522 -1.0235  1.1478  2.1506
 1692SOL    HW216713   0.167   0.032   4.402  0.9920 -5.4710 -0.4855
 1693SOL     OW16714   4.437   4.323   2.129 -0.2235  0.0300 -0.3335
 1693SOL    HW116715   4.365   4.335   2.067 -1.6903  0.8017  1.5557
 1693SOL    HW216716   4.441   4.407   2.174  4.1642  0.7664 -2.0505
 1694SOL     OW16717   1.312   3.760  12.655 -0.0863 -0.4905 -0.1838
 1694SOL    HW116718   1.382   3.782  12.592  0.5469 -0.7542  0.4293
 1694SOL    HW216719   1.279   3.850  12.655 -1.5612 -1.0373 -1.8534
 1695SOL     OW16720   2.915   3.861   3.139  0.1886  0.1040 -0.6041
 1695SOL    HW116721   2.871   3.866   3.224 -0.6178  1.5497 -1.1001
 1695SOL    HW216722   3.005   3.870   3.170  0.0935  0.6273 -0.4720
 1696SOL     OW16723   2.101   1.465   5.393 -0.1445 -0.6238  0.6747
 1696SOL    HW116724   2.131   1.552   5.369  1.7525 -1.6659 -0.7116
 1696SOL    HW216725   2.183   1.419   5.410 -0.9306 -1.8873  1.0239
 1697SOL     OW16726   1.700   2.274  14.265  0.1070  0.2017  0.3818
 1697SOL    HW116727   1.780   2.276  14.318  0.6589 -0.5217 -0.4300
 1697SOL    HW216728   1.692   2.370  14.257  2.1364  0.3670  0.2895
 1698SOL     OW16729   1.639   2.527   2.733  0.0875 -0.0608  0.6647
 1698SOL    HW116730   1.674   2.545   2.646 -0.6588 -0.0942  0.3616
 1698SOL    HW216731   1.651   2.602   2.791  0.7094  1.1208 -0.9802
 1699SOL     OW16732   3.352   0.728   4.807 -0.1148 -0.3916 -0.4400
 1699SOL    HW116733   3.388   0.816   4.819 -1.2517  0.0007  0.0672
 1699SOL    HW216734   3.374   0.714   4.715 -0.2526  1.5451 -0.7751
 1700SOL     OW16735   4.091   4.113   8.875  0.2505  0.0160 -0.5623
 1700SOL    HW116736   4.162   4.167   8.842 -0.4043  1.5249  0.5307
 1700SOL    HW216737   4.078   4.142   8.965  2.4651  0.3902 -0.3789
 1701SOL     OW16738   2.642   0.362  15.649 -0.1710  0.1465 -0.1717
 1701SOL    HW116739   2.558   0.403  15.628 -0.6087  0.2445  1.8049
 1701SOL    HW216740   2.674   0.363  15.559  1.4713 -1.2795  0.4108
 1702SOL     OW16741   2.508   1.386   5.923  0.2959  0.0605  0.4183
 1702SOL    HW116742   2.575   1.383   5.991  1.9294 -0.0537 -1.2047
 1702SOL    HW216743   2.560   1.372   5.844  0.2996  0.1939  0.3970
 1703SOL     OW16744   3.592   1.983  10.826  0.1192 -0.2434  0.1467
 1703SOL    HW116745   3.561   2.006  10.739  3.1573  1.3421 -0.5183
 1703SOL    HW216746   3.507   1.968  10.869 -0.7193  0.8750 -1.1076
 1704SOL     OW16747   2.684   1.070   5.909  0.3199 -0.2986  0.4323
 1704SOL    HW116748   2.602   1.068   5.958 -0.9556  1.3225 -1.6349
 1704SOL    HW216749   2.653   1.062   5.818  1.2608 -1.3414  0.1980
 1705SOL     OW16750   2.704   1.770   5.130  0.1396  0.3092 -0.2291
 1705SOL    HW116751   2.782   1.820   5.153  0.3472 -0.0151 -0.2346
 1705SOL    HW216752   2.648   1.840   5.095 -0.8006 -0.1597  0.3181
 1706SOL     OW16753   3.632   4.714   4.917 -0.0079 -0.2488  0.7079
 1706SOL    HW116754   3.572   4.693   4.989 -1.7774  0.4780 -0.5486
 1706SOL    HW216755   3.560   4.719   4.854  1.2868 -0.0386 -0.7324
 1707SOL     OW16756   4.056   0.392   8.612  0.3254 -0.4613 -0.1583
 1707SOL    HW116757   4.023   0.346   8.689  1.4898 -0.4488  0.3352
 1707SOL    HW216758   4.060   0.483   8.643 -1.8333 -0.7971  1.0929
 1708SOL     OW16759   4.645   3.829   6.936 -0.8714  0.0738  0.7214
 1708SOL    HW116760   4.705   3.757   6.920 -1.0678  0.2769 -1.0054
 1708SOL    HW216761   4.701   3.900   6.905 -0.2507 -0.6881  0.1169
 1709SOL     OW16762   3.403   0.030   4.672  0.1582 -0.1416  0.2432
 1709SOL    HW116763   3.324   0.038   4.618  1.6658 -1.4291 -2.1236
 1709SOL    HW216764   3.388   0.106   4.729  0.6425  0.3973 -0.3483
 1710SOL     OW16765   1.732   0.462   3.700  0.1791 -0.0403  0.6505
 1710SOL    HW116766   1.685   0.542   3.724 -0.7379  0.0756 -1.4806
 1710SOL    HW216767   1.796   0.503   3.642  0.2706  1.0887  1.5620
 1711SOL     OW16768   1.839   0.578   8.035  0.3095 -0.0880  0.4419
 1711SOL    HW116769   1.798   0.492   8.029  0.6171 -0.2520  0.6726
 1711SOL    HW216770   1.756   0.624   8.048  0.4702  1.0501 -2.3769
 1712SOL     OW16771   0.736   4.611   8.375 -0.3113 -0.1461 -0.4353
 1712SOL    HW116772   0.825   4.578   8.365 -0.6465 -0.7223 -1.5324
 1712SOL    HW216773   0.691   4.538   8.333  0.5671 -0.2887 -1.1133
 1713SOL     OW16774   1.818   3.239   4.368 -0.4167  0.1423  0.3085
 1713SOL    HW116775   1.810   3.214   4.276 -0.7496  0.0729  0.3569
 1713SOL    HW216776   1.910   3.264   4.374  0.1367 -1.0741 -3.1358
 1714SOL     OW16777   2.333   3.128   9.438 -0.5247 -0.2237 -0.4410
 1714SOL    HW116778   2.383   3.125   9.519 -0.1868  1.4258 -0.6002
 1714SOL    HW216779   2.276   3.203   9.450  0.1086 -0.1309  1.8448
 1715SOL     OW16780   0.931   2.301   2.093  0.0620  0.0812  0.1339
 1715SOL    HW116781   0.839   2.319   2.073 -0.0355 -0.4958  0.0553
 1715SOL    HW216782   0.920   2.261   2.179  0.8400 -1.4535 -0.4817
 1716SOL     OW16783   3.272   0.363   5.971  0.0989  0.3118  0.4949
 1716SOL    HW116784   3.310   0.312   5.900 -0.4628 -0.7401  0.9438
 1716SOL    HW216785   3.191   0.401   5.937 -0.0190  1.8400  2.4572
 1717SOL     OW16786   4.734   0.503   7.159 -0.0031  0.1548  0.7944
 1717SOL    HW116787   4.649   0.502   7.116 -0.0871  2.1651  0.8858
 1717SOL    HW216788   0.021   0.595   7.145  0.7269 -0.2037 -0.4308
 1718SOL     OW16789   1.156   4.592  14.237 -0.0279  0.1214 -0.3727
 1718SOL    HW116790   1.137   4.527  14.169 -0.0359 -0.7235  0.4390
 1718SOL    HW216791   1.184   4.668  14.185 -2.5894  1.0345 -0.4101
 1719SOL     OW16792   2.932   0.701   8.775  0.1743 -0.0672 -0.3795
 1719SOL    HW116793   2.889   0.674   8.694 -1.8793  0.1581  0.6262
 1719SOL    HW216794   2.868   0.675   8.842 -1.5351  0.7304 -1.6792
 1720SOL     OW16795   1.842   0.295   6.348  0.0968 -0.1104 -0.6749
 1720SOL    HW116796   1.826   0.246   6.428  0.4948  1.1888  0.1994
 1720SOL    HW216797   1.766   0.256   6.305  0.7852 -2.3985  0.2281
 1721SOL     OW16798   2.109   0.368  11.415  0.4883 -0.6207  0.3204
 1721SOL    HW116799   2.015   0.382  11.425  0.5397 -0.7156  0.9989
 1721SOL    HW216800   2.144   0.383  11.503  0.6469  2.6146 -0.2997
 1722SOL     OW16801   0.265   1.034  16.919 -0.3847 -0.0335  0.0317
 1722SOL    HW116802   0.276   1.019  17.013  2.6777  1.7862 -0.0116
 1722SOL    HW216803   0.331   1.102  16.904 -0.1550 -0.6419 -1.7222
 1723SOL     OW16804   2.288   0.480   9.880 -0.4223 -0.4901 -0.5311
 1723SOL    HW116805   2.291   0.484   9.785  0.8713  2.1340 -0.3615
 1723SOL    HW216806   2.239   0.398   9.894  1.9340 -1.9413 -0.7251
 1724SOL     OW16807   3.257   1.052   3.325 -0.2755 -0.4265 -0.4066
 1724SOL    HW116808   3.282   1.075   3.235 -0.6931  0.2686 -0.3402
 1724SOL    HW216809   3.162   1.061   3.325 -0.3037 -0.7269 -1.9424
 1725SOL     OW16810   4.596   0.469  12.761 -0.1479 -0.5618  0.0986
 1725SOL    HW116811   4.609   0.492  12.669 -0.4175 -0.6629  0.0381
 1725SOL    HW216812   4.602   0.374  12.750  3.5698 -0.4666  1.2077
 1726SOL     OW16813   2.950   1.060   3.349 -0.3019  0.0011 -0.1726
 1726SOL    HW116814   2.948   1.146   3.307 -0.4957  0.5603  0.9691
 1726SOL    HW216815   2.936   1.088   3.440  0.3387  2.9158 -0.9419
 1727SOL     OW16816   0.437   2.298   8.612  0.3110 -0.0705  0.5977
 1727SOL    HW116817   0.369   2.254   8.664  1.1442 -0.6949  1.1536
 1727SOL    HW216818   0.442   2.247   8.532  0.4942  0.7632  0.0823
 1728SOL     OW16819   1.148   2.382   9.902  0.5413 -0.2353 -0.2225
 1728SOL    HW116820   1.221   2.379   9.840  2.5734  0.6766  2.1350
 1728SOL    HW216821   1.191   2.331   9.972 -0.0588  1.0222  1.0595
 1729SOL     OW16822   3.609   0.114   4.478 -0.0471 -0.4998 -0.4600
 1729SOL    HW116823   3.566   0.078   4.555 -0.2632  1.0235  0.1369
 1729SOL    HW216824   3.681   0.055   4.454 -0.8110 -2.2872  1.7117
 1730SOL     OW16825   3.873   3.845  14.714  0.0165  0.1711 -0.8713
 1730SOL    HW116826   3.938   3.889  14.660  1.1913  0.6669  0.9680
 1730SOL    HW216827   3.841   3.787  14.644  3.5567 -1.3372 -1.2397
 1731SOL     OW16828   1.966   3.802   6.147  0.1158  0.2401 -0.1639
 1731SOL    HW116829   2.023   3.808   6.071  0.6238 -2.2779  0.0266
 1731SOL    HW216830   1.995   3.882   6.191 -1.1019  0.0395  1.0233
 1732SOL     OW16831   1.910   0.413   1.874  0.4314 -0.1885 -0.1098
 1732SOL    HW116832   1.851   0.423   1.948  0.0172  1.0319 -0.6123
 1732SOL    HW216833   1.996   0.441   1.906 -0.6170  2.6118  0.2384
 1733SOL     OW16834   4.272   2.721  11.812 -0.6112 -0.1448  0.2899
 1733SOL    HW116835   4.195   2.679  11.848 -0.7047 -0.3594 -0.1579
 1733SOL    HW216836   4.337   2.664  11.853  1.6748  2.0050 -0.3119
 1734SOL     OW16837   0.954   3.885   7.550  0.5407  0.3913  0.0538
 1734SOL    HW116838   1.012   3.960   7.566  1.6956 -0.1995 -1.4665
 1734SOL    HW216839   0.868   3.926   7.559 -0.3482 -1.4312 -0.2905
 1735SOL     OW16840   1.137   3.889  11.715 -0.4738 -0.3326 -0.0609
 1735SOL    HW116841   1.119   3.908  11.808  0.2343 -0.1126  0.0351
 1735SOL    HW216842   1.057   3.844  11.689 -0.0276 -1.9326  1.3240
 1736SOL     OW16843   0.851   0.913   7.698  0.1684  0.2662  0.7820
 1736SOL    HW116844   0.846   0.887   7.790  3.1686  0.4430  0.9837
 1736SOL    HW216845   0.816   0.838   7.651  2.2821 -1.7978  2.5054
 1737SOL     OW16846   4.317   3.792  15.147  0.7496  0.4698 -0.1970
 1737SOL    HW116847   4.373   3.780  15.224 -0.7596  3.4207  1.3557
 1737SOL    HW216848   4.279   3.876  15.172  1.9762  1.2139 -0.8093
 1738SOL     OW16849   3.404   4.692   2.848 -0.5711  0.4646  0.2476
 1738SOL    HW116850   3.384   4.706   2.941 -1.1090 -0.7788  0.3214
 1738SOL    HW216851   3.319   4.663   2.817 -0.8119  1.1849  0.2531
 1739SOL     OW16852   4.209   4.705   6.123 -0.1887  0.6149  0.1614
 1739SOL    HW116853   4.242   4.709   6.213  0.0681 -0.5645  0.1172
 1739SOL    HW216854   4.138   0.034   6.129 -3.7240 -3.1969 -0.6490
 1740SOL     OW16855   3.925   1.609   2.672  0.4258 -0.2711  0.0955
 1740SOL    HW116856   3.954   1.684   2.621  1.5436  0.4546  1.8026
 1740SOL    HW216857   3.947   1.640   2.760 -0.3554  2.9098 -0.8420
 1741SOL     OW16858   0.457   1.688   3.932  0.5099 -0.2817 -0.1940
 1741SOL    HW116859   0.504   1.771   3.935 -0.2030  0.1997 -2.2712
 1741SOL    HW216860   0.515   1.637   3.876  2.2891  2.0911 -0.4920
 1742SOL     OW16861   2.201   3.679  11.672  0.1655 -0.1022  0.3022
 1742SOL    HW116862   2.181   3.668  11.579  0.4834  0.1750  0.2014
 1742SOL    HW216863   2.150   3.602  11.701 -0.1249  0.1816  0.5432
 1743SOL     OW16864   2.656   0.130   7.532 -0.3263 -0.2405 -0.2940
 1743SOL    HW116865   2.658   0.142   7.627  2.3627  0.3938 -0.4355
 1743SOL    HW216866   2.663   0.035   7.536 -0.4009 -0.2304  0.1135
 1744SOL     OW16867   2.416   3.251   7.756  0.1030 -0.5630  0.4551
 1744SOL    HW116868   2.382   3.194   7.825 -3.1824 -1.9380 -2.3168
 1744SOL    HW216869   2.446   3.187   7.693  0.6214 -0.7934  0.9370
 1745SOL     OW16870   3.504   0.432   7.510  0.2051  0.0978  0.3310
 1745SOL    HW116871   3.421   0.415   7.553  1.2347 -1.2989  1.7902
 1745SOL    HW216872   3.557   0.356   7.537 -1.9264 -1.7423 -0.6451
 1746SOL     OW16873   2.717   0.184   5.173  0.6485 -0.3775  0.0190
 1746SOL    HW116874   2.715   0.265   5.224  1.2818 -1.3273  1.5669
 1746SOL    HW216875   2.719   0.123   5.246  0.4326  2.6973  2.6227
 1747SOL     OW16876   0.520   1.626   8.985  0.0852  0.2647  0.0057
 1747SOL    HW116877   0.602   1.579   8.976 -1.0425 -1.5011 -1.0413
 1747SOL    HW216878   0.548   1.711   9.019  0.0569 -0.2424  1.3003
 1748SOL     OW16879   0.286   1.402   6.606  0.4980 -0.3912 -0.0048
 1748SOL    HW116880   0.193   1.410   6.583  0.6741  1.3104 -0.1392
 1748SOL    HW216881   0.314   1.366   6.522  0.3537 -1.1715  0.2905
 1749SOL     OW16882   1.091   2.373   8.433 -0.0537 -0.4148  0.3119
 1749SOL    HW116883   1.139   2.294   8.411  1.6581  1.0392 -1.1542
 1749SOL    HW216884   1.056   2.399   8.348  1.7140 -1.1603 -0.6416
 1750SOL     OW16885   1.454   1.777   5.764 -0.2611  0.0318 -0.0302
 1750SOL    HW116886   1.417   1.863   5.783 -1.7372 -0.5162 -0.4337
 1750SOL    HW216887   1.546   1.789   5.788 -0.3449  2.7482 -1.1051
 1751SOL     OW16888   3.104   2.161   7.439  0.0843 -0.4959  0.1520
 1751SOL    HW116889   3.064   2.173   7.353 -2.1139 -0.3324  1.1751
 1751SOL    HW216890   3.029   2.129   7.490  0.1979 -0.6448  0.2252
 1752SOL     OW16891   4.724   0.652  13.207 -0.4074 -0.5727 -0.3658
 1752SOL    HW116892   4.696   0.743  13.217  0.0944 -0.5219  0.6067
 1752SOL    HW216893   0.065   0.659  13.150  0.7174 -2.9711  0.8503
 1753SOL     OW16894   0.768   1.232   9.306  0.1876 -0.6527 -0.8878
 1753SOL    HW116895   0.745   1.242   9.398 -0.8744  2.1354 -1.4622
 1753SOL    HW216896   0.824   1.309   9.302 -2.1391  1.1752  1.9709
 1754SOL     OW16897   2.753   0.806   8.092 -0.3485 -0.2110  0.3533
 1754SOL    HW116898   2.682   0.869   8.079  0.3244  0.3570 -0.6184
 1754SOL    HW216899   2.775   0.821   8.184 -0.0549  0.3600  0.1944
 1755SOL     OW16900   0.839   3.028   1.747  0.3154  0.1739 -0.1401
 1755SOL    HW116901   0.908   2.985   1.697  1.2682  0.8793  0.5512
 1755SOL    HW216902   0.838   3.108   1.694  1.9441  1.3370  1.5803
 1756SOL     OW16903   1.239   0.081   7.274  0.3945  0.0304 -0.4152
 1756SOL    HW116904   1.143   0.079   7.282  0.4026 -0.2064 -0.3776
 1756SOL    HW216905   1.257   0.034   7.192 -2.5694 -3.7189  1.0503
 1757SOL     OW16906   2.768   1.612   0.898 -0.7775 -0.4887  0.5943
 1757SOL    HW116907   2.748   1.705   0.902 -3.1598 -0.9220 -1.0944
 1757SOL    HW216908   2.783   1.592   0.990 -0.8749  1.7705  1.0870
 1758SOL     OW16909   4.594   1.219   8.780  0.7693  0.5765  0.4209
 1758SOL    HW116910   4.510   1.264   8.795  0.3379 -0.3022  0.6245
 1758SOL    HW216911   4.616   1.152   8.844  2.4660 -0.4046 -1.2119
 1759SOL     OW16912   0.666   3.148  12.884 -0.0890 -0.4423  0.1593
 1759SOL    HW116913   0.637   3.194  12.963 -0.7881  0.7855 -0.8057
 1759SOL    HW216914   0.617   3.206  12.826  1.5641  2.6090  1.7881
 1760SOL     OW16915   2.740   2.184   1.957 -0.0977 -0.5417 -0.6109
 1760SOL    HW116916   2.810   2.210   2.017 -2.6092  2.6328  0.8792
 1760SOL    HW216917   2.725   2.095   1.990 -0.9458 -0.7547 -1.5525
 1761SOL     OW16918   4.708   3.076  12.382 -0.6882  0.4424 -0.5471
 1761SOL    HW116919   0.061   3.094  12.349 -0.1131  0.0201  0.7666
 1761SOL    HW216920   4.703   3.150  12.443 -0.0622 -0.2374  0.3277
 1762SOL     OW16921   3.027   3.122   8.303 -0.0114  0.1655  0.6219
 1762SOL    HW116922   3.106   3.111   8.249 -1.4978  0.6841 -1.6753
 1762SOL    HW216923   2.988   3.195   8.254 -0.9204 -0.4327  0.4651
 1763SOL     OW16924   1.735   3.238   7.732  0.5189 -0.3320  0.2668
 1763SOL    HW116925   1.713   3.147   7.712 -1.4466  0.0506  0.7028
 1763SOL    HW216926   1.820   3.251   7.689  0.2924  0.9244  0.2061
 1764SOL     OW16927   4.289   3.566  13.886  0.2757 -0.2090 -0.0200
 1764SOL    HW116928   4.295   3.583  13.980  0.1757  0.1948 -0.0876
 1764SOL    HW216929   4.383   3.577  13.871  0.1816  3.3710  1.9412
 1765SOL     OW16930   2.540   2.642   3.527  0.2550 -0.1096 -0.0917
 1765SOL    HW116931   2.570   2.730   3.504  0.4265 -0.5910 -1.6909
 1765SOL    HW216932   2.445   2.655   3.535  0.5283  0.9526  1.3504
 1766SOL     OW16933   0.504   1.426   5.843 -0.5188 -0.0587 -0.2784
 1766SOL    HW116934   0.590   1.386   5.834 -1.1240 -1.0584 -1.7685
 1766SOL    HW216935   0.512   1.491   5.913  0.8495  0.4280 -0.8908
 1767SOL     OW16936   3.431   1.245   3.031  0.6213 -0.2165  0.0931
 1767SOL    HW116937   3.512   1.267   3.078 -1.0426  1.2403  2.2433
 1767SOL    HW216938   3.374   1.317   3.056  1.4427  0.1394  0.9490
 1768SOL     OW16939   4.621   0.611   6.517  0.1389  0.2317  0.2790
 1768SOL    HW116940   4.547   0.670   6.533  0.2914  0.8028 -1.1264
 1768SOL    HW216941   4.639   0.574   6.604  3.2149  1.0055 -0.0365
 1769SOL     OW16942   2.212   3.749   4.900 -0.0383  0.0338  0.1234
 1769SOL    HW116943   2.169   3.744   4.985  0.4567 -0.7722  0.3309
 1769SOL    HW216944   2.138   3.749   4.839  0.2032  0.9203 -0.1691
 1770SOL     OW16945   2.891   2.806   7.153 -0.1152  0.2593 -0.4425
 1770SOL    HW116946   2.833   2.873   7.118  1.8257  1.4888 -1.3015
 1770SOL    HW216947   2.943   2.800   7.072 -0.8398 -0.1858 -0.8769
 1771SOL     OW16948   0.246   1.331   3.160 -0.3861  0.3574  0.2469
 1771SOL    HW116949   0.334   1.339   3.195  0.4145 -1.1806 -1.4058
 1771SOL    HW216950   0.219   1.259   3.217  0.5264  0.8820  1.3487
 1772SOL     OW16951   3.179   1.730   9.583 -0.3755  0.5654 -0.5100
 1772SOL    HW116952   3.256   1.702   9.534 -1.0944 -2.0807 -0.1063
 1772SOL    HW216953   3.110   1.666   9.569  2.5901 -3.0507  1.4179
 1773SOL     OW16954   3.201   4.685   5.437  0.0548 -0.5995  0.2417
 1773SOL    HW116955   3.217   4.613   5.376 -0.5321  0.5495 -1.2563
 1773SOL    HW216956   3.277   0.009   5.433  0.3207 -1.1233 -2.3736
 1774SOL     OW16957   2.146   1.765  17.150  0.2638  0.2590 -0.1597
 1774SOL    HW116958   2.170   1.697  17.087 -1.5743 -0.3726 -0.1776
 1774SOL    HW216959   2.212   1.831  17.129 -0.6629  0.8106 -1.3432
 1775SOL     OW16960   3.722   1.472  14.159 -0.0058  0.0235  0.8965
 1775SOL    HW116961   3.695   1.383  14.181  1.2058 -0.2422  1.3165
 1775SOL    HW216962   3.725   1.493  14.065  0.0033  1.0777  1.1342
 1776SOL     OW16963   3.799   3.347   8.171 -0.6051  0.6075 -0.2224
 1776SOL    HW116964   3.744   3.287   8.120 -0.8017  1.7825 -1.3972
 1776SOL    HW216965   3.800   3.428   8.119  1.4289  1.6892  1.4807
 1777SOL     OW16966   0.127   1.710  13.211 -0.0867  0.0123 -0.7003
 1777SOL    HW116967   0.098   1.798  13.235  2.2681  0.1467  1.6110
 1777SOL    HW216968   0.053   1.678  13.160 -1.1300  2.8085 -0.9426
 1778SOL     OW16969   3.382   0.422  13.898  0.1363 -0.0620 -0.4293
 1778SOL    HW116970   3.400   0.462  13.983 -1.8685  1.4826 -0.7148
 1778SOL    HW216971   3.358   0.339  13.940 -1.8876  1.1453  0.8279
 1779SOL     OW16972   0.630   2.434   6.517 -0.3957 -0.3784  0.9030
 1779SOL    HW116973   0.628   2.343   6.547 -1.3647 -0.5016  0.4512
 1779SOL    HW216974   0.541   2.458   6.492  0.5314  1.3035 -0.8243
 1780SOL     OW16975   0.717   0.778   3.097  0.2214  0.4421  0.1141
 1780SOL    HW116976   0.699   0.830   3.176  0.9155  1.4590 -0.4087
 1780SOL    HW216977   0.809   0.756   3.115 -0.4521 -0.5349  2.3784
 1781SOL     OW16978   0.342   2.948   7.665 -0.1908 -0.3730 -0.8105
 1781SOL    HW116979   0.327   2.994   7.747  2.8429 -0.5858 -0.1589
 1781SOL    HW216980   0.407   3.008   7.628 -0.0976  1.2170  1.9262
 1782SOL     OW16981   1.747   4.101  15.676 -0.4586 -0.1384 -0.3809
 1782SOL    HW116982   1.829   4.150  15.676 -0.5025 -0.0655  0.1600
 1782SOL    HW216983   1.725   4.091  15.583  0.6386  1.2007 -0.7893
 1783SOL     OW16984   0.462   4.075   7.293  0.0463 -0.1390 -0.2864
 1783SOL    HW116985   0.522   4.003   7.307 -2.2001 -2.0023 -0.3016
 1783SOL    HW216986   0.383   4.035   7.328 -0.6626  0.4775 -1.1896
 1784SOL     OW16987   4.644   3.453   1.873  0.4695  0.0406 -0.2348
 1784SOL    HW116988   4.617   3.364   1.852  1.4763 -0.1983 -0.5134
 1784SOL    HW216989   4.707   3.469   1.803  0.2007 -2.4842 -1.0580
 1785SOL     OW16990   4.088   3.620   5.814  0.2106 -0.4686  0.3225
 1785SOL    HW116991   4.170   3.651   5.775 -0.3983 -0.6407 -1.1021
 1785SOL    HW216992   4.021   3.686   5.798  0.2186 -0.5904 -0.2189
 1786SOL     OW16993   4.347   0.286  17.287  0.0639 -0.2004  0.1416
 1786SOL    HW116994   4.296   0.367  17.295 -1.5177 -1.2804  0.9294
 1786SOL    HW216995   4.275   0.233  17.255 -0.1759  0.1718  0.0633
 1787SOL     OW16996   1.482   1.725  13.832  0.0352 -0.6639  0.3970
 1787SOL    HW116997   1.397   1.749  13.795  0.5100  0.5962  0.1544
 1787SOL    HW216998   1.465   1.630  13.833 -0.2253 -0.6179  0.3992
 1788SOL     OW16999   3.715   2.233  15.477 -0.1967 -0.2810 -0.1147
 1788SOL    HW117000   3.810   2.222  15.475 -0.0464  0.9985 -0.0962
 1788SOL    HW217001   3.688   2.164  15.537 -0.2480 -0.4002 -0.2760
 1789SOL     OW17002   2.656   0.353  10.238  0.8862 -0.2604 -0.4911
 1789SOL    HW117003   2.570   0.363  10.196  0.4604 -0.2337  0.3957
 1789SOL    HW217004   2.642   0.269  10.281 -0.0926  0.8754  1.3840
 1790SOL     OW17005   4.669   1.533  13.064 -0.5954  0.1460  0.0412
 1790SOL    HW117006   4.603   1.532  13.133 -2.4880  1.3735 -1.7465
 1790SOL    HW217007   4.634   1.613  13.025 -0.5524 -0.2219 -0.7521
 1791SOL     OW17008   0.370   2.685   8.775  0.0324 -0.1221 -0.7662
 1791SOL    HW117009   0.419   2.700   8.855  0.1535 -2.3526 -0.4458
 1791SOL    HW217010   0.306   2.624   8.811 -0.0878  1.5768  1.8841
 1792SOL     OW17011   1.089   1.909   3.710  0.2757 -0.0189 -0.1818
 1792SOL    HW117012   1.120   1.942   3.795 -0.2792  0.9351 -0.3483
 1792SOL    HW217013   1.118   1.982   3.656  0.1106 -0.4256 -0.8227
 1793SOL     OW17014   0.797   2.910   9.439  0.0642 -0.2110 -0.4479
 1793SOL    HW117015   0.726   2.866   9.485 -0.1003  0.0541 -0.4458
 1793SOL    HW217016   0.837   2.838   9.390 -0.5502 -0.4506 -0.6033
 1794SOL     OW17017   1.481   0.272   4.552  0.4890 -0.2155  0.3914
 1794SOL    HW117018   1.482   0.300   4.461  0.1976 -1.9793 -0.1531
 1794SOL    HW217019   1.406   0.323   4.581  0.8819 -0.2987  1.5899
 1795SOL     OW17020   3.162   3.723   2.518 -0.3131  0.6953  0.1691
 1795SOL    HW117021   3.170   3.779   2.441 -2.1471  1.6104  0.6468
 1795SOL    HW217022   3.067   3.724   2.529 -0.2100  1.0540  1.0949
 1796SOL     OW17023   3.309   1.271   6.699 -0.1856 -0.3190 -0.0740
 1796SOL    HW117024   3.365   1.348   6.712  0.3251 -0.8858  1.0451
 1796SOL    HW217025   3.225   1.308   6.726  0.5823  0.7777  0.8407
 1797SOL     OW17026   0.892   2.042  17.592 -0.1507  0.6005  0.2998
 1797SOL    HW117027   0.981   2.075  17.600 -0.0637  0.5535 -0.4279
 1797SOL    HW217028   0.913   1.952  17.568 -1.1042  0.7689 -1.2424
 1798SOL     OW17029   4.076   2.223   8.357  0.8403 -0.3435 -0.3326
 1798SOL    HW117030   4.151   2.165   8.369  2.2886  1.4638 -0.6788
 1798SOL    HW217031   4.102   2.296   8.302  0.8590  0.5414  0.8550
 1799SOL     OW17032   4.683   2.019   3.048  0.4670 -0.5752  0.2201
 1799SOL    HW117033   4.615   2.007   3.114  0.5295  0.3484  0.4543
 1799SOL    HW217034   4.723   2.093   3.094  0.9563 -0.8057  0.1625
 1800SOL     OW17035   2.207   2.721   5.364 -0.4300  0.5824  0.0035
 1800SOL    HW117036   2.116   2.746   5.349  0.1971  1.6657 -1.9755
 1800SOL    HW217037   2.200   2.681   5.451 -0.6788  0.1827 -0.2023
 1801SOL     OW17038   2.935   2.647   8.530  0.6547 -0.9643  0.4541
 1801SOL    HW117039   2.973   2.707   8.467  1.2849  0.0487  1.8017
 1801SOL    HW217040   2.847   2.638   8.492  0.4909  0.0841  0.5904
 1802SOL     OW17041   3.726   4.327   2.404  0.8098 -0.3015  0.2751
 1802SOL    HW117042   3.817   4.312   2.430  0.8372  1.6687  1.2766
 1802SOL    HW217043   3.733   4.294   2.314  3.3132  0.5534  0.1627
 1803SOL     OW17044   3.158   3.099  11.087  0.4037 -0.3502  0.0144
 1803SOL    HW117045   3.070   3.115  11.055  1.0478  2.0908 -0.5664
 1803SOL    HW217046   3.201   3.142  11.013 -2.0625  1.4645 -0.3621
 1804SOL     OW17047   3.150   3.249   9.483  0.0181  0.4304  0.2829
 1804SOL    HW117048   3.228   3.267   9.536 -0.3024  1.8932  0.2607
 1804SOL    HW217049   3.125   3.164   9.519  2.6433 -1.0560 -1.3892
 1805SOL     OW17050   1.491   1.915   7.929 -0.1735 -0.7293 -0.5972
 1805SOL    HW117051   1.522   1.931   8.018  0.1439 -1.9664 -0.4872
 1805SOL    HW217052   1.398   1.902   7.948 -0.0229 -0.3975  0.3413
 1806SOL     OW17053   0.693   3.345   4.320  0.4951 -0.8355  0.7756
 1806SOL    HW117054   0.610   3.380   4.287  1.1305  0.4634  0.5717
 1806SOL    HW217055   0.664   3.330   4.411 -3.8536  0.9337 -0.3201
 1807SOL     OW17056   0.241   4.000   6.850  0.3990  0.4631 -0.2480
 1807SOL    HW117057   0.257   3.955   6.767  0.1611 -0.5396  0.2593
 1807SOL    HW217058   0.153   4.037   6.853 -0.0122 -0.6033  0.5983
 1808SOL     OW17059   1.955   0.895   6.813 -0.1041  0.3043  0.6840
 1808SOL    HW117060   2.014   0.836   6.767 -0.0342  1.0450 -0.1746
 1808SOL    HW217061   1.901   0.843   6.872 -0.2628 -0.0390  0.2259
 1809SOL     OW17062   0.014   3.818  15.494 -0.0686 -0.6008  0.0329
 1809SOL    HW117063   4.660   3.789  15.513  0.2283 -0.0498  2.3282
 1809SOL    HW217064   0.013   3.805  15.400 -1.9824 -3.5972  0.4648
 1810SOL     OW17065   2.628   3.464   4.002  0.0352 -0.2039  0.1838
 1810SOL    HW117066   2.557   3.527   4.017  1.6812  2.5229 -3.3633
 1810SOL    HW217067   2.593   3.436   3.918  1.1247 -0.1327 -0.2956
 1811SOL     OW17068   2.006   1.051  12.571 -0.1057  0.6568 -0.0084
 1811SOL    HW117069   1.930   1.017  12.524  0.1255  0.0346  0.0702
 1811SOL    HW217070   1.973   1.046  12.661 -2.0148 -1.8426 -0.8379
 1812SOL     OW17071   4.172   3.946   0.881 -0.7020  0.1419  0.0603
 1812SOL    HW117072   4.146   3.854   0.874  0.8175 -0.2842  0.0395
 1812SOL    HW217073   4.125   3.983   0.806 -0.7717 -0.5208 -0.2291
 1813SOL     OW17074   1.910   2.017   7.969  0.0273  0.0997  0.6919
 1813SOL    HW117075   1.927   1.941   8.025  1.3490 -0.4362 -0.4446
 1813SOL    HW217076   1.816   2.025   7.988  0.1314 -2.4433  2.1631
 1814SOL     OW17077   4.603   0.037   7.460 -0.0571 -0.2873 -0.0504
 1814SOL    HW117078   4.693   0.071   7.463 -0.2334 -0.1196  3.1144
 1814SOL    HW217079   4.559   0.111   7.503 -0.4645 -0.0028 -0.9559
 1815SOL     OW17080   3.999   0.004   7.064 -0.7478 -0.0306 -0.0661
 1815SOL    HW117081   3.988   4.649   7.093 -0.6433  0.6499  2.0410
 1815SOL    HW217082   4.009   0.044   7.150  1.0095  2.2977 -1.3536
 1816SOL     OW17083   0.001   4.589   9.011 -0.5414 -0.5779  0.0238
 1816SOL    HW117084   0.087   4.594   8.968  0.2380  0.1827  1.6569
 1816SOL    HW217085   0.008   4.646   9.088  1.6737  2.0552 -2.1159
 1817SOL     OW17086   0.561   3.260   7.797 -0.1707  0.3675 -0.8139
 1817SOL    HW117087   0.516   3.338   7.828  1.7449  0.8005  0.8714
 1817SOL    HW217088   0.615   3.252   7.875  0.5987 -1.5651 -1.5468
 1818SOL     OW17089   1.576   2.367   8.870 -0.3845 -0.6912  0.1096
 1818SOL    HW117090   1.547   2.458   8.881  2.1776  0.2067 -0.4306
 1818SOL    HW217091   1.573   2.343   8.962 -2.3149  0.9595  0.4656
 1819SOL     OW17092   4.176   3.078   7.577  0.4543 -0.0098 -0.1827
 1819SOL    HW117093   4.211   3.106   7.662 -0.9845  1.0681  0.0802
 1819SOL    HW217094   4.184   3.159   7.527  1.1572  0.8778  1.3618
 1820SOL     OW17095   0.117   0.236   6.498  0.0801 -0.5281 -0.6324
 1820SOL    HW117096   0.162   0.299   6.553 -1.4543  0.2906 -0.2922
 1820SOL    HW217097   0.176   0.161   6.493 -0.7945 -1.2660 -0.0714
 1821SOL     OW17098   4.551   3.997   3.482  0.4362 -0.3324  0.5361
 1821SOL    HW117099   4.470   3.946   3.475  0.3702 -0.1368 -0.0749
 1821SOL    HW217100   4.537   4.073   3.538 -0.5735  0.4478 -0.7741
 1822SOL     OW17101   1.700   4.728   5.025  0.0668 -0.0494 -0.0942
 1822SOL    HW117102   1.616   0.019   5.063  0.9691 -0.9296  2.5382
 1822SOL    HW217103   1.736   4.676   5.097  1.9119 -0.9162 -1.6305
 1823SOL     OW17104   2.768   0.760   1.447 -0.6629 -0.5594  0.0573
 1823SOL    HW117105   2.827   0.791   1.379 -1.0743 -2.4467 -1.1493
 1823SOL    HW217106   2.825   0.713   1.508 -0.5587 -2.0176 -1.1744
 1824SOL     OW17107   0.388   0.682   4.016 -0.2420 -0.0814 -0.3267
 1824SOL    HW117108   0.356   0.746   3.953  0.2348  0.9281  0.4568
 1824SOL    HW217109   0.311   0.659   4.068  1.7213 -1.0845  2.1627
 1825SOL     OW17110   2.075   0.140   9.137  0.2576  0.1953 -0.0232
 1825SOL    HW117111   2.118   0.197   9.073 -0.3646  1.7301  0.9201
 1825SOL    HW217112   2.017   0.196   9.189  0.6152  0.1946  0.3771
 1826SOL     OW17113   2.362   2.509   6.052 -0.2360 -0.4567 -0.0753
 1826SOL    HW117114   2.322   2.485   5.968  2.9987 -2.2448 -1.1001
 1826SOL    HW217115   2.290   2.544   6.105 -1.3472 -1.2881 -1.0231
 1827SOL     OW17116   3.114   2.972   2.656 -0.6764  0.2924  0.4551
 1827SOL    HW117117   3.119   2.878   2.671  1.2742  0.2650 -0.3203
 1827SOL    HW217118   3.134   3.005   2.744 -1.7455 -0.2590  0.8952
 1828SOL     OW17119   2.013   1.059   5.633  0.1242  0.1179  0.2141
 1828SOL    HW117120   1.973   1.085   5.550  0.3925  0.5457  0.2170
 1828SOL    HW217121   1.986   1.130   5.690 -0.7380 -0.2802  0.2970
 1829SOL     OW17122   2.007   0.342  16.057  0.1156  0.8826 -0.3179
 1829SOL    HW117123   1.912   0.346  16.049 -0.0952  0.7878  2.0749
 1829SOL    HW217124   2.029   0.435  16.070  0.5431  0.8371 -0.7283
 1830SOL     OW17125   0.378   1.332   6.861 -0.5071 -0.5328  0.3766
 1830SOL    HW117126   0.450   1.386   6.829 -0.0538 -1.0470  0.5483
 1830SOL    HW217127   0.327   1.319   6.781 -2.0735  1.1626  1.0863
 1831SOL     OW17128   2.369   1.538   7.906 -0.3982 -0.1750 -0.2696
 1831SOL    HW117129   2.304   1.608   7.918 -1.6047 -1.1247 -1.2471
 1831SOL    HW217130   2.398   1.506   7.991  3.2630 -0.0691 -1.4692
 1832SOL     OW17131   2.839   0.671   5.737  0.4688  0.3086  0.3786
 1832SOL    HW117132   2.904   0.716   5.791 -0.8218  0.5419  1.7417
 1832SOL    HW217133   2.766   0.699   5.792  0.2683 -1.1530  0.8606
 1833SOL     OW17134   3.574   3.523   7.144  0.1222 -0.3219  0.2751
 1833SOL    HW117135   3.523   3.551   7.068  1.6991  0.2279 -0.5665
 1833SOL    HW217136   3.599   3.436   7.114 -2.3530  0.1265 -3.1142
 1834SOL     OW17137   0.706   1.887  12.691 -0.1749  0.3044 -0.6691
 1834SOL    HW117138   0.643   1.815  12.683 -1.8292  1.6404  0.2960
 1834SOL    HW217139   0.789   1.849  12.719  0.4183  2.7894  0.9312
 1835SOL     OW17140   4.227   2.352  12.310  0.0709  0.2279  0.0147
 1835SOL    HW117141   4.255   2.443  12.314  2.3966 -0.5056  0.3908
 1835SOL    HW217142   4.139   2.360  12.346  0.1168 -0.9802  0.3875
 1836SOL     OW17143   0.314   2.097   9.601  0.3731  0.1430  0.0123
 1836SOL    HW117144   0.338   2.169   9.543  0.0604 -0.9109 -1.4369
 1836SOL    HW217145   0.256   2.143   9.662  0.9539 -0.3223  0.9220
 1837SOL     OW17146   1.707   3.101   2.582  0.0131 -0.1153 -0.4656
 1837SOL    HW117147   1.746   3.176   2.628  1.4920 -0.0288 -1.8968
 1837SOL    HW217148   1.696   3.120   2.489 -0.9546  0.1226 -0.3013
 1838SOL     OW17149   0.449   3.324  11.387  0.1039 -0.1400  0.3895
 1838SOL    HW117150   0.394   3.352  11.313  1.6140  0.7150 -0.4045
 1838SOL    HW217151   0.419   3.235  11.404  1.7910 -0.5667  1.0825
 1839SOL     OW17152   1.310   1.152   1.607 -0.1328 -0.4387  0.2929
 1839SOL    HW117153   1.219   1.178   1.617 -0.0592 -0.1560  0.2284
 1839SOL    HW217154   1.306   1.058   1.625 -0.3629 -0.7894 -1.5605
 1840SOL     OW17155   2.084   0.754   6.329 -0.4848 -0.2142 -0.7543
 1840SOL    HW117156   2.058   0.695   6.258  1.6967 -2.9971  0.7579
 1840SOL    HW217157   2.159   0.698   6.353 -0.5926  0.4870  1.2060
 1841SOL     OW17158   1.681   0.246   4.084  0.1383  0.4330 -0.4040
 1841SOL    HW117159   1.717   0.242   3.995  0.3158 -1.4344 -0.2489
 1841SOL    HW217160   1.599   0.199   4.068  0.9910 -0.7978 -1.1560
 1842SOL     OW17161   2.434   2.748   8.412 -0.7767 -0.3980 -0.3204
 1842SOL    HW117162   2.520   2.720   8.381 -1.6813 -1.3269 -2.0211
 1842SOL    HW217163   2.439   2.837   8.377  0.0327 -0.3803 -0.1459
 1843SOL     OW17164   3.439   3.134   4.103 -0.4114  0.6439 -0.2923
 1843SOL    HW117165   3.490   3.066   4.146 -0.4421 -2.2858 -5.0013
 1843SOL    HW217166   3.417   3.092   4.020  0.4184  1.2935 -0.8374
 1844SOL     OW17167   1.592   4.330  13.845  0.2366 -0.5343  0.6465
 1844SOL    HW117168   1.686   4.330  13.831  0.4258 -2.9080  2.1091
 1844SOL    HW217169   1.607   4.324  13.939 -1.0233  0.4157  0.9192
 1845SOL     OW17170   0.665   4.642   4.267  0.0210  0.6355  0.0046
 1845SOL    HW117171   0.602   4.631   4.338 -2.3904  1.9816 -1.8951
 1845SOL    HW217172   0.625   4.598   4.192  0.0340  3.5702 -1.7743
 1846SOL     OW17173   0.961   4.028   9.026  0.0717  0.3412  0.5851
 1846SOL    HW117174   0.943   4.110   8.980  0.5113 -0.1840 -0.5195
 1846SOL    HW217175   1.051   4.046   9.051 -0.1453  1.3196  0.6745
 1847SOL     OW17176   3.884   1.447   7.775 -0.2815  0.3216  0.3097
 1847SOL    HW117177   3.815   1.452   7.840  0.4527  2.2267  0.9482
 1847SOL    HW217178   3.862   1.515   7.711 -1.8193 -1.4029 -1.0273
 1848SOL     OW17179   0.906   0.521   3.758  0.5290  0.7026 -0.2882
 1848SOL    HW117180   0.951   0.580   3.698  1.7790  1.2010  1.1112
 1848SOL    HW217181   0.860   0.589   3.807  0.9558  1.0213 -0.3309
 1849SOL     OW17182   2.253   1.863   5.391 -0.3584 -1.3261  0.2920
 1849SOL    HW117183   2.326   1.924   5.380  0.6927 -2.3929  1.2165
 1849SOL    HW217184   2.256   1.848   5.486  0.5674  0.9402  0.6221
 1850SOL     OW17185   2.958   0.536  14.903  0.5051  0.5619 -0.5932
 1850SOL    HW117186   2.968   0.443  14.886  0.7862  0.1484  1.9204
 1850SOL    HW217187   2.964   0.532  14.998  1.1466 -0.5794 -0.6906
 1851SOL     OW17188   0.420   0.983   3.080  0.0683  0.4475  0.0781
 1851SOL    HW117189   0.393   1.032   3.003 -1.0923 -0.0151  0.1905
 1851SOL    HW217190   0.434   0.903   3.029 -0.1836  1.4034 -1.4762
 1852SOL     OW17191   2.567   1.827   8.213  0.0544 -0.3511 -0.1335
 1852SOL    HW117192   2.477   1.856   8.196  0.4550  0.7916 -0.3263
 1852SOL    HW217193   2.569   1.828   8.308 -3.5284 -0.6070 -0.0538
 1853SOL     OW17194   4.262   1.256   7.035 -0.2529  0.1264 -0.1395
 1853SOL    HW117195   4.212   1.337   7.039 -0.2664  0.2285 -2.6215
 1853SOL    HW217196   4.240   1.206   7.114  0.6944  0.6663  0.4718
 1854SOL     OW17197   0.919   3.201   5.486 -0.0096  0.5122  0.2602
 1854SOL    HW117198   0.996   3.160   5.524  0.5176 -0.2613 -1.6166
 1854SOL    HW217199   0.948   3.206   5.394 -0.9924  2.2385  0.0287
 1855SOL     OW17200   2.472   0.837   4.496 -0.1692  0.1637  0.1356
 1855SOL    HW117201   2.422   0.905   4.542 -1.7150 -0.0054 -1.3075
 1855SOL    HW217202   2.505   0.779   4.565 -2.7962  0.7083  1.8541
 1856SOL     OW17203   4.280   1.642   5.242  0.1857  0.0194 -0.2799
 1856SOL    HW117204   4.359   1.620   5.193  0.6659  1.0087  0.0527
 1856SOL    HW217205   4.215   1.587   5.198  2.1386 -1.9752 -0.6571
 1857SOL     OW17206   4.113   1.872   3.971 -0.1238 -0.0808  0.2734
 1857SOL    HW117207   4.105   1.956   3.925 -0.7605 -0.2593  0.0544
 1857SOL    HW217208   4.091   1.811   3.900  0.8632 -0.7798  0.5785
 1858SOL     OW17209   4.239   2.263   1.456 -0.4697 -0.2727  0.0897
 1858SOL    HW117210   4.244   2.335   1.394  0.9904 -0.9291 -0.5267
 1858SOL    HW217211   4.242   2.320   1.533 -2.0571  1.0459 -0.8163
 1859SOL     OW17212   1.807   1.691  16.004 -0.5888  0.2993  0.2423
 1859SOL    HW117213   1.727   1.688  15.951 -0.0851  1.3845 -0.5793
 1859SOL    HW217214   1.808   1.784  16.026  0.5850  0.5386 -0.8421
 1860SOL     OW17215   4.482   0.222   6.934  0.3130  0.1667 -0.1868
 1860SOL    HW117216   4.504   0.189   7.020  1.2359 -0.0435 -0.5089
 1860SOL    HW217217   4.461   0.309   6.969  0.4498 -0.1952  0.7930
 1861SOL     OW17218   4.013   4.566   7.941  0.0154  0.7148 -0.1185
 1861SOL    HW117219   3.978   4.655   7.937 -1.0776  0.3061  0.3333
 1861SOL    HW217220   3.982   4.535   7.856  0.9301  0.7465 -0.4683
 1862SOL     OW17221   3.190   0.013  10.592 -0.9130 -0.1126 -0.0956
 1862SOL    HW117222   3.158   0.037  10.679 -0.2544 -0.9464  0.3806
 1862SOL    HW217223   3.211   4.656  10.609  4.2660  0.9737 -0.5660
 1863SOL     OW17224   1.575   3.210   6.442  0.1072  0.8118 -0.0329
 1863SOL    HW117225   1.655   3.261   6.456 -1.1981  2.3385  1.7928
 1863SOL    HW217226   1.614   3.125   6.420  0.7424  1.0299  0.2552
 1864SOL     OW17227   3.981   1.585  15.981  0.0190 -0.4959 -0.2553
 1864SOL    HW117228   3.985   1.646  15.908 -0.7040 -0.2596 -0.0928
 1864SOL    HW217229   4.056   1.610  16.035  0.3119  1.3704 -1.5076
 1865SOL     OW17230   2.998   2.758  16.607 -0.1580  0.2790  0.5886
 1865SOL    HW117231   2.977   2.679  16.656 -0.7340  0.9554  1.4099
 1865SOL    HW217232   3.094   2.753  16.609 -0.1721  0.8451  2.4077
 1866SOL     OW17233   0.556   4.086   3.840  0.0857  0.2715  0.4145
 1866SOL    HW117234   0.529   4.019   3.902 -0.5049  0.9543  0.8906
 1866SOL    HW217235   0.631   4.053   3.791  1.2219  1.6129  1.2402
 1867SOL     OW17236   2.127   0.515   6.636 -0.4868  0.2460  0.1646
 1867SOL    HW117237   2.131   0.458   6.560  0.4803  0.7993 -0.2016
 1867SOL    HW217238   2.122   0.452   6.708 -3.0165 -0.3974 -0.5783
 1868SOL     OW17239   1.845   1.521   8.292 -0.3128  0.0922  0.0022
 1868SOL    HW117240   1.780   1.564   8.348  0.2007  0.3477  0.4006
 1868SOL    HW217241   1.794   1.511   8.211  0.2135 -3.5950  0.1433
 1869SOL     OW17242   3.236   2.139   2.628  0.7890  0.8299 -0.7275
 1869SOL    HW117243   3.312   2.083   2.637  0.9820  1.0449 -1.0314
 1869SOL    HW217244   3.271   2.203   2.566 -0.2191  1.3205 -0.7947
 1870SOL     OW17245   3.031   2.110   3.821  0.0701 -0.3288  0.1796
 1870SOL    HW117246   2.994   2.132   3.907 -0.3344  0.4701 -0.1993
 1870SOL    HW217247   2.957   2.066   3.780 -1.6466  2.4102  0.2945
 1871SOL     OW17248   1.757   4.478   8.122 -0.0160 -0.2078 -0.6700
 1871SOL    HW117249   1.695   4.434   8.180  0.5849 -0.9984 -0.6215
 1871SOL    HW217250   1.836   4.428   8.140 -0.0600  0.6231  1.7703
 1872SOL     OW17251   2.888   1.913   2.049  0.2101  0.1172 -0.3916
 1872SOL    HW117252   2.972   1.958   2.055  2.0085 -3.6110  2.4975
 1872SOL    HW217253   2.927   1.834   2.010  0.2932  0.3015 -0.6802
 1873SOL     OW17254   1.036   1.487  12.500  0.0312 -0.5663 -0.2942
 1873SOL    HW117255   1.042   1.426  12.573  1.8910  0.6354  0.5740
 1873SOL    HW217256   0.952   1.533  12.507 -0.3920 -1.3617 -0.1923
 1874SOL     OW17257   3.013   1.861  17.130  0.0244  0.4682 -0.0178
 1874SOL    HW117258   2.992   1.930  17.193 -1.4535  0.0360 -0.0387
 1874SOL    HW217259   2.953   1.794  17.161  0.1966  0.3758  0.1154
 1875SOL     OW17260   0.187   2.797   2.968  0.1280  0.4543 -0.3624
 1875SOL    HW117261   0.094   2.797   2.944  0.3007 -2.3888 -0.9364
 1875SOL    HW217262   0.204   2.889   2.988  1.7025  0.7345 -2.9057
 1876SOL     OW17263   1.387   1.076  14.209  0.0003 -0.4927 -0.3806
 1876SOL    HW117264   1.380   1.081  14.114 -2.0620 -1.4103 -0.2961
 1876SOL    HW217265   1.465   1.021  14.220 -0.4214 -1.1272 -0.5782
 1877SOL     OW17266   2.273   2.261  13.404 -0.5469  0.0309 -0.4487
 1877SOL    HW117267   2.253   2.268  13.497  0.1335  1.0479 -0.3917
 1877SOL    HW217268   2.336   2.188  13.400 -1.2167 -0.6147  0.7993
 1878SOL     OW17269   2.780   4.265   3.562 -0.2515  0.3883 -0.2119
 1878SOL    HW117270   2.758   4.256   3.654 -0.1231 -4.1869 -0.5871
 1878SOL    HW217271   2.867   4.302   3.555 -0.3485  0.5233 -0.6955
 1879SOL     OW17272   4.158   4.124   2.960 -0.3356  0.4561 -0.0778
 1879SOL    HW117273   4.090   4.161   2.904 -1.3259 -1.3485 -0.0775
 1879SOL    HW217274   4.170   4.036   2.925  1.7840  0.7207 -0.0156
 1880SOL     OW17275   0.156   0.675  17.610  0.1155  0.1188  0.0321
 1880SOL    HW117276   0.142   0.619  17.533  1.2754 -0.4186  0.2075
 1880SOL    HW217277   0.247   0.705  17.603  0.4219 -0.6986  0.4208
 1881SOL     OW17278   3.782   4.325   1.734  0.2718  0.0368  0.1887
 1881SOL    HW117279   3.793   4.256   1.668  1.3957 -0.4795  0.9128
 1881SOL    HW217280   3.824   4.277   1.806 -1.4738 -2.2383 -0.2953
 1882SOL     OW17281   4.728   1.409   1.751 -0.0255  0.1424  0.3225
 1882SOL    HW117282   0.007   1.420   1.845  3.9544  1.2588 -0.4418
 1882SOL    HW217283   4.659   1.343   1.753 -0.6007  0.7337  0.0824
 1883SOL     OW17284   4.500   3.741   7.705  0.1214  0.2570  0.5350
 1883SOL    HW117285   4.513   3.709   7.615 -1.3657  0.7219  0.1424
 1883SOL    HW217286   4.590   3.766   7.723  0.8441 -0.4193 -2.0613
 1884SOL     OW17287   2.261   3.391   5.430 -0.1977  0.2487 -0.0709
 1884SOL    HW117288   2.245   3.453   5.501  3.0711  2.4042 -1.2066
 1884SOL    HW217289   2.342   3.353   5.464  0.1723  3.6378  2.8354
 1885SOL     OW17290   4.266   2.352   6.587 -0.0044  0.1528 -0.6401
 1885SOL    HW117291   4.204   2.387   6.651 -1.1183 -0.7067 -1.2335
 1885SOL    HW217292   4.262   2.257   6.603  1.2008  0.2292  0.0957
 1886SOL     OW17293   3.809   3.193   9.208  0.0677 -0.8092 -0.1937
 1886SOL    HW117294   3.714   3.181   9.200 -0.1134  2.4842 -2.8620
 1886SOL    HW217295   3.838   3.245   9.134 -3.0363 -1.2640 -1.7501
 1887SOL     OW17296   2.698   2.533   4.644  0.1306 -0.0247 -0.0990
 1887SOL    HW117297   2.724   2.458   4.590  0.4217 -1.0002  1.3756
 1887SOL    HW217298   2.770   2.594   4.655  2.2863 -2.6321  0.3199
 1888SOL     OW17299   4.441   1.026  11.368  0.3760  0.2230 -0.0096
 1888SOL    HW117300   4.413   0.939  11.338  1.4997 -0.0432 -0.2598
 1888SOL    HW217301   4.364   1.054  11.418  1.3836  2.6576  0.2108
 1889SOL     OW17302   0.055   0.897   8.029  0.8992 -0.2188 -0.1841
 1889SOL    HW117303   0.096   0.984   8.033  1.1064 -0.2952 -0.7549
 1889SOL    HW217304   0.127   0.837   8.011  2.7238  1.9510 -0.1337
 1890SOL     OW17305   4.660   4.039   1.558  0.2972  0.3978 -0.2788
 1890SOL    HW117306   4.616   4.116   1.524 -0.4695  0.5317  1.0143
 1890SOL    HW217307   4.733   4.095   1.585  1.8779 -0.9134 -1.8113
 1891SOL     OW17308   2.062   1.169   6.831  0.4032  0.2568  0.6359
 1891SOL    HW117309   2.049   1.188   6.738  1.1805 -1.9192  0.0977
 1891SOL    HW217310   2.059   1.074   6.832 -0.2406  0.2543 -2.2396
 1892SOL     OW17311   1.302   4.314  16.204  0.2153 -0.2039  0.1615
 1892SOL    HW117312   1.373   4.269  16.159 -0.4334 -1.4777  0.4129
 1892SOL    HW217313   1.283   4.390  16.149  0.5949 -2.2101 -2.7438
 1893SOL     OW17314   0.246   1.574   8.821 -0.0494 -0.4783 -0.2434
 1893SOL    HW117315   0.161   1.544   8.852  0.5110 -3.6253 -1.8021
 1893SOL    HW217316   0.302   1.563   8.897 -0.2227  2.3512  0.3029
 1894SOL     OW17317   3.077   0.611   7.758  0.6067 -0.6463 -0.3345
 1894SOL    HW117318   3.141   0.682   7.759  0.1828 -0.2716  1.6097
 1894SOL    HW217319   3.039   0.639   7.675  0.8612 -0.8457 -0.5175
 1895SOL     OW17320   1.945   2.849   7.562  0.0111 -0.3259  0.0094
 1895SOL    HW117321   1.857   2.870   7.592 -0.2602  0.1583 -1.1423
 1895SOL    HW217322   1.943   2.897   7.480 -1.5989  0.0838  0.2943
 1896SOL     OW17323   3.153   3.577   4.250  0.0983  0.2886 -0.1391
 1896SOL    HW117324   3.150   3.666   4.216  0.4794  0.5159  0.4291
 1896SOL    HW217325   3.067   3.552   4.284  0.2275 -0.6483 -0.4938
 1897SOL     OW17326   4.667   2.054  14.306  0.2850  0.4965 -0.1056
 1897SOL    HW117327   4.713   2.100  14.236 -2.2108 -0.9206 -2.6916
 1897SOL    HW217328   0.007   2.044  14.364  0.0366 -0.5339  0.0478
 1898SOL     OW17329   1.260   2.105   6.256 -0.1857  0.1106  0.0823
 1898SOL    HW117330   1.240   2.159   6.332  1.5855  4.0104 -2.2556
 1898SOL    HW217331   1.335   2.152   6.221 -0.1098  1.3325  1.9311
 1899SOL     OW17332   4.678   2.570  10.813  0.2242 -0.1571 -0.3573
 1899SOL    HW117333   4.722   2.485  10.827  1.3267  0.9971  3.2225
 1899SOL    HW217334   4.621   2.548  10.739  0.0007  3.0670 -1.1002
 1900SOL     OW17335   3.103   4.020   8.230 -0.2495 -0.4960 -0.3671
 1900SOL    HW117336   3.062   4.103   8.206 -0.4281 -1.0579 -1.9817
 1900SOL    HW217337   3.039   3.988   8.294 -0.5765  1.1641  0.1354
 1901SOL     OW17338   3.249   3.740  11.375 -0.0888  1.0602 -0.7153
 1901SOL    HW117339   3.168   3.791  11.370 -1.2970 -0.6733  1.3365
 1901SOL    HW217340   3.291   3.786  11.301  0.1712  1.7413 -0.1460
 1902SOL     OW17341   0.696   2.568   9.616 -0.1562  0.2891 -0.4850
 1902SOL    HW117342   0.774   2.520   9.645 -1.4404  0.0216  2.4603
 1902SOL    HW217343   0.642   2.569   9.694 -0.3149  1.7863 -0.6000
 1903SOL     OW17344   2.720   0.185   8.375 -0.0388  0.6548  0.0770
 1903SOL    HW117345   2.746   0.164   8.285 -0.7949  1.1059 -0.2583
 1903SOL    HW217346   2.733   0.105   8.425 -1.5376  2.2921  3.1107
 1904SOL     OW17347   0.155   3.486   3.086  0.4067  0.4231  0.7868
 1904SOL    HW117348   0.238   3.460   3.125  1.1612 -0.0576 -1.1417
 1904SOL    HW217349   0.148   3.576   3.117  1.8868  1.2675 -1.2964
 1905SOL     OW17350   1.353   0.989   1.125 -0.6506 -0.2997  0.5650
 1905SOL    HW117351   1.404   1.002   1.045 -1.6907 -1.7409 -0.3491
 1905SOL    HW217352   1.386   0.905   1.158 -1.6486 -1.3407 -1.0590
 1906SOL     OW17353   0.111   1.479   9.860  0.2784  0.4346  0.2550
 1906SOL    HW117354   0.186   1.447   9.810  0.2325 -0.3472  0.6794
 1906SOL    HW217355   0.044   1.480   9.792 -1.3719  0.4831  1.8770
 1907SOL     OW17356   0.123   4.409   3.768  0.0699  0.3891  0.0601
 1907SOL    HW117357   0.218   4.394   3.767  0.2284  1.6172 -2.5557
 1907SOL    HW217358   0.122   4.504   3.768 -2.7674  0.3603 -1.0272
 1908SOL     OW17359   2.488   2.256   3.262 -0.0466 -0.1503 -0.4925
 1908SOL    HW117360   2.395   2.265   3.242 -0.6016 -1.7952  1.2916
 1908SOL    HW217361   2.483   2.218   3.350 -4.1982 -0.0650 -0.7130
 1909SOL     OW17362   1.930   1.723  15.623  0.8339 -0.0631 -0.2564
 1909SOL    HW117363   1.945   1.794  15.685  1.1515  1.0199 -1.5676
 1909SOL    HW217364   1.836   1.736  15.606  0.7698 -1.8294 -1.1748
 1910SOL     OW17365   1.147   2.064   1.191  0.2272  0.1851  0.2219
 1910SOL    HW117366   1.131   2.158   1.194  0.1608  0.2003 -0.8458
 1910SOL    HW217367   1.231   2.057   1.237 -0.7242 -0.5508  1.8529
 1911SOL     OW17368   4.136   3.866   2.553 -0.5837  0.5869  0.2075
 1911SOL    HW117369   4.108   3.791   2.501 -0.5655  0.5014  0.3221
 1911SOL    HW217370   4.093   3.940   2.509 -0.5394  0.4926  0.0040
 1912SOL     OW17371   1.446   2.420   7.463  0.0086  0.2344 -0.4703
 1912SOL    HW117372   1.395   2.447   7.539  0.0584  0.6518 -0.5867
 1912SOL    HW217373   1.528   2.468   7.472 -0.4724  0.6527  1.5676
 1913SOL     OW17374   4.540   3.357   3.950  0.7435 -0.0306 -0.1174
 1913SOL    HW117375   4.522   3.431   4.008  1.5321  1.4730 -1.7657
 1913SOL    HW217376   4.627   3.339   3.986  0.0938 -1.4421  0.7264
 1914SOL     OW17377   1.842   3.709   5.804  0.4206 -0.0004 -0.1019
 1914SOL    HW117378   1.759   3.711   5.852 -0.4608  0.9723 -1.6670
 1914SOL    HW217379   1.873   3.627   5.840 -1.5288 -0.4243  0.6207
 1915SOL     OW17380   0.990   1.904   5.641  0.0177 -0.2540 -0.1808
 1915SOL    HW117381   0.937   1.977   5.609  0.6372  0.2902  0.0219
 1915SOL    HW217382   1.012   1.869   5.555 -0.6180  0.7069 -0.7356
 1916SOL     OW17383   4.249   4.559   8.085 -0.0498 -0.1697  0.0818
 1916SOL    HW117384   4.191   4.592   8.154 -0.8293 -4.4529  1.5033
 1916SOL    HW217385   4.179   4.546   8.021  1.2449  0.2154 -1.3989
 1917SOL     OW17386   1.449   4.158   8.156  0.2375 -0.1079 -0.7869
 1917SOL    HW117387   1.457   4.065   8.180 -2.5671  0.1584  1.1297
 1917SOL    HW217388   1.380   4.150   8.091 -0.7167  0.0980  0.2084
 1918SOL     OW17389   3.571   1.001   8.468  0.2104  0.2733 -0.4620
 1918SOL    HW117390   3.604   0.983   8.380  0.8759 -0.0776 -0.1333
 1918SOL    HW217391   3.587   1.092   8.492 -2.3703  0.5952  0.1189
 1919SOL     OW17392   4.001   0.114   2.336 -0.0535 -0.1684 -0.4072
 1919SOL    HW117393   3.988   0.171   2.411  0.4329  1.2634 -1.4117
 1919SOL    HW217394   4.009   0.027   2.375  2.1599 -0.1837 -0.9070
 1920SOL     OW17395   4.436   3.244  13.724 -0.0719 -0.3634 -0.4114
 1920SOL    HW117396   4.373   3.278  13.660 -0.4303  0.8953  0.6177
 1920SOL    HW217397   4.500   3.211  13.661 -0.7560  1.4524 -2.0655
 1921SOL     OW17398   2.474   0.910  15.325 -0.0505  0.8370 -0.2819
 1921SOL    HW117399   2.510   0.917  15.237  0.2547 -0.3151 -0.2464
 1921SOL    HW217400   2.380   0.917  15.309 -0.0277  1.9750  0.0548
 1922SOL     OW17401   0.197   2.540   7.700  0.0823 -0.0641 -0.7697
 1922SOL    HW117402   0.217   2.616   7.755  1.0540  0.4636 -1.8791
 1922SOL    HW217403   0.162   2.482   7.768  0.4948  0.7225  0.1202
 1923SOL     OW17404   1.183   2.722   8.161 -0.5946 -0.2485 -0.2381
 1923SOL    HW117405   1.235   2.713   8.240  0.1553  0.5201 -0.6484
 1923SOL    HW217406   1.241   2.677   8.100  1.0400  0.2237  0.9889
 1924SOL     OW17407   2.542   3.971   7.200 -0.5257 -0.4613  0.1986
 1924SOL    HW117408   2.611   4.020   7.246  0.2298 -0.9802 -0.3723
 1924SOL    HW217409   2.557   3.879   7.221  0.8307 -0.4068 -0.5348
 1925SOL     OW17410   1.692   3.598   2.110  0.2377  0.3296  0.1724
 1925SOL    HW117411   1.743   3.642   2.043 -0.1053 -0.3928 -0.5612
 1925SOL    HW217412   1.603   3.590   2.076 -0.1662  2.0580  0.8263
 1926SOL     OW17413   0.002   1.201   6.578 -0.1489  0.4256 -0.3400
 1926SOL    HW117414   4.704   1.234   6.494  3.2477 -1.4141 -2.3807
 1926SOL    HW217415   0.044   1.126   6.536 -0.8594 -1.0127  1.5683
 1927SOL     OW17416   2.578   1.685   4.514 -0.2918 -0.1939  0.3089
 1927SOL    HW117417   2.540   1.719   4.595 -0.0437  2.4327 -0.6713
 1927SOL    HW217418   2.589   1.597   4.550 -1.2966 -0.6172 -0.4258
 1928SOL     OW17419   2.859   0.406   7.806  0.5571 -0.3166 -0.1845
 1928SOL    HW117420   2.780   0.424   7.755 -1.1303 -1.1663  2.1585
 1928SOL    HW217421   2.900   0.492   7.808  2.3181 -1.1981  1.5840
 1929SOL     OW17422   0.925   2.026  14.951 -0.0998  0.4315  0.7716
 1929SOL    HW117423   0.872   2.012  14.873 -0.6115 -1.2335  1.4299
 1929SOL    HW217424   0.866   2.087  14.996 -0.8688 -0.3318  0.7981
 1930SOL     OW17425   3.776   3.783  12.181 -0.0942  0.1694  0.2239
 1930SOL    HW117426   3.691   3.739  12.170  1.0669 -1.9025 -0.4327
 1930SOL    HW217427   3.821   3.772  12.097 -2.2257 -0.9526 -0.7736
 1931SOL     OW17428   3.211   0.131   2.365  0.5825 -0.2300 -0.0957
 1931SOL    HW117429   3.261   0.174   2.435 -1.0102 -0.1260  0.9583
 1931SOL    HW217430   3.132   0.089   2.397 -0.2802  1.8050  0.4527
 1932SOL     OW17431   1.422   0.520   7.624 -0.4538  0.4604 -0.1745
 1932SOL    HW117432   1.484   0.501   7.694 -1.0602  2.5612  0.9129
 1932SOL    HW217433   1.452   0.453   7.562  1.5311 -1.5260  2.9534
 1933SOL     OW17434   2.659   0.884  15.518  0.1052 -0.2663 -0.1342
 1933SOL    HW117435   2.618   0.882  15.432  2.4439  1.8441 -1.2842
 1933SOL    HW217436   2.621   0.968  15.542  3.3544  1.6839 -1.8775
 1934SOL     OW17437   0.226   2.675   9.472  0.0441  0.5669  0.0274
 1934SOL    HW117438   0.271   2.701   9.391 -1.0302 -0.6414 -0.9468
 1934SOL    HW217439   0.172   2.603   9.439  0.4883 -0.1689  0.9049
 1935SOL     OW17440   2.685   3.727   4.436 -0.6381  0.1272 -0.4844
 1935SOL    HW117441   2.612   3.702   4.380 -0.5038  0.0612 -0.6306
 1935SOL    HW217442   2.647   3.729   4.524 -0.2296 -1.1525 -0.2692
 1936SOL     OW17443   0.091   0.758   7.141 -0.3761 -0.5450  0.3050
 1936SOL    HW117444   0.153   0.810   7.192 -0.3770 -0.5841  0.3470
 1936SOL    HW217445   0.106   0.802   7.058 -0.5946 -1.8123 -0.4077
 1937SOL     OW17446   1.404   3.174   2.592  0.4620  0.0345  0.3375
 1937SOL    HW117447   1.401   3.095   2.539 -2.7685  0.0545  0.4574
 1937SOL    HW217448   1.453   3.156   2.672  0.9343 -1.5922 -0.3350
 1938SOL     OW17449   2.334   1.192   8.349  0.0311  0.1837  0.2842
 1938SOL    HW117450   2.315   1.121   8.410 -2.1097 -3.2995 -4.4721
 1938SOL    HW217451   2.274   1.168   8.279  1.1876  2.5515 -1.5406
 1939SOL     OW17452   3.656   1.661   1.946  0.2403  0.4078  0.1619
 1939SOL    HW117453   3.592   1.724   1.914  0.1951  0.5285  0.4940
 1939SOL    HW217454   3.736   1.713   1.945 -1.6505  3.2996 -0.7106
 1940SOL     OW17455   1.308   3.461  10.057  0.6085 -0.1516 -0.1448
 1940SOL    HW117456   1.217   3.490  10.054  0.5726  0.0820  3.4049
 1940SOL    HW217457   1.354   3.545  10.060  0.5792 -0.0749 -1.8273
 1941SOL     OW17458   3.268   3.144   0.313 -0.2126  0.2355  0.3370
 1941SOL    HW117459   3.302   3.098   0.389  0.4558  0.7454  0.3421
 1941SOL    HW217460   3.243   3.073   0.253  0.0352  0.3521  0.0934
 1942SOL     OW17461   4.425   0.818   3.656  0.4466 -0.4070  0.0644
 1942SOL    HW117462   4.382   0.898   3.625  0.0997 -0.1564  1.2256
 1942SOL    HW217463   4.347   0.762   3.657 -0.4318  0.8372  0.6123
 1943SOL     OW17464   4.423   0.258   3.606  0.1744  0.3001 -0.1401
 1943SOL    HW117465   4.432   0.300   3.691  1.9630 -1.6924  0.6335
 1943SOL    HW217466   4.362   0.315   3.559 -1.3758 -2.5584 -1.6398
 1944SOL     OW17467   3.715   4.150  10.808 -0.7550 -0.3071  0.1407
 1944SOL    HW117468   3.804   4.122  10.786 -0.8185 -0.0914 -0.3780
 1944SOL    HW217469   3.713   4.140  10.904  1.0542  1.0426  0.3189
 1945SOL     OW17470   2.851   2.909   1.936 -0.3212  0.5324 -0.5328
 1945SOL    HW117471   2.939   2.896   1.901 -0.2225 -1.5342  0.4521
 1945SOL    HW217472   2.839   2.851   2.012 -1.2222 -0.0200 -1.0946
 1946SOL     OW17473   4.469   3.268   3.175  0.2561  0.2805 -0.2920
 1946SOL    HW117474   4.454   3.186   3.128  1.1928 -0.0113 -0.0762
 1946SOL    HW217475   4.561   3.276   3.200 -0.3425  1.7036  1.4847
 1947SOL     OW17476   2.059   4.483   8.382  0.3802 -0.3433  0.3203
 1947SOL    HW117477   2.052   4.415   8.315 -1.0624  1.0050 -0.8667
 1947SOL    HW217478   1.998   4.542   8.338  1.1333  0.7645  0.7583
 1948SOL     OW17479   2.596   1.059  13.676 -0.2737 -0.1202  0.0806
 1948SOL    HW117480   2.578   1.080  13.768 -0.8792 -0.0409 -0.0562
 1948SOL    HW217481   2.674   1.003  13.684  1.2758  1.6723 -2.4519
 1949SOL     OW17482   0.948   1.761   7.520 -0.2897 -0.8008  0.4861
 1949SOL    HW117483   0.966   1.705   7.595 -0.5616 -1.5764 -0.0218
 1949SOL    HW217484   0.856   1.743   7.503 -0.6171 -0.8335  2.3258
 1950SOL     OW17485   1.216   1.909   6.918 -0.3131 -0.2003  0.3754
 1950SOL    HW117486   1.226   1.867   7.003 -0.1494 -0.4934  0.2090
 1950SOL    HW217487   1.139   1.959   6.946 -0.1439 -0.0052  0.4937
 1951SOL     OW17488   3.823   4.400   7.794 -0.1146 -0.0737 -0.4196
 1951SOL    HW117489   3.774   4.340   7.737 -0.5062  0.9282 -1.1475
 1951SOL    HW217490   3.758   4.409   7.864  2.0493  1.0528  1.4227
 1952SOL     OW17491   4.654   2.997   8.610  0.0758  0.1988  0.1757
 1952SOL    HW117492   4.653   2.997   8.706  0.1704  1.2492  0.1710
 1952SOL    HW217493   4.591   3.067   8.596 -1.4010 -1.2289 -0.2849
 1953SOL     OW17494   1.542   2.717   1.023 -0.1708  0.7015  0.6595
 1953SOL    HW117495   1.501   2.803   1.016 -2.1591 -0.1904  1.3091
 1953SOL    HW217496   1.516   2.681   0.939  0.4379 -2.1792  1.7110
 1954SOL     OW17497   4.193   4.256  15.093  0.2064 -1.0057  0.2270
 1954SOL    HW117498   4.124   4.273  15.156 -0.9549 -1.1385 -1.0013
 1954SOL    HW217499   4.143   4.265  15.012 -0.2844  2.0041  0.8594
 1955SOL     OW17500   2.748   1.973   5.463 -0.4319 -0.0742 -0.0847
 1955SOL    HW117501   2.721   1.915   5.534  0.0452  0.5009  0.5609
 1955SOL    HW217502   2.659   1.996   5.435  0.1596  1.4781 -0.7006
 1956SOL     OW17503   0.120   0.162   7.502 -0.0171 -0.5328 -0.0411
 1956SOL    HW117504   0.123   0.174   7.597 -0.3999  0.5687 -0.1719
 1956SOL    HW217505   0.085   0.247   7.478  1.7406  0.7671  1.9539
 1957SOL     OW17506   0.285   1.351   4.422 -0.1961  0.2410  0.1566
 1957SOL    HW117507   0.327   1.433   4.449 -1.9798  0.0437  3.5172
 1957SOL    HW217508   0.311   1.294   4.494 -1.7613 -0.7259 -0.0429
 1958SOL     OW17509   1.140   1.146   9.458 -0.8752 -0.4717  0.0804
 1958SOL    HW117510   1.088   1.137   9.378  1.4381  0.1977 -1.4829
 1958SOL    HW217511   1.206   1.083   9.431  0.1799  0.2914  0.9029
 1959SOL     OW17512   1.250   3.512  16.626 -0.4658 -0.7305 -0.7552
 1959SOL    HW117513   1.265   3.433  16.678  0.5596  1.1656  1.8302
 1959SOL    HW217514   1.336   3.519  16.585  0.3234  1.3368  1.2553
 1960SOL     OW17515   0.550   2.413  12.599  0.2974 -0.1183  0.2736
 1960SOL    HW117516   0.596   2.345  12.649 -2.2196 -0.6526  1.8475
 1960SOL    HW217517   0.582   2.488  12.649 -2.1587  2.0938 -1.5334
 1961SOL     OW17518   2.612   0.679  16.515  0.4275  0.2674  0.2597
 1961SOL    HW117519   2.694   0.630  16.520  1.5131  1.9329 -0.9764
 1961SOL    HW217520   2.634   0.766  16.549 -1.4826  1.0175 -0.4388
 1962SOL     OW17521   0.039   0.579   6.284  0.4351 -0.2660  0.0240
 1962SOL    HW117522   0.000   0.590   6.370 -2.9353 -2.1018 -1.2817
 1962SOL    HW217523   4.698   0.545   6.239 -0.7683  1.5363  0.6948
 1963SOL     OW17524   0.871   1.520   5.205  0.3614 -0.2033  0.4355
 1963SOL    HW117525   0.941   1.528   5.269  1.5611  0.2654 -0.9404
 1963SOL    HW217526   0.830   1.436   5.225  0.1877 -0.0436  0.7525
 1964SOL     OW17527   0.070   3.634   6.875 -0.0852  0.0964  0.1502
 1964SOL    HW117528   0.163   3.649   6.858 -0.0722  1.6309  1.6924
 1964SOL    HW217529   0.056   3.539   6.873  0.6914 -0.0252  0.4879
 1965SOL     OW17530   2.780   3.681   6.610 -0.1569  0.3570 -0.3413
 1965SOL    HW117531   2.712   3.694   6.676  1.2336 -1.7031  1.5097
 1965SOL    HW217532   2.858   3.638   6.646 -1.1850  0.0797  1.5676
 1966SOL     OW17533   2.195   4.710   5.930  0.4249  0.7665  0.4561
 1966SOL    HW117534   2.277   4.695   5.884 -0.3590 -0.5180 -0.5037
 1966SOL    HW217535   2.163   0.050   5.879 -0.0033  0.9343  0.9734
 1967SOL     OW17536   1.640   0.582   9.195 -0.5461 -0.0432  0.1317
 1967SOL    HW117537   1.722   0.551   9.156 -0.2316 -1.5439  1.9993
 1967SOL    HW217538   1.575   0.539   9.140 -0.8902 -0.9529  1.2669
 1968SOL     OW17539   0.467   4.702  15.776 -0.1651  0.6598 -0.0067
 1968SOL    HW117540   0.504   4.690  15.864 -1.2586 -0.9993  0.2267
 1968SOL    HW217541   0.376   4.683  15.799  0.1643 -2.4071 -1.2827
 1969SOL     OW17542   1.171   1.917  14.921 -0.5385  0.5572  0.1841
 1969SOL    HW117543   1.078   1.931  14.902  0.0498  3.5137 -0.5158
 1969SOL    HW217544   1.169   1.877  15.008  0.5857  0.4882  0.1805
 1970SOL     OW17545   4.429   0.685  15.301  0.6197 -0.1896  0.3685
 1970SOL    HW117546   4.449   0.704  15.393 -1.5696 -1.4057  1.0785
 1970SOL    HW217547   4.340   0.650  15.300  0.4364  0.2819  0.2359
 1971SOL     OW17548   3.170   0.081   9.059 -0.6427 -0.1205 -0.3896
 1971SOL    HW117549   3.159   0.175   9.044 -0.1645  0.2509  1.6703
 1971SOL    HW217550   3.100   0.049   9.115 -1.3888  0.9141 -0.7353
 1972SOL     OW17551   1.534   1.534   9.341  0.0943 -0.3892  0.3811
 1972SOL    HW117552   1.499   1.569   9.423  2.3707 -2.2167  2.1079
 1972SOL    HW217553   1.568   1.618   9.310 -1.7957  0.5665  0.8894
 1973SOL     OW17554   0.268   4.101   3.326  0.2203  0.2786  0.2264
 1973SOL    HW117555   0.207   4.032   3.301  1.1652 -0.2908 -0.5418
 1973SOL    HW217556   0.210   4.159   3.374  1.5607  3.5809 -2.1421
 1974SOL     OW17557   2.787   0.448   3.198 -0.2709  0.1660 -0.1156
 1974SOL    HW117558   2.794   0.368   3.250  0.9599 -0.5114 -1.3272
 1974SOL    HW217559   2.803   0.504   3.274 -0.1230 -1.4083  1.0187
 1975SOL     OW17560   2.037   3.578  10.623 -0.4268 -0.8724 -0.1110
 1975SOL    HW117561   2.119   3.574  10.672 -0.4294  1.5641  0.1094
 1975SOL    HW217562   2.077   3.589  10.536 -0.0721  0.3785  0.2017
 1976SOL     OW17563   3.318   2.087  15.319 -0.1961 -0.5901 -0.2366
 1976SOL    HW117564   3.329   1.999  15.355 -1.4434 -0.4180  0.5413
 1976SOL    HW217565   3.398   2.098  15.266  0.0449  2.3221  0.7153
 1977SOL     OW17566   0.189   1.911   8.563 -0.0352  0.4303  0.2306
 1977SOL    HW117567   0.244   1.851   8.512  1.6159  1.3824  0.8955
 1977SOL    HW217568   0.106   1.911   8.515 -0.1114 -0.5785  0.3565
 1978SOL     OW17569   2.825   0.166   6.527  0.1907 -0.1304 -0.0982
 1978SOL    HW117570   2.759   0.216   6.575  0.1994  1.1604 -1.4573
 1978SOL    HW217571   2.773   0.089   6.504 -1.4030  0.6883  0.7783
 1979SOL     OW17572   2.528   2.236   4.379 -0.1592 -0.1035 -0.1788
 1979SOL    HW117573   2.554   2.323   4.349 -2.3083  0.8967  0.8771
 1979SOL    HW217574   2.463   2.221   4.311  0.3839  0.3934 -0.8022
 1980SOL     OW17575   3.483   0.682   2.420  0.2794  0.1654 -0.3435
 1980SOL    HW117576   3.562   0.702   2.470  0.1978  1.2239 -0.6380
 1980SOL    HW217577   3.519   0.722   2.341 -2.3657  1.7211 -0.7466
 1981SOL     OW17578   2.678   1.186  15.333  0.5414 -0.3941 -0.1089
 1981SOL    HW117579   2.657   1.117  15.270 -1.3414 -0.3955  0.5198
 1981SOL    HW217580   2.767   1.213  15.308  1.4868 -2.2457  1.2309
 1982SOL     OW17581   1.490   2.212   7.141  0.2841 -0.1634 -0.0440
 1982SOL    HW117582   1.477   2.171   7.055 -1.9891 -1.7730  1.0556
 1982SOL    HW217583   1.410   2.183   7.185  1.2486 -1.4879  0.8359
 1983SOL     OW17584   4.216   0.249   5.761  0.5587  0.6898 -0.2034
 1983SOL    HW117585   4.208   0.160   5.726 -1.2648  1.2522 -1.1866
 1983SOL    HW217586   4.298   0.280   5.723 -0.2164  2.3174 -0.5472
 1984SOL     OW17587   1.537   1.039   6.743  0.0243  0.2197  0.3488
 1984SOL    HW117588   1.624   1.028   6.705 -0.8667  0.4612 -1.7498
 1984SOL    HW217589   1.489   0.995   6.673  0.9535  3.4872 -2.3152
 1985SOL     OW17590   1.588   3.196   7.385 -0.8583  0.0476 -0.2673
 1985SOL    HW117591   1.636   3.269   7.425  1.3528 -0.5375 -1.8394
 1985SOL    HW217592   1.623   3.211   7.297  0.5473 -0.9899  0.1113
 1986SOL     OW17593   4.309   4.601   3.434 -0.3025 -0.0497  0.1177
 1986SOL    HW117594   4.292   4.544   3.359  0.7969 -0.9396  0.5481
 1986SOL    HW217595   4.313   4.525   3.492 -0.3160  1.3222  1.8993
 1987SOL     OW17596   1.076   1.776  11.743  0.1319 -0.2959  0.5367
 1987SOL    HW117597   1.038   1.704  11.793 -0.1170 -1.3731 -1.2317
 1987SOL    HW217598   1.169   1.755  11.753  0.5823  1.9206  1.0447
 1988SOL     OW17599   1.720   4.691   4.760 -0.4304  0.4334 -0.3926
 1988SOL    HW117600   1.735   4.680   4.854 -2.2640 -2.9443 -0.4983
 1988SOL    HW217601   1.712   0.051   4.759  1.7136  0.6558  2.3015
 1989SOL     OW17602   0.419   0.130   8.166  0.6659 -0.0242 -0.1881
 1989SOL    HW117603   0.439   0.114   8.073 -0.1106 -3.1936  0.1754
 1989SOL    HW217604   0.485   0.193   8.194  1.4163 -1.1590  0.6246
 1990SOL     OW17605   3.412   3.054   5.605  0.3923  0.0760 -0.1222
 1990SOL    HW117606   3.507   3.060   5.597  0.4743 -2.1043 -0.7351
 1990SOL    HW217607   3.392   3.012   5.522 -2.3900 -3.3548  2.2757
 1991SOL     OW17608   2.852   2.273   5.469 -0.1817  0.1355 -0.1747
 1991SOL    HW117609   2.784   2.284   5.536  1.6516  0.3438  1.6585
 1991SOL    HW217610   2.854   2.179   5.456  0.5364 -0.0761  1.3687
 1992SOL     OW17611   4.572   2.766   4.310 -0.0144 -0.0657 -0.0000
 1992SOL    HW117612   4.622   2.785   4.390  1.7049  0.0679 -1.1127
 1992SOL    HW217613   4.642   2.725   4.259  0.5626  1.8066 -0.7214
 1993SOL     OW17614   3.049   1.108   6.411 -0.2657  0.3171 -0.0134
 1993SOL    HW117615   3.118   1.052   6.376  1.3543  2.3131 -0.0465
 1993SOL    HW217616   3.092   1.194   6.405  0.8700 -0.3144 -0.9020
 1994SOL     OW17617   4.297   0.092   8.486 -0.1690 -0.3191  0.4194
 1994SOL    HW117618   4.226   0.057   8.541 -1.0181 -0.7682 -0.9724
 1994SOL    HW217619   4.261   0.167   8.439  1.0626  0.2630  0.4116
 1995SOL     OW17620   2.735   1.398   6.104 -0.0697  0.4578 -0.8342
 1995SOL    HW117621   2.784   1.316   6.114  2.5446  1.8135 -2.5787
 1995SOL    HW217622   2.808   1.459   6.112 -0.4624  1.0460 -1.6896
 1996SOL     OW17623   3.093   3.947  13.493 -0.0843 -0.5811 -0.0482
 1996SOL    HW117624   3.188   3.939  13.476 -0.0108  0.4681 -0.1040
 1996SOL    HW217625   3.090   3.992  13.577  1.3508  0.2153 -0.4115
 1997SOL     OW17626   4.177   1.802  16.621 -0.3389  0.0387  0.0376
 1997SOL    HW117627   4.237   1.861  16.575  1.9195 -2.6531 -0.4337
 1997SOL    HW217628   4.098   1.788  16.568 -0.0063 -0.1369 -0.4114
 1998SOL     OW17629   0.005   4.163   0.186 -0.1780  0.3124 -0.3589
 1998SOL    HW117630   4.709   4.232   0.127 -1.3437 -1.8424 -2.2671
 1998SOL    HW217631   0.083   4.213   0.209  0.8554 -1.0473 -0.8917
 1999SOL     OW17632   0.444   4.728  16.320 -0.3321 -0.6525 -0.3889
 1999SOL    HW117633   0.408   4.681  16.395 -0.3761  0.2670  0.1640
 1999SOL    HW217634   0.365   4.730  16.266 -1.4760  1.7173  1.3870
 2000SOL     OW17635   1.587   3.955  15.911  0.0856  0.0629  0.2749
 2000SOL    HW117636   1.607   3.862  15.910 -0.7957 -0.1261 -0.6140
 2000SOL    HW217637   1.646   3.994  15.846  1.6298 -2.9055 -0.0951
 2001SOL     OW17638   0.093   1.220  14.973 -0.1050 -0.3870 -0.2768
 2001SOL    HW117639   0.079   1.307  14.936 -0.9106 -0.7048 -0.7151
 2001SOL    HW217640   0.024   1.217  15.039 -0.1736  0.7340 -0.2941
 2002SOL     OW17641   0.808   1.463  12.810  0.0979  0.2617  0.1640
 2002SOL    HW117642   0.883   1.407  12.790 -2.4111 -1.6718 -3.8144
 2002SOL    HW217643   0.836   1.554  12.805 -1.3642  0.7642  1.2348
 2003SOL     OW17644   0.640   0.252   4.084 -0.1965 -0.6391 -0.1351
 2003SOL    HW117645   0.707   0.301   4.036  1.0455 -4.3466 -2.1628
 2003SOL    HW217646   0.692   0.211   4.154 -0.1370 -1.8192 -0.8659
 2004SOL     OW17647   0.906   2.127   7.749 -0.1700  0.4412 -0.1495
 2004SOL    HW117648   0.999   2.128   7.725  0.4205 -0.9441  2.0782
 2004SOL    HW217649   0.901   2.061   7.817 -1.4969 -0.9126 -1.5605
 2005SOL     OW17650   3.687   3.097   5.529  0.9050 -0.4415 -0.2233
 2005SOL    HW117651   3.702   3.176   5.580 -0.5235 -0.8124  0.7693
 2005SOL    HW217652   3.713   3.122   5.441 -1.6802 -2.4122 -1.5435
 2006SOL     OW17653   2.929   4.223  17.209  0.4378  0.3152  0.1382
 2006SOL    HW117654   2.889   4.145  17.170 -1.7177  0.9596  1.0161
 2006SOL    HW217655   2.882   4.245  17.290  1.1884  1.2983  0.3106
 2007SOL     OW17656   1.207   3.635   1.874  0.5096  0.4601  0.5031
 2007SOL    HW117657   1.173   3.564   1.818 -1.3108  1.9059 -0.2367
 2007SOL    HW217658   1.132   3.691   1.853 -2.3107 -3.7130 -0.5695
 2008SOL     OW17659   4.111   2.822  13.411 -0.3702 -0.0554 -0.1891
 2008SOL    HW117660   4.190   2.862  13.448  0.2982 -2.4546  0.9947
 2008SOL    HW217661   4.056   2.898  13.396 -0.0793  0.1814 -0.0572
 2009SOL     OW17662   1.176   2.350   7.316  0.4286  0.3918  0.1860
 2009SOL    HW117663   1.178   2.376   7.409  1.7906  1.0968 -0.0376
 2009SOL    HW217664   1.098   2.392   7.279  0.5349 -0.7346 -1.3089
 2010SOL     OW17665   0.850   4.053  13.827  0.3735 -0.2687  0.0184
 2010SOL    HW117666   0.777   4.114  13.817  0.1952 -0.6050 -0.7561
 2010SOL    HW217667   0.822   3.997  13.899 -1.4611 -0.2205 -0.6354
 2011SOL     OW17668   3.457   4.152   1.363  0.0068 -0.1627  0.0483
 2011SOL    HW117669   3.533   4.162   1.419  0.2645  1.8843 -0.6856
 2011SOL    HW217670   3.455   4.241   1.328  0.7182 -0.4865 -0.7938
 2012SOL     OW17671   4.246   1.256   7.331 -0.0240  0.0415  0.2002
 2012SOL    HW117672   4.299   1.333   7.312  0.2568 -0.6516 -1.8214
 2012SOL    HW217673   4.304   1.182   7.353  1.2292  1.5934  2.1106
 2013SOL     OW17674   0.050   2.618   0.435  0.3777  0.2056 -0.1215
 2013SOL    HW117675   0.016   2.600   0.523 -0.3997 -1.2270 -0.7296
 2013SOL    HW217676   0.098   2.536   0.424 -0.9784 -0.8240  1.5830
 2014SOL     OW17677   3.849   4.097  11.528 -0.0976  0.0503 -0.1518
 2014SOL    HW117678   3.859   4.188  11.500 -1.4394  0.1479 -0.2721
 2014SOL    HW217679   3.822   4.055  11.447 -2.8311 -1.9128  1.7871
 2015SOL     OW17680   0.572   2.658   8.425  0.1735 -0.6321  0.7608
 2015SOL    HW117681   0.639   2.610   8.472  0.5834  1.1955  2.0369
 2015SOL    HW217682   0.623   2.735   8.399 -1.2823  1.0422  2.8799
 2016SOL     OW17683   3.456   1.880   3.445  0.4886  0.1710 -0.5262
 2016SOL    HW117684   3.496   1.819   3.506 -0.1834  0.2760  0.0171
 2016SOL    HW217685   3.372   1.899   3.487 -0.6629 -0.9935 -2.2910
 2017SOL     OW17686   1.788   1.770   3.686  0.2365  0.6279  0.5274
 2017SOL    HW117687   1.813   1.724   3.766  3.5254 -0.8734 -1.3856
 2017SOL    HW217688   1.729   1.839   3.718 -0.1306 -0.4083  2.0687
 2018SOL     OW17689   1.540   2.422   2.406 -0.3741  0.3562  0.3571
 2018SOL    HW117690   1.585   2.496   2.448  1.3624 -0.0929 -0.7143
 2018SOL    HW217691   1.593   2.412   2.327  0.0979 -1.5823  0.9145
 2019SOL     OW17692   1.369   1.680   0.742  0.2522 -0.1547  0.3358
 2019SOL    HW117693   1.293   1.623   0.754 -0.2156  0.5118  0.5352
 2019SOL    HW217694   1.353   1.715   0.830 -1.8762  0.1035 -0.1510
 2020SOL     OW17695   0.668   0.846   8.721 -0.5933  0.0055  0.6235
 2020SOL    HW117696   0.603   0.785   8.686  0.0656  0.1101 -0.7979
 2020SOL    HW217697   0.672   0.913   8.652 -1.8106 -1.0803 -0.4983
 2021SOL     OW17698   0.031   1.866   5.748 -0.2660  0.0323  0.3821
 2021SOL    HW117699   4.704   1.869   5.675  0.5545 -0.3685 -0.3313
 2021SOL    HW217700   0.076   1.784   5.731 -0.5546  0.4658 -2.4267
 2022SOL     OW17701   2.692   3.671   5.449 -0.1167 -0.3185 -0.2053
 2022SOL    HW117702   2.680   3.589   5.401  1.8974 -0.3157 -0.7405
 2022SOL    HW217703   2.786   3.686   5.438 -0.5236  0.6961 -2.2972
 2023SOL     OW17704   4.518   1.373   3.341  0.2974  0.4641  0.3442
 2023SOL    HW117705   4.427   1.352   3.320  0.3051  0.6544  0.1117
 2023SOL    HW217706   4.515   1.364   3.436 -2.1340 -0.6871  0.1445
 2024SOL     OW17707   3.970   1.991   9.014 -0.1676 -1.3544 -0.9316
 2024SOL    HW117708   4.019   2.062   8.974 -0.7568 -1.4197 -1.7974
 2024SOL    HW217709   3.880   2.011   8.987  0.2759 -0.4573 -1.7461
 2025SOL     OW17710   3.477   0.579  16.676 -0.1057 -0.8676 -0.2774
 2025SOL    HW117711   3.436   0.495  16.657  1.5084 -1.6704 -0.1817
 2025SOL    HW217712   3.551   0.575  16.616  0.3884 -0.8740  0.3366
 2026SOL     OW17713   0.800   0.327   3.617 -0.3367 -0.4485 -0.1394
 2026SOL    HW117714   0.728   0.302   3.676 -1.6211  0.4777 -1.3108
 2026SOL    HW217715   0.831   0.400   3.671  1.0911 -2.2235  1.4389
 2027SOL     OW17716   2.336   2.456  13.218  0.0271  0.4068  0.1956
 2027SOL    HW117717   2.316   2.393  13.288 -0.1058 -0.6141 -0.7705
 2027SOL    HW217718   2.357   2.392  13.151  2.7819 -0.4543  1.9039
 2028SOL     OW17719   0.042   4.651  10.710  0.6570  0.1741  0.1536
 2028SOL    HW117720   0.114   4.660  10.647 -0.4015 -1.2776 -1.2604
 2028SOL    HW217721   4.718   4.590  10.666  1.1434 -0.1562 -0.0452
 2029SOL     OW17722   0.227   0.523   5.255  0.2107 -0.1487 -0.3859
 2029SOL    HW117723   0.302   0.532   5.314 -0.2261 -2.4423  0.5123
 2029SOL    HW217724   0.268   0.464   5.191  2.2842 -1.4137  2.1197
 2030SOL     OW17725   0.581   3.986   8.059 -0.1135 -0.3476 -0.1646
 2030SOL    HW117726   0.652   4.039   8.096  0.7196 -0.9548 -0.8859
 2030SOL    HW217727   0.541   4.048   7.999 -0.3866 -0.3407  0.0272
 2031SOL     OW17728   2.392   1.603   3.817 -0.0262  0.2479 -0.5052
 2031SOL    HW117729   2.363   1.515   3.842  0.3662  0.2037 -0.2064
 2031SOL    HW217730   2.306   1.643   3.829  1.2349  2.3379  1.6228
 2032SOL     OW17731   1.764   4.304   3.006 -0.0330  0.1090 -0.0168
 2032SOL    HW117732   1.703   4.240   2.970  1.7160 -1.0065 -0.9931
 2032SOL    HW217733   1.750   4.288   3.099 -0.2566  1.6500  0.2180
 2033SOL     OW17734   2.635   2.354  12.685 -0.1381  0.1809 -0.2385
 2033SOL    HW117735   2.713   2.411  12.681 -0.5319  0.7321 -0.0846
 2033SOL    HW217736   2.643   2.332  12.777  0.6235  1.4452  0.0083
 2034SOL     OW17737   4.573   4.281   1.420  0.0526 -0.2903  0.4510
 2034SOL    HW117738   4.658   4.302   1.382  0.1187 -0.8286  0.3019
 2034SOL    HW217739   4.529   4.256   1.339  4.4981 -0.0196 -2.0686
 2035SOL     OW17740   1.836   1.989   1.876 -0.1831  0.3935  0.1151
 2035SOL    HW117741   1.902   2.058   1.873 -3.5790  3.6397 -1.1963
 2035SOL    HW217742   1.857   1.949   1.960  0.5284  0.3697 -0.0752
 2036SOL     OW17743   2.634   0.865   6.624  0.5799  0.0266  0.8032
 2036SOL    HW117744   2.711   0.856   6.568 -0.2494  0.0136 -0.3188
 2036SOL    HW217745   2.651   0.801   6.693 -1.1642 -1.0675  0.2150
 2037SOL     OW17746   2.138   2.329  11.022 -0.2992 -0.8318  0.7461
 2037SOL    HW117747   2.088   2.360  10.946  0.3218 -1.3535  0.1304
 2037SOL    HW217748   2.196   2.401  11.047 -0.8027 -0.5648  1.1461
 2038SOL     OW17749   4.253   3.923  11.726 -0.2778 -0.1548 -0.0493
 2038SOL    HW117750   4.175   3.940  11.674  0.6959 -1.8460 -2.0511
 2038SOL    HW217751   4.307   3.874  11.664 -0.6777  2.0487 -2.1245
 2039SOL     OW17752   2.338   1.294   4.638  0.5487 -0.8165 -0.4095
 2039SOL    HW117753   2.309   1.223   4.695  3.1954 -1.4724  0.1534
 2039SOL    HW217754   2.286   1.367   4.671 -0.7405 -1.8700 -0.1222
 2040SOL     OW17755   3.037   0.836  13.606 -0.6603  0.1770 -0.4979
 2040SOL    HW117756   3.061   0.744  13.591 -0.1093  0.0956  0.8359
 2040SOL    HW217757   2.972   0.827  13.675  0.8425 -1.8804  0.6723
 2041SOL     OW17758   3.334   2.315   2.447  0.1183  0.1648  0.1987
 2041SOL    HW117759   3.309   2.406   2.434 -0.2598  0.2643  1.6564
 2041SOL    HW217760   3.374   2.306   2.360  1.2764  1.7829  0.5727
 2042SOL     OW17761   3.293   2.592   2.367  0.1878  0.1616  0.3157
 2042SOL    HW117762   3.371   2.636   2.400 -0.7337  2.1879 -0.1961
 2042SOL    HW217763   3.254   2.648   2.300 -0.2433  0.4649  0.8215
 2043SOL     OW17764   2.073   4.510   0.177 -0.3455 -0.4379 -0.2896
 2043SOL    HW117765   2.127   4.577   0.136  0.7340 -1.5623 -0.7071
 2043SOL    HW217766   2.082   4.538   0.268 -1.3280 -1.1537  0.0341
 2044SOL     OW17767   4.643   2.468   7.050 -0.0130  0.6374 -0.2374
 2044SOL    HW117768   4.642   2.503   7.139  1.1713 -0.7823  0.3364
 2044SOL    HW217769   4.666   2.378   7.071 -1.3911  0.5229  0.7888
 2045SOL     OW17770   0.941   2.752  17.277  0.2271  0.3872 -0.0108
 2045SOL    HW117771   0.939   2.841  17.312  1.2973 -0.4400  2.1646
 2045SOL    HW217772   0.868   2.716  17.327 -0.6565  1.0259 -0.8574
 2046SOL     OW17773   1.543   0.988   8.948  0.2355  0.2775  0.4577
 2046SOL    HW117774   1.485   1.021   9.016 -0.3130  0.6692 -0.1982
 2046SOL    HW217775   1.624   0.974   8.997  1.1675  1.2876 -0.8116
 2047SOL     OW17776   3.562   1.947   8.990  0.1538  0.5580 -0.6295
 2047SOL    HW117777   3.627   1.936   9.059 -0.0703  0.5909 -0.4175
 2047SOL    HW217778   3.523   2.031   9.013  0.9754  1.2762 -1.8659
 2048SOL     OW17779   2.927   4.648   7.516  0.5870 -0.0690 -0.7073
 2048SOL    HW117780   2.993   4.580   7.504  0.4639 -0.3721  0.3562
 2048SOL    HW217781   2.947   4.718   7.454 -0.8829  1.6390  0.7293
 2049SOL     OW17782   2.358   2.879   8.712  0.0338  0.4751  0.7733
 2049SOL    HW117783   2.447   2.861   8.680 -0.6502 -1.3014 -0.1635
 2049SOL    HW217784   2.324   2.941   8.647 -1.2683 -2.1003 -1.0217
 2050SOL     OW17785   2.711   4.210   5.581  0.0080 -0.5491 -0.0362
 2050SOL    HW117786   2.784   4.149   5.579  0.2606 -0.2649  0.5045
 2050SOL    HW217787   2.727   4.250   5.667  2.7219 -0.0054 -0.8099
 2051SOL     OW17788   1.602   1.078   4.860 -0.0419 -0.6956  0.3711
 2051SOL    HW117789   1.676   1.036   4.904  1.1366  0.4655 -0.4734
 2051SOL    HW217790   1.532   1.017   4.884 -0.2483  0.3714  2.5673
 2052SOL     OW17791   1.453   3.345   2.353 -0.0077 -0.0323 -0.1307
 2052SOL    HW117792   1.400   3.304   2.421  0.5598 -1.1674 -0.3890
 2052SOL    HW217793   1.418   3.434   2.352 -3.3654 -1.3845 -0.9436
 2053SOL     OW17794   3.411   3.275   9.542  0.1078 -0.2088  0.7320
 2053SOL    HW117795   3.429   3.193   9.496  1.0581 -0.3594  1.3764
 2053SOL    HW217796   3.446   3.343   9.484  0.2039 -1.5813 -0.8257
 2054SOL     OW17797   3.595   1.999   4.754  0.1594 -0.8759 -0.1424
 2054SOL    HW117798   3.689   1.992   4.771  0.2908 -0.3062 -0.6535
 2054SOL    HW217799   3.590   1.954   4.670  2.0803  1.3464 -1.4185
 2055SOL     OW17800   0.049   1.418   4.287  0.0828 -0.0922  0.1061
 2055SOL    HW117801   0.089   1.483   4.229 -1.3859 -0.7101 -1.5891
 2055SOL    HW217802   0.125   1.399   4.342 -0.8223 -3.5982  0.1289
 2056SOL     OW17803   3.554   1.231   7.162  0.8268 -0.2751 -0.0153
 2056SOL    HW117804   3.470   1.207   7.123  1.5960 -0.0975 -1.7719
 2056SOL    HW217805   3.622   1.234   7.094 -0.3910 -2.2471 -1.3317
 2057SOL     OW17806   1.147   2.701   1.799  0.1273 -0.0766 -0.0024
 2057SOL    HW117807   1.119   2.771   1.740  0.9971 -0.0621 -0.4054
 2057SOL    HW217808   1.101   2.719   1.880  1.4683 -0.3997  0.8385
 2058SOL     OW17809   3.428   2.300   2.903  0.0116 -0.3401 -0.2818
 2058SOL    HW117810   3.397   2.211   2.919 -2.4777  0.3722 -1.0945
 2058SOL    HW217811   3.520   2.300   2.879 -0.2646 -0.5390 -1.3334
 2059SOL     OW17812   3.637   1.012  16.046 -0.1956  0.0407 -0.6197
 2059SOL    HW117813   3.618   0.952  15.974 -1.2012 -0.7603  0.3052
 2059SOL    HW217814   3.626   0.953  16.121 -1.8120  1.1111 -0.0131
 2060SOL     OW17815   4.302   4.066  12.121 -0.5359 -0.1353  0.4127
 2060SOL    HW117816   4.336   4.136  12.065  0.2794 -0.6645  0.2357
 2060SOL    HW217817   4.241   4.108  12.182  0.0243  2.0310 -0.5118
 2061SOL     OW17818   3.625   4.241   0.335  0.0670 -0.0048  0.6171
 2061SOL    HW117819   3.668   4.193   0.406 -0.7852  0.2082  1.2765
 2061SOL    HW217820   3.640   4.182   0.261  0.2675  1.8782 -0.8219
 2062SOL     OW17821   3.829   0.975  11.908  0.2863 -0.7517 -0.5758
 2062SOL    HW117822   3.819   0.986  12.003 -1.1434  0.6103 -0.8842
 2062SOL    HW217823   3.923   0.987  11.893  0.2087  1.0214  0.3127
 2063SOL     OW17824   2.413   0.373  17.221 -0.2109  0.2865  0.2493
 2063SOL    HW117825   2.348   0.368  17.150  1.7946  1.9406 -1.6643
 2063SOL    HW217826   2.483   0.327  17.174  0.5191  1.5598  0.1152
 2064SOL     OW17827   3.871   3.541   7.005  0.0140 -0.0086  0.0003
 2064SOL    HW117828   3.952   3.508   6.965 -0.6436 -1.6838  0.0559
 2064SOL    HW217829   3.831   3.467   7.050 -1.2546  0.3755 -0.4929
 2065SOL     OW17830   2.405   0.329   7.838  0.0294 -0.2786  0.0184
 2065SOL    HW117831   2.316   0.347   7.807 -0.3977  2.8240  3.0526
 2065SOL    HW217832   2.392   0.242   7.875 -1.5131 -0.8985 -1.9345
 2066SOL     OW17833   3.800   3.065  16.732  0.3333  0.2262 -0.2066
 2066SOL    HW117834   3.855   3.097  16.660  0.6443  0.9451  0.3487
 2066SOL    HW217835   3.852   2.987  16.753  1.5446  0.8714 -0.7986
 2067SOL     OW17836   4.438   4.630   1.719 -0.0116  0.0460 -0.0091
 2067SOL    HW117837   4.371   4.615   1.786  0.9059 -4.3627 -0.0765
 2067SOL    HW217838   4.459   4.723   1.732 -0.8155 -0.2315  3.1743
 2068SOL     OW17839   2.105   0.486  13.081  0.6385  0.2731 -0.1902
 2068SOL    HW117840   2.061   0.402  13.075  1.8812 -0.4169  0.4230
 2068SOL    HW217841   2.119   0.509  12.989 -0.2169  0.4496 -0.2758
 2069SOL     OW17842   0.973   3.097   4.764  0.4509 -0.3907 -0.1409
 2069SOL    HW117843   0.978   3.130   4.674  0.4203  1.7780  0.6516
 2069SOL    HW217844   1.052   3.125   4.810 -0.1238 -1.3026  1.3921
 2070SOL     OW17845   4.078   0.986  11.774 -0.0773 -0.1436  0.0177
 2070SOL    HW117846   4.020   0.968  11.700 -0.3844 -0.7120  0.4007
 2070SOL    HW217847   4.168   0.970  11.744 -0.0949  0.9777 -0.6707
 2071SOL     OW17848   0.248   4.237   2.852 -0.2394  0.5082  0.0723
 2071SOL    HW117849   0.201   4.248   2.934 -0.3840 -0.3869  0.1192
 2071SOL    HW217850   0.184   4.186   2.801  1.7701 -2.1341  0.1930
 2072SOL     OW17851   4.646   4.234  10.291 -0.1573  0.2419  0.2464
 2072SOL    HW117852   4.724   4.179  10.295  1.0633  1.9869  0.2541
 2072SOL    HW217853   4.663   4.287  10.369  1.3761  0.0875  0.0175
 2073SOL     OW17854   1.930   1.609   6.073  0.0003  0.1991  0.6842
 2073SOL    HW117855   1.839   1.579   6.085 -0.0646  0.2409  0.2948
 2073SOL    HW217856   1.957   1.568   5.991  0.7968 -0.5130  1.3078
 2074SOL     OW17857   2.860   3.615  11.591 -0.2361  0.2532  0.1606
 2074SOL    HW117858   2.954   3.630  11.584 -0.5178  2.8166  1.6942
 2074SOL    HW217859   2.845   3.531  11.548  0.9179  0.4315 -0.5777
 2075SOL     OW17860   0.325   1.931   8.148 -0.1634  0.1292 -0.0477
 2075SOL    HW117861   0.365   1.844   8.156 -1.2019 -0.4161 -0.7952
 2075SOL    HW217862   0.356   1.967   8.066  0.3121  0.6792  0.3713
 2076SOL     OW17863   2.404   3.009   2.889  0.0176  0.2024 -0.6747
 2076SOL    HW117864   2.313   3.016   2.920 -0.1784  0.1189 -1.2468
 2076SOL    HW217865   2.432   2.931   2.936 -1.2356 -0.1151 -0.4537
 2077SOL     OW17866   0.873   2.980   5.103 -0.2628 -1.0882 -0.1754
 2077SOL    HW117867   0.889   2.892   5.138 -0.5381 -1.6281 -1.3934
 2077SOL    HW217868   0.802   3.012   5.159  1.5513 -0.6785  1.8621
 2078SOL     OW17869   4.486   3.670   8.401  0.2328 -0.4191 -0.2705
 2078SOL    HW117870   4.548   3.669   8.474 -0.5651 -0.9303  0.3868
 2078SOL    HW217871   4.416   3.655   8.464 -0.0834 -1.1555 -0.7924
 2079SOL     OW17872   2.935   4.253   0.439 -0.0345  0.0949  0.7653
 2079SOL    HW117873   2.931   4.161   0.464 -0.2496 -0.4924 -1.4386
 2079SOL    HW217874   3.024   4.274   0.468 -0.0714 -1.4100  1.9404
 2080SOL     OW17875   0.290   0.208  12.510 -0.6902 -0.0242 -0.0705
 2080SOL    HW117876   0.303   0.300  12.490 -2.6748 -0.0892 -1.7026
 2080SOL    HW217877   0.296   0.224  12.604 -0.6186 -0.4061 -0.0076
 2081SOL     OW17878   0.218   1.611  15.617  0.3963 -0.2165  0.0034
 2081SOL    HW117879   0.262   1.668  15.555  0.0723  0.0086 -0.0225
 2081SOL    HW217880   0.168   1.552  15.560  0.4204 -0.6136  0.3880
 2082SOL     OW17881   3.789   2.289   7.645  0.0726 -0.2608  0.0442
 2082SOL    HW117882   3.837   2.369   7.663 -2.2945  1.4829 -1.3961
 2082SOL    HW217883   3.716   2.325   7.595  0.6114 -1.1850 -1.3878
 2083SOL     OW17884   1.531   3.567   5.646 -0.4702 -0.2749  0.2899
 2083SOL    HW117885   1.470   3.494   5.648 -0.8786  0.0744  0.6026
 2083SOL    HW217886   1.514   3.594   5.736 -0.7671  2.8015 -0.6952
 2084SOL     OW17887   3.716   1.606  10.226 -0.0302  0.0495 -0.7219
 2084SOL    HW117888   3.727   1.608  10.322  0.5647  2.1771 -0.8334
 2084SOL    HW217889   3.628   1.570  10.227 -0.4396  1.0530 -1.8554
 2085SOL     OW17890   1.453   0.497   6.275  0.0809  0.0631 -0.2151
 2085SOL    HW117891   1.508   0.562   6.318 -1.4897  1.6288 -0.5977
 2085SOL    HW217892   1.389   0.481   6.344 -0.1257 -0.6100 -0.5572
 2086SOL     OW17893   3.393   1.131   7.898 -0.0159  0.1719 -0.0235
 2086SOL    HW117894   3.407   1.188   7.823  0.6170 -0.4038 -0.3499
 2086SOL    HW217895   3.323   1.174   7.947 -0.4608 -0.6628  0.0866
 2087SOL     OW17896   1.714   0.315   2.091  0.3596  0.4653 -0.2874
 2087SOL    HW117897   1.763   0.233   2.086  0.2182  0.1865  2.9068
 2087SOL    HW217898   1.624   0.285   2.081  1.0250 -0.3121 -3.9222
 2088SOL     OW17899   1.856   1.859   8.818 -0.1237  0.1497 -0.0663
 2088SOL    HW117900   1.897   1.929   8.768  0.5733  2.1318  3.2366
 2088SOL    HW217901   1.817   1.908   8.891 -1.6492 -2.5019  0.9038
 2089SOL     OW17902   0.722   3.583   8.369 -0.0646 -0.2712  0.0987
 2089SOL    HW117903   0.714   3.488   8.366  1.3816 -0.3628 -1.6310
 2089SOL    HW217904   0.814   3.585   8.397 -0.3342 -1.2572  1.0413
 2090SOL     OW17905   2.580   2.716  14.120 -0.0348  0.0695 -0.4435
 2090SOL    HW117906   2.515   2.787  14.120  1.4042  1.4083  0.3689
 2090SOL    HW217907   2.561   2.673  14.204  1.5049 -0.2032 -0.2420
 2091SOL     OW17908   0.246   2.921   6.681 -0.9474 -0.1891 -0.1834
 2091SOL    HW117909   0.291   2.922   6.596 -0.2345 -0.1054  0.1935
 2091SOL    HW217910   0.251   3.012   6.710  0.4787 -0.4773  0.4874
 2092SOL     OW17911   0.602   2.140  11.456  0.1770  0.4107 -0.3976
 2092SOL    HW117912   0.560   2.223  11.433 -2.0564 -0.7342 -0.4682
 2092SOL    HW217913   0.570   2.081  11.388  0.7768 -1.7109  1.1649
 2093SOL     OW17914   1.825   3.686   8.475 -0.3383  0.0833 -1.0312
 2093SOL    HW117915   1.892   3.691   8.543 -0.5703 -0.1764 -0.7822
 2093SOL    HW217916   1.745   3.729   8.504  1.2542  0.1664  3.1989
 2094SOL     OW17917   0.584   1.957  15.528 -0.2617 -0.2543 -0.2861
 2094SOL    HW117918   0.636   1.987  15.603 -0.9031  0.9827 -0.3456
 2094SOL    HW217919   0.555   2.040  15.490  0.2892  0.0613 -0.0281
 2095SOL     OW17920   4.272   0.041   3.811  0.0453 -0.5321  0.4142
 2095SOL    HW117921   4.346   0.044   3.750  0.4717  1.8907  1.0597
 2095SOL    HW217922   4.242   0.131   3.823  1.8649  0.3070 -1.2665
 2096SOL     OW17923   4.673   2.122   2.071 -0.1516 -0.3587 -0.8664
 2096SOL    HW117924   4.658   2.152   2.161 -0.2584  1.2174 -1.4052
 2096SOL    HW217925   0.004   2.186   2.045  0.9350 -1.7352 -1.4949
 2097SOL     OW17926   2.968   2.920   1.495 -0.2785  0.0390 -0.0435
 2097SOL    HW117927   3.013   2.926   1.579 -1.1469 -0.6133  0.4492
 2097SOL    HW217928   3.004   3.000   1.455 -1.3190  0.5457  0.0321
 2098SOL     OW17929   4.295   2.796  17.536 -0.0046 -0.2729  0.4829
 2098SOL    HW117930   4.247   2.837  17.464  0.0738  0.5590  0.9057
 2098SOL    HW217931   4.272   2.865  17.598 -0.9249 -0.3009  0.1779
 2099SOL     OW17932   4.639   1.842   6.529  0.2380  0.3699  0.0133
 2099SOL    HW117933   4.575   1.893   6.579  0.9830  0.1425  1.2084
 2099SOL    HW217934   4.729   1.853   6.558  0.0100 -1.1311  1.2694
 2100SOL     OW17935   1.645   3.004  15.431  0.2420  0.2236 -0.0057
 2100SOL    HW117936   1.626   2.947  15.506 -1.7554  0.4528 -0.3325
 2100SOL    HW217937   1.602   2.956  15.361  0.1910 -2.3672  1.8188
 2101SOL     OW17938   1.875   3.451  10.016 -0.1805  0.6702  0.2882
 2101SOL    HW117939   1.917   3.537  10.006  2.9218 -0.9427 -0.7382
 2101SOL    HW217940   1.888   3.408   9.932 -1.6993 -0.0266  0.4257
 2102SOL     OW17941   1.412   2.704   2.269 -0.3193  0.4667  0.7642
 2102SOL    HW117942   1.504   2.679   2.261 -0.4125  0.7948 -1.4762
 2102SOL    HW217943   1.391   2.641   2.338 -0.8975 -0.8936 -0.6381
 2103SOL     OW17944   0.019   1.632   7.574  0.6010 -0.3234 -0.5960
 2103SOL    HW117945   4.663   1.629   7.604  0.8382  0.9333  0.2608
 2103SOL    HW217946   0.055   1.649   7.661 -0.0739  0.2921 -0.4369
 2104SOL     OW17947   4.544   0.231   4.052 -0.1134  0.4027  0.2699
 2104SOL    HW117948   4.471   0.169   4.050 -0.1895  0.4963  0.1152
 2104SOL    HW217949   4.578   0.202   4.137  0.8221  0.7189 -0.0008
 2105SOL     OW17950   3.718   3.316  10.936 -0.0754 -0.1320  0.0776
 2105SOL    HW117951   3.710   3.266  10.855 -0.3120  3.9620 -2.4194
 2105SOL    HW217952   3.798   3.276  10.968  0.3844  1.0544  0.4238
 2106SOL     OW17953   4.688   1.139  13.666 -0.0195 -0.4602 -0.1727
 2106SOL    HW117954   0.004   1.122  13.588 -1.2073 -2.4971 -0.5295
 2106SOL    HW217955   4.608   1.089  13.646 -0.0320 -0.6956  0.4544
 2107SOL     OW17956   4.428   3.291   8.011 -0.6229 -0.0414 -0.0344
 2107SOL    HW117957   4.420   3.343   8.091 -0.0422 -0.5163  0.3313
 2107SOL    HW217958   4.483   3.352   7.961  0.9173 -0.5120  1.0948
 2108SOL     OW17959   2.098   2.659  16.705  0.4452  0.2504  0.3957
 2108SOL    HW117960   2.035   2.721  16.741 -1.9250 -1.4826 -0.7083
 2108SOL    HW217961   2.152   2.667  16.783 -0.8468 -0.0842  1.3211
 2109SOL     OW17962   3.407   3.129  14.436 -0.1965 -0.0604  0.4978
 2109SOL    HW117963   3.384   3.114  14.528 -2.1097 -1.4492 -0.2236
 2109SOL    HW217964   3.492   3.085  14.427 -2.1856 -3.7349  0.1054
 2110SOL     OW17965   4.535   3.124   7.615  0.0133 -0.5457  0.0959
 2110SOL    HW117966   4.581   3.157   7.691  2.3191 -0.1140 -1.4759
 2110SOL    HW217967   4.609   3.071   7.585  0.3553 -0.7728  1.3689
 2111SOL     OW17968   4.635   0.031  17.431  0.4066 -0.1145  0.3105
 2111SOL    HW117969   4.611   4.706  17.502 -0.8262 -2.3036 -1.9153
 2111SOL    HW217970   4.693   0.091  17.476 -0.5767  0.4890  0.7829
 2112SOL     OW17971   3.833   4.512   8.772  0.2432  0.0805  0.2910
 2112SOL    HW117972   3.738   4.520   8.763  0.2924 -1.8797 -1.9377
 2112SOL    HW217973   3.840   4.439   8.711  2.2003  1.4697 -1.1456
 2113SOL     OW17974   0.430   4.261  17.699  0.1924 -0.9890 -0.0953
 2113SOL    HW117975   0.428   4.170  17.668  2.0814 -0.5801 -1.4244
 2113SOL    HW217976   0.338   4.281  17.685  0.0452 -0.5819  1.5421
 2114SOL     OW17977   3.731   3.240   6.992  0.0284 -0.5623  0.0811
 2114SOL    HW117978   3.758   3.164   7.043 -1.2297  0.3044  2.0341
 2114SOL    HW217979   3.755   3.220   6.901  0.7899 -3.9642  1.0421
 2115SOL     OW17980   2.429   3.812  17.592 -0.2930 -0.2814 -0.1966
 2115SOL    HW117981   2.349   3.864  17.599  0.1175  0.3515 -0.2362
 2115SOL    HW217982   2.454   3.818  17.684  3.0060  0.7298 -1.1720
 2116SOL     OW17983   1.544   2.431  12.236 -0.8379  0.1180  0.4212
 2116SOL    HW117984   1.523   2.487  12.161 -0.6172 -0.0895  0.2030
 2116SOL    HW217985   1.634   2.412  12.207  0.0644  2.7093  1.4845
 2117SOL     OW17986   4.369   2.007   0.414 -0.5601 -1.0448  0.1985
 2117SOL    HW117987   4.282   1.981   0.445 -0.0542 -2.0971  0.7680
 2117SOL    HW217988   4.402   1.919   0.393  1.8087  0.2584 -1.4953
 2118SOL     OW17989   2.135   3.261   9.090 -1.3951  0.2699  0.5144
 2118SOL    HW117990   2.222   3.292   9.064 -0.1498 -1.6305  2.4355
 2118SOL    HW217991   2.137   3.311   9.172 -0.7434  1.4344 -0.1970
 2119SOL     OW17992   2.227   0.955   5.428  0.3465 -0.3309  0.0613
 2119SOL    HW117993   2.223   1.050   5.438  2.0188 -0.1072 -1.4333
 2119SOL    HW217994   2.147   0.924   5.471 -0.9843  1.4362 -1.1513
 2120SOL     OW17995   1.725   1.506   5.867  0.8187 -0.3712  0.3688
 2120SOL    HW117996   1.636   1.472   5.871  0.8487 -0.6138 -0.9140
 2120SOL    HW217997   1.776   1.431   5.899  1.9160  0.1725 -0.1239
 2121SOL     OW17998   1.454   0.122   3.324 -0.4927  0.2160  0.2165
 2121SOL    HW117999   1.518   0.184   3.289  1.2843 -0.9690  1.3701
 2121SOL    HW218000   1.472   0.134   3.417 -0.7809 -2.9384  0.6824
 2122SOL     OW18001   4.138   4.298   9.956  0.4804  0.0191  0.0677
 2122SOL    HW118002   4.121   4.357   9.883 -2.1783 -0.1135  0.5569
 2122SOL    HW218003   4.190   4.222   9.930  1.3351  1.7094 -3.1733
 2123SOL     OW18004   3.444   4.300   7.305 -0.1916  0.3340 -0.0756
 2123SOL    HW118005   3.444   4.206   7.323  0.7493  0.8795  2.7734
 2123SOL    HW218006   3.354   4.308   7.272 -0.1245  0.7159 -0.1655
 2124SOL     OW18007   0.529   1.862   3.419 -0.0773 -0.2306  0.0494
 2124SOL    HW118008   0.502   1.886   3.330  0.0087 -0.7956 -0.1267
 2124SOL    HW218009   0.550   1.769   3.408 -0.4345 -0.4231  1.0426
 2125SOL     OW18010   4.108   1.501   5.777  0.3676  0.1161 -0.1807
 2125SOL    HW118011   4.101   1.596   5.776 -0.6530  0.0069 -2.6844
 2125SOL    HW218012   4.066   1.474   5.696  0.1998 -3.4515  1.0722
 2126SOL     OW18013   1.010   1.027   3.827 -0.0523 -0.3768 -0.0383
 2126SOL    HW118014   0.921   1.009   3.797  0.3803 -0.1485 -1.4530
 2126SOL    HW218015   1.057   1.066   3.754  1.4607 -0.3912  0.9106
 2127SOL     OW18016   2.254   1.864   7.919 -0.0020 -0.2714 -0.5442
 2127SOL    HW118017   2.295   1.944   7.887  0.9258 -1.3229 -2.0093
 2127SOL    HW218018   2.218   1.829   7.837  0.9691  0.1920 -1.1707
 2128SOL     OW18019   2.691   3.734   7.275 -0.3876 -0.0427 -0.5239
 2128SOL    HW118020   2.633   3.725   7.351 -0.6323  1.4102 -0.5436
 2128SOL    HW218021   2.773   3.732   7.325 -0.3092 -0.0993 -0.6558
 2129SOL     OW18022   2.900   3.084  10.282 -0.2202  0.5128  0.4973
 2129SOL    HW118023   2.866   3.173  10.289 -2.2694 -0.5178  4.0923
 2129SOL    HW218024   2.848   3.042  10.351  0.4308  1.5746  1.6340
 2130SOL     OW18025   4.595   4.367  17.503 -0.1150 -0.3828 -0.1276
 2130SOL    HW118026   4.632   4.343  17.587  0.5506 -0.3185 -0.4020
 2130SOL    HW218027   4.508   4.398  17.530  0.9464  1.4935  1.1125
 2131SOL     OW18028   1.316   3.065   8.270  0.2384 -0.5164 -0.1507
 2131SOL    HW118029   1.271   3.061   8.185  1.6158  0.5064 -0.9421
 2131SOL    HW218030   1.264   3.119   8.329  1.9618  0.4014  0.5424
 2132SOL     OW18031   1.441   4.094  14.228 -0.7474  0.0926 -0.7572
 2132SOL    HW118032   1.421   4.133  14.313 -0.3367  1.0847 -1.1166
 2132SOL    HW218033   1.527   4.054  14.238 -1.3976 -1.1802 -0.1839
 2133SOL     OW18034   4.678   4.284   7.043 -0.5567 -0.2837  0.4200
 2133SOL    HW118035   4.715   4.363   7.082  0.3287 -1.3253  1.6514
 2133SOL    HW218036   4.639   4.305   6.958 -0.8728  0.3329  0.7217
 2134SOL     OW18037   0.267   3.865   6.614 -0.0010 -0.0653  0.6975
 2134SOL    HW118038   0.356   3.837   6.592 -0.1907  1.9246 -2.6855
 2134SOL    HW218039   0.233   3.793   6.562 -0.1290 -0.4700  1.3468
 2135SOL     OW18040   3.423   2.930   7.251  0.1250  0.9276  0.4720
 2135SOL    HW118041   3.410   2.973   7.167  0.6031  0.5044  0.1856
 2135SOL    HW218042   3.504   2.970   7.283  0.7449 -0.3135  0.4460
 2136SOL     OW18043   2.181   0.836  12.683  0.2260 -0.0457 -0.2373
 2136SOL    HW118044   2.130   0.890  12.622  1.1789  2.0743  0.8188
 2136SOL    HW218045   2.257   0.888  12.709 -0.1933 -0.1116  1.1057
 2137SOL     OW18046   0.621   4.053   1.448  0.4875 -0.9080  0.1232
 2137SOL    HW118047   0.527   4.057   1.466  0.9337  1.8210  1.8911
 2137SOL    HW218048   0.667   4.129   1.484  1.5238 -0.5789 -1.9383
 2138SOL     OW18049   4.104   4.001   9.747  0.0325  0.4159 -0.2810
 2138SOL    HW118050   4.155   3.993   9.666 -0.6697 -1.8405 -0.4754
 2138SOL    HW218051   4.174   4.010   9.812 -0.0689 -1.9187  0.1528
 2139SOL     OW18052   3.671   3.514   4.745  0.6873  0.1416  0.2207
 2139SOL    HW118053   3.756   3.473   4.731  0.3937 -0.4630  0.2401
 2139SOL    HW218054   3.623   3.438   4.777  0.3033  0.3147  0.0663
 2140SOL     OW18055   4.356   2.480  14.473  0.2897 -0.0544  0.1450
 2140SOL    HW118056   4.347   2.441  14.386  0.0696  0.6928 -0.1664
 2140SOL    HW218057   4.446   2.512  14.479  1.1540 -2.6204  0.9460
 2141SOL     OW18058   2.409   2.441   8.584 -0.4780  0.1564  0.6261
 2141SOL    HW118059   2.466   2.394   8.524 -1.7895 -0.2837 -0.2764
 2141SOL    HW218060   2.479   2.453   8.648 -0.5148 -0.2442  0.7400
 2142SOL     OW18061   3.953   0.490   9.014 -0.3542  0.6177  0.2485
 2142SOL    HW118062   3.858   0.495   9.006 -0.4321  0.1268  0.7706
 2142SOL    HW218063   3.979   0.577   8.985  1.3117 -0.3517 -1.1859
 2143SOL     OW18064   3.547   2.693   9.110  0.3139 -0.7633 -0.1060
 2143SOL    HW118065   3.616   2.751   9.079 -0.0154  0.4562  1.4631
 2143SOL    HW218066   3.504   2.751   9.173  2.5343  1.6942 -0.8510
 2144SOL     OW18067   1.804   0.335  13.256 -0.7013  0.1412 -0.2198
 2144SOL    HW118068   1.882   0.302  13.298 -0.4173  2.0285  0.7170
 2144SOL    HW218069   1.804   0.293  13.170  1.2517  0.3362 -0.3159
 2145SOL     OW18070   4.422   4.317  12.614  0.2019 -0.2200 -0.3450
 2145SOL    HW118071   4.500   4.290  12.663 -0.2548 -0.8743  0.0107
 2145SOL    HW218072   4.387   4.229  12.603  1.4493 -0.6666 -0.7757
 2146SOL     OW18073   2.769   2.414   9.063 -0.5186  0.1734 -0.4607
 2146SOL    HW118074   2.733   2.500   9.041 -2.1177 -0.2622  0.4613
 2146SOL    HW218075   2.864   2.426   9.065 -0.5926  0.3695  1.9935
 2147SOL     OW18076   2.808   2.252   3.956  0.5389  0.4527 -0.0691
 2147SOL    HW118077   2.714   2.238   3.962  0.7226 -2.1301 -2.8756
 2147SOL    HW218078   2.850   2.184   4.008  0.3423 -0.5858 -1.2512
 2148SOL     OW18079   1.715   2.476   2.110  0.0955 -0.2721  0.0806
 2148SOL    HW118080   1.731   2.535   2.036 -0.1923  0.2293  0.4126
 2148SOL    HW218081   1.620   2.472   2.107  0.0253  0.9340  0.5254
 2149SOL     OW18082   2.219   3.697   5.625 -0.1279  0.3678 -0.1952
 2149SOL    HW118083   2.171   3.694   5.542  1.1789  2.5195 -1.0230
 2149SOL    HW218084   2.179   3.622   5.669  0.3831 -0.6225 -1.4365
 2150SOL     OW18085   0.982   0.659   4.662 -0.1963  0.1939  0.6190
 2150SOL    HW118086   0.987   0.566   4.641 -0.8731  0.8572 -2.4273
 2150SOL    HW218087   0.904   0.666   4.718 -0.3345 -3.3532  0.8627
 2151SOL     OW18088   3.035   3.893  12.451 -0.2349  0.3670 -0.0045
 2151SOL    HW118089   3.073   3.978  12.432  2.3588 -0.6800  0.3772
 2151SOL    HW218090   3.111   3.837  12.468 -0.5905 -0.1729 -0.1596
 2152SOL     OW18091   2.671   4.590   7.526 -0.2329  0.1235 -0.1581
 2152SOL    HW118092   2.659   4.548   7.441  0.2058 -1.8906  0.7806
 2152SOL    HW218093   2.764   4.612   7.535  0.0299 -0.3167 -1.9410
 2153SOL     OW18094   0.812   3.929   5.403  0.2798 -0.4582  0.0136
 2153SOL    HW118095   0.786   3.837   5.393  1.5263 -1.0008  1.7997
 2153SOL    HW218096   0.768   3.976   5.332  2.6677  2.6490  0.5929
 2154SOL     OW18097   0.996   1.194   9.989 -0.0676 -0.0875  0.3195
 2154SOL    HW118098   1.047   1.154   9.918  0.8877  0.2450  0.8210
 2154SOL    HW218099   0.947   1.266   9.949  1.2077  1.7037  1.9876
 2155SOL     OW18100   1.489   0.882   4.005 -0.4620 -0.1367  0.1849
 2155SOL    HW118101   1.422   0.908   3.942 -0.6920 -1.6756 -0.2064
 2155SOL    HW218102   1.489   0.952   4.071 -0.0062 -0.5811  0.6574
 2156SOL     OW18103   3.256   2.067   8.800  0.2375  0.0059 -0.5408
 2156SOL    HW118104   3.232   2.025   8.883 -1.9330  1.4843 -0.4085
 2156SOL    HW218105   3.252   2.159   8.828  3.2706  0.2523 -0.8987
 2157SOL     OW18106   4.484   4.692  16.388  0.4706  0.1449 -0.1780
 2157SOL    HW118107   4.573   4.705  16.357  0.1645  2.1526 -0.1854
 2157SOL    HW218108   4.505   4.705  16.480  0.2904  2.7468 -0.4956
 2158SOL     OW18109   1.664   1.774   5.981  0.3352  0.4636  0.1491
 2158SOL    HW118110   1.660   1.741   6.070 -1.1605  2.2909  0.7544
 2158SOL    HW218111   1.704   1.699   5.936  1.3462  1.4435 -0.5989
 2159SOL     OW18112   4.499   3.442   0.515  0.2156 -0.0262 -0.6485
 2159SOL    HW118113   4.506   3.504   0.587  0.7561 -1.3041  0.4178
 2159SOL    HW218114   4.406   3.419   0.512  0.2803 -0.2681 -0.8278
 2160SOL     OW18115   1.354   4.376   7.233 -0.3838 -0.8772 -0.1205
 2160SOL    HW118116   1.408   4.444   7.193 -0.8504 -0.2059  0.4107
 2160SOL    HW218117   1.281   4.371   7.171 -1.4619 -0.7228  1.1352
 2161SOL     OW18118   1.219   4.293   8.817 -1.1124 -0.4263 -0.0545
 2161SOL    HW118119   1.234   4.368   8.874  0.0464  1.2867 -2.6053
 2161SOL    HW218120   1.177   4.236   8.882  0.1234  0.4988  1.5581
 2162SOL     OW18121   4.503   1.483  13.289  0.3187  1.3503 -0.5948
 2162SOL    HW118122   4.452   1.477  13.370  1.1826 -0.8614 -0.2009
 2162SOL    HW218123   4.579   1.436  13.325 -1.6524 -1.1477  0.2958
 2163SOL     OW18124   1.384   1.860   2.556 -0.0575 -0.0870  0.5761
 2163SOL    HW118125   1.337   1.777   2.557  0.6617 -0.5404 -3.3333
 2163SOL    HW218126   1.458   1.847   2.616 -0.0056 -0.9669  0.3159
 2164SOL     OW18127   4.426   1.146   5.680  0.2480 -0.7763 -0.3875
 2164SOL    HW118128   4.393   1.057   5.681  0.1469 -0.7242  0.5019
 2164SOL    HW218129   4.432   1.169   5.773  1.4631  0.6212 -0.8104
 2165SOL     OW18130   2.298   4.009   1.329  0.3868 -0.3083  0.2991
 2165SOL    HW118131   2.254   3.937   1.283 -0.2020  0.8133 -0.9168
 2165SOL    HW218132   2.264   4.085   1.282  1.6995 -0.7176 -1.3678
 2166SOL     OW18133   0.117   3.659  11.687  0.1123 -0.0540 -0.4338
 2166SOL    HW118134   0.146   3.674  11.597 -0.7875 -0.2058 -0.7469
 2166SOL    HW218135   0.118   3.752  11.710  0.2992 -0.0746 -0.3606
 2167SOL     OW18136   4.455   1.160  12.591 -0.2979 -0.3075 -0.3381
 2167SOL    HW118137   4.486   1.073  12.567 -0.0220 -0.9264  2.2922
 2167SOL    HW218138   4.473   1.173  12.684  0.4315 -1.9884 -0.2573
 2168SOL     OW18139   0.070   2.670   9.090 -0.2597  0.2617  0.0475
 2168SOL    HW118140   0.067   2.682   8.995 -1.9649  1.7336  0.2978
 2168SOL    HW218141   0.150   2.619   9.102  0.2684  0.5619 -2.2070
 2169SOL     OW18142   1.778   0.996  15.422  0.2531 -0.8555  0.1305
 2169SOL    HW118143   1.777   0.970  15.329  0.8910 -0.2085 -0.0533
 2169SOL    HW218144   1.806   1.086  15.411 -1.0094 -0.6615 -1.5879
 2170SOL     OW18145   2.610   1.413  15.546 -0.0601  0.0356 -0.0149
 2170SOL    HW118146   2.599   1.381  15.635 -2.7075 -2.3028 -1.1542
 2170SOL    HW218147   2.519   1.424  15.518  0.3744  0.3302 -1.3471
 2171SOL     OW18148   3.591   2.076   5.908 -0.5046 -0.0424  0.3144
 2171SOL    HW118149   3.686   2.090   5.904 -0.0093 -3.0979  1.1546
 2171SOL    HW218150   3.562   2.083   5.817  1.6441 -0.1854 -0.4012
 2172SOL     OW18151   3.369   4.600   0.407 -0.4061 -0.0828  0.0771
 2172SOL    HW118152   3.434   4.633   0.468  0.5484 -0.3959 -0.7784
 2172SOL    HW218153   3.388   4.506   0.401 -0.9093  0.0191 -3.0764
 2173SOL     OW18154   4.204   0.206  16.070  0.6450  0.1327 -0.0980
 2173SOL    HW118155   4.150   0.276  16.107  0.2602  0.2784 -0.9318
 2173SOL    HW218156   4.272   0.209  16.137 -0.0668 -0.1517  0.6397
 2174SOL     OW18157   4.527   2.807   5.777 -0.3847 -0.3260 -0.2028
 2174SOL    HW118158   4.545   2.832   5.868 -0.2161  0.0230 -0.3317
 2174SOL    HW218159   4.433   2.789   5.776 -0.4692  0.3123 -3.2300
 2175SOL     OW18160   0.380   2.841   1.093  0.0580 -0.0320  0.1451
 2175SOL    HW118161   0.325   2.905   1.139  1.8664  2.2481 -0.8624
 2175SOL    HW218162   0.343   2.761   1.128  1.2192 -0.0700  1.2825
 2176SOL     OW18163   4.124   3.315   7.361 -0.4763  0.4290  0.4680
 2176SOL    HW118164   4.154   3.267   7.284 -4.0436  0.7388 -1.1384
 2176SOL    HW218165   4.033   3.285   7.364 -0.0702 -0.9550 -1.0201
 2177SOL     OW18166   3.290   4.434   7.687  0.1900 -0.5098  0.0571
 2177SOL    HW118167   3.341   4.360   7.719  0.0461 -0.7743 -0.3255
 2177SOL    HW218168   3.262   4.484   7.764  1.5234  1.6857 -0.8879
 2178SOL     OW18169   0.481   4.685   6.784 -0.0685 -0.2395  0.3573
 2178SOL    HW118170   0.505   4.604   6.828  0.2157  1.1343  2.7656
 2178SOL    HW218171   0.562   4.709   6.740  0.3545  0.7562  1.6732
 2179SOL     OW18172   4.725   4.122  12.500 -0.0854  0.0520  0.6495
 2179SOL    HW118173   4.642   4.162  12.475  0.4481  1.1961  0.7327
 2179SOL    HW218174   0.044   4.121  12.421 -2.2068  2.7321 -0.8246
 2180SOL     OW18175   2.428   1.519   6.993  0.3347  0.3477  0.2482
 2180SOL    HW118176   2.346   1.495   7.036 -0.5233  1.8122 -0.5863
 2180SOL    HW218177   2.441   1.448   6.929 -2.8371  0.8250 -0.9470
 2181SOL     OW18178   3.787   4.163  17.579  0.3423 -0.4030  0.1216
 2181SOL    HW118179   3.721   4.172  17.511  0.8830  0.5874 -0.2715
 2181SOL    HW218180   3.854   4.119  17.527 -0.4682 -0.3101 -0.9841
 2182SOL     OW18181   3.338   3.952  13.883  0.2939  0.1875  0.7285
 2182SOL    HW118182   3.398   3.888  13.920 -1.0726 -0.4151  1.9090
 2182SOL    HW218183   3.304   3.991  13.963  1.5338 -0.1251  1.3929
 2183SOL     OW18184   0.500   4.561   9.362  0.0047  0.5145  0.0512
 2183SOL    HW118185   0.463   4.486   9.316  2.2398 -0.2244 -0.5404
 2183SOL    HW218186   0.445   4.629   9.322 -0.3737  1.0265  1.4401
 2184SOL     OW18187   2.225   1.165  10.986  0.2586  0.3208 -0.4043
 2184SOL    HW118188   2.202   1.074  11.007  1.7863 -0.3313 -1.5253
 2184SOL    HW218189   2.139   1.206  10.983  0.8992  1.5333 -2.1303
 2185SOL     OW18190   2.131   2.575   8.208 -0.2222 -0.1596  0.7753
 2185SOL    HW118191   2.052   2.525   8.228 -0.5178 -1.0671 -2.5754
 2185SOL    HW218192   2.161   2.594   8.297  0.6150  2.5905 -0.0945
 2186SOL     OW18193   1.580   1.270  11.870 -0.3749  0.2028  0.5032
 2186SOL    HW118194   1.562   1.321  11.791 -1.4047  0.2780  0.7884
 2186SOL    HW218195   1.496   1.224  11.874 -0.5101  0.3944 -0.0347
 2187SOL     OW18196   4.587   0.284   8.477  0.2576  0.8955 -0.2201
 2187SOL    HW118197   4.582   0.377   8.496  2.7294  1.1605 -0.7765
 2187SOL    HW218198   4.583   0.246   8.565 -0.7250 -1.6254 -1.3538
 2188SOL     OW18199   1.439   4.546  14.362  0.3663 -0.2830 -0.2797
 2188SOL    HW118200   1.414   4.474  14.419  0.7469  0.5894  1.0006
 2188SOL    HW218201   1.356   4.589  14.343  0.2138 -0.0070  0.9780
 2189SOL     OW18202   3.710   1.540  10.520 -0.3501 -0.1502 -0.0516
 2189SOL    HW118203   3.626   1.515  10.559 -1.5578  0.9850 -1.9339
 2189SOL    HW218204   3.739   1.617  10.569  0.5159  0.3653 -1.4017
 2190SOL     OW18205   0.868   3.940   2.599 -0.1581  0.3188 -0.6583
 2190SOL    HW118206   0.831   3.903   2.679  0.7175 -1.1105 -0.9350
 2190SOL    HW218207   0.810   4.017   2.592 -1.8992 -0.9934 -0.6824
 2191SOL     OW18208   2.173   0.233   3.078 -0.3935  0.2186 -0.2530
 2191SOL    HW118209   2.211   0.286   3.007 -1.9165  3.6220  1.4539
 2191SOL    HW218210   2.252   0.183   3.102 -1.2066 -0.1157  1.7340
 2192SOL     OW18211   3.461   0.954   7.627 -0.1309 -0.1408 -0.8474
 2192SOL    HW118212   3.449   1.014   7.553  0.4761  1.9543  0.7712
 2192SOL    HW218213   3.496   1.010   7.696  2.3296 -0.5206 -1.7928
 2193SOL     OW18214   0.647   1.096  16.549  0.1027  0.3153  0.3528
 2193SOL    HW118215   0.620   1.046  16.472  0.0687 -0.5722  0.9409
 2193SOL    HW218216   0.601   1.055  16.622 -1.6501 -1.2253 -1.6229
 2194SOL     OW18217   0.710   0.954   4.148  0.3524 -0.4353 -0.4728
 2194SOL    HW118218   0.669   0.879   4.191 -1.4211 -0.0739 -1.5099
 2194SOL    HW218219   0.662   0.956   4.065  0.9945 -0.7281 -0.8462
 2195SOL     OW18220   3.426   2.314  11.391  0.3969  0.6166 -0.1538
 2195SOL    HW118221   3.423   2.277  11.479  4.1558  0.5237 -0.0580
 2195SOL    HW218222   3.517   2.290  11.375  0.3129  0.9173 -1.0922
 2196SOL     OW18223   2.396   1.296   3.681 -0.5995 -1.0529  0.3872
 2196SOL    HW118224   2.317   1.241   3.680  0.6473 -2.8801  1.8909
 2196SOL    HW218225   2.382   1.326   3.771  1.4510  1.0280  0.0097
 2197SOL     OW18226   2.151   0.162   4.253  0.7489 -0.2279 -0.2329
 2197SOL    HW118227   2.145   0.147   4.347  2.9727 -1.3948 -0.2842
 2197SOL    HW218228   2.176   0.073   4.228 -0.8373 -1.2554  1.8664
 2198SOL     OW18229   3.687   0.084  14.462 -0.3425  0.2817 -0.4228
 2198SOL    HW118230   3.731   0.115  14.384 -0.1666 -0.4267 -0.6042
 2198SOL    HW218231   3.759   0.085  14.525  0.2378  0.9638 -1.1063
 2199SOL     OW18232   2.410   3.172  13.296  0.1254  0.5026 -0.2906
 2199SOL    HW118233   2.351   3.102  13.321  2.9938 -0.9127  2.5077
 2199SOL    HW218234   2.422   3.170  13.201  0.8799 -1.2848 -0.1623
 2200SOL     OW18235   0.513   4.027   3.453  0.0728  0.6897  0.0072
 2200SOL    HW118236   0.427   4.059   3.425  0.5294  1.0209 -1.0025
 2200SOL    HW218237   0.543   4.111   3.489  0.2191 -0.1823  1.8939
 2201SOL     OW18238   3.806   2.133  11.800  0.3888 -0.4213  0.3086
 2201SOL    HW118239   3.858   2.170  11.871 -1.0083  0.2734  0.9683
 2201SOL    HW218240   3.800   2.215  11.751  0.3224 -0.1245  0.8090
 2202SOL     OW18241   4.219   1.482   2.911  0.2901 -0.1153  0.4610
 2202SOL    HW118242   4.233   1.397   2.953  0.7682  0.5588  1.6591
 2202SOL    HW218243   4.303   1.522   2.932 -0.2576  2.0684 -1.5532
 2203SOL     OW18244   0.241   1.833   6.324  0.2902  0.2618 -0.3341
 2203SOL    HW118245   0.293   1.879   6.258 -1.9654  1.7809 -1.0238
 2203SOL    HW218246   0.229   1.898   6.393  1.1784 -0.6769  0.7055
 2204SOL     OW18247   3.115   0.163   4.955 -0.5301 -0.0820  0.1229
 2204SOL    HW118248   3.042   0.220   4.929 -1.2875 -1.1532 -0.0993
 2204SOL    HW218249   3.177   0.176   4.883  0.1199 -1.8643  0.3612
 2205SOL     OW18250   2.083   0.284   3.946 -0.4394 -0.1214  0.3444
 2205SOL    HW118251   2.031   0.205   3.930 -1.7305  0.4625  1.7376
 2205SOL    HW218252   2.035   0.331   4.014  1.6178  1.4268  0.7294
 2206SOL     OW18253   1.381   2.262   9.255 -0.2604 -0.0353 -0.6830
 2206SOL    HW118254   1.359   2.175   9.291  2.2189  0.8122  2.8287
 2206SOL    HW218255   1.326   2.256   9.176 -2.2952 -0.2091  0.7544
 2207SOL     OW18256   0.641   4.403   0.019  0.7660 -0.0666 -1.1615
 2207SOL    HW118257   0.565   4.351  17.733 -1.0371  0.8516  2.3988
 2207SOL    HW218258   0.703   4.372  17.692  1.6479  0.7169 -0.7083
 2208SOL     OW18259   4.341   3.674   7.915  0.2674  0.0672  0.1985
 2208SOL    HW118260   4.322   3.752   7.966 -0.8541  0.3475 -0.6610
 2208SOL    HW218261   4.391   3.708   7.841  0.4344 -0.2511  0.1609
 2209SOL     OW18262   0.407   0.675   8.164 -0.0290  0.4852  0.2439
 2209SOL    HW118263   0.337   0.611   8.164  1.3518 -0.9900 -2.0282
 2209SOL    HW218264   0.471   0.614   8.200 -0.1819  0.3084  0.2118
 2210SOL     OW18265   1.985   1.498   2.176  0.2026 -0.6069  0.1392
 2210SOL    HW118266   1.906   1.545   2.200 -0.5698 -0.9766 -1.6433
 2210SOL    HW218267   2.016   1.491   2.266  0.8741  2.2525  0.1525
 2211SOL     OW18268   3.357   4.649   9.825  0.1126 -0.2532  0.0130
 2211SOL    HW118269   3.361   4.558   9.796 -0.3833 -0.1426 -0.4039
 2211SOL    HW218270   3.376   4.699   9.746  0.7188 -0.5991 -0.0577
 2212SOL     OW18271   0.162   1.669  10.276  0.1990  0.3649  0.1603
 2212SOL    HW118272   0.230   1.660  10.209  0.2923  0.2575  0.2696
 2212SOL    HW218273   0.085   1.651  10.222 -0.5589 -0.8874  1.6627
 2213SOL     OW18274   0.302   0.325   2.132  0.5674  0.3791  0.1210
 2213SOL    HW118275   0.296   0.419   2.118 -0.7146  0.1273 -1.0397
 2213SOL    HW218276   0.213   0.293   2.116  1.3184 -0.2205 -2.8690
 2214SOL     OW18277   3.610   4.488   7.241  0.6892 -0.0007 -0.1237
 2214SOL    HW118278   3.566   4.553   7.295 -0.6605 -0.0990 -1.0849
 2214SOL    HW218279   3.548   4.416   7.249 -0.7786  1.4644  1.5826
 2215SOL     OW18280   3.753   0.681   3.471 -0.0132 -0.0407  0.4465
 2215SOL    HW118281   3.767   0.589   3.450 -2.5113  0.0630 -1.6388
 2215SOL    HW218282   3.658   0.686   3.462  0.1224 -0.8724 -1.3215
 2216SOL     OW18283   0.903   4.734   3.807  0.4425 -0.4137 -0.1399
 2216SOL    HW118284   0.909   4.732   3.902  0.6422  0.6791 -0.1251
 2216SOL    HW218285   0.991   0.027   3.783  0.4022  1.5177  1.9488
 2217SOL     OW18286   1.156   4.425   9.414  0.4008 -0.3794  0.1097
 2217SOL    HW118287   1.121   4.393   9.497  1.2493  0.0243  0.6162
 2217SOL    HW218288   1.194   4.505   9.448  1.7168 -0.5971 -0.8531
 2218SOL     OW18289   3.123   0.036   6.357 -0.3064  0.0430  0.0026
 2218SOL    HW118290   3.168   0.114   6.323  0.1232  0.2951  1.1661
 2218SOL    HW218291   3.181   0.005   6.426 -3.2002  0.7409  2.7416
 2219SOL     OW18292   2.720   2.758  15.044 -0.5613  0.1143  0.0965
 2219SOL    HW118293   2.710   2.673  15.088 -1.4439 -0.3918 -1.0616
 2219SOL    HW218294   2.716   2.719  14.957  0.5249 -1.7859  0.8975
 2220SOL     OW18295   3.408   1.312   4.115 -0.3509 -0.1621 -0.2642
 2220SOL    HW118296   3.352   1.379   4.155  2.8682  2.2459  0.1753
 2220SOL    HW218297   3.375   1.323   4.026 -1.3030  0.7527  0.1913
 2221SOL     OW18298   1.090   0.730   1.798  0.2875 -0.1180 -0.0575
 2221SOL    HW118299   1.067   0.638   1.780 -2.1006  0.7719 -1.5726
 2221SOL    HW218300   1.058   0.741   1.887  0.2822  1.0913 -0.2123
 2222SOL     OW18301   1.889   3.960   0.227 -0.3780 -0.5434  0.3227
 2222SOL    HW118302   1.880   4.008   0.145  1.9991  0.5019  0.6557
 2222SOL    HW218303   1.880   4.032   0.290  1.0408  0.8233 -1.0315
 2223SOL     OW18304   3.499   1.638   3.023 -0.0817  0.1101  0.0157
 2223SOL    HW118305   3.450   1.714   3.055 -2.4574 -1.2114 -0.4809
 2223SOL    HW218306   3.525   1.595   3.104 -1.0400 -0.0272  0.2453
 2224SOL     OW18307   1.366   1.980   1.633  0.0505 -0.4995 -0.2554
 2224SOL    HW118308   1.294   1.932   1.591 -1.6265  1.6104  0.2572
 2224SOL    HW218309   1.396   2.027   1.555  1.4746  0.9545  1.1908
 2225SOL     OW18310   0.454   3.912   4.027  0.4916 -0.5782 -0.0757
 2225SOL    HW118311   0.359   3.899   4.032  0.6143 -2.4569 -2.2697
 2225SOL    HW218312   0.460   3.947   4.116  1.7211 -0.4910 -0.1947
 2226SOL     OW18313   2.092   4.205   7.120 -0.3183 -0.0126  0.1954
 2226SOL    HW118314   2.026   4.165   7.063 -1.5443  1.6474  0.4220
 2226SOL    HW218315   2.099   4.135   7.184  2.5976 -1.8740 -2.1459
 2227SOL     OW18316   1.692   1.789  11.135  0.1642  0.5103 -0.4721
 2227SOL    HW118317   1.669   1.882  11.131  0.4746  0.4788 -3.2144
 2227SOL    HW218318   1.608   1.750  11.111  1.1088 -1.2722 -0.8955
 2228SOL     OW18319   2.738   4.373   3.131  0.0376 -0.2054 -0.4436
 2228SOL    HW118320   2.688   4.374   3.213 -0.5490  1.4184 -0.8301
 2228SOL    HW218321   2.699   4.297   3.088  1.1543 -1.7246  1.2384
 2229SOL     OW18322   1.123   4.321   2.551  0.0786  0.1366  0.5237
 2229SOL    HW118323   1.055   4.254   2.550 -0.2579  0.4803 -0.2418
 2229SOL    HW218324   1.176   4.283   2.621  0.2612 -0.3508  0.1183
 2230SOL     OW18325   3.492   2.421  17.327 -0.7503 -0.2296  0.1895
 2230SOL    HW118326   3.508   2.511  17.353  0.3874 -0.1769 -0.6700
 2230SOL    HW218327   3.459   2.441  17.239 -0.2075  1.6038  0.4048
 2231SOL     OW18328   3.632   0.111   8.148 -0.0606 -0.0110  0.5666
 2231SOL    HW118329   3.690   0.067   8.210 -0.2861 -2.3927 -0.8986
 2231SOL    HW218330   3.554   0.138   8.196 -0.2008  0.5891 -0.0012
 2232SOL     OW18331   1.347   1.038  13.943 -0.0114  0.3669  0.0722
 2232SOL    HW118332   1.393   1.044  13.859  3.1459 -1.2268  1.6896
 2232SOL    HW218333   1.329   0.945  13.951 -1.1090  0.7486  2.0733
 2233SOL     OW18334   3.385   0.262   3.927 -0.0000 -0.0884  0.4499
 2233SOL    HW118335   3.353   0.175   3.951  1.8052 -0.8766 -0.0357
 2233SOL    HW218336   3.480   0.253   3.924 -0.0340 -1.1306  2.3341
 2234SOL     OW18337   1.985   0.139   2.342 -0.3042 -0.2361 -0.0362
 2234SOL    HW118338   2.008   0.232   2.344 -1.0660 -0.1068  3.7509
 2234SOL    HW218339   1.927   0.150   2.267  0.6503 -1.1796 -0.8861
 2235SOL     OW18340   2.209   0.566   7.490 -0.5624 -0.3647  0.0481
 2235SOL    HW118341   2.294   0.606   7.511 -0.3565  0.1575 -1.7932
 2235SOL    HW218342   2.239   0.475   7.486  1.8956  0.4639 -0.2802
 2236SOL     OW18343   2.460   2.024   2.675 -0.0281  0.1329 -0.3951
 2236SOL    HW118344   2.391   2.061   2.621 -1.7467 -2.3193  0.1163
 2236SOL    HW218345   2.506   1.980   2.604  0.0570 -1.0566  0.3904
 2237SOL     OW18346   0.776   0.569   4.291 -0.0212 -0.4828 -0.1373
 2237SOL    HW118347   0.708   0.635   4.279 -0.5354 -1.3313 -1.9284
 2237SOL    HW218348   0.762   0.538   4.380 -1.1747 -1.4623 -0.6571
 2238SOL     OW18349   0.841   3.092   4.326  0.1974 -0.4837  0.6954
 2238SOL    HW118350   0.817   3.182   4.346  2.7054  1.1902 -3.9538
 2238SOL    HW218351   0.841   3.098   4.230  0.6813 -1.5878  0.6231
 2239SOL     OW18352   4.180   2.065   6.712  0.1912  0.0651  0.4345
 2239SOL    HW118353   4.184   2.024   6.799 -1.9087  1.0727  1.0119
 2239SOL    HW218354   4.228   1.996   6.666  1.3974  0.4548  1.1015
 2240SOL     OW18355   2.709   2.597   2.907  0.1425 -0.3337 -0.0016
 2240SOL    HW118356   2.633   2.540   2.902  0.6554 -1.1481  1.5396
 2240SOL    HW218357   2.734   2.570   2.995  0.3580 -2.8371 -0.8547
 2241SOL     OW18358   2.828   1.129   7.163 -0.0076  0.2176  0.1953
 2241SOL    HW118359   2.736   1.112   7.141 -0.5694 -0.2771  2.8978
 2241SOL    HW218360   2.881   1.107   7.087  0.3478 -1.3906  0.9117
 2242SOL     OW18361   4.312   3.141   4.747  0.0523  0.4126  0.0167
 2242SOL    HW118362   4.279   3.164   4.660  2.2962  2.6915 -0.2314
 2242SOL    HW218363   4.395   3.187   4.762  0.2919 -0.7343  2.1891
 2243SOL     OW18364   0.682   1.768  11.129  0.4253 -0.3259  0.4235
 2243SOL    HW118365   0.602   1.716  11.144 -0.3413  1.1929  1.6070
 2243SOL    HW218366   0.657   1.823  11.055 -4.0757 -0.7204  1.6165
 2244SOL     OW18367   1.792   1.700   7.533  0.3668 -0.5758  0.1730
 2244SOL    HW118368   1.795   1.605   7.538 -0.0172 -0.6815 -1.5449
 2244SOL    HW218369   1.748   1.719   7.616  1.4135  1.7901  0.2090
 2245SOL     OW18370   1.051   1.284   4.203 -0.2998  0.1961  0.2360
 2245SOL    HW118371   1.036   1.305   4.295 -0.0356  2.1266 -0.1590
 2245SOL    HW218372   1.016   1.196   4.192  1.8041 -0.6645  0.3847
 2246SOL     OW18373   1.051   1.179   1.743  0.2311  0.0951 -0.1245
 2246SOL    HW118374   0.963   1.215   1.731 -0.0508 -0.6843 -0.3996
 2246SOL    HW218375   1.080   1.225   1.822  1.6460  0.0047 -0.5980
 2247SOL     OW18376   0.560   1.533  13.123  0.3511 -0.3450 -0.3099
 2247SOL    HW118377   0.637   1.504  13.172 -0.5495  2.1785  2.6043
 2247SOL    HW218378   0.487   1.522  13.184 -0.6287 -0.0513 -1.4296
 2248SOL     OW18379   3.503   0.780   4.095  0.3096 -0.5046 -0.4776
 2248SOL    HW118380   3.538   0.848   4.151 -1.7320 -0.8829  1.2616
 2248SOL    HW218381   3.480   0.829   4.016  0.5626  0.1756 -0.1254
 2249SOL     OW18382   1.893   1.719  14.881  0.1177 -0.5613 -0.5945
 2249SOL    HW118383   1.868   1.731  14.789 -0.4083 -0.2869 -0.4131
 2249SOL    HW218384   1.943   1.638  14.866 -2.6035 -2.6047  1.3816
 2250SOL     OW18385   1.134   2.530   8.648 -0.0529  0.4011  0.0856
 2250SOL    HW118386   1.144   2.468   8.575 -1.2540 -0.1923  0.4255
 2250SOL    HW218387   1.181   2.601   8.604 -1.1244 -0.0262 -1.7837
 2251SOL     OW18388   3.802   3.419   4.127 -0.1417  0.0852 -0.4226
 2251SOL    HW118389   3.838   3.472   4.056 -0.1125 -0.3442 -0.7354
 2251SOL    HW218390   3.820   3.477   4.200  2.2825  0.8432 -1.6283
 2252SOL     OW18391   2.960   0.248  10.095 -0.2008 -0.0391  0.0849
 2252SOL    HW118392   2.938   0.163  10.133 -0.9252  1.3878  2.8373
 2252SOL    HW218393   3.019   0.225  10.023 -1.0991  1.2815 -1.0714
 2253SOL     OW18394   0.502   3.057   6.840  0.0384 -0.7143  0.4291
 2253SOL    HW118395   0.507   3.083   6.748  0.7618 -2.1866  0.0502
 2253SOL    HW218396   0.430   3.114   6.866  0.1064 -0.7400  0.6731
 2254SOL     OW18397   1.126   1.613   6.922  0.0461  0.1346  0.0550
 2254SOL    HW118398   1.151   1.672   6.993 -0.4357  0.1677  0.1973
 2254SOL    HW218399   1.145   1.529   6.965 -0.1909 -0.8470 -1.7892
 2255SOL     OW18400   1.564   1.236   0.766 -0.1594  0.0108  0.2406
 2255SOL    HW118401   1.542   1.162   0.823 -0.9941 -0.4376 -0.6557
 2255SOL    HW218402   1.532   1.214   0.678 -1.5753  0.3327  0.6687
 2256SOL     OW18403   1.988   0.551   5.641 -0.2782 -0.4977 -0.1695
 2256SOL    HW118404   2.008   0.597   5.560  0.4609 -1.1106 -0.3383
 2256SOL    HW218405   1.982   0.626   5.699 -0.0966 -1.8787  1.6517
 2257SOL     OW18406   2.336   4.343   7.474  0.0613  0.5647 -0.5857
 2257SOL    HW118407   2.378   4.287   7.408 -1.2387  0.0888 -0.9921
 2257SOL    HW218408   2.324   4.425   7.426 -2.7139 -0.0505 -0.9239
 2258SOL     OW18409   3.375   1.760   2.582 -0.0591 -0.0885 -0.4154
 2258SOL    HW118410   3.440   1.697   2.614  1.7274  0.9830 -1.9587
 2258SOL    HW218411   3.298   1.707   2.602 -0.4369 -0.2440 -2.3026
 2259SOL     OW18412   3.057   1.063  15.366 -0.3415 -0.0559 -0.4476
 2259SOL    HW118413   3.146   1.061  15.330 -1.0658  1.5828 -2.3443
 2259SOL    HW218414   3.013   1.111  15.295  2.3141 -0.2334 -2.2449
 2260SOL     OW18415   1.718   1.012   8.096 -0.2692  0.0574 -0.0939
 2260SOL    HW118416   1.763   0.943   8.048  0.0995 -0.3699  0.8614
 2260SOL    HW218417   1.724   0.981   8.187  1.8494 -0.7644 -0.5242
 2261SOL     OW18418   4.182   2.733   4.123  0.1380 -0.6100  0.1629
 2261SOL    HW118419   4.117   2.761   4.188  0.1150 -0.4966  0.0919
 2261SOL    HW218420   4.239   2.683   4.180 -0.1508 -1.4525 -0.2846
 2262SOL     OW18421   2.589   1.735   7.004 -0.0934 -0.5963 -0.0824
 2262SOL    HW118422   2.533   1.809   6.981 -0.3992 -1.0234 -0.7315
 2262SOL    HW218423   2.524   1.668   6.983  0.6734 -1.9416  1.8328
 2263SOL     OW18424   2.520   2.301   8.308 -0.1635 -0.1687  0.3036
 2263SOL    HW118425   2.548   2.383   8.267  0.0717  0.4344  1.6692
 2263SOL    HW218426   2.450   2.281   8.246  2.5004 -0.9200 -2.4861
 2264SOL     OW18427   2.637   3.556   9.679 -0.2585  0.3765 -0.1176
 2264SOL    HW118428   2.716   3.543   9.625 -1.3728 -0.6774 -1.4938
 2264SOL    HW218429   2.672   3.545   9.768 -0.0432 -2.5182 -0.5509
 2265SOL     OW18430   0.059   3.216   3.571  0.0484  0.1290 -0.6867
 2265SOL    HW118431   0.124   3.222   3.501  1.9164  0.5017  1.0955
 2265SOL    HW218432   0.102   3.247   3.651 -1.6799  0.6605  0.0303
 2266SOL     OW18433   1.247   3.802   2.265 -0.0051 -0.2604  0.1201
 2266SOL    HW118434   1.335   3.766   2.274  0.6940  1.3690 -0.2204
 2266SOL    HW218435   1.201   3.766   2.340  1.0245  1.7713  1.7229
 2267SOL     OW18436   3.424   0.497  14.176 -0.0048 -0.1513 -0.3693
 2267SOL    HW118437   3.411   0.568  14.239 -1.3595  0.1633 -0.9969
 2267SOL    HW218438   3.518   0.481  14.178 -0.3693 -2.0484  1.5983
 2268SOL     OW18439   2.255   0.404   5.220 -0.1686  0.0258  0.1777
 2268SOL    HW118440   2.304   0.368   5.146 -0.9322 -0.1656 -0.2391
 2268SOL    HW218441   2.193   0.330   5.221 -0.4818  0.2531 -1.7830
 2269SOL     OW18442   0.373   4.306   3.770 -0.2512 -0.0167 -0.2131
 2269SOL    HW118443   0.421   4.223   3.771  0.8976  0.6539 -0.1478
 2269SOL    HW218444   0.450   4.363   3.770  2.3151 -3.4833 -1.6975
 2270SOL     OW18445   0.498   2.105   4.290 -0.1026 -0.3001  0.7453
 2270SOL    HW118446   0.517   2.067   4.204 -2.5416 -0.3544  0.2089
 2270SOL    HW218447   0.422   2.052   4.316 -0.8609 -0.1474 -1.1615
 2271SOL     OW18448   2.041   2.365  17.330  0.2622  0.4400  0.2448
 2271SOL    HW118449   2.049   2.271  17.316 -1.6148  0.0869  1.5568
 2271SOL    HW218450   2.054   2.396  17.240 -0.6836  0.4785  0.1191
 2272SOL     OW18451   2.835   2.565   2.369  0.1044  0.5059 -0.2501
 2272SOL    HW118452   2.899   2.563   2.440  0.2488 -1.4445 -0.4213
 2272SOL    HW218453   2.852   2.479   2.329 -0.4921 -0.2019  1.0150
 2273SOL     OW18454   2.118   0.971   1.513  0.0193 -0.0189 -0.3405
 2273SOL    HW118455   2.057   0.910   1.556  0.4240 -0.4363 -0.3583
 2273SOL    HW218456   2.205   0.958   1.551 -0.7893 -4.0754  0.2054
 2274SOL     OW18457   2.741   1.891   6.761 -0.3723 -0.4222  0.2663
 2274SOL    HW118458   2.708   1.847   6.683 -0.8992  0.0118  0.2465
 2274SOL    HW218459   2.653   1.916   6.789  0.2146  1.7230  0.2466
 2275SOL     OW18460   1.231   3.027   5.299  0.4587  0.0040 -0.2682
 2275SOL    HW118461   1.211   2.938   5.273 -0.1534  0.2725 -0.7181
 2275SOL    HW218462   1.235   3.006   5.393  2.1475  0.0968 -0.3165
 2276SOL     OW18463   1.736   0.872   5.003  0.3790  0.1425  0.1436
 2276SOL    HW118464   1.703   0.920   5.079  1.0853 -1.6346  1.5578
 2276SOL    HW218465   1.665   0.817   4.971  2.3233 -0.9958 -2.1747
 2277SOL     OW18466   0.140   1.619   2.855  0.8751 -0.5240  0.0234
 2277SOL    HW118467   0.081   1.650   2.923 -0.1154 -1.2324 -0.5150
 2277SOL    HW218468   0.083   1.605   2.779 -0.9590  1.1993  1.0962
 2278SOL     OW18469   1.397   1.589   4.661  0.2295 -0.5059  0.2424
 2278SOL    HW118470   1.373   1.514   4.606 -1.8493  0.5446 -0.2925
 2278SOL    HW218471   1.453   1.635   4.598 -1.5129 -0.1318 -1.0401
 2279SOL     OW18472   4.399   1.089   4.448  0.8095  0.1938 -0.1272
 2279SOL    HW118473   4.483   1.080   4.494 -0.9049  0.8950  3.1140
 2279SOL    HW218474   4.423   1.172   4.406  2.0578 -0.1134 -0.0239
 2280SOL     OW18475   2.553   2.717  12.799 -0.2115 -0.5700  0.1833
 2280SOL    HW118476   2.489   2.688  12.733  1.0006  0.3473 -1.4010
 2280SOL    HW218477   2.570   2.632  12.839  2.3900  0.4256  1.1820
 2281SOL     OW18478   2.443   0.166   9.526  0.2918  0.3514 -0.1982
 2281SOL    HW118479   2.450   0.155   9.431  2.6730  1.9344 -0.1937
 2281SOL    HW218480   2.512   0.106   9.552 -1.4344 -1.5498  0.0449
 2282SOL     OW18481   3.602   1.024   2.311  0.4291 -0.7036 -0.7906
 2282SOL    HW118482   3.653   1.080   2.370  1.3365 -0.3523 -1.9104
 2282SOL    HW218483   3.620   1.063   2.226 -1.1040  1.1487 -0.2617
 2283SOL     OW18484   1.818   2.264   5.989 -0.0482  0.4677  0.1017
 2283SOL    HW118485   1.856   2.175   5.988  1.2755  1.0405 -0.6185
 2283SOL    HW218486   1.732   2.252   5.949 -0.6485 -3.1862  2.4631
 2284SOL     OW18487   3.506   4.454   5.831 -0.4487  0.3802 -0.2485
 2284SOL    HW118488   3.562   4.385   5.865 -0.0039 -0.1336 -2.0150
 2284SOL    HW218489   3.491   4.494   5.916  0.6496  1.9443 -0.7936
 2285SOL     OW18490   1.614   3.262  16.800  0.1466  0.2006  0.3140
 2285SOL    HW118491   1.574   3.187  16.756 -0.1359  1.1187 -0.9900
 2285SOL    HW218492   1.669   3.293  16.728  1.2597 -2.8557 -0.1592
 2286SOL     OW18493   2.866   4.554   4.626  0.3039 -0.0298 -0.2103
 2286SOL    HW118494   2.791   4.502   4.653  0.4451  0.2899  0.8037
 2286SOL    HW218495   2.840   4.602   4.548 -1.6981  0.4337  0.7464
 2287SOL     OW18496   4.069   3.640   4.233 -0.5866  0.2591  0.8862
 2287SOL    HW118497   4.048   3.663   4.324 -0.7828  0.9255  0.6747
 2287SOL    HW218498   4.096   3.549   4.245 -0.9607 -0.0345 -0.5536
 2288SOL     OW18499   2.594   0.284   2.280  1.2477 -0.3536 -1.0424
 2288SOL    HW118500   2.614   0.306   2.371  1.7118  0.8562 -1.4383
 2288SOL    HW218501   2.583   0.189   2.279  2.1017 -0.4836  0.6482
 2289SOL     OW18502   3.772   3.953   7.653 -0.4057 -0.7092 -0.1758
 2289SOL    HW118503   3.863   3.944   7.681 -0.4005 -4.3124 -1.3722
 2289SOL    HW218504   3.739   3.874   7.697  0.9474 -1.4815 -0.5574
 2290SOL     OW18505   0.178   3.607   9.003 -0.4210 -0.1718 -0.0195
 2290SOL    HW118506   0.126   3.605   9.083  1.0417 -0.7552  0.9092
 2290SOL    HW218507   0.116   3.562   8.945 -0.8238 -0.1284  0.3762
 2291SOL     OW18508   2.964   2.440  16.410  0.0798 -0.3838  0.3868
 2291SOL    HW118509   2.908   2.364  16.392  0.9979 -1.1239  0.6161
 2291SOL    HW218510   2.978   2.421  16.503  2.3994  0.6999  0.2579
 2292SOL     OW18511   1.492   2.279   2.971  0.1187  0.0589  0.1697
 2292SOL    HW118512   1.530   2.342   3.032  0.3548 -0.4615  0.5563
 2292SOL    HW218513   1.568   2.265   2.915  1.7013  0.2148  2.2936
 2293SOL     OW18514   2.268   3.280   2.489  0.0099 -0.0478  0.0173
 2293SOL    HW118515   2.229   3.252   2.406  1.0914 -1.4097 -0.0314
 2293SOL    HW218516   2.347   3.228   2.505 -0.0152  0.4509  1.6905
 2294SOL     OW18517   4.247   4.506   8.999  0.3540  0.0179  0.8088
 2294SOL    HW118518   4.210   4.447   9.066 -1.3854  0.0465 -0.1154
 2294SOL    HW218519   4.294   4.579   9.038 -0.1534  0.2140  1.0470
 2295SOL     OW18520   2.803   2.967  11.331  0.5295 -0.1762 -0.9452
 2295SOL    HW118521   2.734   3.003  11.387  1.1860 -2.2426  1.1759
 2295SOL    HW218522   2.880   3.018  11.356  0.0212 -1.0824  2.4544
 2296SOL     OW18523   4.580   2.797   7.795 -0.4679 -0.1926 -0.3374
 2296SOL    HW118524   4.616   2.745   7.723 -2.3786 -1.3766 -0.4204
 2296SOL    HW218525   4.650   2.862   7.799 -0.5220 -0.4447  4.5641
 2297SOL     OW18526   2.663   3.076  12.520  0.5345 -0.0693 -0.5777
 2297SOL    HW118527   2.692   3.096  12.431  1.9250 -2.1040 -0.5943
 2297SOL    HW218528   2.644   3.164  12.551 -1.3358 -0.6307 -0.1377
 2298SOL     OW18529   1.075   2.345   1.856 -0.2357  0.5179  0.3421
 2298SOL    HW118530   1.017   2.322   1.784  0.8806 -2.5822  0.4403
 2298SOL    HW218531   1.028   2.305   1.929 -0.2257 -1.3098 -0.6580
 2299SOL     OW18532   3.358   4.600  17.160 -0.1620 -0.3472  0.4070
 2299SOL    HW118533   3.439   4.550  17.172  0.8446  1.3565  0.7046
 2299SOL    HW218534   3.328   4.630  17.246 -0.3173 -1.5733  0.7833
 2300SOL     OW18535   4.080   0.845   8.869 -0.3539 -0.4542 -0.5130
 2300SOL    HW118536   4.006   0.905   8.868  0.9694  1.2005  0.8058
 2300SOL    HW218537   4.154   0.899   8.842 -1.3165  1.4666  0.6776
 2301SOL     OW18538   3.922   1.953   3.721  0.3478 -0.3554  0.3883
 2301SOL    HW118539   3.965   1.955   3.636  0.6081  1.0968  0.5462
 2301SOL    HW218540   3.956   2.034   3.759 -2.8261  1.6520 -1.0461
 2302SOL     OW18541   2.901   4.561   4.290 -0.3500  0.5073  0.1298
 2302SOL    HW118542   2.909   4.472   4.325  2.1086  0.3170 -0.8917
 2302SOL    HW218543   2.995   4.579   4.299 -0.1873 -0.4309  0.2672
 2303SOL     OW18544   3.404   3.063   4.422  0.1448  0.7943  0.6418
 2303SOL    HW118545   3.481   3.091   4.373  0.3425  1.9472  1.6237
 2303SOL    HW218546   3.374   2.986   4.372 -2.2081  0.7053  2.1396
 2304SOL     OW18547   0.566   3.381   6.504  0.6229  0.3674 -0.1755
 2304SOL    HW118548   0.587   3.288   6.512  0.5005  0.4243  0.7450
 2304SOL    HW218549   0.636   3.426   6.551  0.4559 -0.2341  0.6489
 2305SOL     OW18550   1.633   0.129   7.499  0.2367  0.3433  0.6946
 2305SOL    HW118551   1.643   0.199   7.434 -1.2097 -0.8522 -0.8120
 2305SOL    HW218552   1.696   0.161   7.564 -0.2830  0.4533  1.1439
 2306SOL     OW18553   0.574   3.860  13.820  0.1112 -0.3615 -0.0218
 2306SOL    HW118554   0.613   3.877  13.906  0.6463 -0.9613 -0.1446
 2306SOL    HW218555   0.614   3.780  13.785  1.8295  1.1187 -1.4804
 2307SOL     OW18556   1.286   4.393  12.646 -0.8986  0.5543 -0.0396
 2307SOL    HW118557   1.324   4.320  12.597 -1.9853  0.8602 -1.3438
 2307SOL    HW218558   1.350   4.407  12.715  1.4826 -0.4587 -2.0214
 2308SOL     OW18559   2.817   3.416   8.432 -0.2582  0.7288 -0.0621
 2308SOL    HW118560   2.726   3.446   8.439 -1.0323 -1.4246 -0.8506
 2308SOL    HW218561   2.829   3.386   8.523  0.7355 -0.3462 -0.5520
 2309SOL     OW18562   2.559   1.111   4.983 -0.3461  0.2480  0.5173
 2309SOL    HW118563   2.563   1.185   4.922  1.1029 -1.3564 -1.3205
 2309SOL    HW218564   2.539   1.163   5.061  1.7724  0.7766  0.6983
 2310SOL     OW18565   1.251   1.643  10.898  0.5491  0.5216 -0.5774
 2310SOL    HW118566   1.175   1.701  10.912 -0.2875 -0.9885  1.1624
 2310SOL    HW218567   1.271   1.605  10.983 -1.4072  2.1835  0.6208
 2311SOL     OW18568   0.424   0.177  13.225 -0.6747 -0.3869  0.3199
 2311SOL    HW118569   0.339   0.209  13.255 -0.4186  0.0981  0.5150
 2311SOL    HW218570   0.395   0.115  13.157 -0.3680  1.3465 -1.3829
 2312SOL     OW18571   0.967   3.463   5.751  0.1050  0.2349 -0.1519
 2312SOL    HW118572   1.044   3.517   5.736  1.1968 -1.1056  0.6206
 2312SOL    HW218573   1.009   3.381   5.776 -0.1787 -0.2352 -1.2395
 2313SOL     OW18574   1.178   1.753   4.193  0.4517  0.1699 -1.0391
 2313SOL    HW118575   1.191   1.820   4.259 -1.1931  1.0832 -1.6239
 2313SOL    HW218576   1.161   1.804   4.113  1.5307  2.4546  0.2005
 2314SOL     OW18577   3.447   1.617   6.091  0.0156 -0.7621  0.1697
 2314SOL    HW118578   3.501   1.540   6.111  1.7614 -0.3333 -2.9280
 2314SOL    HW218579   3.445   1.676   6.166  1.1227  0.5201 -0.8135
 2315SOL     OW18580   1.773   3.315   8.062  0.6670  0.0336 -0.9198
 2315SOL    HW118581   1.756   3.368   8.140  0.3253 -0.7034 -0.4902
 2315SOL    HW218582   1.868   3.302   8.066  0.9239  2.2215  0.0080
 2316SOL     OW18583   3.591   2.050   3.229 -0.0174  0.2944 -0.2661
 2316SOL    HW118584   3.544   2.046   3.313 -0.9477  1.4388 -0.7329
 2316SOL    HW218585   3.597   2.143   3.208  1.3586  0.5268  1.1642
 2317SOL     OW18586   0.674   2.595   3.312  0.2936 -0.2556  0.6381
 2317SOL    HW118587   0.581   2.591   3.334  0.4084 -1.2328  0.9404
 2317SOL    HW218588   0.697   2.685   3.338 -1.4786  0.4497 -0.2508
 2318SOL     OW18589   4.152   1.012   8.479  0.1960  0.0986  0.0791
 2318SOL    HW118590   4.146   0.921   8.507 -0.6321  0.5153  1.2490
 2318SOL    HW218591   4.093   1.045   8.546  1.3348  1.4660  0.4094
 2319SOL     OW18592   4.474   4.408   8.102  0.5942  0.1563  0.2980
 2319SOL    HW118593   4.412   4.479   8.084  1.6944  0.6085 -1.7635
 2319SOL    HW218594   4.531   4.453   8.165  0.4980  2.0293 -0.9537
 2320SOL     OW18595   0.177   3.477  13.437  0.8566  0.2393 -0.2959
 2320SOL    HW118596   0.191   3.482  13.343  0.0651 -0.5456 -0.4533
 2320SOL    HW218597   0.085   3.502  13.440  0.7230 -0.2166 -0.5758
 2321SOL     OW18598   1.548   3.082   0.326  0.2967 -0.1603 -0.5957
 2321SOL    HW118599   1.605   3.006   0.339 -0.5002 -0.6264  0.2435
 2321SOL    HW218600   1.491   3.052   0.256 -0.2546 -0.3742 -0.0624
 2322SOL     OW18601   4.262   2.707   3.457 -0.0733 -0.6207 -0.2380
 2322SOL    HW118602   4.278   2.720   3.363  0.4838 -0.4549 -0.1210
 2322SOL    HW218603   4.174   2.670   3.452 -0.4078  0.2331 -0.6733
 2323SOL     OW18604   2.240   0.084  14.471  0.2454 -0.7840 -0.1155
 2323SOL    HW118605   2.271   0.174  14.456 -2.2620 -0.2483 -2.0443
 2323SOL    HW218606   2.266   0.045  14.388 -2.1052  1.2936 -1.8277
 2324SOL     OW18607   0.808   3.527   8.053 -0.0502  1.1983 -0.9024
 2324SOL    HW118608   0.799   3.497   7.963 -2.6804 -2.4163  0.6002
 2324SOL    HW218609   0.718   3.549   8.075 -0.5581  0.7489 -2.6111
 2325SOL     OW18610   2.664   1.943   3.200  0.6391 -0.2824  0.5618
 2325SOL    HW118611   2.619   2.026   3.215 -1.1528 -1.0236 -0.6616
 2325SOL    HW218612   2.751   1.970   3.226  1.7088 -0.9991 -2.2790
 2326SOL     OW18613   0.671   1.908   2.813 -0.6298  0.0578 -0.3981
 2326SOL    HW118614   0.621   1.981   2.850  2.3932  1.6326  0.6030
 2326SOL    HW218615   0.702   1.868   2.894  3.9476  1.6446 -1.3764
 2327SOL     OW18616   2.584   0.917   4.256  0.8788  0.4921 -0.2988
 2327SOL    HW118617   2.623   0.830   4.260 -1.3434 -0.5293 -0.4343
 2327SOL    HW218618   2.528   0.918   4.334 -0.0641  1.5517 -0.9841
 2328SOL     OW18619   0.407   4.510  11.180  0.2956  0.5104 -0.4192
 2328SOL    HW118620   0.476   4.490  11.242 -1.5122  1.8917  2.0508
 2328SOL    HW218621   0.367   4.592  11.210 -3.4199 -1.3353 -0.3524
 2329SOL     OW18622   0.489   4.447   0.237  0.2155 -0.1754 -0.5337
 2329SOL    HW118623   0.543   4.413   0.165  1.1436  1.8264 -0.8010
 2329SOL    HW218624   0.510   4.385   0.306 -2.6343 -0.4744  0.0640
 2330SOL     OW18625   2.707   3.755  17.520 -0.2988 -0.2634  0.3789
 2330SOL    HW118626   2.725   3.730  17.430  1.3129  0.3119  0.5518
 2330SOL    HW218627   2.612   3.766  17.525 -0.3234 -0.3987  0.1862
 2331SOL     OW18628   2.211   2.216   8.637 -0.6356  0.1530 -0.4196
 2331SOL    HW118629   2.259   2.291   8.603 -0.8482  0.5293  0.1098
 2331SOL    HW218630   2.177   2.185   8.554 -0.7554  3.8980 -1.7638
 2332SOL     OW18631   3.362   2.162   6.031 -0.1585  0.3237  0.2965
 2332SOL    HW118632   3.405   2.155   6.117 -0.3425 -0.6563  0.3111
 2332SOL    HW218633   3.440   2.142   5.980 -1.7164  2.2862 -2.8387
 2333SOL     OW18634   2.889   0.476   2.919 -0.4461 -0.5387 -0.0793
 2333SOL    HW118635   2.877   0.441   3.007  0.8013 -0.2023  0.2243
 2333SOL    HW218636   2.798   0.497   2.899 -0.1309  0.5295 -0.3691
 2334SOL     OW18637   2.692   2.670   8.349 -0.2040 -0.0975  0.4873
 2334SOL    HW118638   2.713   2.597   8.290  0.4639 -0.7529  1.5417
 2334SOL    HW218639   2.751   2.735   8.310  1.1272 -1.8359 -0.4015
 2335SOL     OW18640   3.422   0.935   5.861  0.3090  0.1898 -0.1899
 2335SOL    HW118641   3.349   0.995   5.871  0.1395  0.2132 -1.5510
 2335SOL    HW218642   3.444   0.946   5.768  0.6171 -0.6460 -0.2193
 2336SOL     OW18643   3.427   0.918  16.309  0.0817 -0.2480  0.0715
 2336SOL    HW118644   3.402   0.961  16.392  0.7799  0.3160 -0.0023
 2336SOL    HW218645   3.390   0.971  16.238  3.1938  0.2166 -1.1917
 2337SOL     OW18646   0.381   3.588   9.212 -1.0079 -0.0214 -0.4852
 2337SOL    HW118647   0.313   3.579   9.145 -1.0035  1.6855 -0.7365
 2337SOL    HW218648   0.334   3.613   9.292  2.5114  0.8858  1.2678
 2338SOL     OW18649   1.004   0.634   6.255  0.2409  0.0257 -0.2565
 2338SOL    HW118650   0.955   0.625   6.337  0.5232  2.5391  0.1868
 2338SOL    HW218651   1.065   0.704   6.280  0.3550  0.6670 -2.3705
 2339SOL     OW18652   3.572   4.681   0.595  0.2443  0.4411 -1.0833
 2339SOL    HW118653   3.608   4.673   0.683 -2.4247 -0.1695 -0.0531
 2339SOL    HW218654   3.593   0.039   0.587  0.0195  0.4745 -1.2873
 2340SOL     OW18655   2.595   2.844   1.795  0.7053 -0.6549 -0.2067
 2340SOL    HW118656   2.668   2.882   1.845  1.9056 -2.5658 -0.5102
 2340SOL    HW218657   2.589   2.753   1.825  2.0233 -0.8402 -0.5081
 2341SOL     OW18658   0.665   1.206   6.882 -0.4704  0.0256 -0.5193
 2341SOL    HW118659   0.709   1.284   6.916  0.2144 -1.2962  1.5879
 2341SOL    HW218660   0.645   1.230   6.791 -0.4200  0.6046 -0.3807
 2342SOL     OW18661   2.816   3.613   8.127  0.4527  0.1935  0.0951
 2342SOL    HW118662   2.772   3.698   8.130 -1.4397 -0.7035 -2.0473
 2342SOL    HW218663   2.743   3.554   8.148  0.2250  0.4440  0.0166
 2343SOL     OW18664   2.085   4.060   6.354  0.2488 -0.8171 -0.1370
 2343SOL    HW118665   2.158   4.122   6.345 -0.6409  0.3633  0.7554
 2343SOL    HW218666   2.031   4.077   6.278  1.8542 -2.3944 -1.6214
 2344SOL     OW18667   3.132   2.779  12.945  0.2620  0.5317 -0.6957
 2344SOL    HW118668   3.066   2.771  12.876 -0.1516 -0.3661 -0.1934
 2344SOL    HW218669   3.190   2.851  12.918  0.6109  0.7591  0.6584
 2345SOL     OW18670   1.506   1.670   6.984  0.1776 -0.2934 -0.3116
 2345SOL    HW118671   1.490   1.662   6.890 -0.5434 -1.2774 -0.1080
 2345SOL    HW218672   1.530   1.581   7.007 -1.0104 -0.4827  0.2360
 2346SOL     OW18673   3.744   0.519   4.321 -0.0663  0.1739  0.2510
 2346SOL    HW118674   3.688   0.441   4.318 -0.3873  0.4325 -0.5266
 2346SOL    HW218675   3.741   0.554   4.233 -0.6436 -1.9043 -0.5662
 2347SOL     OW18676   3.197   0.999   3.703  0.1348  0.0809  0.0548
 2347SOL    HW118677   3.196   0.933   3.772  2.3639  0.3316  0.3051
 2347SOL    HW218678   3.275   0.986   3.649 -1.8145 -1.2017 -2.4701
 2348SOL     OW18679   0.974   0.180   8.863  0.1345  0.4664 -0.2507
 2348SOL    HW118680   0.936   0.257   8.903 -2.1703 -0.1832 -1.2056
 2348SOL    HW218681   1.000   0.129   8.940 -2.7096  0.7306  0.8867
 2349SOL     OW18682   4.630   3.899  17.013 -0.0819  0.3083 -1.0144
 2349SOL    HW118683   4.686   3.858  16.947  1.6707  2.7672 -1.0290
 2349SOL    HW218684   4.595   3.824  17.062  2.0687  0.6090  1.0058
 2350SOL     OW18685   1.536   4.478   5.125 -0.0459 -0.0417  0.6627
 2350SOL    HW118686   1.496   4.396   5.095  1.3190 -0.0889 -0.9966
 2350SOL    HW218687   1.484   4.545   5.079  0.7311  0.9413  1.2245
 2351SOL     OW18688   3.806   3.148   2.327  0.3093 -0.3448  0.0649
 2351SOL    HW118689   3.749   3.222   2.347 -0.2799 -0.8980  0.4660
 2351SOL    HW218690   3.753   3.076   2.363 -1.2057  2.0329  2.6014
 2352SOL     OW18691   0.771   2.069   1.116 -0.0244  0.0235  0.0660
 2352SOL    HW118692   0.805   1.981   1.132  1.3715  0.5408 -0.0006
 2352SOL    HW218693   0.850   2.117   1.092 -0.0930 -1.8663 -3.9402
 2353SOL     OW18694   2.694   2.624   5.497 -0.2112  0.4627 -0.0909
 2353SOL    HW118695   2.614   2.589   5.458 -0.4732  0.0878  0.7663
 2353SOL    HW218696   2.674   2.717   5.494  1.1034  0.8855  3.7148
 2354SOL     OW18697   2.612   1.837   5.650 -0.2648 -0.0512  0.4277
 2354SOL    HW118698   2.519   1.852   5.667 -0.4914  1.2900 -2.0265
 2354SOL    HW218699   2.635   1.843   5.742  2.6305  2.7734 -0.4981
 2355SOL     OW18700   0.695   1.709   0.146 -0.0995 -0.0759  0.0579
 2355SOL    HW118701   0.788   1.728   0.151 -0.3688  1.1902  0.0793
 2355SOL    HW218702   0.652   1.793   0.164  0.1308  0.0008  0.2396
 2356SOL     OW18703   0.657   2.158   6.618  0.6503 -0.8065 -0.0972
 2356SOL    HW118704   0.708   2.078   6.606  0.0081 -1.6596  2.8913
 2356SOL    HW218705   0.580   2.130   6.568  2.0062  0.3345 -2.8391
 2357SOL     OW18706   1.166   3.300   4.318 -0.6818 -0.0501  0.7577
 2357SOL    HW118707   1.255   3.319   4.348 -0.4837 -1.5103  1.0926
 2357SOL    HW218708   1.144   3.389   4.289  0.4961 -0.3490 -1.0156
 2358SOL     OW18709   3.197   0.048  15.080 -0.1022  0.2075  0.4613
 2358SOL    HW118710   3.271   4.723  15.088  0.1050  0.4016  0.0079
 2358SOL    HW218711   3.191   0.074  14.988 -3.3814 -1.5126  0.1753
 2359SOL     OW18712   3.004   3.003   7.983 -0.0329 -0.8437 -0.1378
 2359SOL    HW118713   3.049   3.080   8.017 -0.1988 -0.9496  0.3257
 2359SOL    HW218714   2.915   3.036   7.997  0.5942  1.2312 -0.9866
 2360SOL     OW18715   3.514   2.414   5.288 -0.2569  0.2010  0.6475
 2360SOL    HW118716   3.550   2.490   5.241 -1.9963  1.6486  1.6643
 2360SOL    HW218717   3.595   2.370   5.314 -0.3473 -0.1964  0.2549
 2361SOL     OW18718   3.541   0.244   8.511 -0.3089  0.6371 -0.6366
 2361SOL    HW118719   3.617   0.230   8.567 -0.2355 -0.5885 -1.0248
 2361SOL    HW218720   3.529   0.338   8.523  0.7048  0.6794  0.0545
 2362SOL     OW18721   4.175   1.256   4.799  0.3334 -0.0268 -0.1012
 2362SOL    HW118722   4.116   1.263   4.874  0.8109  0.4109  0.2348
 2362SOL    HW218723   4.152   1.181   4.746  1.1353 -0.0779 -0.3796
 2363SOL     OW18724   1.247   2.110   9.065 -0.1097  0.4709  0.9078
 2363SOL    HW118725   1.225   2.123   8.973  2.7629  0.3677  0.2240
 2363SOL    HW218726   1.325   2.056   9.056  1.4836  2.9018  0.2255
 2364SOL     OW18727   2.289   0.436   3.435 -0.3026 -0.1526  0.2251
 2364SOL    HW118728   2.317   0.398   3.518  3.4191 -1.3283 -1.5746
 2364SOL    HW218729   2.371   0.451   3.388  1.0933  2.5451  3.5278
 2365SOL     OW18730   0.620   1.533   3.797 -0.4151  0.0005  0.1551
 2365SOL    HW118731   0.562   1.476   3.746  0.9122  0.0617 -1.4108
 2365SOL    HW218732   0.655   1.461   3.850 -0.1276 -1.2018 -1.6296
 2366SOL     OW18733   4.105   1.922  13.113 -0.7319 -0.5387 -0.8130
 2366SOL    HW118734   4.069   1.909  13.201  1.4329  1.4978  0.3502
 2366SOL    HW218735   4.080   1.839  13.072 -2.4458 -1.1125  1.3530
 2367SOL     OW18736   2.093   2.389   6.393  0.0892 -0.5239 -0.0780
 2367SOL    HW118737   2.074   2.363   6.483  2.0460  1.0942  0.7794
 2367SOL    HW218738   2.010   2.361   6.354  0.5457  0.6608 -1.8672
 2368SOL     OW18739   0.611   2.987   2.933  0.2900 -0.4430  0.4810
 2368SOL    HW118740   0.578   2.916   2.877 -1.5748  0.6952  0.1424
 2368SOL    HW218741   0.561   3.058   2.893  1.4246 -0.7300 -1.4153
 2369SOL     OW18742   3.603   1.504   5.608 -0.4984 -0.0938 -0.3919
 2369SOL    HW118743   3.600   1.580   5.666 -0.2684 -0.3300 -0.0679
 2369SOL    HW218744   3.686   1.460   5.625 -1.8326 -2.4303  0.0208
 2370SOL     OW18745   1.868   4.561   3.064  0.3070 -0.6307 -0.1485
 2370SOL    HW118746   1.833   4.476   3.038  2.6058 -2.2661  2.0628
 2370SOL    HW218747   1.830   4.610   2.991 -4.2261 -0.3125  2.4501
 2371SOL     OW18748   3.793   3.756  14.455 -0.0998 -0.0693 -0.2558
 2371SOL    HW118749   3.736   3.706  14.397 -1.5682  2.5348 -1.0828
 2371SOL    HW218750   3.880   3.755  14.415 -0.4900  2.1360 -1.1657
 2372SOL     OW18751   3.271   1.229   3.846  0.1179 -0.2141  0.3676
 2372SOL    HW118752   3.293   1.157   3.787  2.2563 -0.1483  1.0774
 2372SOL    HW218753   3.185   1.206   3.882 -0.6076  0.2549 -1.0793
 2373SOL     OW18754   3.663   1.057  16.552  0.3827  0.6362 -0.1977
 2373SOL    HW118755   3.730   0.995  16.524  0.4112  0.2312  0.7746
 2373SOL    HW218756   3.580   1.019  16.521 -0.4137  1.6386  0.7102
 2374SOL     OW18757   4.574   3.174   9.307  0.4925  0.4045  0.3902
 2374SOL    HW118758   4.495   3.137   9.268 -0.2880  0.8796  1.5227
 2374SOL    HW218759   4.535   3.243   9.360  2.6672  0.8758  1.3938
 2375SOL     OW18760   1.259   1.266   3.761  0.6954 -0.6596 -0.3344
 2375SOL    HW118761   1.301   1.320   3.695  0.6119  1.1819  1.1290
 2375SOL    HW218762   1.169   1.299   3.757  1.0374  0.1242 -1.3541
 2376SOL     OW18763   1.613   2.787   5.630  0.1299  0.8026  0.1723
 2376SOL    HW118764   1.586   2.869   5.672 -2.1316 -0.1178  0.4986
 2376SOL    HW218765   1.624   2.815   5.539 -0.8715  1.5006  0.2715
 2377SOL     OW18766   0.103   1.859   4.787 -0.7045  0.0617  0.3470
 2377SOL    HW118767   0.085   1.775   4.745 -2.0059 -0.3005  1.6386
 2377SOL    HW218768   0.141   1.901   4.710  0.1713  0.2787  0.8931
 2378SOL     OW18769   3.639   2.156   6.689  0.3299  0.4698 -0.3784
 2378SOL    HW118770   3.559   2.201   6.662  0.9466  1.4750 -0.5490
 2378SOL    HW218771   3.636   2.167   6.784  1.2448  1.1378 -0.4293
 2379SOL     OW18772   2.908   1.304   2.149  0.5070 -0.2237 -0.3011
 2379SOL    HW118773   2.933   1.393   2.176  2.2216 -0.4457 -1.1444
 2379SOL    HW218774   2.813   1.319   2.148  0.6819  0.6879 -3.6887
 2380SOL     OW18775   4.163   1.808   4.909  1.0779 -0.0081 -0.0511
 2380SOL    HW118776   4.117   1.839   4.987 -0.4016 -1.6825 -0.2386
 2380SOL    HW218777   4.195   1.888   4.868 -0.1904  0.8205  0.5687
 2381SOL     OW18778   2.673   4.612   7.904  0.0431 -0.1717  0.7297
 2381SOL    HW118779   2.622   4.590   7.982 -0.3052 -2.4826 -0.1411
 2381SOL    HW218780   2.604   4.650   7.849 -0.6957 -3.2618 -0.4874
 2382SOL     OW18781   0.516   4.547   4.050  0.4816 -0.5711 -0.3034
 2382SOL    HW118782   0.497   4.549   3.956 -0.5296  2.0183 -0.0429
 2382SOL    HW218783   0.510   4.453   4.067  2.7744 -1.2141 -3.0417
 2383SOL     OW18784   1.352   2.647   1.392 -0.0872  0.1664  0.8157
 2383SOL    HW118785   1.416   2.687   1.451  0.8799 -0.6028  0.2750
 2383SOL    HW218786   1.318   2.727   1.352  0.9344  1.3514  2.3263
 2384SOL     OW18787   1.667   3.457   4.388 -0.9125  0.1204  0.1525
 2384SOL    HW118788   1.735   3.489   4.328 -0.3266  1.0084  1.2990
 2384SOL    HW218789   1.718   3.383   4.422  0.2440  0.6640 -0.3778
 2385SOL     OW18790   2.123   1.238   1.527 -0.2779 -0.2156 -0.2099
 2385SOL    HW118791   2.100   1.145   1.522  0.7788 -0.6815  3.2337
 2385SOL    HW218792   2.044   1.280   1.495  0.1541  0.3005 -0.6106
 2386SOL     OW18793   1.785   0.632   1.552 -0.4730  0.2265  0.4465
 2386SOL    HW118794   1.879   0.619   1.538 -1.2577 -0.9890 -3.8442
 2386SOL    HW218795   1.786   0.724   1.580 -4.3236  1.4522 -3.3728
 2387SOL     OW18796   2.231   3.634   2.087  0.1395 -0.0290 -0.3097
 2387SOL    HW118797   2.288   3.614   2.013 -0.6449  1.0811 -1.2167
 2387SOL    HW218798   2.240   3.728   2.102  0.4912 -0.0366 -0.4662
 2388SOL     OW18799   4.620   2.733   5.515  0.9920  0.1886 -0.1229
 2388SOL    HW118800   4.557   2.749   5.586 -0.3228 -0.4023 -1.1570
 2388SOL    HW218801   4.700   2.710   5.562  1.2656  0.9018 -0.2475
 2389SOL     OW18802   4.439   1.320   0.460  0.3166 -0.0404 -0.2385
 2389SOL    HW118803   4.389   1.238   0.459  0.7679 -0.2861 -1.9533
 2389SOL    HW218804   4.377   1.385   0.427  3.0180  1.9392 -1.3692
 2390SOL     OW18805   2.513   2.182  14.498 -0.5009  0.1012  0.4860
 2390SOL    HW118806   2.582   2.244  14.522 -0.1373 -0.0182 -0.2561
 2390SOL    HW218807   2.562   2.103  14.521 -0.3482 -0.0412 -0.3628
 2391SOL     OW18808   3.184   3.187  17.243  0.2592  0.3450  0.1516
 2391SOL    HW118809   3.257   3.208  17.185 -1.1068  0.0956 -1.6773
 2391SOL    HW218810   3.214   3.228  17.324 -0.3608  0.3695  0.3707
 2392SOL     OW18811   3.621   2.564  11.512 -0.1162 -0.1233  0.1861
 2392SOL    HW118812   3.586   2.647  11.544  2.6315  0.5366  1.5182
 2392SOL    HW218813   3.579   2.553  11.427  1.5588 -1.8037 -0.4451
 2393SOL     OW18814   2.294   0.887  17.143 -0.6538  0.0073  0.1800
 2393SOL    HW118815   2.333   0.853  17.223 -1.7878  0.9878  1.1436
 2393SOL    HW218816   2.362   0.950  17.121 -0.5592 -0.0877  0.2012
 2394SOL     OW18817   4.184   0.103   5.008 -0.2589  0.1124 -0.2591
 2394SOL    HW118818   4.219   0.165   5.072  2.5679  0.7145 -2.3696
 2394SOL    HW218819   4.210   0.145   4.926 -0.9435  0.5639 -0.2372
 2395SOL     OW18820   2.671   2.485   1.374  0.4753 -0.3748  0.1893
 2395SOL    HW118821   2.731   2.559   1.379  1.1291 -0.9413  0.7396
 2395SOL    HW218822   2.586   2.519   1.400  0.2148 -1.0630  0.2437
 2396SOL     OW18823   2.711   4.402   1.614  0.2628  0.2974 -0.1415
 2396SOL    HW118824   2.728   4.494   1.599 -0.6895  0.5012  0.0385
 2396SOL    HW218825   2.708   4.381   1.521  0.8835 -0.7694  0.0765
 2397SOL     OW18826   2.990   4.007   7.983  0.3743  0.5330  0.2536
 2397SOL    HW118827   3.034   4.087   7.954  1.5440  0.4066  1.6720
 2397SOL    HW218828   3.019   3.999   8.074  2.0375  0.4860 -0.2760
 2398SOL     OW18829   1.690   0.990   5.445 -0.2580  0.0320  0.0356
 2398SOL    HW118830   1.632   0.923   5.481  2.2839 -1.6120  1.0617
 2398SOL    HW218831   1.688   1.045   5.524 -1.7481 -1.7731  1.2554
 2399SOL     OW18832   0.698   4.468   2.293 -0.2679  0.1147 -0.1170
 2399SOL    HW118833   0.622   4.526   2.289  0.2592  0.7897 -0.3417
 2399SOL    HW218834   0.696   4.428   2.206  0.2455 -1.6170  0.6697
 2400SOL     OW18835   1.140   2.524  10.917  0.7543 -0.4966  0.2339
 2400SOL    HW118836   1.199   2.528  10.992  0.1333 -3.4075  0.9091
 2400SOL    HW218837   1.141   2.617  10.897  0.3523 -0.0333  2.4129
 2401SOL     OW18838   1.889   3.251   9.497 -0.2694 -0.6094  0.3364
 2401SOL    HW118839   1.900   3.315   9.568 -1.0074 -0.6363  0.4756
 2401SOL    HW218840   1.917   3.169   9.538 -0.9696 -0.3512  1.3307
 2402SOL     OW18841   4.468   4.553  14.255  0.3491  0.1171 -0.3077
 2402SOL    HW118842   4.469   4.625  14.192  0.1668 -0.6080 -1.1354
 2402SOL    HW218843   4.391   4.566  14.312  0.9248 -0.0931  0.5228
 2403SOL     OW18844   3.643   2.360  12.306 -0.5566  0.4406 -0.0997
 2403SOL    HW118845   3.575   2.295  12.318 -1.7175  0.8339 -4.5442
 2403SOL    HW218846   3.639   2.376  12.212  0.6935 -0.8032 -0.3691
 2404SOL     OW18847   1.638   1.783   6.661 -0.1859 -0.5488  0.2227
 2404SOL    HW118848   1.733   1.780   6.647  0.0909 -1.0922  2.2022
 2404SOL    HW218849   1.640   1.870   6.702  0.7728  0.6774 -2.4613
 2405SOL     OW18850   3.205   2.755   6.277 -0.1806  0.7972  0.0871
 2405SOL    HW118851   3.237   2.668   6.301 -0.4045  0.1362 -2.0358
 2405SOL    HW218852   3.257   2.775   6.199  1.2700  0.5972  0.9880
 2406SOL     OW18853   2.544   4.175   4.710 -0.2825  0.5344  0.2526
 2406SOL    HW118854   2.457   4.200   4.681 -0.7346 -0.2496  0.9397
 2406SOL    HW218855   2.520   4.105   4.770  1.7254 -1.0890 -0.8247
 2407SOL     OW18856   0.454   1.068   8.880  0.4430 -0.2154  0.2822
 2407SOL    HW118857   0.372   1.019   8.889  1.3293 -1.8951 -0.6688
 2407SOL    HW218858   0.436   1.128   8.952  1.4653  0.1143  0.2742
 2408SOL     OW18859   2.010   1.170   3.049  0.3271 -0.2010  0.1337
 2408SOL    HW118860   2.063   1.090   3.055 -0.4452 -0.7479 -0.3238
 2408SOL    HW218861   1.926   1.131   3.074  0.0527 -0.1872 -0.7785
 2409SOL     OW18862   3.805   4.030   6.061  0.0193 -0.6190  0.5061
 2409SOL    HW118863   3.884   4.081   6.042 -0.8630  0.7329  0.4404
 2409SOL    HW218864   3.758   4.066   6.137 -1.2302  0.8491 -0.9783
 2410SOL     OW18865   1.517   2.972   4.257 -0.0906  0.8755  0.1599
 2410SOL    HW118866   1.487   3.046   4.206 -0.8039  1.3861  1.3088
 2410SOL    HW218867   1.569   3.017   4.324  0.6823 -1.3941  1.1092
 2411SOL     OW18868   1.522   1.923   6.327  0.3277  0.0300 -0.4776
 2411SOL    HW118869   1.607   1.885   6.303 -0.3072 -2.1847  0.6839
 2411SOL    HW218870   1.475   1.920   6.244 -3.8912  2.1540  1.8266
 2412SOL     OW18871   2.723   0.963   5.206  0.2536  0.4200  0.2630
 2412SOL    HW118872   2.631   0.940   5.219  0.0652  2.0121  1.8214
 2412SOL    HW218873   2.743   0.959   5.300 -0.2318 -0.2824  0.3303
 2413SOL     OW18874   1.269   3.693  13.157  0.5224 -0.1535 -0.1303
 2413SOL    HW118875   1.297   3.696  13.248  1.4810  0.2459 -0.4434
 2413SOL    HW218876   1.278   3.783  13.123 -2.7521  0.9236  1.8238
 2414SOL     OW18877   1.833   1.313  13.498 -1.1402  0.1626  0.3890
 2414SOL    HW118878   1.822   1.224  13.532  1.6235  0.2950  1.6175
 2414SOL    HW218879   1.927   1.318  13.481 -1.1963 -0.6130 -0.1282
 2415SOL     OW18880   1.911   3.623   5.566 -0.3587 -0.9648 -0.2271
 2415SOL    HW118881   1.885   3.655   5.652  1.1721 -1.8671  0.5612
 2415SOL    HW218882   1.946   3.537   5.589 -1.3395 -1.7021 -1.4621
 2416SOL     OW18883   4.273   1.148   4.047 -0.1328  0.7901  0.1634
 2416SOL    HW118884   4.190   1.129   4.004  0.5721 -2.2948  0.1770
 2416SOL    HW218885   4.245   1.128   4.137 -3.0945  0.0501 -0.9086
 2417SOL     OW18886   3.317   3.508   2.574  0.3612 -0.3128  0.3005
 2417SOL    HW118887   3.270   3.437   2.617  1.1619 -0.3602  1.1042
 2417SOL    HW218888   3.249   3.573   2.557  0.3257 -0.8591 -1.6860
 2418SOL     OW18889   0.180   3.757   8.407  0.2549 -0.2108 -0.0069
 2418SOL    HW118890   0.246   3.799   8.351  0.9495  0.0235  0.9728
 2418SOL    HW218891   0.110   3.728   8.349 -1.7850 -0.5458  2.6318
 2419SOL     OW18892   1.660   2.771   4.871  0.3483 -0.6969  0.2091
 2419SOL    HW118893   1.618   2.811   4.794  1.0854 -1.1023 -0.4065
 2419SOL    HW218894   1.749   2.804   4.856  0.7746 -1.6496  0.6627
 2420SOL     OW18895   4.347   2.214   1.146  0.8734 -0.3680  0.5149
 2420SOL    HW118896   4.408   2.149   1.181  1.8547 -0.3843 -1.2416
 2420SOL    HW218897   4.298   2.235   1.225 -1.6231 -0.5850 -0.9848
 2421SOL     OW18898   4.587   2.150   5.548  0.4152 -0.5733 -0.5275
 2421SOL    HW118899   4.601   2.166   5.455 -0.6947  2.1380 -0.2313
 2421SOL    HW218900   4.596   2.056   5.564 -1.0005 -0.8921 -1.5540
 2422SOL     OW18901   2.875   0.831   3.244  0.4896  0.4002  0.2843
 2422SOL    HW118902   2.892   0.910   3.296  0.1955  0.4468  0.3150
 2422SOL    HW218903   2.789   0.867   3.219 -0.2852 -2.4405 -1.1107
 2423SOL     OW18904   3.866   3.569   0.696  0.0637 -0.7241 -0.9187
 2423SOL    HW118905   3.944   3.606   0.654 -0.5351  0.2543 -1.1771
 2423SOL    HW218906   3.848   3.642   0.755  0.3021 -0.2284 -1.4575
 2424SOL     OW18907   3.219   4.576   6.157 -0.3123  0.2872 -0.3927
 2424SOL    HW118908   3.171   4.625   6.224 -0.3965 -0.2465 -0.0678
 2424SOL    HW218909   3.297   4.629   6.139  0.5572 -0.7460  0.3377
 2425SOL     OW18910   4.573   2.872   3.269  0.2315 -0.3414 -0.4010
 2425SOL    HW118911   4.502   2.927   3.237 -0.6513  0.6551  3.2855
 2425SOL    HW218912   4.652   2.913   3.233  0.4825  0.3255  0.9000
 2426SOL     OW18913   4.568   3.387  16.911 -0.2022  0.3241 -0.8585
 2426SOL    HW118914   4.557   3.294  16.894 -1.2556 -0.1105  2.2814
 2426SOL    HW218915   4.660   3.404  16.892 -0.1688  1.3581  0.2019
 2427SOL     OW18916   1.369   4.087   6.880 -0.7428  0.1638  0.4349
 2427SOL    HW118917   1.346   4.157   6.941  0.3734  0.9787 -0.0890
 2427SOL    HW218918   1.405   4.024   6.943  0.2928  0.2698 -0.0636
 2428SOL     OW18919   2.989   3.814   7.770  0.2899  0.1638  0.2273
 2428SOL    HW118920   2.921   3.854   7.716 -0.2529  0.7411  1.3520
 2428SOL    HW218921   2.988   3.881   7.838  0.7146  0.0384  0.3588
 2429SOL     OW18922   4.395   2.090   9.068  0.1979 -0.3288 -0.0621
 2429SOL    HW118923   4.333   2.162   9.075  1.6187  0.8127  0.5909
 2429SOL    HW218924   4.355   2.022   9.123  1.4519  0.3520  1.7229
 2430SOL     OW18925   2.791   3.017   0.869  0.5675 -0.3794 -0.6117
 2430SOL    HW118926   2.873   2.976   0.844  0.8626  0.9004 -1.7141
 2430SOL    HW218927   2.728   2.945   0.872  1.7856 -1.4023  0.2140
 2431SOL     OW18928   0.878   1.780   1.447 -0.1535 -0.2005 -0.0910
 2431SOL    HW118929   0.795   1.827   1.454  0.4560  0.8040  0.3564
 2431SOL    HW218930   0.901   1.763   1.539  1.5690 -0.9423 -0.6504
 2432SOL     OW18931   3.704   2.704   7.402  0.2233  0.3134  0.1420
 2432SOL    HW118932   3.696   2.634   7.466 -0.9979  2.0114  1.8081
 2432SOL    HW218933   3.798   2.696   7.386  0.0515  1.1902 -1.4084
 2433SOL     OW18934   4.554   0.448   6.181  0.4070 -0.0213  0.0015
 2433SOL    HW118935   4.564   0.374   6.122  0.0251 -0.2989  0.2862
 2433SOL    HW218936   4.491   0.408   6.242 -1.4771  0.9160 -1.3292
 2434SOL     OW18937   3.809   2.025  15.222  0.4868  0.2632  0.3057
 2434SOL    HW118938   3.733   2.079  15.244 -0.9464 -1.5833 -0.1866
 2434SOL    HW218939   3.763   1.945  15.199  0.1845  0.8201 -1.0750
 2435SOL     OW18940   3.886   4.577   5.433  0.2605 -0.4961 -0.0475
 2435SOL    HW118941   3.793   4.601   5.438  0.3276 -0.2433 -0.0241
 2435SOL    HW218942   3.885   4.492   5.390 -0.7166  0.5796 -2.1270
 2436SOL     OW18943   2.548   2.449   0.429  0.2468  0.7650  0.0202
 2436SOL    HW118944   2.521   2.481   0.515 -2.1493  0.5846 -0.6732
 2436SOL    HW218945   2.463   2.417   0.399 -0.6819  2.9735  0.2852
 2437SOL     OW18946   0.563   3.872   5.248  0.1608 -0.1173  0.1191
 2437SOL    HW118947   0.500   3.895   5.179 -1.9051 -0.6420  1.8425
 2437SOL    HW218948   0.557   3.777   5.243  2.0088 -0.3554  2.8104
 2438SOL     OW18949   3.388   1.873   5.586 -0.4261 -0.4650  0.3578
 2438SOL    HW118950   3.323   1.910   5.526 -0.2229  0.3025  0.6014
 2438SOL    HW218951   3.339   1.901   5.663  1.2636  0.0118  1.2737
 2439SOL     OW18952   2.354   2.590  15.931  0.9158 -0.8051  0.2817
 2439SOL    HW118953   2.437   2.628  15.960  0.3423 -0.8897  2.0270
 2439SOL    HW218954   2.315   2.586  16.018 -0.6804 -1.8704 -0.4940
 2440SOL     OW18955   4.561   4.014  15.323  0.4244 -0.1750 -0.4996
 2440SOL    HW118956   4.466   4.016  15.311  0.3709 -0.5966 -0.1414
 2440SOL    HW218957   4.575   3.950  15.392  1.4279 -1.1019 -1.5533
 2441SOL     OW18958   3.155   2.001   5.476  0.0501 -0.3050  0.0155
 2441SOL    HW118959   3.122   2.086   5.507 -0.4569 -0.9251  1.2108
 2441SOL    HW218960   3.188   2.034   5.393 -3.0110 -1.2779 -1.5723
 2442SOL     OW18961   3.854   1.208   3.438  0.2882  0.5288  0.7070
 2442SOL    HW118962   3.779   1.166   3.480 -1.1117  1.0689 -1.2476
 2442SOL    HW218963   3.843   1.300   3.458 -2.1625  0.1642  1.0537
 2443SOL     OW18964   3.522   0.534   8.750  0.3254 -0.2309 -0.2371
 2443SOL    HW118965   3.520   0.629   8.745  1.1983 -0.1730  0.4935
 2443SOL    HW218966   3.521   0.512   8.657  1.1470  1.5837 -0.6650
 2444SOL     OW18967   1.123   3.706  14.487  0.0807 -0.0697  0.1904
 2444SOL    HW118968   1.108   3.678  14.578 -0.9504  2.2694  0.7514
 2444SOL    HW218969   1.102   3.628  14.436  0.3322 -0.2555  0.3680
 2445SOL     OW18970   1.395   0.483   9.089  0.2111  0.6719  0.1382
 2445SOL    HW118971   1.335   0.463   9.017 -0.7554  3.2525  0.2209
 2445SOL    HW218972   1.345   0.485   9.171 -1.0025  1.5879 -0.6201
 2446SOL     OW18973   3.559   4.058   7.991 -0.3337  0.3101  0.4767
 2446SOL    HW118974   3.612   4.137   8.003  1.0114 -0.7874  1.7906
 2446SOL    HW218975   3.508   4.060   8.071 -0.3407 -1.7236  0.5437
 2447SOL     OW18976   3.010   0.121  14.495 -0.0955 -0.6100  0.2068
 2447SOL    HW118977   3.090   0.090  14.536 -0.9642 -1.1803  1.4622
 2447SOL    HW218978   3.032   0.181  14.424 -1.7151 -0.8174 -0.4842
 2448SOL     OW18979   0.434   0.016   5.756 -0.6553 -0.3836 -0.1126
 2448SOL    HW118980   0.362   0.053   5.808  1.9248  1.3434  2.2057
 2448SOL    HW218981   0.413   0.035   5.664  0.0842 -0.9970 -0.4075
 2449SOL     OW18982   2.797   2.148  10.765 -0.2007  0.1258 -0.3944
 2449SOL    HW118983   2.808   2.240  10.742  0.2337 -0.2963 -1.8413
 2449SOL    HW218984   2.869   2.134  10.826  0.9296  0.7932 -1.6042
 2450SOL     OW18985   0.449   4.091   2.363 -0.3142  0.2633  0.5132
 2450SOL    HW118986   0.486   4.046   2.439 -1.3455 -0.4477  0.5823
 2450SOL    HW218987   0.419   4.014   2.317 -1.5323  1.0448  0.0040
 2451SOL     OW18988   0.965   4.392  11.955 -0.2006  0.4687  0.0373
 2451SOL    HW118989   1.035   4.348  12.002 -2.2574  0.5131  3.1769
 2451SOL    HW218990   0.903   4.319  11.955  1.2765 -0.7696 -1.0486
 2452SOL     OW18991   4.667   2.153  16.958  0.4484  0.3750  0.1590
 2452SOL    HW118992   4.642   2.074  17.006  1.3039  1.6146  2.6219
 2452SOL    HW218993   4.659   2.117  16.869 -0.5251 -0.1070  0.4407
 2453SOL     OW18994   1.091   3.896   7.308  0.3471 -0.3679  0.2741
 2453SOL    HW118995   1.155   3.949   7.356  0.3557 -1.5736  1.5824
 2453SOL    HW218996   1.044   3.846   7.374 -2.3571  0.3704 -1.1086
 2454SOL     OW18997   4.242   2.307  10.142  0.6811 -0.5777 -0.1429
 2454SOL    HW118998   4.243   2.221  10.100  2.7046 -1.0004  0.7953
 2454SOL    HW218999   4.333   2.329  10.162  1.6210 -2.4547 -2.3617
 2455SOL     OW19000   0.922   2.368   5.109 -0.3175 -0.4860 -0.6616
 2455SOL    HW119001   0.956   2.316   5.182  3.2088  0.7901 -1.3957
 2455SOL    HW219002   0.976   2.336   5.037 -1.4105 -0.9043 -1.2875
 2456SOL     OW19003   1.713   1.314   3.209  0.2854  0.9154 -0.3216
 2456SOL    HW119004   1.676   1.385   3.263 -0.5676  0.0600  0.2246
 2456SOL    HW219005   1.741   1.263   3.285  1.1482  0.6175 -0.8356
 2457SOL     OW19006   1.153   1.987  16.193 -0.2263  0.0442 -0.0926
 2457SOL    HW119007   1.164   2.062  16.134  1.8536  1.2592  1.8279
 2457SOL    HW219008   1.220   1.926  16.160 -1.9214 -1.2057 -1.1974
 2458SOL     OW19009   1.582   1.690  13.013  0.0251 -0.3574  0.2186
 2458SOL    HW119010   1.558   1.598  13.025 -2.0317 -0.1526 -2.1630
 2458SOL    HW219011   1.596   1.669  12.921 -0.0533 -1.6494  0.4922
 2459SOL     OW19012   1.028   1.931   6.216 -0.0859 -0.0105 -0.2546
 2459SOL    HW119013   1.118   1.964   6.213  0.1991 -0.8959 -1.4809
 2459SOL    HW219014   0.987   2.007   6.256 -1.9566 -1.5617  0.7716
 2460SOL     OW19015   1.577   1.311   2.338  0.0634  0.1140 -0.6602
 2460SOL    HW119016   1.541   1.290   2.252  0.1301  0.5920 -0.8046
 2460SOL    HW219017   1.500   1.319   2.394 -0.8501 -0.1273 -1.9016
 2461SOL     OW19018   0.435   0.560   3.611  0.1082  0.0379 -0.3402
 2461SOL    HW119019   0.390   0.638   3.578 -1.4267 -1.0939 -0.9043
 2461SOL    HW219020   0.487   0.536   3.535  0.9207  1.3122 -0.1781
 2462SOL     OW19021   1.035   0.059   2.925 -0.2166  0.2763  0.1505
 2462SOL    HW119022   1.096   0.067   2.999  0.1826  2.5655 -0.4378
 2462SOL    HW219023   1.051   4.703   2.899  2.4454  1.0730 -0.9833
 2463SOL     OW19024   4.287   1.294   3.820 -0.6430  0.1071  0.3998
 2463SOL    HW119025   4.292   1.229   3.891  1.7259  0.4949  0.5872
 2463SOL    HW219026   4.262   1.375   3.865  0.3147 -0.0297  1.2027
 2464SOL     OW19027   4.675   2.712   9.548 -0.5487  0.5033  0.1069
 2464SOL    HW119028   0.017   2.768   9.537  1.5735 -2.2542  0.9244
 2464SOL    HW219029   4.690   2.687   9.639 -0.8181 -1.3183 -0.3569
 2465SOL     OW19030   0.661   4.646   5.645 -0.7048 -0.1034  0.0150
 2465SOL    HW119031   0.595   4.587   5.608  0.5474 -0.9349 -0.8700
 2465SOL    HW219032   0.600   4.709   5.683  0.7238 -0.2531  2.5777
 2466SOL     OW19033   1.621   1.286   3.657  0.2373  0.0932  0.3333
 2466SOL    HW119034   1.655   1.302   3.745  1.3511  1.2195 -0.3127
 2466SOL    HW219035   1.532   1.320   3.663  0.0350 -0.5432  0.9361
 2467SOL     OW19036   0.847   3.834   1.577 -0.3288 -0.5842  0.3593
 2467SOL    HW119037   0.782   3.777   1.537 -1.7188  0.3855  1.2471
 2467SOL    HW219038   0.804   3.917   1.557  0.9745 -0.0793 -0.3839
 2468SOL     OW19039   3.467   3.686   6.297 -0.4908 -0.5874 -0.2962
 2468SOL    HW119040   3.472   3.597   6.332 -0.5358 -0.8933 -1.0801
 2468SOL    HW219041   3.555   3.716   6.318 -1.6838  2.6983 -0.0066
 2469SOL     OW19042   3.145   0.760   3.865  0.2666  0.0489 -0.7512
 2469SOL    HW119043   3.215   0.702   3.895 -0.5768 -0.8925 -0.5984
 2469SOL    HW219044   3.142   0.738   3.772  1.0486  1.1319 -1.0224
 2470SOL     OW19045   4.109   4.316   7.294  0.2351 -0.8408  0.1925
 2470SOL    HW119046   4.092   4.368   7.373 -0.6993  0.3785 -0.8331
 2470SOL    HW219047   4.113   4.390   7.234  2.5908 -0.7222  0.4850
 2471SOL     OW19048   4.416   4.717   9.050  0.7852 -0.2069 -0.3424
 2471SOL    HW119049   4.464   0.062   9.071  1.0197 -0.3066 -0.4986
 2471SOL    HW219050   4.486   4.671   9.004 -0.6712 -1.9113 -0.8313
 2472SOL     OW19051   0.504   2.649   7.452  0.7717  0.2492 -0.4622
 2472SOL    HW119052   0.548   2.613   7.375 -2.8346 -0.7898 -2.0465
 2472SOL    HW219053   0.571   2.711   7.479 -0.0521  0.8892  0.0993
 2473SOL     OW19054   3.867   2.808   8.753  0.4149 -0.1819  0.5457
 2473SOL    HW119055   3.864   2.734   8.692 -0.6659  0.3163 -0.0053
 2473SOL    HW219056   3.776   2.815   8.784  0.2794 -0.6436  0.2584
 2474SOL     OW19057   0.589   2.095   1.808 -0.2483 -0.4738  0.3371
 2474SOL    HW119058   0.502   2.069   1.776  1.1809 -1.8149 -2.4438
 2474SOL    HW219059   0.640   2.069   1.732 -1.5147 -0.7540 -0.4211
 2475SOL     OW19060   2.153   4.360   8.607  0.0634 -0.0741  0.3729
 2475SOL    HW119061   2.065   4.323   8.602  0.1217 -0.4599  1.9929
 2475SOL    HW219062   2.163   4.410   8.527 -1.5224  0.3031  0.4101
 2476SOL     OW19063   3.849   4.554   6.675  0.1489 -0.1203  0.0530
 2476SOL    HW119064   3.770   4.502   6.691  0.3990 -0.1147  1.2699
 2476SOL    HW219065   3.863   4.592   6.761  0.2865 -3.1722  1.3769
 2477SOL     OW19066   4.283   4.331   6.769 -0.2138  0.5013 -0.3458
 2477SOL    HW119067   4.217   4.400   6.774 -1.5748 -0.8362  0.3016
 2477SOL    HW219068   4.265   4.268   6.838  0.1717 -0.1917 -0.8776
 2478SOL     OW19069   4.031   3.748   2.246  0.0039  0.0753 -0.2085
 2478SOL    HW119070   4.029   3.836   2.208 -1.5747 -0.3581 -1.1456
 2478SOL    HW219071   3.939   3.721   2.252  0.2695  0.1920  4.6557
 2479SOL     OW19072   2.931   2.863   3.470 -0.0253  0.1039  0.3257
 2479SOL    HW119073   3.010   2.836   3.424 -0.4115 -0.1350 -0.1894
 2479SOL    HW219074   2.958   2.848   3.561 -1.9498  0.7747  1.0181
 2480SOL     OW19075   0.083   4.206   3.492  0.3923  0.2466 -0.3010
 2480SOL    HW119076   0.105   4.237   3.580  0.2390  1.7268 -0.7815
 2480SOL    HW219077   4.727   4.233   3.485  0.1936 -0.3822 -0.1209
 2481SOL     OW19078   3.617   1.510  17.723 -0.1472 -0.1155 -0.5614
 2481SOL    HW119079   3.709   1.536  17.725 -0.1829  0.1445 -2.5227
 2481SOL    HW219080   3.613   1.481  17.632  2.0798  1.3842 -1.1511
 2482SOL     OW19081   1.618   0.746   6.784  0.0293 -0.6069  0.2256
 2482SOL    HW119082   1.529   0.757   6.818 -0.1881 -2.3999  0.2124
 2482SOL    HW219083   1.675   0.780   6.853  0.8659  0.3500 -0.9397
 2483SOL     OW19084   0.401   4.038   8.520 -0.0557 -0.9701 -0.2652
 2483SOL    HW119085   0.472   3.977   8.497  0.5460 -0.2108 -0.4129
 2483SOL    HW219086   0.338   3.980   8.562  0.4751 -1.8182 -0.6259
 2484SOL     OW19087   3.915   3.945  17.453  0.6118  0.0825  0.5320
 2484SOL    HW119088   3.985   3.953  17.517  0.2823 -0.3864  0.9495
 2484SOL    HW219089   3.880   3.862  17.487 -1.2739  1.0357  0.8933
 2485SOL     OW19090   2.841   0.627   1.879  0.1097 -0.2111  0.5839
 2485SOL    HW119091   2.874   0.644   1.791 -1.6327 -2.1209 -0.4493
 2485SOL    HW219092   2.816   0.713   1.912  1.5886  0.2287  0.5422
 2486SOL     OW19093   4.111   4.549   6.870 -0.2023  0.7023  0.1401
 2486SOL    HW119094   4.081   4.619   6.928  1.7789  2.1175 -0.5797
 2486SOL    HW219095   4.103   4.586   6.783  1.8719 -1.0924 -0.7915
 2487SOL     OW19096   0.220   3.218  12.367 -0.4837  0.7025  0.4446
 2487SOL    HW119097   0.245   3.187  12.280  1.3694 -0.4761  1.3835
 2487SOL    HW219098   0.298   3.196  12.418  0.0005 -0.7065 -0.8907
 2488SOL     OW19099   4.275   2.822   3.061 -0.6579 -0.5452  0.6124
 2488SOL    HW119100   4.200   2.833   3.119 -0.9787  0.0581  0.0887
 2488SOL    HW219101   4.243   2.752   3.003 -0.0099 -0.3995  0.0769
 2489SOL     OW19102   1.083   1.390   1.941 -0.0372 -0.4309 -0.0389
 2489SOL    HW119103   1.170   1.430   1.953 -0.5940  1.5583 -2.5232
 2489SOL    HW219104   1.066   1.352   2.027 -1.0024 -0.6238 -0.3271
 2490SOL     OW19105   1.615   2.783   3.469 -0.2830  0.2636  0.3780
 2490SOL    HW119106   1.628   2.689   3.474  0.4021  0.4347  1.9146
 2490SOL    HW219107   1.707   2.807   3.476  0.1335 -0.9634 -1.0205
 2491SOL     OW19108   1.022   2.566   2.125  0.2268 -0.3384 -0.0840
 2491SOL    HW119109   1.008   2.473   2.106  0.7519 -0.5239  0.4216
 2491SOL    HW219110   0.954   2.574   2.192 -0.9474 -1.7582 -1.0956
 2492SOL     OW19111   3.427   1.574   4.581 -0.3936 -0.4111 -0.0145
 2492SOL    HW119112   3.376   1.635   4.634  1.8311  0.2609  1.3342
 2492SOL    HW219113   3.439   1.514   4.655 -0.9793  1.3561  1.5218
 2493SOL     OW19114   3.053   1.447  11.505 -0.1787  0.1203  0.0091
 2493SOL    HW119115   2.981   1.494  11.547 -2.0559 -2.8702  0.0872
 2493SOL    HW219116   3.100   1.406  11.578 -1.4893  0.1857  0.8872
 2494SOL     OW19117   1.922   4.159  12.375 -0.7582  0.6830 -0.1323
 2494SOL    HW119118   2.003   4.183  12.331 -1.0492  2.2468  0.1873
 2494SOL    HW219119   1.946   4.076  12.417  0.3330  0.8800 -0.3554
 2495SOL     OW19120   2.203   2.477   6.990  0.0897  0.3868  0.2526
 2495SOL    HW119121   2.179   2.386   7.010 -1.6034  0.9291  0.6188
 2495SOL    HW219122   2.217   2.513   7.078  1.3473 -0.3208  0.3442
 2496SOL     OW19123   0.889   0.725   2.715 -0.2240  0.1544  0.0634
 2496SOL    HW119124   0.973   0.686   2.692 -1.5811 -0.2743 -4.2352
 2496SOL    HW219125   0.832   0.652   2.691 -2.6991  2.2944 -0.5258
 2497SOL     OW19126   0.918   4.535   6.550  0.2793  0.2714  0.6158
 2497SOL    HW119127   0.981   4.606   6.538  0.1782 -0.0072 -1.6864
 2497SOL    HW219128   0.981   4.468   6.523  2.0260  2.3964 -0.5701
 2498SOL     OW19129   3.173   0.593   7.419 -0.1337 -0.0216  0.6002
 2498SOL    HW119130   3.190   0.511   7.464  0.0948 -1.0535 -1.3692
 2498SOL    HW219131   3.216   0.655   7.477  0.7379 -0.1883  0.1332
 2499SOL     OW19132   2.145   2.688   3.284  0.6655  0.0472  0.0433
 2499SOL    HW119133   2.188   2.633   3.219  0.0499  0.4773 -0.7454
 2499SOL    HW219134   2.068   2.710   3.231  2.4169 -0.2593 -2.6679
 2500SOL     OW19135   2.047   1.292   4.575  0.4325 -0.9880 -0.5247
 2500SOL    HW119136   2.072   1.368   4.522  1.4832  1.0299  2.9203
 2500SOL    HW219137   2.016   1.336   4.654  2.5858  0.7190 -0.6367
 2501SOL     OW19138   2.297   2.227   2.028  0.3761  0.2330  0.2132
 2501SOL    HW119139   2.276   2.250   2.118  1.9563 -0.4706  0.7640
 2501SOL    HW219140   2.228   2.162   2.010 -1.0863  1.7257  0.4834
 2502SOL     OW19141   1.274   4.017   9.086  0.6052  0.6620 -0.0088
 2502SOL    HW119142   1.275   3.957   9.011 -1.3189  1.6250 -0.7963
 2502SOL    HW219143   1.288   3.953   9.156  0.5990  1.6173  0.8549
 2503SOL     OW19144   2.641   4.395  17.230 -0.0574  0.5420 -0.3125
 2503SOL    HW119145   2.628   4.461  17.162 -0.5194 -0.6723 -1.3935
 2503SOL    HW219146   2.665   4.317  17.181  0.6826  0.7474 -0.2805
 2504SOL     OW19147   0.441   4.458   1.735  0.0425 -0.0486  0.4343
 2504SOL    HW119148   0.410   4.442   1.824  0.7845  1.2226  0.9185
 2504SOL    HW219149   0.525   4.502   1.747  0.1780  0.3355 -1.8580
 2505SOL     OW19150   4.024   1.930   2.751 -0.4864 -0.5438  0.2009
 2505SOL    HW119151   4.048   1.975   2.832 -0.3278  3.1896 -1.9567
 2505SOL    HW219152   4.075   1.848   2.757  2.2324  1.4364  4.2347
 2506SOL     OW19153   2.463   3.290   3.101  0.4534  0.6432  0.3520
 2506SOL    HW119154   2.392   3.344   3.066 -2.3921 -1.8776  2.1970
 2506SOL    HW219155   2.541   3.300   3.047  1.3658 -0.1906  1.5296
 2507SOL     OW19156   3.948   0.312  16.019 -0.4049 -0.2257 -0.0025
 2507SOL    HW119157   3.965   0.308  15.925 -1.3635 -0.9663 -0.1526
 2507SOL    HW219158   3.989   0.396  16.039  0.0976 -0.7962  1.3376
 2508SOL     OW19159   0.397   2.628   3.136 -0.0904  0.8023  0.6825
 2508SOL    HW119160   0.308   2.593   3.127  0.2537  0.0577  0.2370
 2508SOL    HW219161   0.384   2.703   3.194  0.9493  1.0348  0.6088
 2509SOL     OW19162   1.971   0.415   5.885  0.8020 -0.5231  0.7554
 2509SOL    HW119163   2.020   0.339   5.854  2.5061  1.1391 -0.6428
 2509SOL    HW219164   1.951   0.457   5.801  2.6230  1.8290  1.4714
 2510SOL     OW19165   2.884   1.522  11.798 -0.5145 -0.0848  0.3393
 2510SOL    HW119166   2.865   1.514  11.891  0.6810  0.0647  0.5882
 2510SOL    HW219167   2.843   1.447  11.754 -1.2257  2.0456 -2.6788
 2511SOL     OW19168   1.760   2.879   3.725 -0.0218  0.1240 -0.1326
 2511SOL    HW119169   1.676   2.835   3.710 -1.0172  1.7307  0.6308
 2511SOL    HW219170   1.724   2.950   3.779 -0.3369  1.0632 -1.5858
 2512SOL     OW19171   1.437   2.699   1.892 -0.0050  0.5222  0.0613
 2512SOL    HW119172   1.403   2.610   1.886 -1.6462  1.1599 -0.1804
 2512SOL    HW219173   1.360   2.752   1.913 -0.4377 -0.7544  1.6524
 2513SOL     OW19174   4.608   3.284   0.311 -0.2454  0.3756  0.2796
 2513SOL    HW119175   4.687   3.236   0.337 -1.3423 -1.1300  0.8449
 2513SOL    HW219176   4.595   3.339   0.389  0.4204  2.3565 -1.0221
 2514SOL     OW19177   2.251   1.056   6.443  0.1081  0.0923 -0.0278
 2514SOL    HW119178   2.165   1.091   6.421  0.3985  1.3465  0.8029
 2514SOL    HW219179   2.282   1.009   6.365 -0.0581 -2.7899  1.6606
 2515SOL     OW19180   3.682   4.368  17.731 -0.1933 -0.4719 -0.1320
 2515SOL    HW119181   3.645   4.405  17.651  1.7660 -0.3575 -0.9965
 2515SOL    HW219182   3.749   4.311  17.693 -1.4372 -0.8646 -1.7062
 2516SOL     OW19183   1.344   3.253   7.475  0.0138 -0.2266  0.2104
 2516SOL    HW119184   1.273   3.256   7.411 -0.1617 -2.4285  0.2945
 2516SOL    HW219185   1.416   3.272   7.414 -1.1622  0.1961 -1.0327
 2517SOL     OW19186   4.270   3.903   5.162 -0.7315 -0.0085  0.1661
 2517SOL    HW119187   4.267   3.917   5.257 -0.0239 -1.6038  0.4284
 2517SOL    HW219188   4.180   3.914   5.130 -0.4790 -1.1396 -0.9206
 2518SOL     OW19189   2.694   3.109   5.629  0.2172  0.4514  0.4743
 2518SOL    HW119190   2.702   3.146   5.717  0.6620  0.8522  0.2675
 2518SOL    HW219191   2.737   3.027   5.652  0.7297  0.5556 -0.0981
 2519SOL     OW19192   3.773   1.653   6.249 -0.1996 -0.7427 -0.2930
 2519SOL    HW119193   3.786   1.743   6.279  0.5225 -1.7271  2.3442
 2519SOL    HW219194   3.752   1.650   6.156 -5.2636 -2.4331  0.9197
 2520SOL     OW19195   0.563   1.105   2.705  0.1216  0.4586 -0.4303
 2520SOL    HW119196   0.647   1.076   2.741 -0.2504 -0.4658 -0.3090
 2520SOL    HW219197   0.544   1.046   2.632 -1.5429 -0.5281  0.7951
 2521SOL     OW19198   0.660   2.289   3.693 -0.2018  0.5305 -0.0659
 2521SOL    HW119199   0.726   2.322   3.632 -0.1739 -0.3558 -0.5147
 2521SOL    HW219200   0.642   2.205   3.650  1.8874 -0.4911  1.0283
 2522SOL     OW19201   2.760   3.646   0.061 -0.3335  0.1391 -0.2487
 2522SOL    HW119202   2.758   3.554   0.034 -2.0827 -0.3079  1.4561
 2522SOL    HW219203   2.786   3.688  17.719 -0.0451 -0.7681 -0.6278
 2523SOL     OW19204   0.907   3.866   3.131 -0.2709 -0.0763  0.5348
 2523SOL    HW119205   0.827   3.887   3.179  0.3716  3.3157  0.1337
 2523SOL    HW219206   0.918   3.775   3.158 -0.4702  0.4958  2.5357
 2524SOL     OW19207   2.197   3.838   1.890 -0.3438 -0.0399  0.1170
 2524SOL    HW119208   2.207   3.925   1.851  0.6056 -0.2168 -0.0554
 2524SOL    HW219209   2.286   3.804   1.878 -0.6176  0.4461 -3.3315
 2525SOL     OW19210   2.578   0.008   4.434  0.5319 -0.4194  0.2293
 2525SOL    HW119211   2.555   4.666   4.487  0.0565 -0.5964 -0.2322
 2525SOL    HW219212   2.509   0.071   4.455  2.0430  1.7894 -1.4910
 2526SOL     OW19213   0.221   1.589   1.589  0.1601  0.5537  0.2002
 2526SOL    HW119214   0.304   1.635   1.597  0.9814 -0.5077 -2.0990
 2526SOL    HW219215   0.165   1.663   1.563 -1.4838 -1.0161 -0.7669
 2527SOL     OW19216   1.433   3.116   4.667 -0.5174  0.3205 -0.4421
 2527SOL    HW119217   1.507   3.090   4.611  2.0970 -0.8777  3.5553
 2527SOL    HW219218   1.487   3.112   4.746 -1.7981 -1.9932  0.3136
 2528SOL     OW19219   0.684   3.704   2.387 -0.2034  0.1962 -0.3187
 2528SOL    HW119220   0.755   3.645   2.414 -1.6268 -0.8523  1.1125
 2528SOL    HW219221   0.713   3.788   2.424 -1.4021  1.5306 -2.4068
 2529SOL     OW19222   1.505   3.366   0.073 -0.4957 -0.5299  0.0104
 2529SOL    HW119223   1.546   3.423   0.138 -1.4121  0.9230 -0.6868
 2529SOL    HW219224   1.498   3.429   0.001 -3.3021 -1.1370 -0.2225
 2530SOL     OW19225   3.394   1.449  14.867 -0.0262 -0.3353  0.3297
 2530SOL    HW119226   3.338   1.527  14.875 -1.9191 -1.6307 -0.2892
 2530SOL    HW219227   3.338   1.379  14.833 -1.4202  0.8690  0.1255
 2531SOL     OW19228   0.644   2.227   5.804  0.1391 -0.5705 -0.4313
 2531SOL    HW119229   0.587   2.198   5.875 -0.5288 -0.1941 -0.8070
 2531SOL    HW219230   0.594   2.298   5.764  1.8261  0.5391 -0.5750
 2532SOL     OW19231   1.157   1.428   8.716 -0.1868  0.2693 -0.0624
 2532SOL    HW119232   1.210   1.395   8.788 -0.8127  1.4642  0.9451
 2532SOL    HW219233   1.074   1.400   8.753 -0.3791 -0.4022 -1.0002
 2533SOL     OW19234   2.740   1.441  16.992  0.6589 -0.3307  0.0977
 2533SOL    HW119235   2.790   1.380  16.938  0.8096 -0.0020 -0.1366
 2533SOL    HW219236   2.724   1.518  16.937  0.0592  1.8374  3.2574
 2534SOL     OW19237   1.390   4.711   9.174  0.0900  0.3565  0.2166
 2534SOL    HW119238   1.355   4.624   9.192 -0.4318  0.6495  0.6160
 2534SOL    HW219239   1.446   4.677   9.104 -0.2253  1.9887 -0.8218
 2535SOL     OW19240   4.195   0.373  13.931 -0.4919  0.6868  0.2990
 2535SOL    HW119241   4.242   0.382  13.848  1.9339  0.5293  1.6318
 2535SOL    HW219242   4.132   0.312  13.893  1.8817 -0.3557 -1.9524
 2536SOL     OW19243   3.465   1.561   7.382  0.0074 -0.5600 -0.7510
 2536SOL    HW119244   3.371   1.563   7.400  0.6955 -1.3921  2.9332
 2536SOL    HW219245   3.509   1.499   7.440  1.2460 -1.1190 -2.2837
 2537SOL     OW19246   3.782   2.738   4.934 -0.5032 -0.1767  0.1021
 2537SOL    HW119247   3.751   2.819   4.894  0.8635 -0.4305 -1.4870
 2537SOL    HW219248   3.863   2.773   4.970  1.1066 -2.4712 -1.2096
 2538SOL     OW19249   0.850   2.545  15.210 -0.6200  0.4207  0.3620
 2538SOL    HW119250   0.772   2.518  15.162  1.5101  0.6206 -3.2359
 2538SOL    HW219251   0.914   2.482  15.174 -0.0581  0.2902  1.6115
 2539SOL     OW19252   2.187   3.231   8.782 -0.2596 -0.0194  0.0508
 2539SOL    HW119253   2.161   3.234   8.874  0.7100  0.6909  0.3024
 2539SOL    HW219254   2.131   3.159   8.754 -1.8240  0.6891  1.3838
 2540SOL     OW19255   2.361   0.899   1.603  0.4969 -0.1359  0.5892
 2540SOL    HW119256   2.397   0.821   1.646 -0.0885 -0.4563  0.4968
 2540SOL    HW219257   2.418   0.892   1.526  0.8944  2.3814  0.6676
 2541SOL     OW19258   1.343   1.219  16.937 -0.1396  0.1773 -0.2335
 2541SOL    HW119259   1.411   1.222  16.870  0.6957  0.2327  0.6250
 2541SOL    HW219260   1.403   1.251  17.004 -1.1966  2.9377 -0.5965
 2542SOL     OW19261   1.850   0.152  12.329 -0.4650 -0.0441  0.1857
 2542SOL    HW119262   1.870   0.175  12.420  0.0836  0.6930 -0.1253
 2542SOL    HW219263   1.923   0.091  12.315 -1.9861 -1.6352 -0.8423
 2543SOL     OW19264   3.535   2.207   7.604  1.4580 -0.0576  0.3822
 2543SOL    HW119265   3.499   2.278   7.658 -0.4003 -0.7129 -0.0023
 2543SOL    HW219266   3.545   2.263   7.527 -0.7729  0.0716  0.1722
 2544SOL     OW19267   0.690   2.275   2.775  0.4191 -0.2182 -0.4412
 2544SOL    HW119268   0.657   2.227   2.851  1.5001 -1.1087 -0.5445
 2544SOL    HW219269   0.656   2.215   2.708 -0.3636 -0.6243  0.3162
 2545SOL     OW19270   1.205   2.296  10.800 -0.0784 -0.5767  0.2874
 2545SOL    HW119271   1.189   2.373  10.855  1.0650 -0.5447  0.5732
 2545SOL    HW219272   1.284   2.258  10.840 -0.4059 -0.1256  1.3813
 2546SOL     OW19273   1.712   0.795   6.200  0.4276  0.5089 -0.3511
 2546SOL    HW119274   1.731   0.701   6.200 -2.2333 -0.0294  1.0510
 2546SOL    HW219275   1.619   0.785   6.220  0.5606  1.4265  0.7751
 2547SOL     OW19276   1.775   4.293   7.724  0.3384  0.1218  0.4105
 2547SOL    HW119277   1.746   4.254   7.806  1.4951 -2.8614 -0.5782
 2547SOL    HW219278   1.866   4.318   7.739  0.7078  0.0085 -1.5466
 2548SOL     OW19279   0.515   1.191   9.144  0.1913 -0.4738 -0.1108
 2548SOL    HW119280   0.496   1.256   9.212  2.8171  0.9787 -0.7476
 2548SOL    HW219281   0.604   1.221   9.123  0.7305 -2.6669 -0.8912
 2549SOL     OW19282   1.928   2.841  15.271 -0.5172  0.1918  0.2242
 2549SOL    HW119283   1.952   2.808  15.357 -0.0349  1.2096  0.4870
 2549SOL    HW219284   1.917   2.771  15.207  0.2078 -0.9774  1.3717
 2550SOL     OW19285   2.487   1.564   3.517  0.5559  0.4267  0.7173
 2550SOL    HW119286   2.449   1.495   3.573 -1.0317  0.0552 -0.8143
 2550SOL    HW219287   2.461   1.647   3.559  0.2588 -0.5014  2.3945
 2551SOL     OW19288   0.332   3.232   8.966  0.1466  0.3804 -0.3446
 2551SOL    HW119289   0.370   3.179   8.895  0.2423  1.0064 -0.7619
 2551SOL    HW219290   0.243   3.247   8.936  0.4479  0.6722 -1.0968
 2552SOL     OW19291   3.940   0.391  16.545  0.7026 -0.3356 -0.0831
 2552SOL    HW119292   4.003   0.332  16.502  1.6781 -0.3338  1.3546
 2552SOL    HW219293   3.873   0.325  16.563  1.0004 -0.7876 -0.6183
 2553SOL     OW19294   2.393   1.641   8.970  0.4410 -0.2573 -0.6249
 2553SOL    HW119295   2.439   1.652   9.053 -1.3247  2.3961  0.0130
 2553SOL    HW219296   2.423   1.720   8.925  1.8761  1.1024  2.7393
 2554SOL     OW19297   3.195   0.564   8.342 -0.4325  0.7084  0.1317
 2554SOL    HW119298   3.114   0.512   8.343  0.0214 -0.0331 -1.3060
 2554SOL    HW219299   3.180   0.618   8.419  0.3204  2.6535 -1.0993
 2555SOL     OW19300   1.388   2.506   3.719  0.8870  0.3060 -0.3854
 2555SOL    HW119301   1.429   2.420   3.729  1.0854  0.3209 -1.0108
 2555SOL    HW219302   1.363   2.497   3.627  1.6677 -2.3337 -0.3453
 2556SOL     OW19303   4.216   3.442   5.219 -1.1050 -0.0491 -0.1213
 2556SOL    HW119304   4.213   3.446   5.124 -0.0683 -1.4453 -0.2133
 2556SOL    HW219305   4.140   3.490   5.254 -1.4726 -1.7961  1.5162
 2557SOL     OW19306   4.168   4.012   1.970  0.2564 -0.0652  0.1228
 2557SOL    HW119307   4.223   3.937   1.948  1.8317  0.7057  1.4885
 2557SOL    HW219308   4.188   4.009   2.063  1.4805  0.8237 -0.1138
 2558SOL     OW19309   2.753   2.804   2.479 -0.6569  0.5511 -0.6200
 2558SOL    HW119310   2.811   2.761   2.542  1.2167  1.1799 -1.9123
 2558SOL    HW219311   2.738   2.725   2.427  1.2406  0.7512 -1.4696
 2559SOL     OW19312   3.832   0.792   4.769 -0.1991 -0.7233  0.2400
 2559SOL    HW119313   3.826   0.781   4.674 -1.3948 -0.7968  0.3297
 2559SOL    HW219314   3.924   0.779   4.791  0.2038 -0.0165 -1.0371
 2560SOL     OW19315   4.212   4.030  14.811 -0.5551 -0.3058  0.3620
 2560SOL    HW119316   4.142   3.982  14.855 -1.3278 -1.7831 -2.5134
 2560SOL    HW219317   4.167   4.037  14.727  0.6250  2.0089 -0.0623
 2561SOL     OW19318   0.828   1.525   1.191  0.4800 -0.1017 -0.0120
 2561SOL    HW119319   0.747   1.565   1.223  0.7749 -0.4309  1.1467
 2561SOL    HW219320   0.868   1.518   1.277 -0.2998 -1.2424  0.2514
 2562SOL     OW19321   4.648   1.687   4.092  0.0868  0.2474  0.6136
 2562SOL    HW119322   4.553   1.683   4.081 -0.1068 -2.0253  3.1589
 2562SOL    HW219323   4.683   1.708   4.005  0.3406 -0.2281  0.6045
 2563SOL     OW19324   1.769   4.224   4.190  0.1244 -0.0055  0.2049
 2563SOL    HW119325   1.691   4.273   4.164  2.0933  2.5958 -0.7739
 2563SOL    HW219326   1.754   4.217   4.284  0.4997  0.6310  0.3139
 2564SOL     OW19327   0.489   2.452  12.932 -0.0503 -0.7140 -0.5538
 2564SOL    HW119328   0.534   2.520  12.983 -1.2252 -0.0171 -0.4643
 2564SOL    HW219329   0.443   2.508  12.869  0.5458 -1.0257 -1.2800
 2565SOL     OW19330   1.068   3.931   7.856  0.2973 -0.2158  0.1955
 2565SOL    HW119331   1.135   3.873   7.820 -1.2242 -0.0879 -2.8313
 2565SOL    HW219332   1.046   3.888   7.939 -2.4927  0.7837 -0.0053
 2566SOL     OW19333   4.008   1.935   3.471  0.2279 -0.3739 -0.0350
 2566SOL    HW119334   4.103   1.927   3.483  0.1724 -0.6372  0.2395
 2566SOL    HW219335   4.005   1.951   3.377 -0.3365 -0.8702 -0.1010
 2567SOL     OW19336   1.514   4.209   6.706 -0.1902 -0.4298  0.3310
 2567SOL    HW119337   1.449   4.159   6.756 -3.0926  1.2390 -1.7529
 2567SOL    HW219338   1.533   4.272   6.776  1.8742 -1.0119  0.2755
 2568SOL     OW19339   3.666   3.041   8.598  0.0842 -0.1784  0.2542
 2568SOL    HW119340   3.746   3.065   8.552 -1.4413  1.8395 -1.3045
 2568SOL    HW219341   3.671   3.099   8.674 -2.3873  0.0000  0.2719
 2569SOL     OW19342   3.483   1.846  14.420 -0.4268 -0.4265  0.0185
 2569SOL    HW119343   3.395   1.875  14.397 -0.4629 -0.8969 -0.4330
 2569SOL    HW219344   3.478   1.852  14.516 -1.5094 -0.9633 -0.0071
 2570SOL     OW19345   3.988   3.000   6.735  0.0253 -0.0329 -0.0041
 2570SOL    HW119346   4.062   2.949   6.770  0.1671  2.3744  3.2672
 2570SOL    HW219347   3.998   3.090   6.768 -0.3911  0.4109 -1.0941
 2571SOL     OW19348   2.025   2.798   3.639 -0.1416  0.1717 -0.0533
 2571SOL    HW119349   1.950   2.836   3.686  0.9565  0.5792  1.3801
 2571SOL    HW219350   2.038   2.713   3.681  1.3899 -0.5970 -2.0872
 2572SOL     OW19351   3.990   0.313   7.633 -0.0599  0.2973 -0.2081
 2572SOL    HW119352   4.023   0.397   7.601 -0.1873 -0.1453 -1.5219
 2572SOL    HW219353   4.067   0.268   7.668 -1.2750 -2.2607 -0.8288
 2573SOL     OW19354   0.199   3.615   5.030 -0.2641 -0.1364 -0.3682
 2573SOL    HW119355   0.161   3.528   5.025 -1.9344  0.5052  1.1819
 2573SOL    HW219356   0.125   3.654   5.078 -0.2632  2.3931 -2.4128
 2574SOL     OW19357   1.159   1.846  14.012  0.0137  0.3120 -0.2730
 2574SOL    HW119358   1.206   1.854  13.929  1.5271 -0.3052  0.5227
 2574SOL    HW219359   1.226   1.831  14.079 -2.5602 -4.4218  1.1961
 2575SOL     OW19360   0.430   3.789  16.477  0.0100  0.1350  0.0661
 2575SOL    HW119361   0.363   3.721  16.473  0.5393 -0.3707 -0.2108
 2575SOL    HW219362   0.491   3.757  16.410 -0.8346  0.4972 -0.8703
 2576SOL     OW19363   2.850   0.875   0.202  0.3294 -0.0811  0.0165
 2576SOL    HW119364   2.915   0.806   0.192  0.3028 -0.3779  2.0577
 2576SOL    HW219365   2.905   0.953   0.194 -2.1491  1.6968  0.2789
 2577SOL     OW19366   0.698   2.259   0.835 -0.1795  0.9983  0.1095
 2577SOL    HW119367   0.793   2.263   0.850  0.2733  1.1669 -2.8411
 2577SOL    HW219368   0.691   2.283   0.743 -0.6731 -0.0848 -0.1359
 2578SOL     OW19369   1.842   1.448  16.161  0.1327 -0.3611  0.2817
 2578SOL    HW119370   1.818   1.539  16.140 -0.9679  0.0705  3.4616
 2578SOL    HW219371   1.876   1.434  16.073  0.7631  1.9789  0.1505
 2579SOL     OW19372   4.047   2.331   2.103  0.4480 -0.0692  0.4215
 2579SOL    HW119373   4.123   2.342   2.045 -1.0760  0.0561 -1.5268
 2579SOL    HW219374   4.087   2.291   2.181 -0.9964  0.1774  1.2823
 2580SOL     OW19375   1.979   3.451   4.670 -0.6949  0.2716  0.4502
 2580SOL    HW119376   1.887   3.426   4.677 -0.8107  0.0770 -1.6844
 2580SOL    HW219377   2.015   3.379   4.721  1.4467  0.7258 -0.3831
 2581SOL     OW19378   0.317   4.244   9.424  0.3457 -0.0655 -0.1850
 2581SOL    HW119379   0.321   4.299   9.346  0.8149  1.2073  0.7330
 2581SOL    HW219380   0.338   4.313   9.487  1.8035  0.2909 -1.0736
 2582SOL     OW19381   2.220   4.223   7.901  0.1008  0.0804  0.5612
 2582SOL    HW119382   2.147   4.162   7.889 -0.3252  0.2861  2.1321
 2582SOL    HW219383   2.209   4.275   7.821  1.4208 -0.3874  0.0691
 2583SOL     OW19384   0.897   0.893   1.696 -0.0171 -0.8606 -0.5034
 2583SOL    HW119385   0.912   0.971   1.750  1.2911 -1.8894  0.6405
 2583SOL    HW219386   0.989   0.867   1.686  0.1390 -0.8212  0.8385
 2584SOL     OW19387   0.535   4.235   6.624 -0.2425 -0.4516 -0.1799
 2584SOL    HW119388   0.570   4.304   6.680 -2.8453  0.7900 -0.0913
 2584SOL    HW219389   0.443   4.248   6.644  0.3108 -0.2381  2.1721
 2585SOL     OW19390   3.651   1.751   3.309 -0.0531 -0.0762 -0.0503
 2585SOL    HW119391   3.574   1.803   3.331  1.3383  1.9172  0.0653
 2585SOL    HW219392   3.693   1.824   3.264  0.8235  0.4685  1.6985
 2586SOL     OW19393   0.799   2.498  10.187  0.2674 -0.4062 -0.0985
 2586SOL    HW119394   0.864   2.447  10.236  2.7125  2.2191 -0.5744
 2586SOL    HW219395   0.814   2.489  10.093  0.7800  0.7616 -0.1318
 2587SOL     OW19396   2.447   3.528   7.342  0.9342  0.0483  0.8798
 2587SOL    HW119397   2.372   3.564   7.391 -0.5029 -0.2516 -1.0871
 2587SOL    HW219398   2.522   3.542   7.398  0.4288 -1.0992  1.8371
 2588SOL     OW19399   1.377   2.445   1.576 -0.1704 -0.9007 -0.3515
 2588SOL    HW119400   1.366   2.518   1.515 -0.8303  0.9555  1.9526
 2588SOL    HW219401   1.317   2.385   1.533 -1.3770  1.5669 -2.0942
 2589SOL     OW19402   3.247   1.743   5.017 -0.3576 -0.4460 -0.0822
 2589SOL    HW119403   3.197   1.675   5.063  1.5638 -1.8235 -0.0068
 2589SOL    HW219404   3.204   1.823   5.046  0.5400 -0.6809  1.9672
 2590SOL     OW19405   3.360   1.789  12.362  0.5929 -0.8281 -0.0841
 2590SOL    HW119406   3.452   1.798  12.390  0.5325  0.3961 -0.3061
 2590SOL    HW219407   3.319   1.874  12.375  0.5926 -1.0480  1.4713
 2591SOL     OW19408   0.021   2.984   7.864 -0.7151 -0.5405 -0.6483
 2591SOL    HW119409   4.697   3.029   7.924  0.2578  0.4672 -0.4537
 2591SOL    HW219410   0.063   3.066   7.839 -0.4816 -0.5110 -0.1532
 2592SOL     OW19411   0.019   3.947   5.339  0.0193 -0.0383 -0.3896
 2592SOL    HW119412   0.090   3.924   5.398  0.5590  0.6881 -0.7539
 2592SOL    HW219413   4.684   3.940   5.404  1.7945  0.8246  1.6133
 2593SOL     OW19414   0.574   0.937   3.328 -0.0836  0.8040 -0.4199
 2593SOL    HW119415   0.641   1.000   3.305  0.5018  0.0950 -0.6659
 2593SOL    HW219416   0.524   0.935   3.247 -0.7242  0.9918 -0.0302
 2594SOL     OW19417   3.038   1.853   7.653 -0.0591 -0.3335 -0.0530
 2594SOL    HW119418   2.988   1.928   7.621  1.4168  0.6357 -0.0876
 2594SOL    HW219419   3.069   1.890   7.736  1.5982 -1.1348 -0.3186
 2595SOL     OW19420   2.952   3.424  14.629 -0.1713  0.1918 -0.3298
 2595SOL    HW119421   3.034   3.405  14.583  0.1536  0.5887  0.0972
 2595SOL    HW219422   2.935   3.337  14.666  1.8164 -0.2874 -0.5516
 2596SOL     OW19423   0.502   4.280   4.042  0.2094  0.5124  0.2739
 2596SOL    HW119424   0.564   4.245   3.977 -0.1191 -1.6071  1.0913
 2596SOL    HW219425   0.478   4.197   4.084 -0.8184  1.3812  1.3900
 2597SOL     OW19426   3.754   1.568   7.557  0.1515  0.1252 -0.2912
 2597SOL    HW119427   3.729   1.626   7.486 -1.1304  0.6493  0.5796
 2597SOL    HW219428   3.735   1.479   7.529 -1.3828  0.6967 -1.0681
 2598SOL     OW19429   1.460   2.477   9.417  0.4722 -0.0059 -0.6958
 2598SOL    HW119430   1.424   2.406   9.363  0.6917 -0.0603 -0.7686
 2598SOL    HW219431   1.386   2.538   9.420  1.2471  0.7926  1.8668
 2599SOL     OW19432   4.391   0.889   5.772  0.1200 -0.1699 -0.2553
 2599SOL    HW119433   4.316   0.862   5.826 -0.5755  0.7602 -0.7662
 2599SOL    HW219434   4.459   0.858   5.832 -0.6793  0.2199  0.8660
 2600SOL     OW19435   3.845   4.609   5.750 -0.2826  0.1230  0.1092
 2600SOL    HW119436   3.873   4.632   5.661 -0.1518 -2.5272 -0.5354
 2600SOL    HW219437   3.920   4.555   5.775 -0.7420  0.1296  1.4878
 2601SOL     OW19438   3.458   1.485  11.284  0.0407 -1.0826 -0.1310
 2601SOL    HW119439   3.504   1.480  11.201  1.6689 -1.1439  0.7669
 2601SOL    HW219440   3.367   1.508  11.265  0.1601 -1.8210 -1.6193
 2602SOL     OW19441   0.091   2.201   3.437 -0.1702 -0.3568  0.7855
 2602SOL    HW119442   0.170   2.153   3.411  0.4379  0.3663  1.2669
 2602SOL    HW219443   0.089   2.171   3.527 -0.3671 -0.6426  0.6840
 2603SOL     OW19444   1.901   2.663   9.567 -0.3626 -0.4274 -0.2442
 2603SOL    HW119445   1.850   2.582   9.561 -0.7965 -0.1731  0.0515
 2603SOL    HW219446   1.857   2.711   9.497  0.3469  1.0433  0.3388
 2604SOL     OW19447   4.063   2.477   4.708  0.2315 -0.2601  0.1774
 2604SOL    HW119448   3.981   2.476   4.757  0.6913  2.6810  1.0471
 2604SOL    HW219449   4.052   2.528   4.628  0.3939 -0.4380  0.0425
 2605SOL     OW19450   1.937   4.471   3.840 -0.0664  0.3569  0.8622
 2605SOL    HW119451   1.865   4.408   3.845 -2.4708  3.0472 -0.0701
 2605SOL    HW219452   1.927   4.503   3.751 -0.1326 -0.3621  0.6151
 2606SOL     OW19453   0.735   3.744   5.788  0.6997 -0.2508  0.1067
 2606SOL    HW119454   0.825   3.777   5.787  0.8220 -0.5429  1.0237
 2606SOL    HW219455   0.704   3.773   5.702 -1.3085  0.0092  0.9242
 2607SOL     OW19456   0.109   3.416   8.112  0.7435 -0.3981 -0.0296
 2607SOL    HW119457   0.074   3.400   8.200 -0.3420  0.1841 -0.3535
 2607SOL    HW219458   0.083   3.508   8.102  1.5845 -0.1414  0.1862
 2608SOL     OW19459   2.114   2.606   0.432 -0.2780  1.0064  0.3324
 2608SOL    HW119460   2.181   2.636   0.493  0.2058 -0.3888  0.4819
 2608SOL    HW219461   2.060   2.684   0.418 -1.4455  0.2085  0.4008
 2609SOL     OW19462   3.669   3.058   6.489  0.1798  0.2638 -0.4513
 2609SOL    HW119463   3.595   3.002   6.464  0.0522 -0.0055  0.5236
 2609SOL    HW219464   3.703   3.085   6.403 -0.0238 -0.3195 -0.7167
 2610SOL     OW19465   3.470   0.074  16.764 -0.0784  0.1915  0.3766
 2610SOL    HW119466   3.488   0.089  16.857  3.2768  0.2717 -0.2834
 2610SOL    HW219467   3.376   0.095  16.764 -0.4130 -1.3749 -0.7418
 2611SOL     OW19468   3.776   4.201   3.129  0.0706 -0.7149 -0.4669
 2611SOL    HW119469   3.792   4.112   3.095 -2.8719 -0.2758 -2.9699
 2611SOL    HW219470   3.703   4.189   3.190  0.1414 -1.2706 -0.4838
 2612SOL     OW19471   2.724   0.831  17.653 -0.0873 -0.3541 -0.1181
 2612SOL    HW119472   2.776   0.751  17.663 -0.9230 -0.9537 -0.6079
 2612SOL    HW219473   2.700   0.836  17.561  0.5649 -0.9272 -0.3207
 2613SOL     OW19474   2.529   1.120  15.573  0.1960 -0.1412  0.1997
 2613SOL    HW119475   2.557   1.179  15.503 -2.7806  0.1853 -0.7083
 2613SOL    HW219476   2.576   1.158  15.647 -1.4393  1.6853  0.3075
 2614SOL     OW19477   3.950   4.024   4.622  0.1041 -0.4384  0.5910
 2614SOL    HW119478   3.896   4.090   4.664  0.6076 -0.9485  2.0297
 2614SOL    HW219479   4.022   4.003   4.681  2.4403  0.1436 -2.0105
 2615SOL     OW19480   2.532   1.158   8.685 -0.1592  0.3348 -0.0401
 2615SOL    HW119481   2.481   1.112   8.752 -1.5844 -1.6405 -2.5169
 2615SOL    HW219482   2.525   1.251   8.703  2.0115  0.4116  0.4562
 2616SOL     OW19483   1.968   2.644   7.811  0.9000  0.3845 -0.2269
 2616SOL    HW119484   1.945   2.595   7.732  0.6658  0.6111 -0.2979
 2616SOL    HW219485   2.010   2.715   7.763 -1.0490 -0.8825 -3.8381
 2617SOL     OW19486   3.636   3.861  15.308 -0.0009 -0.0177 -0.1257
 2617SOL    HW119487   3.720   3.820  15.284  0.0989 -0.7488  1.4998
 2617SOL    HW219488   3.572   3.791  15.295 -0.9089  0.9663 -0.9306
 2618SOL     OW19489   3.377   4.586   3.909 -0.3433 -0.5779  0.2010
 2618SOL    HW119490   3.355   4.669   3.952 -1.0585 -1.0371  0.7153
 2618SOL    HW219491   3.453   4.558   3.959  0.3646 -0.0808 -0.5956
 2619SOL     OW19492   4.178   0.508   0.063  0.0552 -0.1956  0.6671
 2619SOL    HW119493   4.185   0.528   0.157 -0.5284  1.3946  0.3690
 2619SOL    HW219494   4.110   0.564   0.026  1.2907 -0.3464 -1.8542
 2620SOL     OW19495   1.544   4.651  16.633 -0.3932  0.3402  0.7241
 2620SOL    HW119496   1.456   4.680  16.613 -0.1444 -0.9139 -2.1761
 2620SOL    HW219497   1.557   4.691  16.719  0.1538  1.7021  0.0020
 2621SOL     OW19498   3.658   2.980   2.468 -0.1694  0.5193 -0.6263
 2621SOL    HW119499   3.567   2.982   2.500  0.2305  1.4088  0.4637
 2621SOL    HW219500   3.703   2.970   2.552 -0.6500 -0.0834 -0.4390
 2622SOL     OW19501   4.664   1.703   8.900  0.0597 -0.2315 -0.1525
 2622SOL    HW119502   4.657   1.705   8.805 -3.0935 -1.7537  0.0594
 2622SOL    HW219503   4.706   1.789   8.907 -2.4002  0.8586  1.4413
 2623SOL     OW19504   0.330   3.785   5.970 -0.5167 -0.2954 -0.1894
 2623SOL    HW119505   0.383   3.726   5.916  1.5995  0.7007  0.7976
 2623SOL    HW219506   0.244   3.749   5.947 -0.5846 -0.4441  0.3080
 2624SOL     OW19507   1.240   1.122   7.072  0.6715  0.9575 -0.3103
 2624SOL    HW119508   1.182   1.189   7.034 -0.8449  0.1226  0.5277
 2624SOL    HW219509   1.320   1.154   7.031  0.2508  1.8718 -0.4226
 2625SOL     OW19510   3.824   0.219   4.860  0.3442 -0.1184  0.1357
 2625SOL    HW119511   3.815   0.146   4.921 -0.4661  1.5308  1.9923
 2625SOL    HW219512   3.856   0.175   4.781 -0.8339  0.2275 -0.5348
 2626SOL     OW19513   2.576   2.186   6.935  0.0611 -0.3327 -0.7543
 2626SOL    HW119514   2.669   2.198   6.916  0.3999 -2.4870 -0.4273
 2626SOL    HW219515   2.582   2.233   7.018  0.4033 -0.6589 -0.5965
 2627SOL     OW19516   3.542   2.134   5.641 -0.0382 -0.4357 -0.2938
 2627SOL    HW119517   3.605   2.145   5.570  2.2086  1.7341  2.0467
 2627SOL    HW219518   3.460   2.146   5.594 -1.2104 -0.8657  1.6521
 2628SOL     OW19519   0.485   3.502   7.876 -0.2096  0.2673 -0.1637
 2628SOL    HW119520   0.563   3.515   7.822 -1.4765  2.0036 -1.5606
 2628SOL    HW219521   0.518   3.530   7.962 -0.7581  0.1038  0.1010
 2629SOL     OW19522   1.795   3.155  17.455  0.1172 -0.3578 -0.1063
 2629SOL    HW119523   1.734   3.212  17.408 -1.1651 -1.6084  0.0573
 2629SOL    HW219524   1.851   3.230  17.477 -1.9569  1.0714  0.2965
 2630SOL     OW19525   2.259   3.801  13.901 -0.3134  0.1126 -0.4418
 2630SOL    HW119526   2.341   3.750  13.900  1.1203  2.4430 -1.2912
 2630SOL    HW219527   2.196   3.730  13.910  0.5830 -0.4573  1.3792
 2631SOL     OW19528   3.980   4.266   5.354  0.5622  0.0426  0.0387
 2631SOL    HW119529   4.060   4.318   5.346 -0.6864  1.9875  0.4012
 2631SOL    HW219530   3.995   4.203   5.283  0.4173  0.6538 -0.5330
 2632SOL     OW19531   3.324   2.121   4.723  0.4408 -0.0420 -0.3715
 2632SOL    HW119532   3.308   2.169   4.805  0.7624 -1.6194  0.6027
 2632SOL    HW219533   3.408   2.077   4.734  0.1366 -1.0061 -1.8891
 2633SOL     OW19534   4.121   0.978   4.882  0.1462  0.0988 -0.2021
 2633SOL    HW119535   4.096   0.888   4.902 -0.3299  0.6263  1.5162
 2633SOL    HW219536   4.119   0.975   4.786 -1.3105 -3.2963 -0.0847
 2634SOL     OW19537   4.068   1.838   5.342 -0.3588  0.8254  0.1241
 2634SOL    HW119538   3.987   1.821   5.389  0.3870 -0.5012  0.9183
 2634SOL    HW219539   4.118   1.757   5.346 -0.2080  0.9787  1.2510
 2635SOL     OW19540   4.592   0.139   7.165 -0.2506  0.0242 -0.2452
 2635SOL    HW119541   4.544   0.072   7.212  0.9366 -1.6001 -1.3652
 2635SOL    HW219542   4.654   0.081   7.121 -0.4008  0.8772 -1.5906
 2636SOL     OW19543   2.036   3.039  13.603  0.5309  0.4078 -0.6409
 2636SOL    HW119544   2.058   2.949  13.625  0.6424  0.5725 -0.1044
 2636SOL    HW219545   1.967   3.026  13.537  0.2226  3.2620 -0.8702
 2637SOL     OW19546   2.036   3.517   2.232  0.3107  0.4027  0.2869
 2637SOL    HW119547   2.103   3.552   2.174  2.9952  0.7044  3.5292
 2637SOL    HW219548   2.032   3.428   2.199  1.4137  0.9461 -1.2863
 2638SOL     OW19549   4.347   3.693   7.100  0.0282 -0.0128  0.2172
 2638SOL    HW119550   4.268   3.735   7.134  1.3561  3.2071 -0.6424
 2638SOL    HW219551   4.341   3.723   7.009  1.6596  0.3605  0.2307
 2639SOL     OW19552   2.246   3.105   7.952  0.1449 -0.5965  0.8676
 2639SOL    HW119553   2.185   3.031   7.954 -0.5564 -0.0929 -1.7296
 2639SOL    HW219554   2.285   3.086   8.037  1.3182  1.0211  0.6926
 2640SOL     OW19555   0.201   3.753  11.459  0.0101 -0.3274  0.7293
 2640SOL    HW119556   0.231   3.715  11.377  0.6499  0.7567  0.4646
 2640SOL    HW219557   0.162   3.824  11.409  2.7180 -0.0198 -0.9023
 2641SOL     OW19558   1.707   3.832   0.030 -0.1861  0.1847 -0.4785
 2641SOL    HW119559   1.715   3.888   0.107  2.8270 -0.2771 -0.4498
 2641SOL    HW219560   1.787   3.849  17.720 -0.6702  0.5187 -1.1459
 2642SOL     OW19561   0.314   1.638   6.722  0.5003  0.6194  0.4291
 2642SOL    HW119562   0.262   1.686   6.657 -0.7112  0.2079  1.1077
 2642SOL    HW219563   0.311   1.546   6.696  0.9771  0.7857 -0.2336
 2643SOL     OW19564   1.901   4.272  15.309  0.3570 -0.0334  0.1466
 2643SOL    HW119565   1.821   4.245  15.353 -0.6726  0.3543 -1.5018
 2643SOL    HW219566   1.880   4.365  15.299 -0.7290 -0.3105 -0.0615
 2644SOL     OW19567   4.236   2.150   7.689 -0.8255  0.2048 -0.5101
 2644SOL    HW119568   4.205   2.204   7.762  0.6931  0.4480 -0.0227
 2644SOL    HW219569   4.332   2.155   7.700 -0.6901 -2.4861 -0.5520
 2645SOL     OW19570   2.498   2.696   7.619  0.0642 -0.1247 -0.1750
 2645SOL    HW119571   2.544   2.674   7.700 -2.7542 -1.5069  1.0835
 2645SOL    HW219572   2.409   2.707   7.653 -0.6429 -0.4176 -1.9300
 2646SOL     OW19573   3.633   0.743   5.490  0.5132  0.1404 -0.6211
 2646SOL    HW119574   3.594   0.728   5.404  2.5364 -0.1650 -1.4783
 2646SOL    HW219575   3.716   0.698   5.479 -0.1717 -0.8528 -1.7096
 2647SOL     OW19576   0.458   0.260   1.036  1.1390 -0.5836 -0.0637
 2647SOL    HW119577   0.518   0.266   0.962 -0.4032 -1.2281 -1.3889
 2647SOL    HW219578   0.380   0.303   1.000  0.3322 -1.2138  0.9486
 2648SOL     OW19579   0.631   4.134   1.880  0.3081 -0.0856  0.2596
 2648SOL    HW119580   0.688   4.151   1.805  0.7494  0.1815  0.6555
 2648SOL    HW219581   0.678   4.057   1.910 -0.7673 -0.6328  0.5584
 2649SOL     OW19582   0.628   2.364   6.181  0.2650  0.6675 -0.1323
 2649SOL    HW119583   0.577   2.353   6.261 -0.5507  1.0847 -0.5968
 2649SOL    HW219584   0.611   2.279   6.140  1.4817 -0.4066  1.5860
 2650SOL     OW19585   3.878   3.307   4.768 -0.2135  0.3711  0.1143
 2650SOL    HW119586   3.916   3.265   4.845 -3.4621 -1.8063  0.5379
 2650SOL    HW219587   3.838   3.233   4.722 -0.1977 -0.1826  0.9984
 2651SOL     OW19588   1.222   3.625   5.741  0.3686 -0.4578  0.2128
 2651SOL    HW119589   1.169   3.668   5.673  0.8824 -0.5004 -0.2122
 2651SOL    HW219590   1.283   3.697   5.759  0.0428  0.2396 -1.4700
 2652SOL     OW19591   2.246   2.821   9.086  0.2622 -0.4458 -0.1141
 2652SOL    HW119592   2.156   2.829   9.118  0.9457 -1.5463  2.0951
 2652SOL    HW219593   2.268   2.733   9.117  0.9294 -0.7121 -1.3374
 2653SOL     OW19594   1.171   4.563   3.945  0.0117  0.0387  0.1583
 2653SOL    HW119595   1.102   4.557   4.011 -0.2383 -0.6086 -0.1583
 2653SOL    HW219596   1.206   4.650   3.961  2.0389 -0.8226  0.4950
 2654SOL     OW19597   2.332   0.992   3.390 -0.6696 -0.2004 -0.3303
 2654SOL    HW119598   2.267   0.954   3.330 -0.9433  0.7448 -0.6261
 2654SOL    HW219599   2.412   0.942   3.377 -0.3153 -0.0690  1.4686
 2655SOL     OW19600   1.478   2.908   8.967 -0.1586  0.2091 -0.1361
 2655SOL    HW119601   1.508   2.964   8.895 -2.5762 -0.0066 -1.2968
 2655SOL    HW219602   1.534   2.834   8.946  0.1530  0.3712  0.1167
 2656SOL     OW19603   0.501   1.080  11.314  0.0935  0.0069 -0.3246
 2656SOL    HW119604   0.474   0.989  11.301 -0.2946  0.1754 -0.6849
 2656SOL    HW219605   0.476   1.082  11.406  0.5971  2.0380 -0.2348
 2657SOL     OW19606   1.282   1.350   9.601 -0.4739 -0.1275 -0.4118
 2657SOL    HW119607   1.206   1.305   9.565 -0.2158 -1.2646  0.4787
 2657SOL    HW219608   1.312   1.292   9.670  1.0169  0.8018 -0.2763
 2658SOL     OW19609   0.618   3.039   1.372 -0.7227  0.3454 -0.0446
 2658SOL    HW119610   0.663   2.954   1.368 -1.3397 -0.0463  1.4871
 2658SOL    HW219611   0.680   3.084   1.430 -0.0227  0.0287 -0.5455
 2659SOL     OW19612   2.055   0.748   3.437  0.3366  0.1008  0.3527
 2659SOL    HW119613   2.040   0.706   3.353 -1.5926  0.0304  0.7526
 2659SOL    HW219614   1.985   0.813   3.440 -1.5452 -2.0278  1.7386
 2660SOL     OW19615   3.865   0.619   2.990  0.1898  0.0241  0.5531
 2660SOL    HW119616   3.811   0.694   3.012 -0.0076 -0.2942  1.1651
 2660SOL    HW219617   3.935   0.661   2.940  1.7007 -1.3613  1.5069
 2661SOL     OW19618   1.205   2.776   2.083  0.2732  0.4010 -0.2487
 2661SOL    HW119619   1.272   2.751   2.147 -0.7163  2.2992  1.5248
 2661SOL    HW219620   1.141   2.709   2.108 -0.5843  0.8578 -1.2264
 2662SOL     OW19621   2.046   4.486   5.902  0.4559  0.0020 -0.1667
 2662SOL    HW119622   2.077   4.575   5.921  0.3864 -0.0406  0.1421
 2662SOL    HW219623   2.078   4.497   5.812  0.6259 -2.4832 -0.4067
 2663SOL     OW19624   4.178   1.696   2.755 -0.1083  0.8783 -0.3408
 2663SOL    HW119625   4.256   1.677   2.702  1.6580  0.8434  2.2724
 2663SOL    HW219626   4.190   1.640   2.831  2.1223  1.0361 -0.5673
 2664SOL     OW19627   0.712   1.959  12.376  0.1264  0.1633  0.1572
 2664SOL    HW119628   0.718   2.031  12.439  0.2864  0.2996 -0.0114
 2664SOL    HW219629   0.771   1.896  12.417  1.3739  0.8207 -0.6191
 2665SOL     OW19630   4.048   2.323   5.522  0.0782  0.3825  0.6690
 2665SOL    HW119631   4.071   2.412   5.550 -0.1715  0.5066  0.4728
 2665SOL    HW219632   4.056   2.279   5.607  1.2472  0.2371  0.4826
 2666SOL     OW19633   1.624   1.567   3.989  0.4253  0.0467 -0.0909
 2666SOL    HW119634   1.571   1.498   4.027 -0.1614  0.4756 -0.1310
 2666SOL    HW219635   1.697   1.519   3.948  1.2429 -0.6427  2.1938
 2667SOL     OW19636   2.171   1.441   1.014 -0.7331  0.4379  0.4846
 2667SOL    HW119637   2.186   1.393   0.933 -1.5142  1.5127 -0.3019
 2667SOL    HW219638   2.213   1.524   0.992 -1.2481  0.5432 -0.1146
 2668SOL     OW19639   2.913   0.980   6.024 -0.2233 -0.1680  0.0858
 2668SOL    HW119640   2.833   1.011   5.981  0.2079  0.5493 -0.1919
 2668SOL    HW219641   2.960   0.931   5.957  0.7650  1.0882 -0.1466
 2669SOL     OW19642   4.705   0.733  16.123 -0.4344 -0.2258 -0.4693
 2669SOL    HW119643   4.642   0.662  16.113 -1.4854  0.7199 -0.5350
 2669SOL    HW219644   4.670   0.793  16.058 -0.1442 -0.0222 -0.4412
 2670SOL     OW19645   1.918   0.902   0.634  0.4365  0.0512  0.1690
 2670SOL    HW119646   1.855   0.848   0.682  1.1855 -1.4849 -0.6045
 2670SOL    HW219647   1.981   0.840   0.597  1.9339  2.1307 -0.7707
 2671SOL     OW19648   2.105   0.322   7.253  0.2263 -0.1327  0.3723
 2671SOL    HW119649   2.146   0.382   7.191  0.5311 -1.6100 -0.8788
 2671SOL    HW219650   2.191   0.293   7.285 -0.2052 -0.7180  0.9807
 2672SOL     OW19651   2.251   4.298   9.222 -0.0888  0.4033  0.0156
 2672SOL    HW119652   2.193   4.232   9.260 -1.2510  1.8270  0.7317
 2672SOL    HW219653   2.192   4.367   9.192 -0.8113 -0.6722 -1.0060
 2673SOL     OW19654   1.373   3.003   7.567 -0.6871  0.4406  0.1518
 2673SOL    HW119655   1.383   2.956   7.484  2.3650 -1.0433  1.3686
 2673SOL    HW219656   1.380   3.096   7.548  0.4422  0.1575 -0.8686
 2674SOL     OW19657   3.949   2.515   3.981  0.2688  0.0898 -0.0097
 2674SOL    HW119658   3.966   2.465   4.061 -1.2284 -0.2464  0.1083
 2674SOL    HW219659   3.887   2.583   4.008 -0.4847 -1.4304  2.1174
 2675SOL     OW19660   4.622   2.115  13.685  0.6559 -0.5454  0.0766
 2675SOL    HW119661   4.603   2.190  13.741  1.0670  0.6222 -1.3465
 2675SOL    HW219662   4.715   2.112  13.663  1.1056 -0.9657  2.0295
 2676SOL     OW19663   4.493   3.677   4.851  0.7664 -0.5175  0.9199
 2676SOL    HW119664   4.580   3.715   4.836 -1.7885  4.1965 -1.7191
 2676SOL    HW219665   4.448   3.749   4.896  1.1384 -0.8092  1.7692
 2677SOL     OW19666   3.265   1.592   6.870 -0.1513 -0.1109 -0.3993
 2677SOL    HW119667   3.260   1.650   6.946 -0.6207 -0.2176 -0.3501
 2677SOL    HW219668   3.245   1.508   6.912 -0.2324  0.1927  0.1779
 2678SOL     OW19669   4.435   2.689   3.649  0.2080 -0.3438  0.1018
 2678SOL    HW119670   4.367   2.681   3.582  0.7517  0.6251 -0.5657
 2678SOL    HW219671   4.514   2.686   3.595  0.5391  0.6725  0.5355
 2679SOL     OW19672   2.401   0.304   5.010  0.1678 -0.3224  0.3532
 2679SOL    HW119673   2.473   0.243   4.995 -0.1136 -0.1801 -1.5419
 2679SOL    HW219674   2.350   0.301   4.929 -0.5919  1.8315  0.7598
 2680SOL     OW19675   0.246   2.542  16.285 -0.9005 -0.1309  0.0813
 2680SOL    HW119676   0.331   2.583  16.269 -0.8747 -0.6621 -1.1154
 2680SOL    HW219677   0.206   2.625  16.309  0.9170  0.0163  2.7261
 2681SOL     OW19678   2.168   1.280   7.948  0.7757 -0.3097 -0.1082
 2681SOL    HW119679   2.175   1.260   7.854 -0.8477  2.3287 -0.7944
 2681SOL    HW219680   2.260   1.292   7.971  0.8170  0.3044 -0.6095
 2682SOL     OW19681   0.169   0.087   8.786  0.6021 -0.1775  0.0762
 2682SOL    HW119682   0.147   4.730   8.774  0.7797 -0.4432  1.7663
 2682SOL    HW219683   0.190   0.116   8.697  0.2289  2.0430  0.7299
 2683SOL     OW19684   4.568   3.709   9.399 -0.4573 -0.2715 -0.1266
 2683SOL    HW119685   4.485   3.718   9.445 -1.1471  1.8698 -1.7633
 2683SOL    HW219686   4.599   3.799   9.404  0.3964 -0.5349 -0.6592
 2684SOL     OW19687   2.274   3.974  10.110  0.1929 -0.0107  0.1264
 2684SOL    HW119688   2.218   3.940  10.180  2.0143 -2.7762  0.2215
 2684SOL    HW219689   2.298   4.057  10.152  0.6540 -0.2844  0.4006
 2685SOL     OW19690   0.797   0.967   3.687 -0.0063  0.3026 -0.1397
 2685SOL    HW119691   0.728   0.982   3.752  0.1086 -2.3040  0.5956
 2685SOL    HW219692   0.788   0.876   3.660 -0.5939  0.5620 -0.8003
 2686SOL     OW19693   0.347   1.481   7.798  0.8222  0.1836 -0.2209
 2686SOL    HW119694   0.273   1.536   7.773  1.0744  1.3058  1.5165
 2686SOL    HW219695   0.331   1.480   7.892  2.2258  0.3663  0.0195
 2687SOL     OW19696   1.867   4.517  12.076 -1.1785  0.3490  0.9324
 2687SOL    HW119697   1.780   4.528  12.038 -0.4466 -0.5292 -1.0114
 2687SOL    HW219698   1.922   4.555  12.008  0.0690 -1.1877  1.0782
 2688SOL     OW19699   4.198   2.855   4.488  0.5075 -0.0472  0.7454
 2688SOL    HW119700   4.262   2.927   4.489  0.8434 -0.3377 -0.4881
 2688SOL    HW219701   4.126   2.900   4.532  0.5076 -2.5623  3.2952
 2689SOL     OW19702   0.439   0.832   5.931  0.0758 -0.2197 -0.2951
 2689SOL    HW119703   0.357   0.849   5.977  0.8127  1.2630  0.4727
 2689SOL    HW219704   0.422   0.881   5.850 -1.9579 -0.2984  0.0799
 2690SOL     OW19705   4.420   0.828  13.915  0.0774 -0.2209 -1.4873
 2690SOL    HW119706   4.417   0.735  13.894  0.4905 -0.4223 -0.6311
 2690SOL    HW219707   4.507   0.836  13.954  0.9167  0.5989 -3.4765
 2691SOL     OW19708   1.803   1.901   6.311 -0.7183  0.7469  0.0349
 2691SOL    HW119709   1.808   1.806   6.295  1.3935  0.9708 -0.6783
 2691SOL    HW219710   1.855   1.913   6.391  2.2144 -0.5388 -1.6551
 2692SOL     OW19711   2.400   1.443   1.618  0.0262 -0.3452 -0.7932
 2692SOL    HW119712   2.320   1.462   1.568  0.0913  0.4058 -0.6136
 2692SOL    HW219713   2.417   1.360   1.574  0.4051 -1.1467  0.8716
 2693SOL     OW19714   0.555   4.637   5.981  0.1720 -0.2685  0.3502
 2693SOL    HW119715   0.531   4.684   5.902  0.1055 -0.3257  0.3369
 2693SOL    HW219716   0.645   4.611   5.959 -0.2370 -2.4321  1.1659
 2694SOL     OW19717   2.294   0.148   8.839  0.8255 -0.6951  0.3616
 2694SOL    HW119718   2.246   0.170   8.758 -0.6712 -2.2855  0.8088
 2694SOL    HW219719   2.274   0.221   8.897 -0.6302  0.6887 -1.8333
 2695SOL     OW19720   1.732   2.414  16.293 -0.3782 -0.2174 -0.8571
 2695SOL    HW119721   1.777   2.422  16.209 -0.3897  1.1455 -0.7226
 2695SOL    HW219722   1.795   2.364  16.345  0.2711  1.0984 -0.3758
 2696SOL     OW19723   1.337   4.348  10.649  0.3446  0.6153 -0.2505
 2696SOL    HW119724   1.347   4.265  10.602  0.2801 -1.3558  3.1471
 2696SOL    HW219725   1.344   4.314  10.739  0.5340 -0.7322 -0.7771
 2697SOL     OW19726   2.388   2.145   8.125 -0.1081  0.5843  0.3226
 2697SOL    HW119727   2.404   2.116   8.035 -1.2617 -0.7028  0.5339
 2697SOL    HW219728   2.356   2.063   8.163  0.7717  0.5083  0.8792
 2698SOL     OW19729   3.846   1.039   5.237 -0.0196 -0.1264  0.5802
 2698SOL    HW119730   3.863   0.946   5.221  0.4312  0.3542 -1.8380
 2698SOL    HW219731   3.899   1.069   5.310 -0.2728 -1.7408  1.4233
 2699SOL     OW19732   2.769   4.124   1.545  0.2976 -0.4628 -0.2684
 2699SOL    HW119733   2.843   4.098   1.599 -0.9626  2.1696  2.7137
 2699SOL    HW219734   2.729   4.196   1.594 -0.3415 -1.3817  0.5697
 2700SOL     OW19735   3.987   1.485   8.931 -0.9130  0.1240  0.2145
 2700SOL    HW119736   3.898   1.491   8.965 -0.9634  0.7024 -0.0131
 2700SOL    HW219737   4.013   1.574   8.954  1.0391 -0.6157  0.8707
 2701SOL     OW19738   3.264   4.353   3.768  0.2815 -0.2836 -0.0805
 2701SOL    HW119739   3.281   4.303   3.848  1.3937  2.2008  1.2203
 2701SOL    HW219740   3.292   4.439   3.799 -0.5039 -1.4639  3.9177
 2702SOL     OW19741   4.306   1.616  17.473  0.2006  0.2005  0.4116
 2702SOL    HW119742   4.288   1.674  17.398 -1.2805  0.1870  0.7535
 2702SOL    HW219743   4.322   1.529  17.437 -1.8710 -0.0109 -0.0317
 2703SOL     OW19744   1.152   3.655   7.856 -0.3993 -0.4293 -0.5906
 2703SOL    HW119745   1.223   3.667   7.919  0.7249  0.4025 -2.0183
 2703SOL    HW219746   1.082   3.668   7.920  0.5405 -1.5404  0.6653
 2704SOL     OW19747   2.481   0.184   2.963  0.1595 -0.1052 -0.2660
 2704SOL    HW119748   2.434   0.114   2.918 -0.6673  0.3545 -0.1128
 2704SOL    HW219749   2.476   0.152   3.053 -1.1261 -1.7136 -0.9229
 2705SOL     OW19750   4.027   2.580   0.625 -0.5884  0.1049  0.1342
 2705SOL    HW119751   4.019   2.662   0.675  3.4271  0.9935 -0.6464
 2705SOL    HW219752   4.122   2.569   0.632 -0.5417  0.3059 -0.2009
 2706SOL     OW19753   3.185   4.184   7.155 -0.0241  0.3686  0.4498
 2706SOL    HW119754   3.134   4.206   7.078 -0.6791  0.6431  0.9641
 2706SOL    HW219755   3.115   4.156   7.214 -0.6578  1.6711  0.3121
 2707SOL     OW19756   4.317   4.151   5.840  0.6567 -0.9555 -0.6982
 2707SOL    HW119757   4.397   4.163   5.789  0.6441 -1.7095 -0.8891
 2707SOL    HW219758   4.314   4.056   5.854  0.1241 -0.9772 -0.9497
 2708SOL     OW19759   1.631   1.920   9.536 -0.1781  0.3824  0.0655
 2708SOL    HW119760   1.647   1.826   9.522  1.9020  0.9639 -1.5863
 2708SOL    HW219761   1.543   1.917   9.573 -0.0736 -1.0410  0.2044
 2709SOL     OW19762   1.291   0.205   2.552  0.3604  0.3840 -0.3316
 2709SOL    HW119763   1.313   0.155   2.630 -1.5803 -0.9699 -0.6562
 2709SOL    HW219764   1.197   0.213   2.564  0.3309  0.8473 -0.8499
 2710SOL     OW19765   0.337   3.017   1.812 -0.8956 -0.3622  0.1630
 2710SOL    HW119766   0.409   2.954   1.806 -0.2470  0.3620  0.2937
 2710SOL    HW219767   0.371   3.091   1.761 -0.8665 -1.9263 -2.0866
 2711SOL     OW19768   3.139   3.342   5.528 -0.0052 -0.0447  0.0459
 2711SOL    HW119769   3.154   3.286   5.605  1.3037 -1.9645 -1.6227
 2711SOL    HW219770   3.046   3.332   5.509  0.0559 -1.9406  0.8120
 2712SOL     OW19771   4.497   0.483   4.261 -0.3480 -0.2748  0.7610
 2712SOL    HW119772   4.479   0.404   4.210 -0.6620  1.6150 -2.0501
 2712SOL    HW219773   4.415   0.532   4.273 -0.9507 -0.7129 -1.4709
 2713SOL     OW19774   3.324   1.638   7.925  0.6919 -0.3441  0.1837
 2713SOL    HW119775   3.398   1.592   7.966  1.1818 -1.2954 -1.7285
 2713SOL    HW219776   3.331   1.603   7.836 -0.4261 -1.5725  0.5812
 2714SOL     OW19777   1.309   3.265  16.741 -0.4335  0.3891  0.6156
 2714SOL    HW119778   1.221   3.247  16.775 -0.4918 -0.7994 -0.1723
 2714SOL    HW219779   1.354   3.235  16.820  0.6076  2.0970  0.6737
 2715SOL     OW19780   1.320   0.475   5.327 -0.6455 -0.8444 -0.3667
 2715SOL    HW119781   1.322   0.542   5.258  0.1453 -0.4742  0.0121
 2715SOL    HW219782   1.386   0.509   5.388 -2.4116 -1.7942  2.0423
 2716SOL     OW19783   2.366   3.370   9.038  0.2849  0.0747 -0.5057
 2716SOL    HW119784   2.433   3.309   9.005 -0.2558 -0.9796  0.3281
 2716SOL    HW219785   2.409   3.451   9.063  0.1041  0.9128 -2.9057
 2717SOL     OW19786   2.859   0.590  17.676  0.2791  0.6040 -0.0710
 2717SOL    HW119787   2.894   0.556   0.019  2.6377  2.0017 -0.4967
 2717SOL    HW219788   2.768   0.560  17.676 -0.0373  1.5557 -0.1077
 2718SOL     OW19789   3.494   1.656   5.013 -0.2876 -0.3843  0.3917
 2718SOL    HW119790   3.566   1.714   4.990  0.1471 -1.0000  0.2194
 2718SOL    HW219791   3.420   1.716   5.030  0.1327 -0.3587  2.0811
 2719SOL     OW19792   4.569   4.327   2.714  0.3455 -0.1037  0.0585
 2719SOL    HW119793   4.573   4.364   2.625  1.7628  0.5005  0.3596
 2719SOL    HW219794   4.659   4.295   2.728  0.2802 -0.4568 -0.3378
 2720SOL     OW19795   1.571   4.504  15.622  0.3700  0.2155  0.3963
 2720SOL    HW119796   1.605   4.555  15.548 -2.4907  1.9113  0.2384
 2720SOL    HW219797   1.536   4.423  15.583  3.8615 -0.0972 -2.1129
 2721SOL     OW19798   3.562   4.714   3.365 -0.2925  1.2750 -0.1926
 2721SOL    HW119799   3.496   0.047   3.349  0.3600  2.1205  0.7695
 2721SOL    HW219800   3.591   4.693   3.276 -2.8732 -0.9845 -0.5008
 2722SOL     OW19801   4.529   0.401   3.033  0.0470 -0.7101  0.1156
 2722SOL    HW119802   4.592   0.329   3.026 -0.0633 -0.7295 -0.6432
 2722SOL    HW219803   4.554   0.432   3.120 -0.1021 -3.5540  1.1709
 2723SOL     OW19804   0.106   0.697  10.241 -0.2166 -0.2875  0.6070
 2723SOL    HW119805   0.056   0.737  10.171  0.6515  0.4721  0.4173
 2723SOL    HW219806   0.085   0.751  10.317 -0.9913  0.4925 -0.1654
 2724SOL     OW19807   4.638   3.721   6.517 -0.0691  0.2743 -0.6603
 2724SOL    HW119808   4.717   3.680   6.482  1.4716  0.8740  2.0781
 2724SOL    HW219809   4.673   3.797   6.564  0.6268  0.6087 -1.7174
 2725SOL     OW19810   4.025   0.750  10.910 -0.5365 -0.0694  0.0121
 2725SOL    HW119811   4.001   0.686  10.843 -0.2653 -0.4149  0.2508
 2725SOL    HW219812   3.984   0.831  10.880 -0.1764  0.3658  0.6905
 2726SOL     OW19813   2.302   0.641   5.363  0.2307  0.4592  0.0220
 2726SOL    HW119814   2.211   0.663   5.382  0.3617 -0.7263  2.0744
 2726SOL    HW219815   2.292   0.562   5.311 -0.3022  0.3459  0.2991
 2727SOL     OW19816   2.903   2.125   8.732 -0.1938  0.0575  0.1584
 2727SOL    HW119817   2.903   2.132   8.636  1.8034  0.0556  0.1501
 2727SOL    HW219818   2.966   2.192   8.758  1.1093 -0.7912 -0.8292
 2728SOL     OW19819   0.273   4.375   4.466 -0.2185 -0.3435  0.0494
 2728SOL    HW119820   0.181   4.400   4.455 -0.2060 -0.4737 -0.3308
 2728SOL    HW219821   0.269   4.311   4.537  0.3447  1.9137  2.1523
 2729SOL     OW19822   4.012   3.468   8.482 -0.4107  0.2471  0.2941
 2729SOL    HW119823   3.936   3.421   8.447  1.1491 -1.5258 -0.7072
 2729SOL    HW219824   4.037   3.517   8.403  1.2164  0.5448  1.0068
 2730SOL     OW19825   2.540   4.335   4.138  0.2259  0.1116  0.2291
 2730SOL    HW119826   2.590   4.416   4.122 -0.1196  0.9177  3.2547
 2730SOL    HW219827   2.584   4.312   4.220 -3.0938  0.0315  1.9848
 2731SOL     OW19828   3.734   3.820  11.027  0.0613 -0.5273 -0.0718
 2731SOL    HW119829   3.756   3.795  10.937  2.1154 -0.1815  0.3374
 2731SOL    HW219830   3.771   3.745  11.075  2.6222  0.3978 -0.5827
 2732SOL     OW19831   3.814   3.507  10.705  0.0455 -0.3194  0.5935
 2732SOL    HW119832   3.828   3.599  10.727 -0.1350  0.0787 -0.9730
 2732SOL    HW219833   3.804   3.463  10.789 -2.3936  0.7102  0.8183
 2733SOL     OW19834   3.441   1.433   4.834 -0.6827  0.3701  0.3447
 2733SOL    HW119835   3.462   1.509   4.887 -2.2611 -0.2207  1.8017
 2733SOL    HW219836   3.387   1.382   4.894  1.6651  0.1779  2.2756
 2734SOL     OW19837   4.322   2.345   2.894  0.0086 -0.1140  0.0766
 2734SOL    HW119838   4.289   2.311   2.977  0.6260 -0.5997  0.1225
 2734SOL    HW219839   4.412   2.365   2.921  0.7420 -0.9446 -1.7314
 2735SOL     OW19840   0.017   3.589   9.202 -0.8744  0.0887 -0.5373
 2735SOL    HW119841   4.691   3.633   9.260 -2.2161 -1.5135 -0.7294
 2735SOL    HW219842   0.033   3.511   9.255  1.6688  1.3861  0.6018
 2736SOL     OW19843   3.475   3.255   7.928  0.8414 -0.1521 -0.1258
 2736SOL    HW119844   3.499   3.164   7.946  0.8751  0.3190  2.2596
 2736SOL    HW219845   3.442   3.246   7.839  1.5955  0.0801 -0.4334
 2737SOL     OW19846   4.407   3.095  11.800 -0.6226 -0.0383  0.3448
 2737SOL    HW119847   4.433   3.133  11.885  0.2297  2.1869 -0.8905
 2737SOL    HW219848   4.490   3.108  11.754 -0.5752  0.2664  0.5139
 2738SOL     OW19849   0.494   0.952  14.381  0.1389 -0.2945  0.0468
 2738SOL    HW119850   0.504   0.873  14.328  0.2909  0.0475 -0.4250
 2738SOL    HW219851   0.578   0.957  14.426  0.5737  1.0955 -0.9222
 2739SOL     OW19852   4.481   0.829   4.777  0.0359  0.2817 -0.1721
 2739SOL    HW119853   4.408   0.819   4.715  0.3704 -1.2055 -0.3241
 2739SOL    HW219854   4.509   0.737   4.775  1.8161  0.8163  1.0149
 2740SOL     OW19855   1.564   4.368   4.030  0.2805 -0.5314 -1.0134
 2740SOL    HW119856   1.602   4.426   3.964 -0.3551 -1.3498 -2.0973
 2740SOL    HW219857   1.553   4.283   3.987 -0.0485 -0.1791 -1.6115
 2741SOL     OW19858   0.114   1.382   2.322  0.3105 -0.8710  0.1086
 2741SOL    HW119859   0.151   1.406   2.237  2.5918  1.6361  1.8143
 2741SOL    HW219860   0.020   1.385   2.303 -0.2576  0.6982  3.1857
 2742SOL     OW19861   1.177   3.577  14.220  0.0158  0.5468  0.1568
 2742SOL    HW119862   1.128   3.590  14.139 -0.4488  0.6797  0.4604
 2742SOL    HW219863   1.118   3.520  14.270  0.9398  0.8479  1.6071
 2743SOL     OW19864   0.564   4.211   7.048  0.2307 -0.7408 -0.3352
 2743SOL    HW119865   0.588   4.132   6.999 -1.7317 -1.1941 -0.5604
 2743SOL    HW219866   0.517   4.172   7.121  0.5858  0.4685  0.5315
 2744SOL     OW19867   1.312   2.664   3.311 -0.2558 -0.0459 -0.5504
 2744SOL    HW119868   1.255   2.695   3.381 -1.6001 -0.6933 -1.3561
 2744SOL    HW219869   1.391   2.719   3.318 -2.5834  3.2012  0.2462
 2745SOL     OW19870   4.724   3.388   9.798  0.1490  0.1664  0.0022
 2745SOL    HW119871   0.067   3.423   9.842 -0.5301  2.6208 -0.7838
 2745SOL    HW219872   0.023   3.300   9.778 -2.4990 -0.6155 -0.9724
 2746SOL     OW19873   3.633   1.889   1.453  0.1312 -0.0082  0.1913
 2746SOL    HW119874   3.668   1.821   1.510  0.6067  1.5726  1.7754
 2746SOL    HW219875   3.670   1.852   1.373 -0.5426 -0.2844  0.0051
 2747SOL     OW19876   4.307   1.184   5.261  0.0593  0.1076  0.1838
 2747SOL    HW119877   4.223   1.140   5.246  0.5268 -0.9921  0.8264
 2747SOL    HW219878   4.365   1.112   5.284  0.0653  0.9059  2.6043
 2748SOL     OW19879   2.135   0.757  14.934 -0.7601 -0.1629  0.7890
 2748SOL    HW119880   2.159   0.711  15.014 -0.3063 -1.7695 -0.2636
 2748SOL    HW219881   2.162   0.845  14.960 -1.1610  0.2527 -0.1701
 2749SOL     OW19882   3.054   4.273   7.587  0.5062 -0.5080  0.1740
 2749SOL    HW119883   3.146   4.294   7.602  0.0617  1.1047  0.6464
 2749SOL    HW219884   3.004   4.346   7.623 -0.4094 -0.6896 -0.7202
 2750SOL     OW19885   0.526   4.348   4.358 -0.1328  0.4442 -0.8150
 2750SOL    HW119886   0.431   4.341   4.368  0.1494 -0.3763  1.2665
 2750SOL    HW219887   0.546   4.332   4.265 -0.3358  2.1191 -1.1585
 2751SOL     OW19888   1.033   0.948   7.491  0.0317  0.6213 -0.2908
 2751SOL    HW119889   0.984   0.927   7.571 -0.1010 -0.9586 -0.7982
 2751SOL    HW219890   0.961   0.940   7.430  1.5950  0.7938 -2.1636
 2752SOL     OW19891   2.905   3.147   2.212  0.1159  0.2682 -0.1297
 2752SOL    HW119892   2.896   3.123   2.120 -0.7954 -0.9054  0.2724
 2752SOL    HW219893   2.897   3.242   2.212 -1.2314  0.1513 -0.1483
 2753SOL     OW19894   4.243   0.618   6.073 -0.1949 -0.2864 -0.5573
 2753SOL    HW119895   4.198   0.541   6.037  0.6226 -2.0036  2.1621
 2753SOL    HW219896   4.198   0.686   6.022 -2.0877 -0.6024  0.6591
 2754SOL     OW19897   0.615   3.263   4.578 -0.2127  0.5132 -0.1380
 2754SOL    HW119898   0.593   3.176   4.611  0.9447 -0.2021 -1.2287
 2754SOL    HW219899   0.648   3.306   4.658 -1.4317 -0.8929  1.1228
 2755SOL     OW19900   1.390   1.041   5.755 -0.0851 -0.1156 -0.4013
 2755SOL    HW119901   1.480   1.072   5.748 -0.1446 -0.3128 -2.0288
 2755SOL    HW219902   1.351   1.092   5.826  2.0510  0.1052  0.5994
 2756SOL     OW19903   0.877   2.091   3.621  0.2475  0.2044 -0.1878
 2756SOL    HW119904   0.790   2.057   3.598  1.1636 -3.1184  1.3253
 2756SOL    HW219905   0.911   2.102   3.532  0.7218 -3.3550 -0.4565
 2757SOL     OW19906   1.683   2.228  11.357 -0.6200 -0.0107 -0.1486
 2757SOL    HW119907   1.726   2.298  11.407 -1.1865 -1.0237  1.7436
 2757SOL    HW219908   1.732   2.151  11.386 -0.6488  0.0111 -0.0413
 2758SOL     OW19909   4.713   1.866  11.113  0.0738 -0.0917  0.2410
 2758SOL    HW119910   4.709   1.823  11.198  0.0253  2.4983  1.5656
 2758SOL    HW219911   0.068   1.896  11.117 -1.0399  3.3270 -0.1337
 2759SOL     OW19912   0.683   1.738  17.598 -0.5611  0.4956  0.4518
 2759SOL    HW119913   0.769   1.697  17.588 -1.5020 -0.8874 -1.9172
 2759SOL    HW219914   0.654   1.715  17.686 -0.2414  1.4389  0.8028
 2760SOL     OW19915   1.785   2.359   2.551 -0.3881 -0.5687  0.1590
 2760SOL    HW119916   1.765   2.297   2.480  0.2393  0.6968 -1.1401
 2760SOL    HW219917   1.845   2.420   2.507 -1.9991  0.2289 -0.9394
 2761SOL     OW19918   2.399   3.077   2.328  0.2223 -0.6913 -0.1872
 2761SOL    HW119919   2.494   3.092   2.327 -0.0031  0.9107  2.4398
 2761SOL    HW219920   2.390   3.027   2.409  1.0083  2.4554  1.8586
 2762SOL     OW19921   0.766   0.842   9.177  0.4958 -0.5830  0.3850
 2762SOL    HW119922   0.751   0.888   9.094 -1.3589 -1.9883 -0.0657
 2762SOL    HW219923   0.674   0.822   9.192  0.2778 -0.2256 -0.4827
 2763SOL     OW19924   0.715   2.375   8.328 -0.1867  0.5689 -0.1189
 2763SOL    HW119925   0.792   2.353   8.275  1.0839 -0.7062  2.2403
 2763SOL    HW219926   0.745   2.448   8.383  0.9200  0.1356 -0.1283
 2764SOL     OW19927   1.667   1.130  10.497  0.1653  0.2831 -0.1969
 2764SOL    HW119928   1.641   1.212  10.540  0.5645 -1.0349  2.5402
 2764SOL    HW219929   1.593   1.076  10.525  0.3754  0.4795  0.7303
 2765SOL     OW19930   1.383   3.423   6.911  0.5708  0.1994  0.1065
 2765SOL    HW119931   1.421   3.365   6.845  1.5418 -0.7501  1.5171
 2765SOL    HW219932   1.318   3.464   6.854  0.4110  0.2357  0.3163
 2766SOL     OW19933   4.099   1.361   3.587 -0.4538  0.3836 -0.0095
 2766SOL    HW119934   4.148   1.353   3.669 -0.7188  1.9595  0.2982
 2766SOL    HW219935   4.174   1.360   3.527  2.2110  1.4245  3.2514
 2767SOL     OW19936   4.297   2.057  12.402  0.6072  0.1093  0.3566
 2767SOL    HW119937   4.269   1.969  12.428  0.9944  0.4175  1.7875
 2767SOL    HW219938   4.322   2.094  12.486  3.4084  1.7036 -1.1522
 2768SOL     OW19939   4.350   1.267   9.246 -0.0318  0.3619  0.2891
 2768SOL    HW119940   4.387   1.190   9.204 -1.3793  0.0432 -0.3084
 2768SOL    HW219941   4.411   1.339   9.227 -0.3919  1.4726  3.3130
 2769SOL     OW19942   1.175   3.650  10.566  0.2294  0.5952 -0.1472
 2769SOL    HW119943   1.186   3.729  10.619 -1.0967 -0.0657  1.0929
 2769SOL    HW219944   1.082   3.633  10.577  0.3874 -1.1546 -1.4594
 2770SOL     OW19945   0.324   4.180   6.015  0.2311 -0.0912  0.3416
 2770SOL    HW119946   0.384   4.214   5.949 -2.0019  0.8348 -1.1876
 2770SOL    HW219947   0.241   4.228   6.010 -1.4489 -3.2486 -1.9441
 2771SOL     OW19948   2.941   2.668   4.654 -0.2549  0.3096 -0.4468
 2771SOL    HW119949   2.938   2.729   4.581  0.0441 -0.8555 -1.4224
 2771SOL    HW219950   3.007   2.603   4.633 -1.8403 -0.7248 -2.2158
 2772SOL     OW19951   1.255   0.009  11.761  0.2092  0.5163 -0.2515
 2772SOL    HW119952   1.184   0.059  11.720 -0.0678  0.6870  0.4435
 2772SOL    HW219953   1.329   0.053  11.719  1.0203 -0.3748  0.2554
 2773SOL     OW19954   0.343   0.352   5.073  0.6839 -0.0642  0.2602
 2773SOL    HW119955   0.336   0.306   4.990 -2.9121  0.1408  0.4807
 2773SOL    HW219956   0.377   0.281   5.128  0.2263 -0.7374 -0.3321
 2774SOL     OW19957   2.171   2.927   9.394  0.9229 -0.3518 -0.4405
 2774SOL    HW119958   2.120   2.962   9.321  1.4295  3.7305  1.1548
 2774SOL    HW219959   2.239   2.994   9.403 -1.1610  1.9641 -1.9837
 2775SOL     OW19960   1.532   4.390   8.284 -0.0373  0.0158  0.2294
 2775SOL    HW119961   1.494   4.315   8.237  0.1707 -1.5843  2.6127
 2775SOL    HW219962   1.492   4.381   8.371 -0.0556 -1.8814  0.0290
 2776SOL     OW19963   2.165   3.849   6.507 -0.2182  0.0309  0.0964
 2776SOL    HW119964   2.082   3.835   6.552 -0.6717  1.1225 -0.4050
 2776SOL    HW219965   2.147   3.936   6.473 -2.1627 -0.2145  0.5134
 2777SOL     OW19966   2.987   1.494   5.880  0.1327 -0.1876 -0.2254
 2777SOL    HW119967   3.051   1.535   5.937 -0.7761  1.4823 -0.4049
 2777SOL    HW219968   2.949   1.568   5.832  1.1042  0.9235  0.7079
 2778SOL     OW19969   3.127   2.065   1.995 -0.3869 -0.3588 -0.3008
 2778SOL    HW119970   3.222   2.052   1.987 -0.5151 -0.8307 -1.1055
 2778SOL    HW219971   3.108   2.066   1.901 -0.5264  1.2666 -0.2431
 2779SOL     OW19972   4.321   3.368   2.709  0.2213  0.3721 -0.7409
 2779SOL    HW119973   4.402   3.330   2.673  0.5265  0.3574 -0.0272
 2779SOL    HW219974   4.338   3.460   2.726 -1.9902  0.5473  0.4565
 2780SOL     OW19975   4.347   2.114   2.400  0.2587 -0.0890  0.1261
 2780SOL    HW119976   4.322   2.097   2.491 -1.2048  1.5265  0.0286
 2780SOL    HW219977   4.320   2.027   2.371  2.3001 -0.3205 -1.0390
 2781SOL     OW19978   0.307   4.309   6.357 -0.3021  0.2838  0.1947
 2781SOL    HW119979   0.237   4.341   6.414  1.3139  0.5198  2.0437
 2781SOL    HW219980   0.343   4.389   6.318 -2.1368  0.5243 -1.0294
 2782SOL     OW19981   3.172   2.979   3.992  0.1112 -0.0431 -0.0464
 2782SOL    HW119982   3.116   3.033   3.937  2.1568  2.2541  0.1135
 2782SOL    HW219983   3.255   2.954   3.951 -0.6685 -1.5185 -0.6954
 2783SOL     OW19984   0.128   2.105  13.561  0.3359  0.3804 -0.2558
 2783SOL    HW119985   0.181   2.155  13.498  1.1910  0.0508  0.1994
 2783SOL    HW219986   0.185   2.035  13.594  0.8280  1.5422  1.3562
 2784SOL     OW19987   2.034   4.113  13.928 -0.3778 -0.2592  0.3711
 2784SOL    HW119988   2.001   4.036  13.880 -0.0098  0.1311 -0.5124
 2784SOL    HW219989   2.044   4.087  14.019 -0.6768 -1.1363  0.1602
 2785SOL     OW19990   2.855   2.766   5.172  0.9263 -0.3598 -0.0492
 2785SOL    HW119991   2.765   2.781   5.145  0.3644 -3.1912  0.2227
 2785SOL    HW219992   2.888   2.731   5.089 -0.4954 -0.0165 -0.7670
 2786SOL     OW19993   3.541   0.107  13.671  0.0851 -0.1041  0.0131
 2786SOL    HW119994   3.568   0.086  13.760 -7.8313  0.4130  2.5066
 2786SOL    HW219995   3.472   0.042  13.663 -0.2153  0.0579  1.3489
 2787SOL     OW19996   2.779   1.378   2.470 -0.2656  0.4119  0.4649
 2787SOL    HW119997   2.737   1.441   2.411 -1.6341 -1.7891 -0.9352
 2787SOL    HW219998   2.825   1.432   2.534  0.4210 -1.1408  1.2744
 2788SOL     OW19999   0.832   1.451   6.875 -0.0556  0.2167 -0.1417
 2788SOL    HW120000   0.860   1.540   6.895  1.6619 -0.0567 -1.3173
 2788SOL    HW220001   0.741   1.471   6.853 -0.6182 -1.9345  0.2258
 2789SOL     OW20002   4.674   1.049   3.674  0.0212 -0.2824  0.0623
 2789SOL    HW120003   4.623   0.991   3.731 -0.5035 -0.2109 -0.3370
 2789SOL    HW220004   4.613   1.122   3.682  1.5595  1.0105  0.0966
 2790SOL     OW20005   3.200   4.109   1.431 -0.0013 -0.4245  0.0089
 2790SOL    HW120006   3.286   4.124   1.391  1.1975 -1.0305  2.3471
 2790SOL    HW220007   3.214   4.156   1.513  0.4704 -1.5528  0.5666
 2791SOL     OW20008   4.469   3.942   5.530  0.1354  0.2136 -0.5144
 2791SOL    HW120009   4.401   3.922   5.465  0.9149 -0.9924 -0.9811
 2791SOL    HW220010   4.418   3.919   5.607  0.2564  2.6230  0.2772
 2792SOL     OW20011   3.272   4.434   4.715  0.5093 -0.0385 -0.0674
 2792SOL    HW120012   3.295   4.524   4.738  0.6746 -0.0908 -0.0323
 2792SOL    HW220013   3.327   4.384   4.775  0.7744 -1.1828 -1.2520
 2793SOL     OW20014   1.620   3.223   5.927 -0.1358  0.8068  0.1284
 2793SOL    HW120015   1.619   3.300   5.983 -1.1208  0.7342  0.2116
 2793SOL    HW220016   1.694   3.174   5.963 -0.8527  0.8333  1.6208
 2794SOL     OW20017   2.695   0.907   6.231 -0.1435  0.2278 -0.3834
 2794SOL    HW120018   2.736   0.935   6.149  2.9434  1.9935  1.8008
 2794SOL    HW220019   2.769   0.862   6.271  0.9592  1.1704 -1.3890
 2795SOL     OW20020   1.616   3.454   7.847  0.3303  0.6169 -0.2523
 2795SOL    HW120021   1.649   3.365   7.860  0.1566  0.2898 -2.1244
 2795SOL    HW220022   1.541   3.452   7.788 -0.1933  1.4260  0.3869
 2796SOL     OW20023   0.330   2.792  10.401  0.0369 -0.0646 -0.3478
 2796SOL    HW120024   0.317   2.703  10.368  2.3585 -0.3839 -0.4215
 2796SOL    HW220025   0.422   2.782  10.426 -0.1721 -0.1163  0.3884
 2797SOL     OW20026   3.842   1.780  12.618  0.0490 -0.3133  0.8686
 2797SOL    HW120027   3.853   1.868  12.581 -1.5392 -0.3896  0.2217
 2797SOL    HW220028   3.832   1.804  12.710  0.0637  2.0024  0.2758
 2798SOL     OW20029   0.272   2.784   9.724 -0.1053  0.3035 -0.0608
 2798SOL    HW120030   0.322   2.861   9.699 -0.4561  0.2362 -0.9496
 2798SOL    HW220031   0.234   2.750   9.643 -0.6678  1.6361 -0.3458
 2799SOL     OW20032   0.614   1.594   2.076  0.2650 -0.2576 -0.1281
 2799SOL    HW120033   0.570   1.646   2.009 -0.7219 -0.1784  0.5799
 2799SOL    HW220034   0.540   1.608   2.135  2.0725  1.3722  1.8083
 2800SOL     OW20035   1.677   0.460   6.702 -0.3960  0.2050 -0.5665
 2800SOL    HW120036   1.730   0.500   6.633 -0.4390  0.2364 -0.5816
 2800SOL    HW220037   1.632   0.534   6.744 -0.5747 -1.8113  2.8043
 2801SOL     OW20038   3.690   2.228  11.367  0.0133  0.0610  0.2518
 2801SOL    HW120039   3.773   2.271  11.348  0.1900 -0.8787 -1.0903
 2801SOL    HW220040   3.711   2.140  11.336  1.4404  1.2124 -2.0306
 2802SOL     OW20041   1.364   3.421   9.783 -0.1092 -0.3202  0.2832
 2802SOL    HW120042   1.348   3.396   9.874 -0.8672 -0.6617  0.0556
 2802SOL    HW220043   1.408   3.506   9.783 -0.5733 -0.0845 -0.6623
 2803SOL     OW20044   0.198   4.655   6.963  0.4698 -0.4557  0.1231
 2803SOL    HW120045   0.256   4.726   6.991 -0.3612  0.5716 -0.8037
 2803SOL    HW220046   0.260   4.605   6.909  0.6955  1.1650 -1.1041
 2804SOL     OW20047   3.424   0.874   3.623  0.3902 -0.7872 -0.3760
 2804SOL    HW120048   3.467   0.904   3.543 -0.1691  0.9517 -0.0101
 2804SOL    HW220049   3.369   0.798   3.600 -0.6343  0.7883 -3.1560
 2805SOL     OW20050   0.245   3.306   9.229 -0.1333  0.4220  0.0843
 2805SOL    HW120051   0.277   3.229   9.277 -2.1603  0.5608  1.6665
 2805SOL    HW220052   0.300   3.295   9.151  0.2813 -0.7733  0.5466
 2806SOL     OW20053   0.979   4.297   8.940  0.5879  0.4098 -0.0264
 2806SOL    HW120054   0.974   4.251   8.856  3.3543  1.3679 -0.7167
 2806SOL    HW220055   0.980   4.389   8.914 -1.2930  0.1931 -0.8929
 2807SOL     OW20056   2.264   1.063   7.244  0.0193 -0.0284 -0.1498
 2807SOL    HW120057   2.281   1.155   7.260  0.6020  0.0096 -0.9877
 2807SOL    HW220058   2.254   1.026   7.332 -0.6875 -1.9127 -1.0046
 2808SOL     OW20059   2.335   0.147   3.938  0.2922  0.1183 -0.1379
 2808SOL    HW120060   2.312   0.093   4.013 -1.7202  1.7247  0.4061
 2808SOL    HW220061   2.269   0.216   3.944  0.9381  0.7194  0.0368
 2809SOL     OW20062   0.987   0.646   9.265  0.3933 -0.2636  0.0673
 2809SOL    HW120063   1.041   0.668   9.189 -1.5754 -0.2470 -1.3069
 2809SOL    HW220064   0.921   0.714   9.255  0.7753  0.5884  3.4574
 2810SOL     OW20065   2.513   3.365   9.551 -0.3726  0.0425  0.8149
 2810SOL    HW120066   2.552   3.440   9.595  0.3011  0.4468 -0.5025
 2810SOL    HW220067   2.420   3.384   9.543 -0.2875 -0.3982 -1.1714
 2811SOL     OW20068   4.120   3.782   0.668 -0.3694  0.5219 -0.1608
 2811SOL    HW120069   4.095   3.873   0.651 -1.3415  0.4998  1.1666
 2811SOL    HW220070   4.193   3.768   0.608 -1.1168 -1.1674 -0.6793
 2812SOL     OW20071   3.916   4.448   3.537  0.4673 -0.4789 -0.4102
 2812SOL    HW120072   3.950   4.360   3.552 -2.3088 -1.4304  0.3986
 2812SOL    HW220073   3.969   4.491   3.603  0.3616 -0.5849 -0.2556
 2813SOL     OW20074   2.218   0.463   2.905  0.5139  0.3796 -1.2206
 2813SOL    HW120075   2.204   0.428   2.817  0.9405 -0.3570 -0.9930
 2813SOL    HW220076   2.140   0.517   2.913 -0.4375 -1.0215 -1.0689
 2814SOL     OW20077   1.005   3.943   9.730  0.0863  0.3515 -0.7406
 2814SOL    HW120078   1.055   3.895   9.664  1.4301 -0.4428  0.8585
 2814SOL    HW220079   0.973   4.010   9.669  0.9920 -0.4647 -2.1153
 2815SOL     OW20080   1.251   2.885  10.039  0.2492  0.6752 -0.1831
 2815SOL    HW120081   1.159   2.903  10.058 -0.4184 -2.9355  0.0617
 2815SOL    HW220082   1.267   2.813  10.099 -2.7303  1.8162  2.0060
 2816SOL     OW20083   0.841   2.614   5.487  0.3579  0.5696 -0.4157
 2816SOL    HW120084   0.927   2.655   5.474  0.8864 -1.0730 -2.1676
 2816SOL    HW220085   0.855   2.569   5.571 -1.1154 -0.0160 -0.4946
 2817SOL     OW20086   2.783   2.007  15.229 -0.1909  0.3773 -0.0003
 2817SOL    HW120087   2.828   1.932  15.268  0.7764 -0.3632 -2.5227
 2817SOL    HW220088   2.845   2.077  15.250 -0.2256  0.4211 -0.0440
 2818SOL     OW20089   2.242   4.308   4.191 -0.3037 -0.4875 -0.7151
 2818SOL    HW120090   2.199   4.305   4.277  1.1144 -0.8439 -0.0144
 2818SOL    HW220091   2.191   4.371   4.141 -0.3573  0.7639  0.9086
 2819SOL     OW20092   3.238   2.164   3.506  0.3792  0.0867 -0.8191
 2819SOL    HW120093   3.290   2.221   3.562  0.6127 -0.3987 -0.5387
 2819SOL    HW220094   3.153   2.207   3.515 -0.4019 -1.4159 -1.0683
 2820SOL     OW20095   3.823   3.691  17.535 -0.3973  0.1186 -0.3044
 2820SOL    HW120096   3.766   3.698  17.458  1.3810 -1.3581 -1.7577
 2820SOL    HW220097   3.820   3.597  17.553  2.1483  0.2496  0.8089
 2821SOL     OW20098   1.864   2.703   1.867  0.1078  0.4867  0.3310
 2821SOL    HW120099   1.911   2.626   1.899  0.4216 -0.5491 -2.6537
 2821SOL    HW220100   1.935   2.767   1.877  0.8760 -0.2779 -0.1758
 2822SOL     OW20101   3.951   0.495  10.715 -0.3228 -0.1438 -0.3293
 2822SOL    HW120102   3.929   0.466  10.626 -1.9046  1.6935 -0.5371
 2822SOL    HW220103   3.870   0.485  10.765 -1.1214 -0.3333 -1.6654
 2823SOL     OW20104   0.175   0.611   2.016 -0.2462  0.1442 -0.0148
 2823SOL    HW120105   0.246   0.650   2.066 -0.9889 -1.5251  2.3449
 2823SOL    HW220106   0.197   0.664   1.940 -0.5539  1.0424  0.5253
 2824SOL     OW20107   0.084   2.480   8.408 -0.1727 -0.0290 -0.0788
 2824SOL    HW120108   0.174   2.496   8.435 -0.4148  2.0334 -0.4923
 2824SOL    HW220109   0.036   2.554   8.445 -0.6888  0.6824 -2.1747
 2825SOL     OW20110   4.409   2.989   3.635  0.9848 -0.2647 -0.3500
 2825SOL    HW120111   4.430   3.029   3.719 -3.2843  0.9059  0.1617
 2825SOL    HW220112   4.477   2.921   3.634  0.4889 -0.7637 -0.1688
 2826SOL     OW20113   2.627   1.352   7.278 -0.2286  0.2201  0.1488
 2826SOL    HW120114   2.711   1.389   7.306  0.4382  0.8407 -2.6906
 2826SOL    HW220115   2.574   1.395   7.346 -0.3826 -1.2602  0.9657
 2827SOL     OW20116   2.491   0.626   3.611 -0.2208 -0.2710 -0.0263
 2827SOL    HW120117   2.563   0.685   3.587 -1.6059  1.2387 -0.5089
 2827SOL    HW220118   2.415   0.682   3.595 -0.7885 -1.2315 -0.6778
 2828SOL     OW20119   0.506   3.686   4.433  0.3104 -0.2883  0.6748
 2828SOL    HW120120   0.446   3.611   4.433  1.3243 -1.1129  3.7288
 2828SOL    HW220121   0.470   3.738   4.361  0.9344 -0.9082 -0.0803
 2829SOL     OW20122   3.285   1.068   9.253 -0.5652  0.2047 -0.4008
 2829SOL    HW120123   3.206   1.122   9.250  0.6233  2.0491  1.2431
 2829SOL    HW220124   3.292   1.042   9.345  0.0660 -0.6520 -0.6907
 2830SOL     OW20125   2.434   0.911   7.112  0.4854  0.2355  0.1022
 2830SOL    HW120126   2.391   0.974   7.170 -0.5898 -0.2386 -0.1844
 2830SOL    HW220127   2.439   0.958   7.028  1.2541  0.2442  0.1514
 2831SOL     OW20128   1.050   3.222  12.558  0.3857 -0.2384 -0.0193
 2831SOL    HW120129   1.041   3.148  12.618  0.2045  0.1094  0.3804
 2831SOL    HW220130   1.064   3.180  12.473  1.1059  1.3448 -0.6803
 2832SOL     OW20131   1.895   0.610  16.478 -0.0098  0.5383  0.4738
 2832SOL    HW120132   1.876   0.701  16.500 -0.7534  0.0013  2.0321
 2832SOL    HW220133   1.834   0.590  16.407  1.2036  2.1214 -1.0247
 2833SOL     OW20134   2.652   1.772  12.940  0.3551  0.5549  0.3322
 2833SOL    HW120135   2.682   1.762  12.850  1.9990  1.4380  0.7797
 2833SOL    HW220136   2.714   1.838  12.970 -0.3238  0.3933  2.1172
 2834SOL     OW20137   1.919   1.856   3.464  0.2294  0.1765 -0.2992
 2834SOL    HW120138   1.900   1.804   3.387 -0.2898  0.0397 -0.0815
 2834SOL    HW220139   1.872   1.820   3.539 -1.9094  1.0010 -1.2400
 2835SOL     OW20140   3.914   3.635  15.473 -0.0907  0.0126 -0.5211
 2835SOL    HW120141   3.957   3.643  15.388 -4.4063  2.3683 -2.4498
 2835SOL    HW220142   3.906   3.727  15.499 -1.5402 -0.5650  1.0687
 2836SOL     OW20143   4.362   3.252  11.443 -0.6838  0.1585 -0.1971
 2836SOL    HW120144   4.423   3.186  11.410 -0.3697  0.6097 -0.5224
 2836SOL    HW220145   4.293   3.240  11.378 -0.2918 -0.1808 -0.5509
 2837SOL     OW20146   1.689   1.290   7.876  0.4248 -0.3758 -0.1196
 2837SOL    HW120147   1.684   1.287   7.781  1.5618  0.8165 -0.2089
 2837SOL    HW220148   1.608   1.242   7.895 -0.7973  1.6062 -0.3263
 2838SOL     OW20149   0.377   1.584   4.519  0.2336 -0.1707  0.3917
 2838SOL    HW120150   0.453   1.588   4.577  0.6376  1.7898 -0.2918
 2838SOL    HW220151   0.418   1.621   4.441 -0.0644 -1.2183 -0.2643
 2839SOL     OW20152   3.743   0.125  11.521  0.0817 -0.0196 -0.2880
 2839SOL    HW120153   3.727   0.116  11.616 -0.6396  0.3891 -0.3655
 2839SOL    HW220154   3.734   0.218  11.499 -0.4547  0.0710  0.3102
 2840SOL     OW20155   2.465   2.850   4.508 -0.2468 -0.5119 -0.5384
 2840SOL    HW120156   2.467   2.920   4.442 -2.0738  1.8486  1.9069
 2840SOL    HW220157   2.390   2.879   4.561 -0.3482 -0.6896 -0.5834
 2841SOL     OW20158   4.562   3.462   7.862  0.3747  0.2064 -0.0587
 2841SOL    HW120159   4.634   3.508   7.905 -0.7582  0.9275  1.0974
 2841SOL    HW220160   4.546   3.528   7.795  1.4715  0.7412  0.1977
 2842SOL     OW20161   0.891   1.000   5.386 -0.1217 -0.7252  0.4085
 2842SOL    HW120162   0.850   0.916   5.363  0.7360 -1.0270  0.0020
 2842SOL    HW220163   0.981   0.991   5.357  0.1101 -2.5134  1.6568
 2843SOL     OW20164   4.210   1.595  12.866  0.0174  0.0015 -0.0938
 2843SOL    HW120165   4.158   1.583  12.787  0.7645  1.6046 -0.8393
 2843SOL    HW220166   4.290   1.545  12.853  0.1074  0.1000  0.0758
 2844SOL     OW20167   4.430   4.590   2.245 -0.3624  0.0048  0.2792
 2844SOL    HW120168   4.430   4.631   2.332 -0.6963  0.1383  0.2184
 2844SOL    HW220169   4.387   4.659   2.195  1.1387  1.0419  0.4109
 2845SOL     OW20170   4.098   3.344   2.571 -0.0542  0.3272 -0.0246
 2845SOL    HW120171   4.162   3.334   2.641 -1.6723  1.1903  1.5952
 2845SOL    HW220172   4.146   3.401   2.510  1.7019  0.1998  1.2684
 2846SOL     OW20173   1.340   3.913  15.732 -0.4138 -0.7066  0.3958
 2846SOL    HW120174   1.334   3.977  15.662  0.0142 -1.6943 -0.5454
 2846SOL    HW220175   1.356   3.964  15.811  0.5010 -1.5420  0.7430
 2847SOL     OW20176   4.667   0.253   9.738  0.6759  0.0100 -0.1967
 2847SOL    HW120177   4.590   0.230   9.791  0.5133  2.7294  0.7317
 2847SOL    HW220178   4.732   0.278   9.804  0.5137  1.1902 -0.4971
 2848SOL     OW20179   0.584   0.851   7.148 -0.0103 -0.3434  0.0970
 2848SOL    HW120180   0.606   0.826   7.058  0.6067 -1.6776  0.6299
 2848SOL    HW220181   0.555   0.941   7.131  0.6673 -0.6401 -2.6065
 2849SOL     OW20182   0.198   3.808   0.836 -0.3589 -0.0040  0.1832
 2849SOL    HW120183   0.287   3.775   0.820 -0.7055 -0.2392 -1.2437
 2849SOL    HW220184   0.179   3.756   0.914  0.1901  2.3667  1.8899
 2850SOL     OW20185   4.070   0.949   7.496 -0.6241  0.3843  0.0195
 2850SOL    HW120186   4.037   0.862   7.519  0.3956 -0.1223 -0.4182
 2850SOL    HW220187   3.993   0.998   7.524  0.6412  1.1194  2.1733
 2851SOL     OW20188   2.151   0.280   6.773 -0.5358  0.1251  0.2760
 2851SOL    HW120189   2.078   0.228   6.741 -0.7101 -0.1331  1.0984
 2851SOL    HW220190   2.193   0.205   6.815 -0.0431 -0.8027 -1.9014
 2852SOL     OW20191   4.186   4.709   6.625  0.0716  0.0962 -0.5566
 2852SOL    HW120192   4.269   0.008   6.659 -0.4083  0.1255  0.5988
 2852SOL    HW220193   4.135   0.054   6.639  2.2219  1.5411 -1.1435
 2853SOL     OW20194   4.724   1.716   2.252  0.2260  0.2363 -0.4009
 2853SOL    HW120195   0.010   1.772   2.326  1.7187  0.8996 -1.3366
 2853SOL    HW220196   0.070   1.697   2.205  0.9505  0.2900  0.8515
 2854SOL     OW20197   3.170   4.600   2.737  0.4527  0.2488 -0.9777
 2854SOL    HW120198   3.164   4.581   2.643  1.6897 -0.3276 -0.9353
 2854SOL    HW220199   3.121   4.522   2.762 -0.5991  1.7415  1.5630
 2855SOL     OW20200   0.776   2.913   6.580 -0.4543 -0.4067  0.3672
 2855SOL    HW120201   0.691   2.898   6.621 -0.7397 -3.5058 -1.3815
 2855SOL    HW220202   0.796   2.822   6.556  1.1722 -0.8003  3.2214
 2856SOL     OW20203   2.785   0.776   5.493 -0.1474  0.4067 -0.0999
 2856SOL    HW120204   2.789   0.711   5.562 -1.9585  0.1036 -0.2837
 2856SOL    HW220205   2.812   0.852   5.544  0.6232 -0.2338  0.4446
 2857SOL     OW20206   0.345   1.372  16.164 -0.5569 -0.0625  0.0441
 2857SOL    HW120207   0.440   1.376  16.179 -0.6848  1.1634  0.5225
 2857SOL    HW220208   0.327   1.463  16.143 -1.1516 -0.4987 -1.3177
 2858SOL     OW20209   0.395   1.278   4.683  0.8796 -0.3574 -0.4458
 2858SOL    HW120210   0.380   1.304   4.774 -1.5951 -3.7514  0.1484
 2858SOL    HW220211   0.468   1.335   4.658  0.7256  0.3460  0.6939
 2859SOL     OW20212   0.550   1.293   4.289  0.0515  0.9141  0.2429
 2859SOL    HW120213   0.629   1.334   4.324 -0.9682  1.4176  1.9524
 2859SOL    HW220214   0.476   1.353   4.300  0.2342  1.0669  0.6225
 2860SOL     OW20215   1.515   0.631   5.408 -0.0297  0.0730 -0.2187
 2860SOL    HW120216   1.590   0.598   5.456  0.1835 -0.1340 -0.6920
 2860SOL    HW220217   1.500   0.717   5.447  1.1544  0.0633  0.2316
 2861SOL     OW20218   4.025   0.140   4.655  0.2807 -0.2867 -0.3137
 2861SOL    HW120219   4.118   0.155   4.672  0.0581 -1.0242  1.5518
 2861SOL    HW220220   4.021   0.127   4.560  0.1185 -3.3281  0.1350
 2862SOL     OW20221   4.606   1.676   4.522 -0.1927 -0.4255 -0.0967
 2862SOL    HW120222   4.544   1.622   4.473  0.5013 -0.1432 -1.2808
 2862SOL    HW220223   4.544   1.731   4.570  0.8761  0.6304  0.0707
 2863SOL     OW20224   0.032   2.465   8.105 -0.0745  0.1055 -0.1006
 2863SOL    HW120225   0.112   2.412   8.102  1.1429  2.0310 -1.4439
 2863SOL    HW220226   0.029   2.485   8.199  1.2262  0.3452 -0.1078
 2864SOL     OW20227   2.101   1.331   5.860  0.2456  0.7110 -0.4708
 2864SOL    HW120228   2.144   1.300   5.941 -0.1038  0.0370 -0.5455
 2864SOL    HW220229   2.173   1.297   5.806  1.0960  1.5083  0.1634
 2865SOL     OW20230   2.121   2.221   5.757 -0.1691  0.0015  0.3632
 2865SOL    HW120231   2.115   2.221   5.661  1.2423 -1.1191  0.2678
 2865SOL    HW220232   2.068   2.146   5.784  1.4786 -1.1658  0.3696
 2866SOL     OW20233   4.373   3.820   1.942 -0.3009  0.3386  0.7251
 2866SOL    HW120234   4.347   3.730   1.963 -0.8576 -0.0129 -1.4503
 2866SOL    HW220235   4.410   3.805   1.855 -0.6932 -0.7238  0.7381
 2867SOL     OW20236   4.466   3.196   8.537 -0.2829  0.1590 -0.3601
 2867SOL    HW120237   4.435   3.151   8.458  1.1896 -1.8010  0.1617
 2867SOL    HW220238   4.378   3.225   8.558 -0.2596 -1.4172  1.8461
 2868SOL     OW20239   2.324   1.126   2.593  0.6697  0.1411 -1.0639
 2868SOL    HW120240   2.286   1.121   2.681  0.3332 -2.0805 -1.3274
 2868SOL    HW220241   2.368   1.211   2.595 -2.1468  1.5509  1.4864
 2869SOL     OW20242   4.499   2.815   6.671  1.1496  0.6344 -0.4796
 2869SOL    HW120243   4.513   2.885   6.608 -2.2084  1.3599 -0.4268
 2869SOL    HW220244   4.448   2.751   6.622  0.4286  1.3511 -0.6666
 2870SOL     OW20245   0.463   2.437  12.004  0.4772  0.3588  0.1371
 2870SOL    HW120246   0.456   2.344  12.026 -0.8242 -0.0922 -2.1868
 2870SOL    HW220247   0.527   2.429  11.933  0.8063  0.6233  0.4057
 2871SOL     OW20248   0.003   3.670   8.082 -0.0348  0.5646  0.2195
 2871SOL    HW120249   4.667   3.726   8.114 -1.1499 -1.2950  0.9694
 2871SOL    HW220250   0.065   3.735   8.049  0.9711  0.1795  1.3358
 2872SOL     OW20251   3.584   0.804   6.036 -0.2340 -0.2263 -0.2143
 2872SOL    HW120252   3.551   0.845   5.955  0.5559  1.6187  0.3911
 2872SOL    HW220253   3.528   0.727   6.039  1.4406 -1.5116 -1.6438
 2873SOL     OW20254   2.558   2.864  16.515 -0.1642  0.3654  0.2598
 2873SOL    HW120255   2.516   2.949  16.505  0.4538  0.8061  1.4482
 2873SOL    HW220256   2.499   2.822  16.578  1.6091 -0.7743  1.1540
 2874SOL     OW20257   1.278   3.499   7.350 -0.2673 -0.1444  1.0751
 2874SOL    HW120258   1.200   3.450   7.375 -0.3159  0.5369  2.2426
 2874SOL    HW220259   1.280   3.496   7.254  0.6651  0.7432  1.0683
 2875SOL     OW20260   3.214   3.415   6.432 -0.3280  0.2193 -0.5784
 2875SOL    HW120261   3.186   3.502   6.459  0.4170 -0.3295  2.0168
 2875SOL    HW220262   3.135   3.363   6.451  0.4771 -0.5866  0.6109
 2876SOL     OW20263   1.823   2.805   1.621 -0.2270 -0.4948 -0.1088
 2876SOL    HW120264   1.851   2.742   1.556 -0.9345 -0.5256 -0.3801
 2876SOL    HW220265   1.825   2.743   1.694 -1.5005 -2.2853 -1.6129
 2877SOL     OW20266   1.796   2.351   8.186  0.2075  0.2403 -0.1146
 2877SOL    HW120267   1.835   2.344   8.098  1.2441  0.5880  0.3114
 2877SOL    HW220268   1.827   2.272   8.229  0.8838  0.7411  0.3129
 2878SOL     OW20269   0.085   3.567  12.075  0.0366 -0.3258 -0.2755
 2878SOL    HW120270   0.063   3.476  12.093  1.6919 -0.3832  1.4025
 2878SOL    HW220271   4.733   3.606  12.065 -0.1115  0.2155  2.9376
 2879SOL     OW20272   1.526   3.400   4.864 -0.1102 -0.0121  0.2338
 2879SOL    HW120273   1.596   3.458   4.835 -0.4081 -0.1898 -0.8224
 2879SOL    HW220274   1.472   3.470   4.902 -0.9497 -0.7933  0.4855
 2880SOL     OW20275   2.269   0.836   5.957 -0.4120 -0.4719  0.0583
 2880SOL    HW120276   2.298   0.868   5.872  2.2293  0.6068  1.3445
 2880SOL    HW220277   2.215   0.762   5.929 -0.6092 -0.2313 -0.1833
 2881SOL     OW20278   2.276   2.575  11.072 -0.2914  0.1008 -0.3288
 2881SOL    HW120279   2.289   2.629  11.150 -1.5294 -0.8751  0.5798
 2881SOL    HW220280   2.314   2.624  11.000 -1.0523  1.9692  0.5441
 2882SOL     OW20281   2.154   3.572   0.237  0.3152 -0.5865 -0.4066
 2882SOL    HW120282   2.234   3.520   0.242  0.8471  0.4601  1.8021
 2882SOL    HW220283   2.192   3.657   0.258 -1.7509  0.1562  0.2259
 2883SOL     OW20284   2.467   1.129   6.046 -0.1833 -0.0028  0.1064
 2883SOL    HW120285   2.459   1.188   6.121 -1.0614  1.3841 -1.0656
 2883SOL    HW220286   2.401   1.180   5.999 -0.1637  0.2489  0.3508
 2884SOL     OW20287   4.437   2.273   8.263  0.1356  0.4389  0.0434
 2884SOL    HW120288   4.449   2.359   8.303  1.0879  0.8076 -1.0369
 2884SOL    HW220289   4.352   2.291   8.223 -0.2626 -0.6716  0.4092
 2885SOL     OW20290   0.778   1.786   6.190 -0.5880 -0.3314 -0.0619
 2885SOL    HW120291   0.843   1.855   6.178 -0.1077 -0.9533 -1.0145
 2885SOL    HW220292   0.727   1.824   6.262  2.3375  0.2949  1.7040
 2886SOL     OW20293   2.371   0.172   7.115  1.0403  0.4589  0.0701
 2886SOL    HW120294   2.462   0.151   7.093  0.6885  1.9044 -2.6541
 2886SOL    HW220295   2.377   0.258   7.156  0.8249  0.3580  0.3158
 2887SOL     OW20296   2.662   4.176  17.083 -0.1414 -0.8266  0.0990
 2887SOL    HW120297   2.647   4.155  16.991  0.8522 -2.5211  0.3382
 2887SOL    HW220298   2.748   4.134  17.085  0.5443  0.5960  0.0124
 2888SOL     OW20299   0.692   3.714   1.226 -0.2155 -0.1193  0.0316
 2888SOL    HW120300   0.764   3.769   1.197 -0.5481 -0.9539 -2.3771
 2888SOL    HW220301   0.742   3.644   1.269  2.7499  2.3131  0.5174
 2889SOL     OW20302   0.347   1.095   2.847  0.0684 -0.4408  0.5286
 2889SOL    HW120303   0.325   1.185   2.826  0.9532 -0.9020 -2.4030
 2889SOL    HW220304   0.435   1.096   2.809 -1.6254  1.0778 -3.2854
 2890SOL     OW20305   2.751   4.120   2.972  0.4493  0.0237  0.5213
 2890SOL    HW120306   2.681   4.093   3.031  0.3380  0.3666  0.5502
 2890SOL    HW220307   2.791   4.035   2.958  0.9083  0.2553  0.4496
 2891SOL     OW20308   1.406   1.536   6.149 -0.5198  0.1015  0.6030
 2891SOL    HW120309   1.364   1.451   6.162  1.4830 -0.8164  1.0597
 2891SOL    HW220310   1.322   1.576   6.123 -0.3741  0.3176  0.4658
 2892SOL     OW20311   0.232   3.558  10.678 -0.0545 -0.5127  0.0491
 2892SOL    HW120312   0.176   3.494  10.724  0.8494  0.2804  2.2298
 2892SOL    HW220313   0.162   3.622  10.672  1.4714  1.0080 -1.2105
 2893SOL     OW20314   1.250   2.439   2.391  0.5032  0.0604  0.6869
 2893SOL    HW120315   1.316   2.384   2.432  2.4230  1.0768 -1.0532
 2893SOL    HW220316   1.220   2.382   2.320  0.6287 -0.8918  1.4038
 2894SOL     OW20317   2.533   1.121  13.422  0.4081  0.1644  0.2156
 2894SOL    HW120318   2.552   1.112  13.516  2.8109  1.2046 -0.1729
 2894SOL    HW220319   2.531   1.216  13.414  1.7389  0.1521 -0.3258
 2895SOL     OW20320   2.259   0.661   4.955  0.7946  0.3050  0.4926
 2895SOL    HW120321   2.296   0.641   5.041  1.2859 -0.6352  0.0613
 2895SOL    HW220322   2.282   0.754   4.953  0.3413  0.4208  0.4661
 2896SOL     OW20323   1.857   4.657   2.512  0.1615  0.2250  0.0270
 2896SOL    HW120324   1.922   4.727   2.502 -1.3807  1.4946 -0.9994
 2896SOL    HW220325   1.819   4.660   2.425 -1.6037 -1.5339  0.7578
 2897SOL     OW20326   0.745   3.603  12.681 -0.0838 -0.5221  0.4296
 2897SOL    HW120327   0.771   3.688  12.717 -0.8834  0.0947 -0.4536
 2897SOL    HW220328   0.820   3.545  12.696 -0.8186 -1.7361 -0.5935
 2898SOL     OW20329   0.067   2.876   3.602 -0.1999 -0.0399  0.2994
 2898SOL    HW120330   0.033   2.946   3.658 -1.7363 -1.5899  1.2881
 2898SOL    HW220331   0.160   2.878   3.623  0.2644  1.9475 -1.9317
 2899SOL     OW20332   3.041   2.673   2.977  0.3079 -0.0851 -0.1276
 2899SOL    HW120333   3.000   2.610   3.036  1.1229 -0.8840 -0.4078
 2899SOL    HW220334   3.093   2.716   3.046 -1.7801  0.0099  1.3815
 2900SOL     OW20335   2.758   2.866   5.819 -0.6530 -0.0565 -0.1481
 2900SOL    HW120336   2.818   2.795   5.795  0.7826  1.1415 -0.0423
 2900SOL    HW220337   2.703   2.821   5.884 -1.6792 -1.6402 -2.0951
 2901SOL     OW20338   3.156   3.895   5.280  0.0268  0.3066  0.5543
 2901SOL    HW120339   3.131   3.948   5.204  0.5718  2.5379  1.9142
 2901SOL    HW220340   3.150   3.957   5.352  0.1140  2.9708 -1.7179
 2902SOL     OW20341   0.385   2.000   7.889 -0.0634 -0.2801 -0.3040
 2902SOL    HW120342   0.325   1.981   7.817 -2.2081 -0.0147  1.3987
 2902SOL    HW220343   0.452   1.936   7.866  1.5878  0.7512  1.5945
 2903SOL     OW20344   3.114   2.843  11.109  0.6500  0.0599 -0.2888
 2903SOL    HW120345   3.176   2.832  11.037  1.4614  2.0132  0.1055
 2903SOL    HW220346   3.100   2.937  11.102  0.4659 -0.0189 -1.0554
 2904SOL     OW20347   3.721   3.356   3.040  1.1575  0.5196  0.1513
 2904SOL    HW120348   3.626   3.358   3.030  1.2161 -2.5945 -1.0744
 2904SOL    HW220349   3.744   3.287   2.978 -1.0002 -1.1586  1.2318
 2905SOL     OW20350   2.299   2.980   4.704  0.6960 -0.3120 -0.1934
 2905SOL    HW120351   2.248   2.966   4.783 -0.9613  0.9500 -1.0351
 2905SOL    HW220352   2.313   3.075   4.709  0.0383 -0.1377 -1.7316
 2906SOL     OW20353   3.785   3.982   4.971 -0.3457 -0.4128 -0.0279
 2906SOL    HW120354   3.698   3.973   5.009  0.2589  1.4749  1.7950
 2906SOL    HW220355   3.803   3.895   4.936 -1.8985 -0.4581 -0.6891
 2907SOL     OW20356   4.443   1.560   9.045  0.1043  0.1371 -0.5179
 2907SOL    HW120357   4.522   1.609   9.024  1.0364  0.4671  3.7528
 2907SOL    HW220358   4.420   1.516   8.963  0.3166 -0.1087 -0.4427
 2908SOL     OW20359   1.672   2.138   2.101 -0.2387 -0.2607 -0.1345
 2908SOL    HW120360   1.614   2.209   2.075  1.2355  0.7814 -0.5493
 2908SOL    HW220361   1.612   2.077   2.145  1.3013 -0.3849  1.8027
 2909SOL     OW20362   0.372   4.016  16.895  0.2567  0.3375 -0.2717
 2909SOL    HW120363   0.332   4.087  16.945 -1.6327 -3.9746  4.4002
 2909SOL    HW220364   0.338   4.037  16.808  0.2270 -1.3298 -0.6570
 2910SOL     OW20365   0.069   1.270   5.201  0.1014  0.4872  0.0886
 2910SOL    HW120366   4.733   1.256   5.137  0.7973 -0.6767 -0.4362
 2910SOL    HW220367   0.037   1.350   5.242 -1.0539 -0.7116  1.4986
 2911SOL     OW20368   2.379   0.468  14.064 -0.4629 -0.0007  0.0328
 2911SOL    HW120369   2.359   0.377  14.044  1.2555 -0.1024 -1.1167
 2911SOL    HW220370   2.302   0.516  14.032  0.5577  1.1144 -0.7413
 2912SOL     OW20371   4.661   1.892   0.270 -0.6129 -0.1157 -0.3515
 2912SOL    HW120372   4.607   1.844   0.333 -1.6811 -0.5376 -1.5997
 2912SOL    HW220373   0.010   1.896   0.316 -0.3182 -0.0802 -0.8892
 2913SOL     OW20374   3.701   3.988   8.291  0.2737  0.3327 -0.4042
 2913SOL    HW120375   3.621   4.036   8.315 -0.4095 -0.4617 -1.0808
 2913SOL    HW220376   3.748   4.023   8.367  1.0730 -1.6274  0.0040
 2914SOL     OW20377   0.468   4.045   4.273  0.5356  0.1076  0.1208
 2914SOL    HW120378   0.392   4.026   4.329 -0.4288 -0.5144 -1.3823
 2914SOL    HW220379   0.538   4.016   4.330  0.0195  2.3441  1.9013
 2915SOL     OW20380   4.030   2.335   4.216  0.5205 -0.0285  0.0591
 2915SOL    HW120381   3.976   2.259   4.195  0.2643  0.2572 -0.3330
 2915SOL    HW220382   4.040   2.332   4.311  1.0503  0.9792  0.0352
 2916SOL     OW20383   2.273   4.153   5.804  0.1057 -0.2228 -0.7018
 2916SOL    HW120384   2.304   4.092   5.738  2.6114  0.3868 -0.0953
 2916SOL    HW220385   2.347   4.158   5.864  0.6860  2.3921 -1.6300
 2917SOL     OW20386   2.907   0.022  14.252 -0.2287  0.6881 -0.0120
 2917SOL    HW120387   2.974   4.694  14.227 -0.0533  1.0543 -0.4597
 2917SOL    HW220388   2.943   0.047  14.337  1.5274 -2.8079  0.2765
 2918SOL     OW20389   4.195   1.211  16.186 -0.2245  0.5042  0.3846
 2918SOL    HW120390   4.158   1.253  16.108  0.8224  0.6356 -0.0378
 2918SOL    HW220391   4.196   1.281  16.251  3.3901  0.6834  0.1114
 2919SOL     OW20392   2.396   3.366   5.788  0.0887 -0.0286  0.7564
 2919SOL    HW120393   2.307   3.332   5.778  0.0476  0.3572 -0.2004
 2919SOL    HW220394   2.407   3.405   5.874  1.5138 -1.8076  1.3796
 2920SOL     OW20395   2.172   3.967   8.744 -0.4111 -0.2472 -0.2873
 2920SOL    HW120396   2.239   4.034   8.736 -0.9257  0.1120 -1.4815
 2920SOL    HW220397   2.131   3.957   8.658 -0.9862  0.7454 -0.1245
 2921SOL     OW20398   0.164   2.133   5.483  0.9059 -0.0824 -0.1206
 2921SOL    HW120399   0.195   2.043   5.479  0.7984 -0.0892 -0.7100
 2921SOL    HW220400   0.129   2.137   5.394 -0.5685  2.0981  0.5368
 2922SOL     OW20401   0.282   3.008  11.803  0.0080  0.2952  0.3188
 2922SOL    HW120402   0.327   2.964  11.875  0.0768 -2.6038 -1.4586
 2922SOL    HW220403   0.286   3.100  11.829  0.3191  0.1344  0.8545
 2923SOL     OW20404   3.725   2.211   3.952  0.0432  0.1196 -0.2969
 2923SOL    HW120405   3.806   2.195   4.000 -0.4922 -1.7137  0.0093
 2923SOL    HW220406   3.664   2.229   4.024 -0.7667 -1.6911 -0.5128
 2924SOL     OW20407   3.533   0.618   7.299 -0.1058 -0.4111  0.0740
 2924SOL    HW120408   3.623   0.589   7.318  0.4306  1.4946  0.4640
 2924SOL    HW220409   3.475   0.573   7.359  1.0128 -1.6582  0.2211
 2925SOL     OW20410   1.561   3.239   0.727  0.1812  0.5519 -0.2626
 2925SOL    HW120411   1.576   3.284   0.644  0.4133 -0.9197 -1.0140
 2925SOL    HW220412   1.556   3.319   0.780 -2.5384  0.6626 -0.6354
 2926SOL     OW20413   3.677   0.262   7.223  0.0794  0.2364 -0.2490
 2926SOL    HW120414   3.725   0.344   7.228 -2.0710  1.3977  1.0431
 2926SOL    HW220415   3.603   0.285   7.168 -1.4485 -2.4514  0.6793
 2927SOL     OW20416   0.873   4.056  11.461 -0.0714  0.1003 -0.0920
 2927SOL    HW120417   0.855   4.104  11.541  1.8772 -0.5034  0.6975
 2927SOL    HW220418   0.844   3.970  11.492 -0.0748  0.5345  1.0840
 2928SOL     OW20419   2.042   4.628   5.249 -0.0074 -0.0830 -0.0187
 2928SOL    HW120420   1.978   4.694   5.274 -0.0055  0.3095 -1.0627
 2928SOL    HW220421   1.993   4.555   5.210 -1.4686  1.0048 -0.2009
 2929SOL     OW20422   1.195   2.826   7.120 -0.1195  0.4284  0.2674
 2929SOL    HW120423   1.151   2.862   7.196  1.8603 -0.2435  1.7562
 2929SOL    HW220424   1.225   2.746   7.163 -1.5620 -1.7746 -2.7824
 2930SOL     OW20425   2.100   4.421  10.903 -0.0725  0.1613  0.2736
 2930SOL    HW120426   2.081   4.453  10.991 -0.4812  1.6817 -0.3623
 2930SOL    HW220427   2.040   4.476  10.853 -0.4747  0.2526  0.8602
 2931SOL     OW20428   1.913   0.604   9.061  0.2608  0.0920  0.0487
 2931SOL    HW120429   1.912   0.509   9.055 -0.2100  0.1194 -0.3303
 2931SOL    HW220430   1.935   0.641   8.975 -0.2190 -0.5924 -0.3656
 2932SOL     OW20431   1.201   0.064   1.379  0.3906  0.4252 -0.3732
 2932SOL    HW120432   1.213   0.153   1.346  0.9080  0.9768  1.2843
 2932SOL    HW220433   1.219   0.082   1.471  0.5428 -1.3329 -0.0630
 2933SOL     OW20434   1.851   0.181   8.363  0.4186  0.6567 -0.2069
 2933SOL    HW120435   1.884   0.163   8.451 -0.6212 -1.9211 -0.3538
 2933SOL    HW220436   1.883   0.269   8.344  0.6229  0.3254 -1.4000
 2934SOL     OW20437   4.054   2.068   6.372 -0.1485  0.0228  0.0399
 2934SOL    HW120438   3.975   2.013   6.375  0.7919 -1.4203 -1.6326
 2934SOL    HW220439   4.100   2.047   6.453  1.3187 -1.9330 -1.3131
 2935SOL     OW20440   1.277   0.601   1.401 -0.0804  0.1979  0.2304
 2935SOL    HW120441   1.269   0.682   1.450  0.0088  2.3539 -3.3014
 2935SOL    HW220442   1.343   0.629   1.337  1.0165  0.2405  1.3856
 2936SOL     OW20443   2.094   4.191   0.461  0.5193  0.2407 -0.2051
 2936SOL    HW120444   2.054   4.119   0.511  1.9256  0.3358  1.0815
 2936SOL    HW220445   2.178   4.183   0.506  1.4315 -1.1933 -2.1841
 2937SOL     OW20446   2.231   0.542  16.167  0.0349 -0.1721  0.4615
 2937SOL    HW120447   2.236   0.618  16.109  0.7010 -0.3199  0.3300
 2937SOL    HW220448   2.283   0.569  16.242  2.6765 -1.5361 -0.9048
 2938SOL     OW20449   4.048   2.124   8.747  0.3200 -0.0286 -0.6685
 2938SOL    HW120450   4.011   2.068   8.677 -0.7703 -1.1944  0.8412
 2938SOL    HW220451   4.129   2.077   8.768  0.2634  0.6252  0.9584
 2939SOL     OW20452   4.480   3.278   1.727  0.6198  0.0187  0.3689
 2939SOL    HW120453   4.466   3.281   1.633  1.5220 -0.5368  0.2178
 2939SOL    HW220454   4.421   3.347   1.756  0.1415 -0.8053  1.3754
 2940SOL     OW20455   4.538   3.320  10.233  0.1832  0.1598 -0.1921
 2940SOL    HW120456   4.586   3.267  10.170  0.8775 -0.0445  0.5172
 2940SOL    HW220457   4.483   3.377  10.179 -2.5473 -0.7853  1.5927
 2941SOL     OW20458   2.483   0.458   7.225 -0.4689 -0.2181 -0.1831
 2941SOL    HW120459   2.461   0.540   7.268  0.3323  0.6555 -1.4133
 2941SOL    HW220460   2.524   0.399   7.288  1.2956  1.6791  0.4254
 2942SOL     OW20461   2.687   3.424  10.057  0.1351 -0.2776  0.0762
 2942SOL    HW120462   2.648   3.354  10.110  3.1489 -1.3140  0.9644
 2942SOL    HW220463   2.777   3.391  10.048  1.0630  1.5996  2.5117
 2943SOL     OW20464   2.808   2.319   4.525  0.0753 -0.1322 -0.6414
 2943SOL    HW120465   2.891   2.314   4.477  0.9915 -1.2738  1.0780
 2943SOL    HW220466   2.810   2.236   4.572  2.3621  0.6940  0.7148
 2944SOL     OW20467   1.881   0.820   4.490 -0.1294  0.4265 -0.2504
 2944SOL    HW120468   1.925   0.904   4.484  0.4424  0.1558  0.1460
 2944SOL    HW220469   1.852   0.820   4.399  0.4169  0.3524 -0.4242
 2945SOL     OW20470   0.637   2.522   5.953 -0.0668  0.1468 -0.0630
 2945SOL    HW120471   0.584   2.591   5.992  0.5380  1.7954 -2.2035
 2945SOL    HW220472   0.639   2.467   6.032  1.1535  0.0372 -0.1633
 2946SOL     OW20473   3.444   2.240   2.200 -0.2031 -0.1157 -0.3666
 2946SOL    HW120474   3.486   2.231   2.114  1.3979 -0.1824  0.4088
 2946SOL    HW220475   3.514   2.207   2.256  0.2379 -1.1088 -1.5181
 2947SOL     OW20476   2.117   0.043   6.402 -0.2937 -0.0440  0.2936
 2947SOL    HW120477   2.164   0.009   6.326 -1.8709 -0.9539 -0.2684
 2947SOL    HW220478   2.065   4.701   6.425 -1.9992  1.2722  0.8946
 2948SOL     OW20479   2.625   1.422   6.811  0.1599  0.5207  0.0437
 2948SOL    HW120480   2.701   1.448   6.863  0.5329  0.3772 -0.4339
 2948SOL    HW220481   2.649   1.331   6.795 -1.4831  0.0971 -0.0907
 2949SOL     OW20482   4.157   0.382   3.593  0.3598 -0.1435 -0.2522
 2949SOL    HW120483   4.127   0.395   3.503  1.8486  1.7128 -0.4866
 2949SOL    HW220484   4.102   0.310   3.624 -0.7348 -0.1051 -2.0887
 2950SOL     OW20485   0.775   1.301   3.827 -0.1187 -0.2306 -0.2878
 2950SOL    HW120486   0.708   1.255   3.877 -1.2980  0.3193 -1.3805
 2950SOL    HW220487   0.818   1.355   3.893 -0.6555 -0.1643  0.0028
 2951SOL     OW20488   2.302   1.233   5.457 -0.0020 -0.2262 -0.3954
 2951SOL    HW120489   2.325   1.250   5.549  1.0433  3.5347 -1.3523
 2951SOL    HW220490   2.385   1.254   5.416  0.4649  1.5274  1.4165
 2952SOL     OW20491   2.776   1.207   9.410 -0.0244  0.3279 -0.2961
 2952SOL    HW120492   2.835   1.281   9.391 -1.8916  2.0533  0.6808
 2952SOL    HW220493   2.693   1.251   9.424  0.1907 -0.0315  2.0586
 2953SOL     OW20494   0.831   1.739  13.723 -0.1684  0.2735  0.0790
 2953SOL    HW120495   0.799   1.663  13.771  0.3267 -0.2981 -0.4889
 2953SOL    HW220496   0.755   1.796  13.734 -1.1346 -1.1938  0.8462
 2954SOL     OW20497   4.240   1.061   7.679 -0.3319  0.3830  0.7487
 2954SOL    HW120498   4.178   1.026   7.614  1.6707 -2.5188  0.4111
 2954SOL    HW220499   4.251   0.978   7.726 -0.1786  0.4111  0.7603
 2955SOL     OW20500   2.428   4.302   1.461  0.5599 -0.1577  0.5889
 2955SOL    HW120501   2.445   4.231   1.522  0.6762  0.3892  1.1905
 2955SOL    HW220502   2.369   4.257   1.401 -0.1029 -2.4958  3.0316
 2956SOL     OW20503   1.817   4.307   2.221 -0.0957  0.3297 -0.2293
 2956SOL    HW120504   1.899   4.312   2.172  1.8996 -0.2201  3.0762
 2956SOL    HW220505   1.834   4.227   2.270 -0.4984 -0.2642 -1.0619
 2957SOL     OW20506   1.633   4.555  14.559 -0.1391  0.4736  0.3475
 2957SOL    HW120507   1.569   4.574  14.489  0.8260  2.3922 -0.0115
 2957SOL    HW220508   1.592   4.601  14.633 -1.3102 -0.5490  0.3293
 2958SOL     OW20509   3.767   3.128   2.883  0.3728  0.7894 -0.2476
 2958SOL    HW120510   3.817   3.125   2.801  1.7169  0.3213  0.5842
 2958SOL    HW220511   3.723   3.043   2.882  0.5240  0.7059  0.5133
 2959SOL     OW20512   3.663   1.784  15.230  0.1555  0.8194  0.6184
 2959SOL    HW120513   3.752   1.750  15.228  0.3494  1.1777  2.8597
 2959SOL    HW220514   3.617   1.735  15.162  1.2721  0.0863  0.3946
 2960SOL     OW20515   1.591   1.991   8.195  0.6193 -0.0994 -0.4495
 2960SOL    HW120516   1.635   1.931   8.257 -1.0439 -2.3287 -1.4154
 2960SOL    HW220517   1.555   2.059   8.251 -0.0127  0.0318 -1.0238
 2961SOL     OW20518   2.820   0.569   6.253 -0.1573 -0.2095  0.0675
 2961SOL    HW120519   2.774   0.545   6.333 -1.5246  1.5344 -0.2142
 2961SOL    HW220520   2.764   0.525   6.189 -0.1542  1.5703 -1.1428
 2962SOL     OW20521   0.897   4.128   7.807 -0.3294 -0.3036 -0.7915
 2962SOL    HW120522   0.974   4.072   7.817 -0.1502  0.4775  2.0681
 2962SOL    HW220523   0.895   4.135   7.711 -1.2990  0.4691 -0.7090
 2963SOL     OW20524   3.548   3.189   3.591  0.0752  0.4724 -0.3810
 2963SOL    HW120525   3.610   3.230   3.530 -0.2927  1.2267 -0.2503
 2963SOL    HW220526   3.492   3.266   3.605 -1.5961 -0.8259 -0.0123
 2964SOL     OW20527   4.660   0.220   5.091 -0.3643 -0.0709  0.1810
 2964SOL    HW120528   4.704   0.298   5.127 -1.1013 -0.5297  2.0918
 2964SOL    HW220529   4.735   0.181   5.046 -0.6845 -1.0818  0.5220
 2965SOL     OW20530   2.028   4.195   5.882  0.2824  0.4416 -0.1927
 2965SOL    HW120531   2.118   4.181   5.853  0.1330  1.2492 -1.0219
 2965SOL    HW220532   2.034   4.289   5.899  1.8353  0.3448 -0.2490
 2966SOL     OW20533   2.139   4.485   9.067 -0.0985  0.3621 -1.2006
 2966SOL    HW120534   2.112   4.425   8.997  2.0091 -0.9043 -0.9303
 2966SOL    HW220535   2.063   4.507   9.120  0.8632 -0.4116  0.5111
 2967SOL     OW20536   3.429   2.803   2.022 -0.1224  0.0242 -0.2372
 2967SOL    HW120537   3.519   2.798   1.988  0.7572  4.8260  1.3846
 2967SOL    HW220538   3.419   2.885   2.070  1.4631  0.3311 -0.4138
 2968SOL     OW20539   3.481   1.836   1.811 -0.3987  0.1317  0.1312
 2968SOL    HW120540   3.456   1.879   1.893  0.0634  0.3583  0.1551
 2968SOL    HW220541   3.463   1.899   1.741  3.0380  0.9885  0.0129
 2969SOL     OW20542   3.821   4.200   0.520 -0.0922  0.6042  0.5353
 2969SOL    HW120543   3.881   4.199   0.445 -1.2700  0.2079 -0.4006
 2969SOL    HW220544   3.830   4.292   0.547  2.5438  0.4739  0.0950
 2970SOL     OW20545   3.423   0.448  12.564 -0.1383 -1.3443  0.0062
 2970SOL    HW120546   3.340   0.439  12.610  0.6232 -0.8327  1.4891
 2970SOL    HW220547   3.400   0.391  12.491 -0.0182 -1.6529  0.2122
 2971SOL     OW20548   0.572   1.034   9.387  0.3299  0.0875  0.4223
 2971SOL    HW120549   0.519   0.980   9.327  1.8425  0.8884 -1.6297
 2971SOL    HW220550   0.615   1.095   9.328  2.1816  0.0558  1.7703
 2972SOL     OW20551   1.439   2.698   8.346 -0.7162 -0.1062  0.2810
 2972SOL    HW120552   1.484   2.772   8.305  0.0030 -0.9575 -0.4716
 2972SOL    HW220553   1.461   2.615   8.304  0.9070  0.4158  0.0974
 2973SOL     OW20554   3.471   3.482   7.565 -0.5049  0.4910  0.1140
 2973SOL    HW120555   3.464   3.542   7.490  1.6152  0.5602 -0.0315
 2973SOL    HW220556   3.377   3.475   7.579 -0.0772 -0.2375  2.4827
 2974SOL     OW20557   0.629   0.454  16.421 -0.4816  0.3478  0.3141
 2974SOL    HW120558   0.703   0.509  16.445 -1.0785  0.2675  2.3993
 2974SOL    HW220559   0.569   0.521  16.387 -2.7262 -0.9157  1.7634
 2975SOL     OW20560   2.628   0.796   3.831  0.5906 -0.0406  0.3379
 2975SOL    HW120561   2.578   0.784   3.912 -1.1202 -1.4790 -0.9256
 2975SOL    HW220562   2.687   0.720   3.832  1.4697  0.6351 -1.7816
 2976SOL     OW20563   0.652   2.237   8.996  0.2357 -0.1250  0.3849
 2976SOL    HW120564   0.645   2.308   8.932 -4.7521  1.1294  2.2563
 2976SOL    HW220565   0.574   2.183   8.989  0.2856 -0.1458 -0.0122
 2977SOL     OW20566   3.604   4.509   4.042  0.1424  0.0443  1.1567
 2977SOL    HW120567   3.657   4.580   4.008  1.4627 -1.1728  0.6597
 2977SOL    HW220568   3.649   4.428   4.016 -0.6203  0.2561 -0.7910
 2978SOL     OW20569   4.357   0.162  11.774 -0.4232 -0.6717  0.4131
 2978SOL    HW120570   4.285   0.136  11.716 -0.1337 -2.4896  0.8642
 2978SOL    HW220571   4.422   0.098  11.745  0.2096 -0.2778  0.9794
 2979SOL     OW20572   3.003   2.705   3.716  0.2397  0.0218 -0.2962
 2979SOL    HW120573   2.963   2.620   3.731  1.1123  0.0239  1.9724
 2979SOL    HW220574   3.081   2.700   3.771  1.1154  0.7999 -1.4424
 2980SOL     OW20575   4.545   1.925  12.255  0.3909  0.1804 -0.6035
 2980SOL    HW120576   4.621   1.983  12.267 -0.5464  1.3217 -0.1559
 2980SOL    HW220577   4.467   1.980  12.267  1.1118  0.9457  0.6121
 2981SOL     OW20578   0.419   1.450  11.556  0.4042  0.4569 -0.0879
 2981SOL    HW120579   0.460   1.406  11.631  0.1074  0.0093 -0.1922
 2981SOL    HW220580   0.432   1.538  11.591 -1.1531 -0.0301  1.7252
 2982SOL     OW20581   3.491   3.731   4.746 -0.2183  0.1318 -1.1258
 2982SOL    HW120582   3.451   3.721   4.832  0.8566 -0.3238 -0.6861
 2982SOL    HW220583   3.550   3.655   4.746 -0.9255 -0.4251 -2.0550
 2983SOL     OW20584   0.734   0.843  13.625 -0.4192 -0.7167  0.1749
 2983SOL    HW120585   0.821   0.873  13.598 -0.3335 -0.8913  0.2493
 2983SOL    HW220586   0.685   0.923  13.643 -3.5739 -2.7296  0.5196
 2984SOL     OW20587   0.270   4.174   4.686 -0.1960 -0.1636 -0.0791
 2984SOL    HW120588   0.304   4.090   4.719 -1.5508 -1.3165 -1.5879
 2984SOL    HW220589   0.321   4.229   4.746 -3.7947  1.6035  1.3078
 2985SOL     OW20590   0.134   3.298   6.037  0.2197  0.0525 -0.1380
 2985SOL    HW120591   0.224   3.317   6.010 -0.0253  3.9286  1.7377
 2985SOL    HW220592   0.120   3.339   6.122  0.3874 -1.0784  0.4346
 2986SOL     OW20593   3.353   3.346   8.433  0.1221  0.4496 -0.2154
 2986SOL    HW120594   3.398   3.262   8.422 -1.6889 -0.7617  1.4449
 2986SOL    HW220595   3.348   3.374   8.342 -2.1757  0.5071 -0.0724
 2987SOL     OW20596   2.029   2.827   8.573  0.1566 -0.6299  0.7688
 2987SOL    HW120597   1.954   2.826   8.513  1.1388 -0.0927 -0.4671
 2987SOL    HW220598   2.076   2.745   8.561 -0.0702 -0.8265  1.2264
 2988SOL     OW20599   2.857   3.258   4.374  0.0598 -0.3633  0.0477
 2988SOL    HW120600   2.918   3.186   4.390  1.4043  0.6079 -0.7764
 2988SOL    HW220601   2.814   3.277   4.458  2.3894 -1.9998  1.6264
 2989SOL     OW20602   4.640   4.155  13.927 -0.3004 -0.1710 -0.5255
 2989SOL    HW120603   4.697   4.231  13.940 -0.0333 -0.3205 -0.8380
 2989SOL    HW220604   4.559   4.204  13.911  0.1727  0.2821 -1.4691
 2990SOL     OW20605   0.905   0.521   8.592  0.3863  0.0187  0.2416
 2990SOL    HW120606   0.837   0.497   8.655  2.1649 -1.6857  1.5128
 2990SOL    HW220607   0.963   0.446   8.607 -1.5099 -1.2831  1.0847
 2991SOL     OW20608   0.183   0.707  12.787  0.2987  0.1922  0.8599
 2991SOL    HW120609   0.112   0.770  12.782  1.3680  1.2994 -0.4283
 2991SOL    HW220610   0.177   0.653  12.708 -1.5637  1.9597 -0.1895
 2992SOL     OW20611   1.518   1.573   3.682  0.2738 -0.0193 -0.2115
 2992SOL    HW120612   1.567   1.652   3.704 -0.5928  0.0993  1.2717
 2992SOL    HW220613   1.471   1.562   3.765  0.0689 -2.3497 -0.6453
 2993SOL     OW20614   1.840   2.506   9.255 -0.0217 -0.0419  0.1708
 2993SOL    HW120615   1.775   2.558   9.303  0.0799  1.2367 -1.0805
 2993SOL    HW220616   1.845   2.536   9.165 -0.4853  1.6474  0.7124
 2994SOL     OW20617   1.755   1.443  15.711 -0.7055  0.2703 -0.2654
 2994SOL    HW120618   1.745   1.464  15.618 -1.9981 -0.4655 -0.2907
 2994SOL    HW220619   1.723   1.521  15.756  0.5172  0.4904  0.2414
 2995SOL     OW20620   1.225   2.413   8.922 -0.0981  0.2541  0.2515
 2995SOL    HW120621   1.253   2.345   8.861 -1.1447  0.6204 -0.6481
 2995SOL    HW220622   1.130   2.399   8.926  0.1996 -2.3174 -1.4636
 2996SOL     OW20623   3.173   2.642   9.766  0.1398 -0.6672 -0.3274
 2996SOL    HW120624   3.119   2.563   9.763  0.5136 -0.9558  0.7072
 2996SOL    HW220625   3.206   2.640   9.855 -0.9205 -0.1972  0.0673
 2997SOL     OW20626   2.446   3.842   8.849 -0.3429  0.1307 -0.1470
 2997SOL    HW120627   2.352   3.836   8.832 -0.6212 -0.9628  1.7663
 2997SOL    HW220628   2.452   3.867   8.941 -0.4423  0.1649 -0.1496
 2998SOL     OW20629   4.127   0.113  11.602 -0.0598 -0.1994 -0.1331
 2998SOL    HW120630   4.091   0.098  11.515  1.2462  2.4204 -1.0970
 2998SOL    HW220631   4.127   0.019  11.624 -0.7116 -0.4375 -1.1955
 2999SOL     OW20632   1.779   3.498   8.292 -0.5203 -0.1473  0.5223
 2999SOL    HW120633   1.792   3.579   8.342 -0.4194  1.0564 -1.4684
 2999SOL    HW220634   1.752   3.432   8.357  0.2348  0.9895  1.9902
 3000SOL     OW20635   0.590   2.633  13.108  0.3371  0.0046  0.2525
 3000SOL    HW120636   0.554   2.644  13.196 -0.7674  0.2250 -0.2286
 3000SOL    HW220637   0.682   2.655  13.122  0.2397  0.1561  0.6702
 3001SOL     OW20638   3.514   0.115  14.180 -0.6460 -0.3697 -0.4582
 3001SOL    HW120639   3.436   0.166  14.201  1.8045  3.1596 -0.0153
 3001SOL    HW220640   3.555   0.102  14.266 -1.2603 -1.1710 -0.2829
 3002SOL     OW20641   3.828   3.589   7.555 -1.2169  0.0046 -0.1510
 3002SOL    HW120642   3.831   3.575   7.461  2.1396 -1.2621  0.1526
 3002SOL    HW220643   3.875   3.671   7.563  1.1703 -1.2761 -1.0732
 3003SOL     OW20644   3.066   2.619  13.228 -0.3437 -0.3133 -0.0422
 3003SOL    HW120645   3.089   2.711  13.247 -0.3309  0.1964 -2.5296
 3003SOL    HW220646   3.054   2.581  13.315  1.9675 -2.9905 -0.8983
 3004SOL     OW20647   3.693   0.747   2.652 -0.1437  0.4809 -0.4236
 3004SOL    HW120648   3.660   0.819   2.705 -0.2629 -0.5050  0.8439
 3004SOL    HW220649   3.784   0.763   2.676 -0.7749  0.6064  1.8864
 3005SOL     OW20650   0.792   3.928  16.244  0.7810 -0.6180  0.1463
 3005SOL    HW120651   0.877   3.895  16.216  0.3022 -1.6904 -0.0338
 3005SOL    HW220652   0.792   3.900  16.336 -1.9358 -0.0099  0.3277
 3006SOL     OW20653   1.643   1.186   7.181 -0.9755  0.0049 -0.0834
 3006SOL    HW120654   1.668   1.149   7.266  0.6046  2.8904  0.6856
 3006SOL    HW220655   1.721   1.221   7.138 -1.1691 -1.5359 -1.7083
 3007SOL     OW20656   2.611   3.127  11.471  0.3605 -0.2851 -0.4904
 3007SOL    HW120657   2.529   3.136  11.520  1.6151 -0.8619  1.7316
 3007SOL    HW220658   2.668   3.171  11.534  0.6951 -1.0367 -0.2620
 3008SOL     OW20659   2.348   1.480   0.659 -0.1160  0.0812 -0.0597
 3008SOL    HW120660   2.295   1.412   0.701  1.6287 -0.9886  0.3876
 3008SOL    HW220661   2.377   1.437   0.579  0.5232 -1.7996  1.2031
 3009SOL     OW20662   2.142   2.362   4.541  0.3332 -0.0889 -0.0029
 3009SOL    HW120663   2.237   2.359   4.557  0.4529  1.9430 -0.2852
 3009SOL    HW220664   2.125   2.441   4.489 -0.4355 -0.0680  0.2842
 3010SOL     OW20665   4.609   0.812   7.309  0.1370  0.7424  0.5017
 3010SOL    HW120666   4.556   0.734   7.292 -1.3185  1.3726  2.1924
 3010SOL    HW220667   4.692   0.790   7.265  1.1117  2.3242  1.5638
 3011SOL     OW20668   3.901   0.361  12.438 -0.6522 -0.3381  0.0984
 3011SOL    HW120669   3.835   0.387  12.503 -1.4012  0.8940 -1.1635
 3011SOL    HW220670   3.833   0.362  12.371  0.0323 -1.3269 -0.6007
 3012SOL     OW20671   2.913   0.653   4.937 -0.5858 -0.7411  0.1698
 3012SOL    HW120672   2.823   0.679   4.957  0.1066  0.8139  1.2270
 3012SOL    HW220673   2.958   0.678   5.017  1.5052  1.7981 -1.7743
 3013SOL     OW20674   1.354   1.552   8.136 -0.1389  0.1956 -0.2986
 3013SOL    HW120675   1.416   1.487   8.168  0.7317 -0.2527 -2.8912
 3013SOL    HW220676   1.296   1.551   8.212  0.4275 -1.4858  0.0989
 3014SOL     OW20677   3.913   2.345  14.028  0.0589  0.2173  0.1867
 3014SOL    HW120678   3.945   2.344  13.938  0.2749 -0.4485  0.2728
 3014SOL    HW220679   3.822   2.376  14.022 -0.4443 -1.5052 -1.1882
 3015SOL     OW20680   1.768   3.056   1.692  0.7759 -0.6680  0.1353
 3015SOL    HW120681   1.832   3.064   1.762 -1.0450  2.3144  1.4660
 3015SOL    HW220682   1.792   2.967   1.664  0.5996 -0.4193 -0.8041
 3016SOL     OW20683   3.375   0.225  12.420  0.5102  0.2164  0.6459
 3016SOL    HW120684   3.334   0.165  12.359  1.0681  0.8216 -0.3222
 3016SOL    HW220685   3.344   0.183  12.500  0.4912 -1.4231 -0.2254
 3017SOL     OW20686   2.151   4.702   9.483 -0.3704  0.3413 -0.6569
 3017SOL    HW120687   2.226   4.649   9.457 -1.5119 -1.7130  0.2674
 3017SOL    HW220688   2.100   4.638   9.532 -0.9112  0.5802 -0.9096
 3018SOL     OW20689   3.113   2.279   5.468 -0.8486  0.5350  0.1220
 3018SOL    HW120690   3.139   2.317   5.552 -0.1319  1.5439 -0.5629
 3018SOL    HW220691   3.019   2.299   5.470 -0.9932 -0.5851  4.0406
 3019SOL     OW20692   2.343   1.210   3.068  0.1531 -0.1165  0.7708
 3019SOL    HW120693   2.360   1.241   3.156  0.1115 -2.0249  1.4628
 3019SOL    HW220694   2.294   1.288   3.042  2.0010  1.7382  2.8632
 3020SOL     OW20695   1.365   4.577   6.785 -0.0300  0.1727 -0.1471
 3020SOL    HW120696   1.418   4.653   6.810  0.1597 -0.3184  0.9119
 3020SOL    HW220697   1.418   4.509   6.825  0.8453  0.2398 -1.1738
 3021SOL     OW20698   0.802   3.534   1.382 -0.0111 -0.4771  0.2392
 3021SOL    HW120699   0.894   3.550   1.406 -0.0933  1.6832 -0.8318
 3021SOL    HW220700   0.813   3.447   1.345  0.0790  0.3618 -1.6991
 3022SOL     OW20701   3.587   2.015   8.410 -0.5424  0.2675  0.1501
 3022SOL    HW120702   3.565   1.972   8.493 -1.5288 -0.9292 -0.7381
 3022SOL    HW220703   3.632   2.093   8.442 -0.0353 -0.4375  1.1470
 3023SOL     OW20704   2.304   1.006   7.492 -0.1928  0.1403  0.0968
 3023SOL    HW120705   2.334   0.920   7.521 -0.4857  0.4496  1.2937
 3023SOL    HW220706   2.389   1.046   7.480  0.4827 -0.8351  1.6313
 3024SOL     OW20707   4.401   4.204  14.906  0.4175 -0.0676  0.5879
 3024SOL    HW120708   4.356   4.237  14.984  2.2382 -1.0285  2.0657
 3024SOL    HW220709   4.339   4.132  14.890  2.3707 -0.9728 -2.7974
 3025SOL     OW20710   4.577   4.503   1.126  0.4639 -0.5633 -0.0777
 3025SOL    HW120711   4.589   4.507   1.221  1.5247  2.5506 -0.3368
 3025SOL    HW220712   4.482   4.510   1.118  0.4206  1.1880  1.9724
 3026SOL     OW20713   0.467   2.966  13.163  0.2033  0.3470  0.1124
 3026SOL    HW120714   0.459   2.879  13.202  0.1637 -0.9107 -2.6688
 3026SOL    HW220715   0.540   3.002  13.214  0.7409 -0.7654  0.1475
 3027SOL     OW20716   2.496   4.324   1.828 -0.6677  0.1158 -0.1831
 3027SOL    HW120717   2.496   4.250   1.767  1.8154  1.8353 -2.2529
 3027SOL    HW220718   2.562   4.379   1.786 -1.9302  1.3829 -0.4925
 3028SOL     OW20719   3.257   3.902   5.663 -0.1267 -0.1230 -0.8039
 3028SOL    HW120720   3.337   3.869   5.705 -1.4935 -3.4450 -0.8242
 3028SOL    HW220721   3.203   3.936   5.734 -0.7425 -0.5068 -1.0993
 3029SOL     OW20722   2.298   0.517   2.300  0.2224  0.1976 -0.3129
 3029SOL    HW120723   2.340   0.554   2.222  0.7608 -1.1317 -0.6532
 3029SOL    HW220724   2.293   0.597   2.351  2.1393 -2.7495  4.4367
 3030SOL     OW20725   3.662   2.783   5.487 -0.1219  0.7127  1.0864
 3030SOL    HW120726   3.608   2.822   5.417  0.1667 -0.4867  0.1954
 3030SOL    HW220727   3.682   2.862   5.538  0.1605 -0.4157  2.7041
 3031SOL     OW20728   1.394   2.072   9.806  0.2612  0.0923 -0.1201
 3031SOL    HW120729   1.309   2.049   9.769 -0.3038  1.1361  0.4986
 3031SOL    HW220730   1.407   1.996   9.864  0.2064 -0.6860 -1.1386
 3032SOL     OW20731   3.147   0.082   3.514 -0.2692 -0.2366  0.4259
 3032SOL    HW120732   3.175   0.156   3.569 -0.1674 -0.9890  1.3838
 3032SOL    HW220733   3.193   0.106   3.433  0.2942  1.2561  1.1733
 3033SOL     OW20734   1.762   2.985   8.799  0.4702 -0.1996  0.7117
 3033SOL    HW120735   1.745   2.906   8.851 -0.3292 -1.0054 -0.7799
 3033SOL    HW220736   1.701   2.966   8.727  2.5661  2.1427 -1.6687
 3034SOL     OW20737   1.038   1.217   1.424  0.2054 -0.2978 -0.4592
 3034SOL    HW120738   1.116   1.216   1.369 -0.5534 -1.3996 -1.5224
 3034SOL    HW220739   1.045   1.130   1.463 -1.8788  0.0871  0.7617
 3035SOL     OW20740   2.431   2.658   0.283  0.1124 -0.0843  0.2387
 3035SOL    HW120741   2.397   2.571   0.303  1.1353 -0.2156  1.4193
 3035SOL    HW220742   2.479   2.679   0.363  0.3547  0.5204 -0.0650
 3036SOL     OW20743   2.756   1.889   8.031  0.0454  0.0570 -0.0989
 3036SOL    HW120744   2.695   1.852   8.094 -0.2873 -1.3241 -1.2414
 3036SOL    HW220745   2.753   1.977   8.069 -1.0162 -0.1629  0.3237
 3037SOL     OW20746   2.077   4.045   4.710 -0.1361  0.4797  0.2248
 3037SOL    HW120747   2.140   4.045   4.638  1.3850  1.3978  1.5517
 3037SOL    HW220748   2.053   3.954   4.727 -0.6486  0.7727  1.1208
 3038SOL     OW20749   2.376   0.643  16.359 -0.2669 -0.3186  0.7534
 3038SOL    HW120750   2.310   0.635  16.428  0.1841  1.2304  1.3626
 3038SOL    HW220751   2.454   0.673  16.406  0.4859 -0.0795 -0.6491
 3039SOL     OW20752   1.278   2.223  12.431  0.2792 -0.3152  0.5955
 3039SOL    HW120753   1.314   2.181  12.352  0.5024  0.1124  0.4698
 3039SOL    HW220754   1.209   2.167  12.466  0.3661 -2.4906 -2.6516
 3040SOL     OW20755   3.902   1.150  15.488 -0.3548 -0.6350  0.0082
 3040SOL    HW120756   3.937   1.235  15.462 -1.8608 -0.4027 -1.2522
 3040SOL    HW220757   3.923   1.154  15.581 -1.7204  0.5483  0.2669
 3041SOL     OW20758   4.035   0.505   4.379  0.0571  0.5057  0.3995
 3041SOL    HW120759   4.055   0.494   4.472  0.8578 -1.3361  0.0046
 3041SOL    HW220760   3.943   0.481   4.383 -0.4389  2.0462 -1.6232
 3042SOL     OW20761   2.500   3.360   8.010 -0.3783 -0.1043 -0.4393
 3042SOL    HW120762   2.441   3.422   7.967  0.7179  1.1465 -0.1404
 3042SOL    HW220763   2.506   3.292   7.944 -1.7503  0.0817 -0.7681
 3043SOL     OW20764   4.500   1.691   7.663  0.5512 -0.5059 -0.2251
 3043SOL    HW120765   4.503   1.724   7.753 -0.1530 -0.6831 -0.1360
 3043SOL    HW220766   4.421   1.637   7.661 -1.3050  2.2010 -0.2221
 3044SOL     OW20767   2.792   2.255   1.419  0.1400 -0.3272  0.4175
 3044SOL    HW120768   2.724   2.320   1.404 -1.2192 -1.8330 -0.0312
 3044SOL    HW220769   2.783   2.254   1.515  1.2461  3.0953  0.5340
 3045SOL     OW20770   2.184   0.365   8.202  0.4517 -0.7026 -0.2849
 3045SOL    HW120771   2.276   0.352   8.225  0.6146 -1.4350 -1.3136
 3045SOL    HW220772   2.157   0.273   8.203 -0.9331 -0.2952 -0.0752
 3046SOL     OW20773   2.331   4.174   8.717 -0.0650 -1.0116 -0.1753
 3046SOL    HW120774   2.277   4.247   8.686 -0.3193 -0.1281  2.4027
 3046SOL    HW220775   2.372   4.210   8.796 -1.8359 -1.2349  0.8357
 3047SOL     OW20776   4.075   4.014   2.269  0.1109 -0.0694  0.2258
 3047SOL    HW120777   4.167   4.038   2.268  0.1336 -0.1164  1.1741
 3047SOL    HW220778   4.038   4.096   2.300  1.1336  0.1483  0.8638
 3048SOL     OW20779   3.522   3.631   2.373  0.3316 -0.1247  0.3563
 3048SOL    HW120780   3.470   3.629   2.453 -0.8285  1.4934 -0.3423
 3048SOL    HW220781   3.451   3.613   2.311  0.7670  0.4982 -0.3281
 3049SOL     OW20782   2.391   2.304  12.997  0.8625 -0.7419  0.0905
 3049SOL    HW120783   2.312   2.263  12.963  1.7538 -0.7386 -2.0257
 3049SOL    HW220784   2.453   2.300  12.924  0.1230 -0.6863 -0.5404
 3050SOL     OW20785   0.980   2.024   4.234 -0.2791  0.1255  0.1781
 3050SOL    HW120786   0.982   2.105   4.285  2.5338  0.1980 -0.0237
 3050SOL    HW220787   1.043   1.979   4.290  0.5039 -0.0143 -0.8207
 3051SOL     OW20788   2.478   2.749   5.989  0.2228  0.0973  0.1215
 3051SOL    HW120789   2.414   2.679   6.001  1.1099 -0.3935  2.0759
 3051SOL    HW220790   2.421   2.818   6.023 -0.1695 -0.0788 -0.1770
 3052SOL     OW20791   4.572   0.979   8.566  0.0323  0.6984  0.4246
 3052SOL    HW120792   4.619   1.058   8.593  0.8035  0.2114  0.4721
 3052SOL    HW220793   4.597   0.922   8.637 -0.4816  1.0504  0.8922
 3053SOL     OW20794   1.011   3.530   2.110 -0.0016  0.4882  0.5982
 3053SOL    HW120795   1.103   3.554   2.119 -0.7006  2.4324  2.5728
 3053SOL    HW220796   0.960   3.599   2.066  1.5865  1.0140 -0.4098
 3054SOL     OW20797   2.560   0.993  13.156 -0.3960 -0.5257  0.4084
 3054SOL    HW120798   2.571   1.033  13.242 -1.5283  1.0837 -0.1963
 3054SOL    HW220799   2.587   0.904  13.181 -0.4183 -0.9985 -1.1916
 3055SOL     OW20800   1.893   1.671   3.247 -0.1133 -0.8006 -0.5128
 3055SOL    HW120801   1.859   1.593   3.203 -0.6212 -0.7614 -0.2001
 3055SOL    HW220802   1.930   1.723   3.176 -2.1135 -0.2888 -1.2057
 3056SOL     OW20803   2.937   2.693   9.348  0.1674 -0.1948 -0.0845
 3056SOL    HW120804   2.967   2.702   9.258  0.7882 -0.0582  0.1398
 3056SOL    HW220805   2.856   2.744   9.344  2.3156  3.3595  1.7250
 3057SOL     OW20806   2.611   2.788   0.949 -0.7067 -0.0974  0.0165
 3057SOL    HW120807   2.573   2.712   0.904  2.7021 -1.1116 -1.0948
 3057SOL    HW220808   2.590   2.784   1.042 -4.1332  1.4768 -0.6577
 3058SOL     OW20809   1.645   3.441   7.197 -0.0535  0.0723 -0.2766
 3058SOL    HW120810   1.661   3.399   7.282  3.1840  0.9837 -0.4371
 3058SOL    HW220811   1.658   3.363   7.144 -1.4152 -0.5704  0.3128
 3059SOL     OW20812   1.243   0.159   1.695 -0.1011  0.1580  0.4237
 3059SOL    HW120813   1.285   0.242   1.676  1.2046 -0.4301  0.7660
 3059SOL    HW220814   1.297   0.140   1.772  1.1073  0.2265 -0.4221
 3060SOL     OW20815   1.688   3.559   0.191 -0.3226  0.1326 -0.1480
 3060SOL    HW120816   1.710   3.571   0.099  0.1909 -0.1803 -0.0702
 3060SOL    HW220817   1.748   3.619   0.236 -0.4463  0.1763 -0.0410
 3061SOL     OW20818   1.506   1.867   5.210  0.3193  0.0907 -0.0893
 3061SOL    HW120819   1.561   1.876   5.287 -0.6403  1.7357  0.4057
 3061SOL    HW220820   1.483   1.776   5.192 -1.0225  0.0276  1.9680
 3062SOL     OW20821   4.064   0.185   8.282 -0.1114  0.1851 -0.1850
 3062SOL    HW120822   4.123   0.242   8.332 -0.8755 -0.1936  1.1546
 3062SOL    HW220823   4.069   0.241   8.205  2.1925  0.5453  0.2239
 3063SOL     OW20824   3.327   3.968   7.859 -0.2271  0.5322  0.1758
 3063SOL    HW120825   3.406   4.007   7.896 -1.3699  2.3190  0.7505
 3063SOL    HW220826   3.308   4.040   7.799 -0.0805 -1.5515 -2.4092
 3064SOL     OW20827   2.598   0.478   2.087 -0.5245  0.1088 -0.2366
 3064SOL    HW120828   2.682   0.512   2.118 -0.7991  2.0541 -1.6305
 3064SOL    HW220829   2.593   0.403   2.146 -0.1137  2.0399  2.2397
 3065SOL     OW20830   1.043   0.489  10.960 -0.2437  0.0403  0.0250
 3065SOL    HW120831   1.111   0.426  10.937  0.8487  1.4854 -0.7215
 3065SOL    HW220832   1.088   0.572  10.975 -0.5548  0.5059 -1.5520
 3066SOL     OW20833   0.266   2.446   1.791  0.2503  0.5454 -0.2963
 3066SOL    HW120834   0.357   2.464   1.814  0.0222  0.4748  0.6618
 3066SOL    HW220835   0.284   2.366   1.743  0.7733  2.2732 -2.9504
 3067SOL     OW20836   3.234   3.541   7.981  0.7241 -0.1367  0.3570
 3067SOL    HW120837   3.258   3.611   7.921 -1.6162 -0.6062 -1.1272
 3067SOL    HW220838   3.206   3.589   8.060 -2.5308  0.0422 -0.9003
 3068SOL     OW20839   0.179   4.132  16.584 -0.5691 -0.2350 -0.0978
 3068SOL    HW120840   0.092   4.171  16.571 -0.7134 -0.4295  0.3118
 3068SOL    HW220841   0.176   4.049  16.538  1.9750 -1.5662  2.2094
 3069SOL     OW20842   4.109   1.805   4.487 -0.4673 -0.6361  0.2015
 3069SOL    HW120843   4.081   1.728   4.438  0.1463 -1.0184  0.4581
 3069SOL    HW220844   4.065   1.873   4.436  1.9431 -0.4296 -1.5792
 3070SOL     OW20845   3.608   1.757   0.083 -0.4203 -0.2229 -0.0026
 3070SOL    HW120846   3.656   1.806   0.016 -0.6147 -0.4917 -0.3354
 3070SOL    HW220847   3.614   1.666   0.055 -1.7688  1.1007 -4.5248
 3071SOL     OW20848   4.166   1.375   9.435 -0.6463 -0.8114  0.0918
 3071SOL    HW120849   4.217   1.342   9.361  0.5028 -0.6927  0.8295
 3071SOL    HW220850   4.079   1.356   9.399 -1.7831  2.1384  1.3048
 3072SOL     OW20851   0.763   4.330   5.803 -0.0729 -0.3240  0.6843
 3072SOL    HW120852   0.779   4.401   5.866  0.9049  0.3964 -0.3638
 3072SOL    HW220853   0.791   4.250   5.848  1.8027 -1.2600 -2.1816
 3073SOL     OW20854   0.338   3.395   4.822 -0.1967 -0.1254 -0.2587
 3073SOL    HW120855   0.292   3.467   4.864 -1.3316 -1.5725  0.9816
 3073SOL    HW220856   0.430   3.423   4.820 -0.5679  0.8738 -3.6644
 3074SOL     OW20857   4.670   0.545   4.585  0.6031  0.3948  0.8144
 3074SOL    HW120858   4.713   0.628   4.605  2.0070 -0.3567  0.8649
 3074SOL    HW220859   4.610   0.538   4.660 -0.8875  0.8041 -0.3362
 3075SOL     OW20860   1.994   0.293  13.439  0.0304  0.8037  0.6624
 3075SOL    HW120861   1.934   0.306  13.513 -0.2691  0.0305  0.5619
 3075SOL    HW220862   2.066   0.356  13.440  0.8530 -0.1328 -0.5113
 3076SOL     OW20863   4.505   0.721   2.576  0.0629 -0.2096 -0.0990
 3076SOL    HW120864   4.559   0.772   2.637 -0.0177 -0.3278  0.0725
 3076SOL    HW220865   4.471   0.786   2.515 -0.4792 -0.4464 -0.0471
 3077SOL     OW20866   3.378   1.587   3.466  0.4097 -0.7878  0.3400
 3077SOL    HW120867   3.390   1.537   3.547  0.4189 -1.6391 -0.1809
 3077SOL    HW220868   3.283   1.596   3.472  0.4263  0.4299 -1.6438
 3078SOL     OW20869   1.528   3.751   2.288 -0.0580 -0.2418 -0.4443
 3078SOL    HW120870   1.590   3.703   2.233  1.5177 -0.1271  1.2315
 3078SOL    HW220871   1.548   3.708   2.371 -2.6335 -2.2981 -0.9040
 3079SOL     OW20872   3.773   1.645  11.789 -0.4338 -0.3908 -0.0765
 3079SOL    HW120873   3.689   1.612  11.821 -0.2453 -2.1175 -1.3722
 3079SOL    HW220874   3.771   1.731  11.831 -0.2244 -0.7295  0.6315
 3080SOL     OW20875   3.382   2.968   5.334  0.2039 -0.6012 -0.4374
 3080SOL    HW120876   3.383   2.876   5.307  0.0586 -0.3792 -1.1947
 3080SOL    HW220877   3.312   3.013   5.287  0.7314 -0.6994 -1.2996
 3081SOL     OW20878   2.142   3.927   2.237 -0.1516  0.2042  0.1705
 3081SOL    HW120879   2.235   3.917   2.215  0.0173 -0.9437  1.3638
 3081SOL    HW220880   2.152   3.973   2.320  1.2818 -1.4084  0.9042
 3082SOL     OW20881   4.174   1.248   7.869 -0.6415  0.4906 -0.4941
 3082SOL    HW120882   4.197   1.188   7.798 -2.4464  0.9726 -1.4724
 3082SOL    HW220883   4.176   1.188   7.944 -1.2035 -0.5742 -1.3372
 3083SOL     OW20884   1.827   2.339   3.191 -0.4029 -0.8926  0.1159
 3083SOL    HW120885   1.798   2.255   3.226 -2.0184  0.0964  1.1139
 3083SOL    HW220886   1.910   2.313   3.151 -0.7181 -0.6869 -0.6800
 3084SOL     OW20887   3.551   3.854  11.416  0.7759 -0.4696 -0.2683
 3084SOL    HW120888   3.546   3.947  11.438  2.7185  0.3118 -3.0363
 3084SOL    HW220889   3.515   3.862  11.328  0.2474  1.5789  0.1454
 3085SOL     OW20890   3.488   3.082   8.352 -0.3108 -0.2309 -0.1833
 3085SOL    HW120891   3.548   3.088   8.425  0.3482 -3.2422 -0.4951
 3085SOL    HW220892   3.542   3.096   8.274  1.2200  0.3338  0.9762
 3086SOL     OW20893   2.208   2.361   5.424  0.0843  0.4188 -0.4997
 3086SOL    HW120894   2.157   2.282   5.438  0.7339  0.5150  2.4690
 3086SOL    HW220895   2.148   2.430   5.452 -0.0238 -0.0806  0.4902
 3087SOL     OW20896   4.629   0.495   7.602  0.6442  0.2590  0.3322
 3087SOL    HW120897   4.581   0.543   7.669 -2.6367 -0.3636 -1.6040
 3087SOL    HW220898   4.585   0.410   7.609  1.6889 -0.4566 -1.8250
 3088SOL     OW20899   3.702   2.954  13.433 -0.5632 -0.5078 -0.6258
 3088SOL    HW120900   3.611   2.931  13.451  0.0171 -2.6628 -0.4005
 3088SOL    HW220901   3.726   2.972  13.524 -0.3993 -1.0491 -0.5643
 3089SOL     OW20902   1.846   4.572   4.134  0.3707 -0.0745  0.5251
 3089SOL    HW120903   1.857   4.667   4.140 -2.7408  0.3689 -1.0006
 3089SOL    HW220904   1.792   4.569   4.056  0.7992  0.8261  0.1869
 3090SOL     OW20905   4.184   1.656  16.167 -0.2146  0.2733 -0.0659
 3090SOL    HW120906   4.254   1.666  16.102  0.3121  2.5125  0.8409
 3090SOL    HW220907   4.218   1.720  16.230  0.8708  1.5123 -1.8955
 3091SOL     OW20908   2.978   0.570   5.983 -0.5232 -0.0282  0.6249
 3091SOL    HW120909   2.883   0.565   5.974 -0.3531 -0.9628 -0.7171
 3091SOL    HW220910   2.992   0.506   5.914 -1.1576  1.6109 -1.0107
 3092SOL     OW20911   2.613   1.459  11.345  0.7102  0.2937  0.5396
 3092SOL    HW120912   2.602   1.365  11.331  1.1687  0.1052  1.4739
 3092SOL    HW220913   2.692   1.477  11.292 -0.5274  2.4922 -0.5763
 3093SOL     OW20914   0.817   0.644   6.496  0.2936 -0.3507  0.3953
 3093SOL    HW120915   0.751   0.671   6.431  0.9234 -2.1780 -0.9963
 3093SOL    HW220916   0.768   0.589   6.556 -0.2745 -1.1704 -0.8101
 3094SOL     OW20917   3.924   3.848   1.794  0.3273 -0.0055  0.0582
 3094SOL    HW120918   3.973   3.859   1.876 -0.4182  1.3901  0.3029
 3094SOL    HW220919   3.886   3.763   1.816 -0.9654  0.7466  0.7314
 3095SOL     OW20920   3.863   0.978   7.865 -0.3811  0.2032  0.1982
 3095SOL    HW120921   3.899   0.934   7.941 -0.2659  3.1076  1.8304
 3095SOL    HW220922   3.786   1.012   7.910  1.5618  1.4854  2.5383
 3096SOL     OW20923   0.732   2.296   3.173  0.0636  0.1521 -0.2706
 3096SOL    HW120924   0.826   2.304   3.186  0.0338  0.8222 -0.4647
 3096SOL    HW220925   0.701   2.366   3.117  0.2086 -0.5053 -1.1759
 3097SOL     OW20926   4.082   3.157   1.611  0.5608 -0.1183 -0.3294
 3097SOL    HW120927   4.030   3.086   1.574  1.4795 -0.4337 -1.0003
 3097SOL    HW220928   4.127   3.105   1.677 -1.4914 -2.2866 -0.6333
 3098SOL     OW20929   2.146   0.023   2.548  0.0459  0.5470  0.4838
 3098SOL    HW120930   2.114   0.083   2.481 -0.1232  0.0981  0.1589
 3098SOL    HW220931   2.235   4.730   2.528  0.2435  1.4691  0.0489
 3099SOL     OW20932   2.819   3.001  11.976 -0.7818 -0.8553  0.0339
 3099SOL    HW120933   2.753   2.994  12.045 -0.1552 -0.4027  0.6772
 3099SOL    HW220934   2.819   2.908  11.954  0.0320 -0.5548 -1.2982
 3100SOL     OW20935   3.348   1.621   8.674 -0.2260 -0.2358  0.7103
 3100SOL    HW120936   3.398   1.685   8.623 -1.1775 -0.8906 -1.0588
 3100SOL    HW220937   3.261   1.653   8.647  0.5320 -0.5258 -2.1256
 3101SOL     OW20938   3.797   3.430  14.612  0.2385  0.1433  0.1652
 3101SOL    HW120939   3.747   3.358  14.574 -0.6792  1.1184 -0.4758
 3101SOL    HW220940   3.729   3.498  14.609 -0.0057 -0.1378 -0.6644
 3102SOL     OW20941   1.110   0.804   1.465 -0.6002 -0.1173  0.3220
 3102SOL    HW120942   1.041   0.860   1.430 -0.1367  0.1298 -0.2001
 3102SOL    HW220943   1.094   0.719   1.422  0.4437  0.4817 -1.2388
 3103SOL     OW20944   0.956   1.945  13.535  0.2146 -0.2156  0.5947
 3103SOL    HW120945   1.011   2.022  13.545  1.4134 -0.9266 -0.5224
 3103SOL    HW220946   0.941   1.908  13.622  0.7540 -0.5129  0.5623
 3104SOL     OW20947   4.263   1.632   3.545  0.1925 -0.0883 -0.3485
 3104SOL    HW120948   4.194   1.661   3.485  0.5524  1.6317  0.0826
 3104SOL    HW220949   4.330   1.648   3.478 -0.5980  0.3263 -1.0358
 3105SOL     OW20950   4.172   2.990   2.484  0.0583 -0.2423  0.2719
 3105SOL    HW120951   4.121   2.910   2.494 -1.8018  1.1862  2.3524
 3105SOL    HW220952   4.117   3.055   2.527 -0.0298 -0.1648  0.0384
 3106SOL     OW20953   0.548   3.663   4.081 -0.0429 -0.0229  0.0495
 3106SOL    HW120954   0.493   3.611   4.139  0.2532  0.0862  0.4261
 3106SOL    HW220955   0.520   3.754   4.088 -0.0867  0.0491 -1.0659
 3107SOL     OW20956   1.988   3.974   0.594 -0.1093 -0.6051 -0.4007
 3107SOL    HW120957   2.019   3.893   0.554  1.1114 -0.0037 -0.6743
 3107SOL    HW220958   1.920   3.931   0.645 -0.7316  0.1211 -0.6344
 3108SOL     OW20959   0.462   3.312   5.399  0.1714  0.0203  0.1100
 3108SOL    HW120960   0.398   3.370   5.359 -1.8061 -1.9020  0.5290
 3108SOL    HW220961   0.483   3.356   5.482 -1.9576  1.3380 -0.0603
 3109SOL     OW20962   3.432   3.025   3.860  0.4808 -0.2394  0.2063
 3109SOL    HW120963   3.488   2.951   3.837 -0.0060 -0.1784 -1.1860
 3109SOL    HW220964   3.482   3.101   3.831  0.4541 -0.8679 -1.5053
 3110SOL     OW20965   2.560   0.721   4.738 -0.3184 -0.2147 -0.4431
 3110SOL    HW120966   2.489   0.733   4.801 -0.9229  1.4786 -1.4312
 3110SOL    HW220967   2.590   0.633   4.756  0.2350  0.0824  0.0769
 3111SOL     OW20968   0.441   2.594   9.844  0.2539 -0.1790 -0.1515
 3111SOL    HW120969   0.418   2.626   9.931 -1.1021 -0.2302 -0.4978
 3111SOL    HW220970   0.402   2.665   9.794 -1.4509 -0.6645  0.4811
 3112SOL     OW20971   1.874   0.547  13.554  0.5566  0.2960 -0.0190
 3112SOL    HW120972   1.782   0.557  13.577  0.5608  2.4140 -0.9359
 3112SOL    HW220973   1.902   0.494  13.629 -1.2480  0.3960  0.7159
 3113SOL     OW20974   4.324   1.835   2.384 -0.2232  0.0401  0.2474
 3113SOL    HW120975   4.369   1.831   2.300  1.9729 -1.0282  1.4994
 3113SOL    HW220976   4.390   1.838   2.453 -0.8531 -3.4811  0.9979
 3114SOL     OW20977   3.301   3.380  17.411  0.2053  0.2721  0.3236
 3114SOL    HW120978   3.300   3.433  17.332 -0.0591 -1.2035 -0.6601
 3114SOL    HW220979   3.263   3.446  17.469  1.1434  2.7289 -1.8764
 3115SOL     OW20980   1.270   1.306   6.243 -0.1974 -0.1065 -0.2889
 3115SOL    HW120981   1.175   1.293   6.251 -0.1019 -2.4146 -2.9600
 3115SOL    HW220982   1.301   1.321   6.333  1.1278 -1.1560 -0.5728
 3116SOL     OW20983   0.999   4.153   6.731  0.3312 -0.0462  0.7623
 3116SOL    HW120984   1.045   4.069   6.737 -0.5123 -0.6274 -0.9339
 3116SOL    HW220985   1.074   4.210   6.713  0.5909 -0.4271  0.6507
 3117SOL     OW20986   1.026   2.130   0.101  0.3114  0.5188  0.1317
 3117SOL    HW120987   1.103   2.173   0.064  0.5430  0.9698  1.1422
 3117SOL    HW220988   1.064   2.050   0.137 -1.5669 -0.9086 -1.0822
 3118SOL     OW20989   2.444   0.435  10.622  0.1426 -0.0957 -0.1562
 3118SOL    HW120990   2.490   0.392  10.550 -0.5176 -1.1113  0.0306
 3118SOL    HW220991   2.439   0.526  10.595 -0.0810 -0.2509 -0.6296
 3119SOL     OW20992   3.174   1.295   8.267 -0.1687  0.0732 -0.2536
 3119SOL    HW120993   3.212   1.359   8.327 -2.7506  0.1057  1.3206
 3119SOL    HW220994   3.081   1.298   8.288  0.6123  0.1222  3.2898
 3120SOL     OW20995   4.528   0.240   7.691  0.1310  0.5011 -0.4056
 3120SOL    HW120996   4.573   0.193   7.762  0.7312 -0.1273 -1.2107
 3120SOL    HW220997   4.447   0.190   7.686 -0.2239  1.1452 -1.1245
 3121SOL     OW20998   2.197   0.251  13.999 -0.1818 -0.1548  0.2229
 3121SOL    HW120999   2.152   0.171  14.023  0.3804 -0.1806  1.2083
 3121SOL    HW221000   2.125   0.309  14.026 -0.3607  0.4882 -1.6525
 3122SOL     OW21001   1.485   1.128   7.995 -0.3356  0.3685  0.5305
 3122SOL    HW121002   1.563   1.102   8.044 -0.1763  0.4543  0.3207
 3122SOL    HW221003   1.437   1.052   7.962 -0.7024  1.1640 -0.7835
 3123SOL     OW21004   1.931   0.063   1.822  0.7223  0.2419 -1.2185
 3123SOL    HW121005   1.838   0.042   1.812  0.1571  2.0337  0.2226
 3123SOL    HW221006   1.938   0.139   1.764  2.1234  1.4499  0.5418
 3124SOL     OW21007   3.701   0.146   5.284  0.5555  0.1195  0.0645
 3124SOL    HW121008   3.693   0.052   5.302  1.3797 -0.1163 -0.8136
 3124SOL    HW221009   3.755   0.146   5.205 -0.1767 -4.1764 -0.4453
 3125SOL     OW21010   2.966   2.435  15.856 -0.2480  0.4610  0.3293
 3125SOL    HW121011   3.035   2.381  15.895  0.0238  0.9217  0.4721
 3125SOL    HW221012   2.944   2.494  15.928  0.6336  1.6759 -0.4047
 3126SOL     OW21013   1.433   0.834   6.171  0.6073  0.9473 -0.0829
 3126SOL    HW121014   1.490   0.887   6.115 -0.7845  0.6255 -1.8041
 3126SOL    HW221015   1.348   0.869   6.145  0.0682 -0.0977  0.2870
 3127SOL     OW21016   1.697   2.393   7.783  0.2188 -0.1260 -0.1191
 3127SOL    HW121017   1.776   2.374   7.834  0.8926  0.0255 -1.0890
 3127SOL    HW221018   1.643   2.315   7.779 -1.0902  0.6370  2.4593
 3128SOL     OW21019   0.466   0.479   9.176 -0.0538  0.3388 -0.2535
 3128SOL    HW121020   0.505   0.434   9.101  0.4476  1.5817 -0.7454
 3128SOL    HW221021   0.452   0.412   9.243  0.5798  0.9071  0.4494
 3129SOL     OW21022   0.346   1.732   8.426  0.5028  0.4275  0.2665
 3129SOL    HW121023   0.348   1.678   8.348 -0.9488 -0.0580  0.5608
 3129SOL    HW221024   0.390   1.684   8.496 -0.0072 -3.1811 -1.9055
 3130SOL     OW21025   1.859   2.746   8.088 -0.0534 -0.1280 -0.3078
 3130SOL    HW121026   1.929   2.704   8.038 -0.7511 -1.0154 -0.5519
 3130SOL    HW221027   1.789   2.735   8.024 -1.9936 -1.0139  1.9634
 3131SOL     OW21028   0.780   2.887   6.211 -0.0827 -0.7959 -0.0664
 3131SOL    HW121029   0.787   2.851   6.299 -2.0114 -0.1794  0.3373
 3131SOL    HW221030   0.859   2.940   6.205 -1.0247  0.7042  0.6718
 3132SOL     OW21031   2.136   3.895  10.321  0.3444  0.6158 -0.0340
 3132SOL    HW121032   2.114   3.811  10.360  0.9194  0.2602 -0.4775
 3132SOL    HW221033   2.206   3.916  10.382  2.7263  0.7898 -2.8199
 3133SOL     OW21034   4.199   3.952   7.308 -0.2627 -0.1509 -0.4076
 3133SOL    HW121035   4.287   3.971   7.274 -0.9896  0.0273 -2.2059
 3133SOL    HW221036   4.204   3.970   7.402  1.2531  1.3588 -0.7584
 3134SOL     OW21037   3.575   1.954   8.032 -0.0181 -0.2729  0.2859
 3134SOL    HW121038   3.492   1.978   8.073  0.7407  1.8280  0.5972
 3134SOL    HW221039   3.589   2.026   7.969  0.9638 -0.0864  0.7087
 3135SOL     OW21040   1.189   0.066   4.848  0.1118 -0.0348 -0.0928
 3135SOL    HW121041   1.222   0.007   4.916  0.6718  0.5917  0.1873
 3135SOL    HW221042   1.212   0.031   4.762  0.3451  1.5733 -0.6797
 3136SOL     OW21043   4.020   3.236  13.190 -0.0721  0.3307 -0.1193
 3136SOL    HW121044   3.971   3.236  13.272  0.2356  2.8876  0.0516
 3136SOL    HW221045   3.976   3.160  13.152  1.1761  0.0394 -0.9777
 3137SOL     OW21046   2.238   3.542   3.418 -0.2943 -0.0334  0.3080
 3137SOL    HW121047   2.307   3.593   3.374  0.1965 -1.0485 -0.0858
 3137SOL    HW221048   2.288   3.465   3.444 -0.5769 -0.4755 -0.4555
 3138SOL     OW21049   0.842   3.219   3.657  0.1270  0.2659  0.2695
 3138SOL    HW121050   0.933   3.206   3.633 -0.5753 -1.8171 -1.3032
 3138SOL    HW221051   0.802   3.148   3.607  1.4759 -0.9246  0.8660
 3139SOL     OW21052   4.017   0.178   3.716 -0.2497 -0.0558 -0.8361
 3139SOL    HW121053   3.930   0.196   3.679 -0.1541 -1.4304 -1.7374
 3139SOL    HW221054   4.014   0.082   3.716 -0.6413 -0.0457  0.6401
 3140SOL     OW21055   0.291   2.516  15.201  0.1628  1.0704  0.0641
 3140SOL    HW121056   0.232   2.520  15.277 -0.1526  1.3311 -0.1959
 3140SOL    HW221057   0.378   2.507  15.240 -0.5064 -2.3675  0.7608
 3141SOL     OW21058   1.454   1.392   5.809  0.2260 -0.1306  0.2140
 3141SOL    HW121059   1.388   1.453   5.842 -0.7911  0.1352 -2.3123
 3141SOL    HW221060   1.396   1.316   5.816 -0.3424  0.1238 -1.8862
 3142SOL     OW21061   3.660   2.915   1.637 -0.2779  0.2594  0.5441
 3142SOL    HW121062   3.684   2.828   1.670  1.3742 -0.1556 -1.7357
 3142SOL    HW221063   3.705   2.912   1.552 -0.2297 -1.0749  0.6081
 3143SOL     OW21064   2.200   3.149   1.939 -0.3756 -0.2019  0.3632
 3143SOL    HW121065   2.208   3.180   1.849  2.2335 -1.7417  0.0560
 3143SOL    HW221066   2.239   3.061   1.933  0.0314  0.0497 -0.6714
 3144SOL     OW21067   4.205   0.690   9.577  0.0999  0.2167  0.0301
 3144SOL    HW121068   4.172   0.636   9.506  1.1766 -1.2604  0.6693
 3144SOL    HW221069   4.252   0.759   9.530  0.5020 -0.2779 -0.2939
 3145SOL     OW21070   3.796   2.092  12.176  0.2774  0.5013 -0.2475
 3145SOL    HW121071   3.828   2.002  12.180  0.7966  0.6017 -2.2231
 3145SOL    HW221072   3.705   2.080  12.204  0.2984  0.4730 -0.1905
 3146SOL     OW21073   4.583   1.076  15.870  0.4376 -0.1307  0.0586
 3146SOL    HW121074   4.626   1.151  15.910 -0.1775  1.0061 -1.4485
 3146SOL    HW221075   4.658   1.032  15.829 -1.4705 -0.5779 -2.9478
 3147SOL     OW21076   0.898   4.182   5.431 -0.0627 -0.0097  0.0688
 3147SOL    HW121077   0.895   4.087   5.434  1.2254 -0.0916 -1.3427
 3147SOL    HW221078   0.821   4.204   5.483 -1.3952  0.3861 -2.1007
 3148SOL     OW21079   1.458   1.563   9.599  0.0879  0.3874  1.1855
 3148SOL    HW121080   1.440   1.469   9.598  1.9703  0.0337 -0.3271
 3148SOL    HW221081   1.532   1.553   9.658 -0.6496 -0.0537  2.0245
 3149SOL     OW21082   3.205   0.173  17.529 -0.3809  0.6269 -0.3415
 3149SOL    HW121083   3.136   0.240  17.526  0.4970  1.6212  1.6075
 3149SOL    HW221084   3.265   0.212  17.592 -1.6675 -0.4996  1.6128
 3150SOL     OW21085   1.440   4.593   8.793 -0.1447  0.5668  0.1936
 3150SOL    HW121086   1.511   4.584   8.856 -0.3459  1.1212  0.4988
 3150SOL    HW221087   1.361   4.569   8.841 -0.1196 -1.9382 -0.9806
 3151SOL     OW21088   3.247   4.443  10.562  0.0034 -0.6550 -0.3985
 3151SOL    HW121089   3.186   4.414  10.630 -0.5347 -1.7689 -1.3492
 3151SOL    HW221090   3.239   4.383  10.488  0.0703 -0.9664 -0.1555
 3152SOL     OW21091   2.690   0.879   7.776  0.2512 -0.2701  0.1084
 3152SOL    HW121092   2.664   0.903   7.865  0.4827  0.5600 -0.0554
 3152SOL    HW221093   2.773   0.925   7.775 -0.0907  0.3087 -1.4949
 3153SOL     OW21094   3.615   2.781   8.552 -0.4072 -0.2905  0.1562
 3153SOL    HW121095   3.618   2.749   8.462  1.3149  3.2241 -1.0026
 3153SOL    HW221096   3.627   2.875   8.538 -0.8968 -0.3605 -0.7578
 3154SOL     OW21097   0.170   4.533   4.934  0.0541 -0.1660  0.2554
 3154SOL    HW121098   0.133   4.449   4.907 -0.6952  0.1794  0.2078
 3154SOL    HW221099   0.174   4.513   5.027 -1.5657  1.8599  0.7645
 3155SOL     OW21100   2.604   0.871   1.815  0.1876 -0.0004 -0.3335
 3155SOL    HW121101   2.659   0.897   1.889  0.2124 -1.1779  0.0509
 3155SOL    HW221102   2.670   0.881   1.746  0.4722 -0.0463 -0.0649
 3156SOL     OW21103   0.101   4.713  16.793 -0.5607  0.0983  0.1084
 3156SOL    HW121104   0.172   0.041  16.790  0.3230 -0.9212 -0.6289
 3156SOL    HW221105   0.057   0.002  16.875  2.3755  1.1551  1.3715
 3157SOL     OW21106   3.460   3.796   8.550  0.0535  0.4203  0.2497
 3157SOL    HW121107   3.414   3.751   8.479 -0.6719 -2.2619  2.4224
 3157SOL    HW221108   3.547   3.794   8.511 -0.0884 -0.1661 -0.0282
 3158SOL     OW21109   3.931   0.132   7.816  0.5579  0.3625 -0.1852
 3158SOL    HW121110   3.837   0.117   7.818  0.2331  2.3838 -0.0766
 3158SOL    HW221111   3.935   0.211   7.760 -1.1125 -0.0553 -0.8813
 3159SOL     OW21112   2.459   3.939   9.514 -0.1319  0.0815 -0.0758
 3159SOL    HW121113   2.449   4.016   9.458 -1.1547 -1.2894 -1.8227
 3159SOL    HW221114   2.454   3.973   9.603  1.4311 -0.3423  0.1667
 3160SOL     OW21115   1.495   4.194   5.954 -0.4277  0.5958 -0.2223
 3160SOL    HW121116   1.450   4.254   6.013 -1.1636  0.1185 -0.2874
 3160SOL    HW221117   1.437   4.216   5.880 -1.9086 -2.6523 -0.0387
 3161SOL     OW21118   2.539   1.518   8.184  0.5040 -0.1119 -0.5124
 3161SOL    HW121119   2.552   1.612   8.185 -0.4790 -0.0127  2.4322
 3161SOL    HW221120   2.553   1.483   8.272  1.6892 -1.2468 -1.1506
 3162SOL     OW21121   2.914   1.292  12.930  0.2989  0.0437 -0.1307
 3162SOL    HW121122   2.900   1.385  12.945  0.1651 -0.6404  3.9098
 3162SOL    HW221123   2.829   1.255  12.953  0.6412 -0.8920 -0.3668
 3163SOL     OW21124   0.211   3.905   7.940  0.0760 -0.1035  0.5239
 3163SOL    HW121125   0.278   3.893   7.873  1.4226  1.5236  1.5972
 3163SOL    HW221126   0.147   3.952   7.886 -1.2267 -0.7875  1.4711
 3164SOL     OW21127   2.720   0.409   5.326 -0.2930  0.2626 -0.1227
 3164SOL    HW121128   2.677   0.495   5.326  2.2664  1.5450  0.4413
 3164SOL    HW221129   2.805   0.449   5.308  0.1522 -1.9374 -2.9530
 3165SOL     OW21130   1.086   3.523   6.013 -0.3017 -0.3095 -0.2998
 3165SOL    HW121131   1.040   3.456   5.962 -1.9489  0.5337  0.1036
 3165SOL    HW221132   1.133   3.570   5.943  0.1773  1.0385  0.9311
 3166SOL     OW21133   0.412   0.643   6.983  0.5429  0.5132 -0.3975
 3166SOL    HW121134   0.338   0.582   6.976  2.4463 -1.6890 -1.1995
 3166SOL    HW221135   0.457   0.594   7.052  0.1232 -1.4936 -1.5367
 3167SOL     OW21136   1.640   4.617  10.975 -0.2147 -0.0653 -0.1987
 3167SOL    HW121137   1.573   4.549  10.985  0.9820 -0.9845  1.5162
 3167SOL    HW221138   1.704   4.603  11.044  0.6767  1.5703 -0.7001
 3168SOL     OW21139   1.638   1.493   0.887 -0.1304 -0.3320 -0.1103
 3168SOL    HW121140   1.642   1.428   0.817  2.2996  0.8769 -1.0829
 3168SOL    HW221141   1.725   1.532   0.880  0.8818 -2.2059  1.7590
 3169SOL     OW21142   2.392   0.978   8.536  0.6622 -0.3093 -0.2232
 3169SOL    HW121143   2.474   1.018   8.563  0.7473 -0.0223 -0.8939
 3169SOL    HW221144   2.429   0.912   8.477 -0.1198  0.6318 -1.7894
 3170SOL     OW21145   0.737   4.214   5.193 -0.2032  0.0729  0.3506
 3170SOL    HW121146   0.662   4.155   5.194 -0.9191  0.9921  0.6701
 3170SOL    HW221147   0.765   4.223   5.283  1.6439 -1.8570 -0.0267
 3171SOL     OW21148   2.492   0.677   1.694  0.0552  0.1362  0.0088
 3171SOL    HW121149   2.437   0.615   1.742 -0.6609  0.2822 -0.6155
 3171SOL    HW221150   2.541   0.717   1.765 -0.1978  1.1435 -0.3796
 3172SOL     OW21151   1.584   4.484   7.836 -0.2477 -0.1003 -0.8879
 3172SOL    HW121152   1.618   4.567   7.870 -0.8327  0.1697 -0.9594
 3172SOL    HW221153   1.665   4.442   7.807 -0.0833 -1.1524  1.0956
 3173SOL     OW21154   3.446   0.494   3.552 -0.2953 -0.3599 -0.3487
 3173SOL    HW121155   3.448   0.398   3.545 -0.3141 -0.3646 -0.2882
 3173SOL    HW221156   3.487   0.523   3.471 -2.2875 -2.8267 -2.2700
 3174SOL     OW21157   0.909   1.148   2.994 -0.0490  0.1978  0.1389
 3174SOL    HW121158   0.940   1.201   2.921 -1.6568 -1.0634 -1.4696
 3174SOL    HW221159   0.876   1.069   2.949 -0.0355  0.1989  0.1271
 3175SOL     OW21160   0.356   3.058  11.407  0.9873  0.0802 -0.1449
 3175SOL    HW121161   0.356   2.983  11.467 -3.4844  1.2631  1.3194
 3175SOL    HW221162   0.374   3.017  11.322  3.0120  0.8841 -0.1180
 3176SOL     OW21163   0.815   2.334   7.963 -0.2505 -0.0977 -0.3280
 3176SOL    HW121164   0.731   2.314   8.003  0.2310 -0.0342  0.7069
 3176SOL    HW221165   0.813   2.284   7.881 -2.5829 -0.3222 -0.1437
 3177SOL     OW21166   0.305   3.797   2.816  0.4464  0.3068  0.1840
 3177SOL    HW121167   0.340   3.872   2.864 -1.2126  1.3630 -0.2930
 3177SOL    HW221168   0.215   3.826   2.807  0.5009 -0.1919 -1.8765
 3178SOL     OW21169   1.141   3.220   9.860 -0.6577 -0.0870  0.0500
 3178SOL    HW121170   1.061   3.216   9.807 -0.9457 -0.1226  0.4904
 3178SOL    HW221171   1.117   3.223   9.952 -2.4311  2.8222 -0.5144
 3179SOL     OW21172   2.317   3.025   8.473  0.7487 -0.1744  0.1513
 3179SOL    HW121173   2.260   3.101   8.486 -0.8872 -1.5759  1.0917
 3179SOL    HW221174   2.398   3.061   8.438 -0.4184  0.9659 -1.3542
 3180SOL     OW21175   3.514   0.197   5.789 -0.0265 -0.5407  0.3061
 3180SOL    HW121176   3.536   0.276   5.739  0.6982 -1.0394 -0.1523
 3180SOL    HW221177   3.573   0.127   5.762  1.4090 -0.9373  4.5145
 3181SOL     OW21178   0.892   3.571  10.568 -0.2227  0.2585 -0.2015
 3181SOL    HW121179   0.878   3.642  10.631 -0.9889  0.5481 -0.6920
 3181SOL    HW221180   0.845   3.601  10.490 -3.1308  2.1195  2.2663
 3182SOL     OW21181   0.965   0.947   8.231 -0.2066  0.0781 -0.2655
 3182SOL    HW121182   1.059   0.945   8.209  0.1750  1.0485  1.2853
 3182SOL    HW221183   0.955   1.033   8.271  1.0667 -0.8950  2.1837
 3183SOL     OW21184   0.633   3.265   2.919 -0.3062  0.0202  0.5115
 3183SOL    HW121185   0.712   3.214   2.937 -0.1543 -0.8600 -2.6467
 3183SOL    HW221186   0.665   3.312   2.843 -0.1173 -1.7777 -0.5255
 3184SOL     OW21187   2.618   1.876  16.679  0.0655  0.0665  0.4452
 3184SOL    HW121188   2.648   1.924  16.756  2.0000  0.5456 -0.6065
 3184SOL    HW221189   2.524   1.870  16.696  0.0275 -2.4210 -0.7245
 3185SOL     OW21190   1.049   3.327   2.266 -0.0798 -0.2677 -0.3314
 3185SOL    HW121191   1.136   3.362   2.251 -0.0083 -0.4104 -0.2534
 3185SOL    HW221192   1.002   3.398   2.223  1.2909  0.9021  0.1226
 3186SOL     OW21193   0.154   1.893   9.534 -0.2416  0.4086 -0.5105
 3186SOL    HW121194   0.213   1.969   9.532  1.0424 -0.5994 -1.1499
 3186SOL    HW221195   0.217   1.821   9.533  0.1332  0.6977  2.0727
 3187SOL     OW21196   3.235   4.507  15.294  0.3745  0.6249 -0.3074
 3187SOL    HW121197   3.150   4.550  15.289 -0.3102 -0.7838 -0.7259
 3187SOL    HW221198   3.297   4.553  15.237 -0.6244  2.2670 -0.0684
 3188SOL     OW21199   4.727   4.091   6.850  0.1383  0.0602 -0.1828
 3188SOL    HW121200   0.006   4.154   6.921 -0.4210 -1.1689  1.0236
 3188SOL    HW221201   4.641   4.118   6.816 -1.3186  0.0053  3.3660
 3189SOL     OW21202   3.214   4.502   8.546  0.6643  0.1562  0.5106
 3189SOL    HW121203   3.162   4.433   8.588  0.1103 -0.3119 -0.9598
 3189SOL    HW221204   3.305   4.470   8.545 -0.0063 -1.7976  1.4381
 3190SOL     OW21205   1.339   1.078   9.134 -0.1408 -0.1924 -0.2858
 3190SOL    HW121206   1.361   1.169   9.155  2.4647 -0.7555 -0.5303
 3190SOL    HW221207   1.328   1.040   9.222 -2.7271  0.8698 -0.1486
 3191SOL     OW21208   0.293   3.774   4.206  0.3087 -0.1777 -0.3839
 3191SOL    HW121209   0.210   3.789   4.252 -0.2461 -0.0170 -1.4557
 3191SOL    HW221210   0.268   3.739   4.121  1.8786 -2.4376  0.0753
 3192SOL     OW21211   2.104   4.285  10.081 -0.1347  0.4377 -0.4489
 3192SOL    HW121212   2.111   4.249  10.170  2.5473  1.1879 -0.3263
 3192SOL    HW221213   2.144   4.369  10.106 -1.6688  0.4318  2.0055
 3193SOL     OW21214   2.554   2.665   1.544 -0.9318  0.2315  0.4351
 3193SOL    HW121215   2.497   2.689   1.617  0.6920 -0.8292  2.0625
 3193SOL    HW221216   2.635   2.650   1.593  0.8338 -0.2818 -2.6395
 3194SOL     OW21217   0.736   1.766   4.258  0.3161  0.3346 -0.2616
 3194SOL    HW121218   0.713   1.816   4.181  1.1901  0.1122 -0.6717
 3194SOL    HW221219   0.813   1.713   4.236 -1.0738 -0.9434 -2.0413
 3195SOL     OW21220   2.489   4.198   5.432 -0.1075 -0.0707  0.3457
 3195SOL    HW121221   2.500   4.261   5.361 -2.9756  0.6787  0.5592
 3195SOL    HW221222   2.568   4.221   5.481  0.6035  0.2468 -0.9572
 3196SOL     OW21223   2.959   3.534  17.041 -0.7495 -0.2052 -0.2673
 3196SOL    HW121224   3.036   3.536  16.984  0.0315  0.5316  0.8125
 3196SOL    HW221225   2.904   3.465  17.005  0.6171 -1.6182  0.3302
 3197SOL     OW21226   0.883   0.913  17.036 -0.7373 -0.0394 -0.1145
 3197SOL    HW121227   0.827   0.969  16.983  0.5338  1.4489  0.1008
 3197SOL    HW221228   0.969   0.956  17.030 -0.3743 -0.7712 -0.1844
 3198SOL     OW21229   3.519   1.634  17.233 -0.3733  0.0846  0.2697
 3198SOL    HW121230   3.453   1.679  17.286 -2.0303  2.1163 -3.5351
 3198SOL    HW221231   3.456   1.567  17.207 -0.7148  0.4301  0.2078
 3199SOL     OW21232   0.092   1.645   5.438  0.3058 -0.3124  0.3892
 3199SOL    HW121233   0.032   1.579   5.404  0.6311 -0.9624  1.0487
 3199SOL    HW221234   0.161   1.637   5.372  0.9329 -1.9024  1.2386
 3200SOL     OW21235   3.723   4.584  16.838  0.0520 -1.1061 -0.1939
 3200SOL    HW121236   3.719   4.638  16.917  0.9371  0.2945 -1.1071
 3200SOL    HW221237   3.693   4.499  16.871 -0.9255 -0.7803 -0.2458
 3201SOL     OW21238   0.486   4.572   7.565  0.0093  0.0900  0.0499
 3201SOL    HW121239   0.544   4.517   7.618  1.2224  0.0687 -1.2800
 3201SOL    HW221240   0.495   4.657   7.607 -0.6668  0.1757  0.0208
 3202SOL     OW21241   3.038   1.792   5.636 -0.0116 -0.0127  0.4510
 3202SOL    HW121242   3.071   1.835   5.557  0.5948 -0.0087  0.7050
 3202SOL    HW221243   3.001   1.864   5.685 -0.1020 -0.7237  1.4282
 3203SOL     OW21244   1.462   1.338   1.369  0.1419  0.0174 -0.1554
 3203SOL    HW121245   1.520   1.277   1.414  2.3640  1.3760 -1.1665
 3203SOL    HW221246   1.523   1.373   1.304  2.4545 -1.0825  1.4221
 3204SOL     OW21247   3.348   1.912   2.313 -0.2551  0.1104 -0.2350
 3204SOL    HW121248   3.434   1.951   2.328 -0.1938 -0.3201  0.5494
 3204SOL    HW221249   3.335   1.864   2.395 -2.7434  0.3066 -0.4935
 3205SOL     OW21250   4.220   4.558   5.011 -0.0130 -0.2280  0.0009
 3205SOL    HW121251   4.276   4.538   4.936 -0.0745 -1.4237  0.2873
 3205SOL    HW221252   4.202   4.652   5.011  1.0311 -0.0182  1.4549
 3206SOL     OW21253   4.683   4.304   6.336 -0.6607  0.4328  0.0379
 3206SOL    HW121254   4.664   4.356   6.258  1.6866  0.3810 -0.5764
 3206SOL    HW221255   4.676   4.214   6.304 -0.2977  1.0697 -1.8107
 3207SOL     OW21256   2.796   4.730  11.116  0.4033 -0.5051 -0.2380
 3207SOL    HW121257   2.776   4.705  11.206 -0.2790  0.1671 -0.1986
 3207SOL    HW221258   2.818   4.646  11.077 -0.3181  0.6065 -3.0833
 3208SOL     OW21259   1.984   4.529   9.583  0.5762 -0.4663 -0.2673
 3208SOL    HW121260   1.958   4.472   9.654 -0.0163  2.6035  1.9961
 3208SOL    HW221261   1.907   4.585   9.580  0.6504 -0.3731 -0.4817
 3209SOL     OW21262   0.598   1.898   1.001 -0.2266  0.4426  0.3893
 3209SOL    HW121263   0.644   1.967   1.049  2.1548 -1.8287  1.4007
 3209SOL    HW221264   0.655   1.821   1.005 -1.6453 -0.6557 -0.7527
 3210SOL     OW21265   2.197   1.231   6.078  0.0369  0.3697  0.1159
 3210SOL    HW121266   2.166   1.157   6.131  2.4403  0.4400  1.6549
 3210SOL    HW221267   2.266   1.262   6.137 -1.7102  2.1054  1.2610
 3211SOL     OW21268   2.933   0.037   2.919 -0.2929  0.4109  0.3827
 3211SOL    HW121269   2.853   0.050   2.970  0.5418 -0.5486  1.9156
 3211SOL    HW221270   2.952   4.684   2.949 -1.8827 -0.4523 -1.1150
 3212SOL     OW21271   2.915   4.508   8.374 -0.1392 -0.2205  0.3273
 3212SOL    HW121272   2.965   4.530   8.452  0.4260 -0.8481  0.1498
 3212SOL    HW221273   2.866   4.430   8.402 -1.5360 -0.1867 -2.0043
 3213SOL     OW21274   0.416   0.319   8.463  0.1051 -0.0125  0.0743
 3213SOL    HW121275   0.450   0.403   8.433 -0.2892  0.3387  0.5991
 3213SOL    HW221276   0.420   0.342   8.556 -0.0146  1.1753 -0.2121
 3214SOL     OW21277   0.109   2.649   6.605  0.3168  0.1954  0.2503
 3214SOL    HW121278   0.055   2.617   6.677  0.2703 -1.1118 -0.3712
 3214SOL    HW221279   0.151   2.727   6.644  2.2194 -1.4209  1.4249
 3215SOL     OW21280   2.822   1.415   3.656 -0.3339 -0.6975  0.5146
 3215SOL    HW121281   2.769   1.395   3.734 -0.4681 -1.5973  0.2009
 3215SOL    HW221282   2.780   1.354   3.595  0.0884  0.5994 -1.0471
 3216SOL     OW21283   3.558   2.426   5.905  0.1843  0.1718 -0.8830
 3216SOL    HW121284   3.523   2.471   5.828 -0.0431  1.0887 -0.2432
 3216SOL    HW221285   3.481   2.376   5.933 -1.6873  2.8556 -1.2519
 3217SOL     OW21286   4.551   4.061   2.407  0.4564 -1.2156  0.1375
 3217SOL    HW121287   4.639   4.026   2.393  0.2402 -1.5439 -0.4319
 3217SOL    HW221288   4.559   4.110   2.489  0.6260 -1.8762  0.5175
 3218SOL     OW21289   2.566   4.389  17.505 -1.3275 -0.2536 -0.2323
 3218SOL    HW121290   2.479   4.422  17.482 -1.6571 -1.6675 -0.9883
 3218SOL    HW221291   2.605   4.405  17.419 -0.5608 -0.2740  0.1089
 3219SOL     OW21292   0.774   4.683   9.329  0.0175 -0.2363 -0.1887
 3219SOL    HW121293   0.836   4.614   9.303  0.5007 -0.6003  1.9572
 3219SOL    HW221294   0.698   4.630   9.353 -0.1675 -0.2519 -0.7985
 3220SOL     OW21295   4.165   0.822  17.639 -0.7284  0.1804 -0.7592
 3220SOL    HW121296   4.255   0.789  17.641 -0.2159  1.4899 -2.2220
 3220SOL    HW221297   4.168   0.918  17.634  0.5422  0.2943  2.0977
 3221SOL     OW21298   3.460   2.308  14.988  0.4166  0.7042 -0.4190
 3221SOL    HW121299   3.434   2.329  15.078 -0.2059 -2.9174  0.2411
 3221SOL    HW221300   3.388   2.349  14.940 -0.5051 -1.0132 -0.4911
 3222SOL     OW21301   3.423   3.813   2.075 -0.2481  0.1553  0.2193
 3222SOL    HW121302   3.489   3.809   2.006  1.3037 -0.2359  1.7476
 3222SOL    HW221303   3.470   3.861   2.143  1.0592 -1.6765  0.5942
 3223SOL     OW21304   4.122   0.766   3.003 -0.6280  0.1199  0.0298
 3223SOL    HW121305   4.107   0.858   3.025  3.1232  0.4140  1.4268
 3223SOL    HW221306   4.166   0.770   2.918  0.2811 -0.3962  0.4793
 3224SOL     OW21307   3.310   3.841   0.794 -0.3206  0.5401 -0.2064
 3224SOL    HW121308   3.308   3.895   0.714  1.3976  0.8328 -0.0569
 3224SOL    HW221309   3.385   3.880   0.839  0.3482 -0.1201 -0.7510
 3225SOL     OW21310   1.370   4.219   6.336 -0.6453 -0.2080  0.4066
 3225SOL    HW121311   1.461   4.247   6.347 -0.3925 -1.5134  1.7526
 3225SOL    HW221312   1.350   4.282   6.267  1.9499  0.0863 -0.0792
 3226SOL     OW21313   4.527   3.210   3.546 -0.4914  0.0311  0.3067
 3226SOL    HW121314   4.487   3.123   3.542 -0.0115 -0.2546  1.7931
 3226SOL    HW221315   4.620   3.188   3.553 -0.3838 -0.1681 -1.8104
 3227SOL     OW21316   1.855   1.807   5.497 -0.4338 -0.0971 -0.4595
 3227SOL    HW121317   1.878   1.832   5.407 -0.2463 -1.7219 -0.8666
 3227SOL    HW221318   1.769   1.849   5.502 -0.9357 -1.3008  0.9512
 3228SOL     OW21319   3.018   0.181   7.612 -0.1899 -0.4377  0.2588
 3228SOL    HW121320   3.051   0.091   7.606 -1.6372 -0.9272 -0.5096
 3228SOL    HW221321   2.936   0.170   7.661  0.7711 -1.9673  1.5433
 3229SOL     OW21322   3.122   3.322   4.976 -0.9116  0.5098 -0.1743
 3229SOL    HW121323   3.041   3.304   4.929 -0.7778 -2.7213  0.8168
 3229SOL    HW221324   3.084   3.344   5.061  2.0654  0.7148  1.0904
 3230SOL     OW21325   0.206   0.458   6.971 -0.8340 -0.0976  0.2937
 3230SOL    HW121326   0.220   0.374   6.928 -0.3484 -0.4418  1.1289
 3230SOL    HW221327   0.163   0.434   7.053  2.5571  0.2919  2.1885
 3231SOL     OW21328   0.423   2.504   7.104  0.0828  0.3036  0.0732
 3231SOL    HW121329   0.344   2.497   7.050  0.8203  0.0358 -0.9775
 3231SOL    HW221330   0.402   2.453   7.181  0.8008 -0.4286 -0.2193
 3232SOL     OW21331   2.220   4.051   3.396 -0.0359  0.5993 -0.3175
 3232SOL    HW121332   2.262   4.123   3.349  0.3634  1.3448  1.2108
 3232SOL    HW221333   2.161   4.104   3.450  2.2812  2.6334  0.1948
 3233SOL     OW21334   4.428   4.409  14.696  0.0656  0.4604 -0.4096
 3233SOL    HW121335   4.515   4.449  14.701  0.2095 -0.0788  1.4300
 3233SOL    HW221336   4.442   4.327  14.745  3.0762  0.3528 -1.4083
 3234SOL     OW21337   0.732   0.688   0.857  0.4078  0.2929 -0.0878
 3234SOL    HW121338   0.704   0.633   0.784  1.5626 -1.7126  0.9612
 3234SOL    HW221339   0.768   0.766   0.814  3.4399 -1.5441 -0.8645
 3235SOL     OW21340   1.378   0.887   7.179 -0.2590  0.0756  0.0271
 3235SOL    HW121341   1.303   0.936   7.147 -0.4732 -0.2368  0.0539
 3235SOL    HW221342   1.442   0.909   7.111 -0.3455  1.0581  0.2589
 3236SOL     OW21343   4.152   2.291   2.355 -0.1282 -0.2099  0.1224
 3236SOL    HW121344   4.217   2.354   2.386  1.3551 -2.9060  2.5070
 3236SOL    HW221345   4.206   2.214   2.372  0.0199 -0.1835 -0.2278
 3237SOL     OW21346   0.356   0.285   2.808 -0.4598  0.4930 -0.4059
 3237SOL    HW121347   0.365   0.203   2.857 -1.7229  0.0774 -0.8462
 3237SOL    HW221348   0.442   0.321   2.826  0.0617 -1.6172  1.3003
 3238SOL     OW21349   3.605   0.853   8.222  0.2301  0.2165 -0.2747
 3238SOL    HW121350   3.520   0.811   8.210  0.6082 -0.3264 -1.0271
 3238SOL    HW221351   3.591   0.939   8.183 -0.3969 -0.8734 -2.4447
 3239SOL     OW21352   0.719   2.251   3.973 -0.2151  0.1572  0.1828
 3239SOL    HW121353   0.654   2.294   4.028 -1.0269 -2.0633  0.9253
 3239SOL    HW221354   0.688   2.256   3.882  1.1350  0.6915 -0.2520
 3240SOL     OW21355   0.913   2.930   3.677  0.1528 -0.4231 -0.3265
 3240SOL    HW121356   0.987   2.911   3.735 -0.2380 -1.0878 -0.0364
 3240SOL    HW221357   0.949   3.003   3.628 -1.4399 -0.1866 -1.1321
 3241SOL     OW21358   0.799   0.997   9.736 -0.1213  0.2833  0.3076
 3241SOL    HW121359   0.824   0.948   9.814  1.8973  0.0367 -0.4994
 3241SOL    HW221360   0.745   1.066   9.775 -2.0706 -1.0611 -0.0307
 3242SOL     OW21361   4.595   3.321   6.936  0.3220  0.3477 -0.4645
 3242SOL    HW121362   4.638   3.379   6.873  1.6365 -0.1478 -0.0242
 3242SOL    HW221363   4.505   3.342   6.910  0.2807  1.2618  0.4321
 3243SOL     OW21364   2.589   2.165   8.517 -0.4492  0.5845  0.2200
 3243SOL    HW121365   2.680   2.183   8.542 -0.1444 -1.2260  0.3881
 3243SOL    HW221366   2.570   2.216   8.438 -0.4305 -0.9777 -0.7975
 3244SOL     OW21367   4.187   4.532   4.200 -0.5607  0.0591 -0.5436
 3244SOL    HW121368   4.277   4.506   4.181 -0.3159 -0.8430  1.8557
 3244SOL    HW221369   4.135   4.476   4.143  0.7061 -2.7305  1.0687
 3245SOL     OW21370   2.833   3.873  11.823 -0.1393 -0.2136  0.6601
 3245SOL    HW121371   2.766   3.828  11.773  0.9934  0.1770 -1.1981
 3245SOL    HW221372   2.788   3.885  11.907 -3.1284 -1.2947 -0.8074
 3246SOL     OW21373   3.221   0.708   8.562 -0.5099  0.1146  0.3952
 3246SOL    HW121374   3.172   0.713   8.644 -0.3715  4.0424  0.2405
 3246SOL    HW221375   3.306   0.723   8.602 -0.7293  0.3154  0.7868
 3247SOL     OW21376   3.511   4.153   6.146  0.4856 -0.6141  0.5418
 3247SOL    HW121377   3.482   4.077   6.197 -1.0237 -0.7328 -0.5032
 3247SOL    HW221378   3.447   4.216   6.178  2.8174  2.3891 -0.6892
 3248SOL     OW21379   4.360   4.415   9.643 -0.4227 -0.3237  0.1843
 3248SOL    HW121380   4.358   4.328   9.685  1.1963 -0.9463 -1.0251
 3248SOL    HW221381   4.414   4.402   9.566 -0.6222  2.4803 -0.4082
 3249SOL     OW21382   1.526   1.297   4.691 -0.1782  0.1651 -0.0476
 3249SOL    HW121383   1.444   1.340   4.668  0.1674  1.1861  0.6155
 3249SOL    HW221384   1.499   1.208   4.712  1.9349  0.2358  2.8813
 3250SOL     OW21385   3.037   4.582   0.170 -0.3443 -0.1221  0.0278
 3250SOL    HW121386   3.107   4.602   0.108  0.7116 -2.1840  0.5478
 3250SOL    HW221387   3.055   4.641   0.243  3.3451 -0.3431 -0.7125
 3251SOL     OW21388   1.436   3.240  12.509 -0.0309  0.2039 -0.2627
 3251SOL    HW121389   1.378   3.274  12.577  0.7062  3.3817 -1.2291
 3251SOL    HW221390   1.414   3.147  12.505 -1.3150  0.5046 -0.3906
 3252SOL     OW21391   1.875   1.302   5.986  0.2103 -0.2286 -0.1800
 3252SOL    HW121392   1.949   1.327   5.931  0.4823  0.7826  0.6489
 3252SOL    HW221393   1.932   1.275   6.058  0.4664  1.8902  0.3992
 3253SOL     OW21394   0.939   1.540   4.720  0.6128  0.2045  0.0863
 3253SOL    HW121395   0.958   1.446   4.723  2.0382  0.5307  1.4898
 3253SOL    HW221396   1.004   1.574   4.783  1.5000  0.2014 -0.8274
 3254SOL     OW21397   4.159   4.701   5.659  0.3804  0.1376  0.3190
 3254SOL    HW121398   4.164   4.613   5.623  1.5345  0.4950 -0.4331
 3254SOL    HW221399   4.220   4.687   5.732  0.0537 -2.1625  0.1492
 3255SOL     OW21400   0.745   4.587   6.276 -0.2848  0.1015  0.7210
 3255SOL    HW121401   0.810   4.642   6.319  0.9927 -0.3265 -0.6526
 3255SOL    HW221402   0.687   4.655   6.240 -2.2979 -1.6687  0.6580
 3256SOL     OW21403   4.650   3.588   2.874 -0.0704  0.4804  0.0132
 3256SOL    HW121404   4.652   3.672   2.828  0.8055  0.6642  0.4063
 3256SOL    HW221405   0.006   3.560   2.870  0.5228  2.3015  0.8366
 3257SOL     OW21406   0.609   1.910  12.104  0.4945 -0.4955  0.1491
 3257SOL    HW121407   0.657   1.956  12.172 -2.8764  0.7536  1.7177
 3257SOL    HW221408   0.639   1.821  12.124 -3.1371 -1.1924  2.6383
 3258SOL     OW21409   3.985   1.269  17.620 -0.4178 -0.2216 -0.1355
 3258SOL    HW121410   4.020   1.272  17.531  2.1433 -0.4963  0.8780
 3258SOL    HW221411   3.952   1.358  17.629  0.4578  0.0742  0.1325
 3259SOL     OW21412   4.280   2.146   2.667  0.0538  0.2508 -0.3604
 3259SOL    HW121413   4.294   2.228   2.715  2.0186 -1.0969  1.3604
 3259SOL    HW221414   4.332   2.091   2.726 -0.4440 -0.4271 -0.5551
 3260SOL     OW21415   2.503   2.675   2.706 -0.0534 -0.2104  0.1740
 3260SOL    HW121416   2.570   2.655   2.771 -0.1870  0.1953  0.4312
 3260SOL    HW221417   2.550   2.746   2.664 -0.8274 -0.4653 -1.1545
 3261SOL     OW21418   2.258   1.225   8.847  0.3139  0.0450  0.2333
 3261SOL    HW121419   2.310   1.305   8.846 -0.7397  0.7217 -0.5540
 3261SOL    HW221420   2.297   1.184   8.924 -0.4854 -1.8245 -0.3560
 3262SOL     OW21421   1.712   1.500   4.479  0.1141  0.4126  0.0769
 3262SOL    HW121422   1.748   1.498   4.567 -0.2111  0.8777  0.2214
 3262SOL    HW221423   1.786   1.492   4.419 -1.1741 -1.5321 -1.2642
 3263SOL     OW21424   1.990   2.158   7.178  0.3666 -0.4218 -0.1109
 3263SOL    HW121425   1.902   2.192   7.191  1.2935  1.5156  1.1286
 3263SOL    HW221426   1.962   2.075   7.139 -2.4068  0.0938  0.7631
 3264SOL     OW21427   4.580   3.657   5.759 -0.1023  0.2745 -0.1535
 3264SOL    HW121428   4.515   3.588   5.775 -0.4615  0.6610  0.0531
 3264SOL    HW221429   4.580   3.648   5.664  1.3234 -1.1233 -0.0374
 3265SOL     OW21430   0.216   1.677   3.670 -0.5568  0.0623  0.1985
 3265SOL    HW121431   0.308   1.678   3.697 -0.3931  0.6764 -0.4007
 3265SOL    HW221432   0.218   1.605   3.607 -1.0167 -1.2218  1.6550
 3266SOL     OW21433   4.244   2.114   4.842 -0.2582  0.1933  0.8049
 3266SOL    HW121434   4.236   2.155   4.755 -1.2027  0.1913  0.8960
 3266SOL    HW221435   4.338   2.103   4.859 -0.0554  1.8981  0.8265
 3267SOL     OW21436   1.284   0.959   0.553 -0.2286  0.1871  0.4748
 3267SOL    HW121437   1.296   0.865   0.541 -0.3451  0.3336 -0.7463
 3267SOL    HW221438   1.234   0.952   0.634  0.2042  0.2725  0.7489
 3268SOL     OW21439   2.059   3.705   5.131 -0.2267  0.7643  0.1950
 3268SOL    HW121440   1.976   3.737   5.097 -0.1156  0.7036 -0.1263
 3268SOL    HW221441   2.046   3.615   5.161  2.0239  0.2796 -0.2915
 3269SOL     OW21442   1.571   2.705   6.506  0.8614  0.2201 -0.6175
 3269SOL    HW121443   1.548   2.631   6.450  2.0730  0.1888 -1.0549
 3269SOL    HW221444   1.651   2.672   6.546 -0.0693 -1.5199 -0.1746
 3270SOL     OW21445   2.163   4.718  11.680  0.3104  0.5161 -0.4113
 3270SOL    HW121446   2.251   4.712  11.644  0.6884 -0.5487  0.6754
 3270SOL    HW221447   2.128   0.059  11.634  0.3038 -1.8828 -4.3630
 3271SOL     OW21448   0.664   4.565  16.353 -0.4401 -0.5506  0.1149
 3271SOL    HW121449   0.591   4.626  16.347 -0.3832 -0.6122 -1.1019
 3271SOL    HW221450   0.703   4.580  16.439 -0.7311 -1.6446  0.4456
 3272SOL     OW21451   1.469   3.644   9.100 -0.6064 -0.5137 -0.2490
 3272SOL    HW121452   1.529   3.680   9.165 -0.7071 -0.9868  0.1078
 3272SOL    HW221453   1.399   3.609   9.156 -1.8017 -0.5118 -1.7483
 3273SOL     OW21454   0.938   4.253   8.417 -0.2375  0.6439 -0.4574
 3273SOL    HW121455   0.863   4.277   8.362 -0.9107  0.0212  0.1928
 3273SOL    HW221456   1.015   4.253   8.360  0.8290  1.3928  1.0030
 3274SOL     OW21457   1.996   0.624   3.192  0.3200 -0.5790  0.6833
 3274SOL    HW121458   2.009   0.533   3.219  0.4856 -0.8218 -0.2042
 3274SOL    HW221459   1.971   0.611   3.100 -0.2228 -0.5854  0.8322
 3275SOL     OW21460   2.786   1.625  13.682 -0.4073 -0.3648  1.0632
 3275SOL    HW121461   2.713   1.631  13.621  0.1426  2.0032  0.6609
 3275SOL    HW221462   2.728   1.620  13.758 -1.8255 -0.3238 -0.0221
 3276SOL     OW21463   0.160   0.889  10.621 -0.5808 -0.2825 -0.2731
 3276SOL    HW121464   0.172   0.952  10.693 -0.2407  0.3367 -0.8698
 3276SOL    HW221465   0.236   0.913  10.568 -0.5792  0.6856  0.1538
 3277SOL     OW21466   3.972   2.226   5.280 -1.1630  0.8266  0.1267
 3277SOL    HW121467   4.044   2.232   5.218 -0.6649  1.3765  0.7691
 3277SOL    HW221468   4.010   2.251   5.363  1.7522  0.8142 -1.2235
 3278SOL     OW21469   4.096   4.590   9.501 -0.2361  0.3493 -0.8280
 3278SOL    HW121470   4.032   4.647   9.543  2.9435  1.2037  2.8684
 3278SOL    HW221471   4.175   4.622   9.545 -0.6747 -1.7933  1.5522
 3279SOL     OW21472   2.987   3.195   7.313  0.2952 -0.7820 -0.0567
 3279SOL    HW121473   3.006   3.156   7.228 -0.6802 -0.4298 -0.4319
 3279SOL    HW221474   2.960   3.113   7.357  0.9776 -2.1644 -2.2331
 3280SOL     OW21475   1.464   0.302   2.036  0.2148 -0.0653  0.3641
 3280SOL    HW121476   1.443   0.385   1.992  0.8187  0.6615  1.4448
 3280SOL    HW221477   1.423   0.302   2.122 -3.8336 -2.1776 -1.5795
 3281SOL     OW21478   3.068   3.836   6.081  0.6704  0.3361 -0.2031
 3281SOL    HW121479   3.147   3.783   6.089 -0.0368 -0.4871  1.3296
 3281SOL    HW221480   3.046   3.845   6.174 -0.7576 -2.8630 -0.2479
 3282SOL     OW21481   0.300   1.677  13.651  0.4133  0.3764 -0.3507
 3282SOL    HW121482   0.213   1.674  13.693  1.0834 -0.7594  0.9564
 3282SOL    HW221483   0.310   1.769  13.626 -1.8720  1.2035  1.7370
 3283SOL     OW21484   4.355   4.222   6.542  0.4831 -0.4413  0.4598
 3283SOL    HW121485   4.344   4.291   6.477  1.9720 -2.1507 -1.6006
 3283SOL    HW221486   4.315   4.260   6.620  0.0272  1.9762 -0.9450
 3284SOL     OW21487   2.401   2.610  12.593 -0.1742  0.2320 -0.2021
 3284SOL    HW121488   2.365   2.525  12.567 -0.5382 -0.0618  1.2556
 3284SOL    HW221489   2.331   2.671  12.568  0.2988 -0.0634 -2.2821
 3285SOL     OW21490   1.465   1.537  15.450  0.0418  0.6158  0.2774
 3285SOL    HW121491   1.425   1.483  15.382 -1.1924 -0.3593  1.7813
 3285SOL    HW221492   1.557   1.511  15.446  0.1879  0.9282  1.6793
 3286SOL     OW21493   3.087   0.724   1.982 -0.1078 -0.4333  0.0204
 3286SOL    HW121494   3.117   0.726   2.073 -0.0358  1.0252 -0.0401
 3286SOL    HW221495   3.008   0.669   1.982 -0.9844  0.8099 -2.1720
 3287SOL     OW21496   2.397   1.627  11.285 -0.8193  0.0776 -0.2390
 3287SOL    HW121497   2.347   1.574  11.224 -0.8499 -1.0904  0.8063
 3287SOL    HW221498   2.466   1.568  11.314 -0.2824  0.3260 -0.9884
 3288SOL     OW21499   4.200   2.626  12.458 -0.2062 -0.8353 -0.2698
 3288SOL    HW121500   4.245   2.615  12.542  0.1996 -2.6316 -0.7365
 3288SOL    HW221501   4.273   2.659  12.407  0.4387 -1.2003  0.4188
 3289SOL     OW21502   0.023   3.028   3.131 -0.4024  0.0355  0.2753
 3289SOL    HW121503   0.045   3.073   3.050 -1.1045 -3.7171 -2.0359
 3289SOL    HW221504   0.021   3.106   3.186 -0.9914 -0.8562  1.5125
 3290SOL     OW21505   3.619   2.026   2.313 -0.2391 -0.6750  0.0212
 3290SOL    HW121506   3.699   2.063   2.276 -1.2074  1.6009  0.1400
 3290SOL    HW221507   3.642   1.943   2.353 -0.3846 -0.8233 -0.2058
 3291SOL     OW21508   4.220   3.659   6.733  0.1486 -0.3267 -0.2483
 3291SOL    HW121509   4.258   3.743   6.759 -0.1408 -0.6481  1.2157
 3291SOL    HW221510   4.278   3.623   6.666  3.4764  2.2901  1.2679
 3292SOL     OW21511   1.151   2.765   3.502 -0.0515 -0.0253 -1.0073
 3292SOL    HW121512   1.147   2.849   3.456 -0.7834  0.5934  0.1832
 3292SOL    HW221513   1.066   2.754   3.545  0.3646  0.4035 -0.0691
 3293SOL     OW21514   2.424   3.352   3.533 -0.8044 -0.4349 -0.2458
 3293SOL    HW121515   2.363   3.281   3.550 -1.6456  0.3089 -0.1563
 3293SOL    HW221516   2.488   3.312   3.474  1.0062  1.5790  0.3160
 3294SOL     OW21517   4.425   0.989   2.764 -1.0345  0.6314  0.2971
 3294SOL    HW121518   4.445   1.000   2.857  0.4618 -0.8409  0.1474
 3294SOL    HW221519   4.503   0.979   2.710 -0.6400  0.7988  0.8415
 3295SOL     OW21520   0.275   3.045   2.265 -0.1048  0.6690  0.3675
 3295SOL    HW121521   0.339   3.105   2.225 -1.5613  1.1870 -1.2314
 3295SOL    HW221522   0.329   2.967   2.262 -0.5557  0.4242 -1.4129
 3296SOL     OW21523   1.804   3.737   7.531  0.0894 -0.0442  0.1242
 3296SOL    HW121524   1.790   3.701   7.444  2.4085  0.1705 -0.3483
 3296SOL    HW221525   1.898   3.756   7.537  0.2404 -0.9985  0.8612
 3297SOL     OW21526   2.820   0.150   7.794  0.0468  0.0038  0.5009
 3297SOL    HW121527   2.844   0.242   7.810 -3.5093  1.4072 -2.2706
 3297SOL    HW221528   2.785   0.123   7.879 -0.4424 -0.4638  0.1483
 3298SOL     OW21529   2.781   1.064   8.577 -0.1388  0.6148  0.0342
 3298SOL    HW121530   2.808   1.070   8.669 -1.2151  2.5764  0.2321
 3298SOL    HW221531   2.705   1.123   8.572 -0.7120 -0.3950 -3.0819
 3299SOL     OW21532   2.360   1.259   3.357 -0.1566  0.3689  0.1221
 3299SOL    HW121533   2.366   1.177   3.406 -1.0233 -0.1386 -0.6001
 3299SOL    HW221534   2.324   1.321   3.420 -2.3516 -0.0231 -0.7294
 3300SOL     OW21535   3.480   2.278  10.331  0.3018  0.3483  0.0911
 3300SOL    HW121536   3.544   2.320  10.389  2.4527 -1.1140 -1.1881
 3300SOL    HW221537   3.499   2.316  10.246 -0.5524  1.6804  0.5052
 3301SOL     OW21538   0.938   3.593   2.389 -0.1569  0.8776 -0.1475
 3301SOL    HW121539   0.957   3.500   2.400  0.5499  0.7438 -2.3230
 3301SOL    HW221540   1.001   3.609   2.318  0.4337  0.5847  0.3138
 3302SOL     OW21541   3.408   2.584   1.874 -0.1090 -0.0447  0.2035
 3302SOL    HW121542   3.360   2.531   1.937  1.6916 -0.2181  1.4502
 3302SOL    HW221543   3.426   2.663   1.926 -0.7427  0.1626  0.1037
 3303SOL     OW21544   2.167   4.478   2.644 -0.2940  0.0408 -0.7187
 3303SOL    HW121545   2.164   4.573   2.645 -1.8482 -0.0252  1.4057
 3303SOL    HW221546   2.118   4.467   2.725 -1.9581  0.2020 -1.7068
 3304SOL     OW21547   2.004   4.047   9.657 -0.4447  0.4661 -0.0612
 3304SOL    HW121548   2.019   4.045   9.751 -1.9621  2.9825  0.2491
 3304SOL    HW221549   1.923   4.097   9.645  0.2438  1.8535  1.1315
 3305SOL     OW21550   4.598   2.832   2.471 -0.2032 -0.5217 -0.0297
 3305SOL    HW121551   4.672   2.820   2.412 -0.8667 -0.6162 -0.8481
 3305SOL    HW221552   4.549   2.911   2.447  0.7249  0.2983  0.7979
 3306SOL     OW21553   1.313   3.667  15.829  0.1018 -0.1693  0.1103
 3306SOL    HW121554   1.304   3.619  15.746  0.6769  0.3348 -0.2463
 3306SOL    HW221555   1.303   3.759  15.802 -0.1556 -0.3356 -0.3715
 3307SOL     OW21556   1.793   4.040   5.291 -0.2549 -0.4011  0.4474
 3307SOL    HW121557   1.844   4.119   5.308  0.2121 -0.5710 -0.1445
 3307SOL    HW221558   1.832   3.986   5.360  1.3900  1.1558  0.7452
 3308SOL     OW21559   4.036   4.423  11.099 -0.3861 -1.0424  0.0984
 3308SOL    HW121560   3.997   4.336  11.106 -0.8469 -1.0339 -2.3231
 3308SOL    HW221561   3.998   4.447  11.015  0.9356  1.3520  0.1847
 3309SOL     OW21562   0.503   3.198   7.530  0.0153  0.2254  0.0665
 3309SOL    HW121563   0.563   3.262   7.493 -2.4001  2.3335 -0.1662
 3309SOL    HW221564   0.549   3.184   7.613 -1.5262 -0.0475  0.8816
 3310SOL     OW21565   3.682   0.312   2.562  0.2648  1.3169  0.0608
 3310SOL    HW121566   3.594   0.327   2.528 -0.5620 -1.0501  1.1552
 3310SOL    HW221567   3.685   0.379   2.630 -2.5722  3.1763 -1.6541
 3311SOL     OW21568   0.854   0.996  10.113  0.0681  1.0513 -0.0023
 3311SOL    HW121569   0.914   1.059  10.073  1.1640  1.4332  2.2601
 3311SOL    HW221570   0.769   1.020  10.076  0.3249  0.9509 -0.6588
 3312SOL     OW21571   2.394   0.418   6.737  0.5351  0.0093 -0.5104
 3312SOL    HW121572   2.375   0.495   6.791  0.8347  0.6562 -1.3398
 3312SOL    HW221573   2.328   0.352   6.760  0.8403  0.2988  1.2016
 3313SOL     OW21574   3.164   4.356  17.348 -0.0953  0.1519  0.1930
 3313SOL    HW121575   3.115   4.340  17.268  3.1088 -1.1655 -1.5305
 3313SOL    HW221576   3.146   4.447  17.372 -1.7532 -0.0790 -0.1896
 3314SOL     OW21577   2.187   2.034   6.143 -0.0316  0.3422 -0.1166
 3314SOL    HW121578   2.102   2.060   6.108  0.1752 -3.0495 -3.1191
 3314SOL    HW221579   2.158   1.954   6.188  1.7089 -0.9363 -1.2898
 3315SOL     OW21580   2.855   4.373   5.805 -0.2309  0.1976  0.2439
 3315SOL    HW121581   2.899   4.451   5.840  1.5423 -1.1397  0.9839
 3315SOL    HW221582   2.841   4.316   5.881 -0.9571  1.2130  0.8726
 3316SOL     OW21583   1.871   2.833   3.420 -0.1546 -0.1924 -0.7140
 3316SOL    HW121584   1.927   2.830   3.498  1.1497 -0.7369 -1.6692
 3316SOL    HW221585   1.879   2.743   3.388  1.6229 -0.2116 -0.2308
 3317SOL     OW21586   4.215   4.425   5.293 -0.2863 -0.7002 -1.0015
 3317SOL    HW121587   4.257   4.343   5.266  0.6064 -1.0744  1.5326
 3317SOL    HW221588   4.239   4.468   5.211  2.9423 -2.7288 -1.1033
 3318SOL     OW21589   4.511   1.565  10.552 -0.1072 -0.0331 -0.3115
 3318SOL    HW121590   4.465   1.524  10.479  0.7754  1.5359 -1.7348
 3318SOL    HW221591   4.439   1.574  10.615  1.6396  0.4062  1.6249
 3319SOL     OW21592   1.028   2.499   7.821 -0.3403  0.9665  0.0015
 3319SOL    HW121593   0.998   2.584   7.852 -1.4822  0.7628 -0.5446
 3319SOL    HW221594   0.951   2.458   7.782 -0.4935  0.5726  0.7266
 3320SOL     OW21595   4.719   4.453  14.122 -0.6738 -0.0235 -0.1322
 3320SOL    HW121596   4.734   4.376  14.177  0.6045  1.9092  2.2133
 3320SOL    HW221597   4.625   4.463  14.139 -1.0483 -2.0374 -0.9722
 3321SOL     OW21598   4.198   4.406   2.938  0.4934 -0.6261 -0.3209
 3321SOL    HW121599   4.192   4.490   2.892  1.0495 -0.5505 -0.2601
 3321SOL    HW221600   4.108   4.376   2.935  0.2072  0.1711  0.3715
 3322SOL     OW21601   3.412   0.647  13.410 -0.2219  0.1592 -0.4714
 3322SOL    HW121602   3.423   0.739  13.433 -0.3381 -0.1505  0.8363
 3322SOL    HW221603   3.428   0.607  13.495  2.4585  1.3591 -0.4073
 3323SOL     OW21604   4.082   1.005   5.374  0.0200 -0.1296 -0.4014
 3323SOL    HW121605   4.105   0.944   5.304 -0.0787 -1.2115  0.5113
 3323SOL    HW221606   4.096   0.959   5.456  1.9281  1.2623  0.0475
 3324SOL     OW21607   1.654   1.591   6.434 -0.0492 -0.0176  0.0452
 3324SOL    HW121608   1.690   1.674   6.465  0.1132 -0.5095  1.1793
 3324SOL    HW221609   1.559   1.603   6.443  0.1026  1.5723 -0.4792
 3325SOL     OW21610   0.729   2.725  12.093 -0.1197  0.1004 -0.1412
 3325SOL    HW121611   0.689   2.721  12.007  0.6337  3.7624 -0.6562
 3325SOL    HW221612   0.707   2.815  12.115 -0.1697  0.0811 -0.1123
 3326SOL     OW21613   2.351   4.253   7.030  0.0468 -0.4698 -0.4679
 3326SOL    HW121614   2.255   4.258   7.039 -0.0499  0.9547 -2.1991
 3326SOL    HW221615   2.358   4.219   6.941  3.5146  1.9004 -1.0795
 3327SOL     OW21616   0.210   0.582  13.029  0.1058 -0.5455 -0.3406
 3327SOL    HW121617   0.215   0.639  12.953  1.1056 -0.9929 -0.6248
 3327SOL    HW221618   0.155   0.507  13.008 -1.7115  1.6265 -3.3003
 3328SOL     OW21619   1.826   1.975   4.643  0.1025 -0.0067  0.0053
 3328SOL    HW121620   1.769   2.003   4.715  0.3555  1.9162 -0.5286
 3328SOL    HW221621   1.862   2.059   4.614  1.0933 -0.6307 -0.5351
 3329SOL     OW21622   4.268   4.403   6.294 -0.3393  0.1190  0.2476
 3329SOL    HW121623   4.293   4.492   6.318  0.5298  0.0772 -0.4771
 3329SOL    HW221624   4.195   4.393   6.354  0.1072 -1.5091  0.5301
 3330SOL     OW21625   2.990   1.434   5.602 -0.2129 -0.3124 -0.1903
 3330SOL    HW121626   3.000   1.403   5.692 -0.4672 -0.4335 -0.2038
 3330SOL    HW221627   3.000   1.357   5.546  2.0586  0.2697 -0.5519
 3331SOL     OW21628   1.344   0.802   3.647  0.8898  0.2385 -0.4391
 3331SOL    HW121629   1.256   0.765   3.641  1.6934 -1.7292  0.0123
 3331SOL    HW221630   1.321   0.857   3.722 -0.9914 -0.5615 -0.4328
 3332SOL     OW21631   3.015   3.500  17.518  0.0451 -0.1470 -0.2248
 3332SOL    HW121632   2.972   3.465  17.440 -0.9863  2.5253 -0.8647
 3332SOL    HW221633   3.048   3.422  17.563 -1.5368 -0.7552 -0.1441
 3333SOL     OW21634   0.460   3.303   2.508  0.0649  0.1781 -0.6229
 3333SOL    HW121635   0.531   3.245   2.480  0.4354  0.5919 -0.5449
 3333SOL    HW221636   0.408   3.298   2.428 -1.1625  0.8228  0.1283
 3334SOL     OW21637   3.043   3.812   4.567 -0.0596 -0.0232  0.4109
 3334SOL    HW121638   3.018   3.724   4.595 -0.3710 -0.3758 -0.9900
 3334SOL    HW221639   3.139   3.807   4.574 -0.0088 -1.4004 -1.0736
 3335SOL     OW21640   4.179   4.290  13.378 -0.0373  0.2415 -1.0522
 3335SOL    HW121641   4.236   4.360  13.346  1.3540 -1.3077 -1.9516
 3335SOL    HW221642   4.247   4.227  13.405 -1.1180  0.0713  1.3235
 3336SOL     OW21643   2.945   0.276   8.700 -0.1374 -0.1400  0.4844
 3336SOL    HW121644   3.020   0.314   8.655 -1.0742  0.8171 -0.2629
 3336SOL    HW221645   2.988   0.206   8.749  1.3748  0.4352 -0.0356
 3337SOL     OW21646   3.679   1.272  16.805  0.0192  0.2105  0.3714
 3337SOL    HW121647   3.718   1.193  16.766  0.8748  1.1726 -0.7364
 3337SOL    HW221648   3.716   1.343  16.752  1.6704  0.4153  1.8084
 3338SOL     OW21649   0.073   2.823   6.374 -0.5693  0.1943 -0.4497
 3338SOL    HW121650   0.003   2.844   6.311  0.1691  1.0924 -0.9585
 3338SOL    HW221651   0.024   2.785   6.447 -0.4055 -1.8350 -1.3930
 3339SOL     OW21652   1.491   0.404  15.306  0.4320 -0.6936  0.1569
 3339SOL    HW121653   1.464   0.404  15.397 -0.5799 -0.5918 -0.1470
 3339SOL    HW221654   1.585   0.417  15.320  0.2882  1.4440 -0.8162
 3340SOL     OW21655   1.377   1.009   8.699 -0.0686  0.4179  0.4625
 3340SOL    HW121656   1.424   1.025   8.781  0.7324 -3.0203  0.6370
 3340SOL    HW221657   1.408   1.087   8.651  1.7844 -0.3934  0.3306
 3341SOL     OW21658   0.636   1.747   8.358  0.1649  0.0900  0.4567
 3341SOL    HW121659   0.696   1.817   8.385  2.6145 -2.0967  0.7200
 3341SOL    HW221660   0.566   1.760   8.421  1.6223  1.8105  1.7370
 3342SOL     OW21661   4.104   0.459   4.731  0.2870  0.0524 -0.0685
 3342SOL    HW121662   4.111   0.399   4.806 -0.2431 -0.1310 -0.1618
 3342SOL    HW221663   4.010   0.452   4.712 -0.0444 -0.2849  1.6259
 3343SOL     OW21664   3.175   0.506   2.438 -0.1980 -0.1421  0.2817
 3343SOL    HW121665   3.157   0.520   2.531 -2.2444 -0.4371 -0.0686
 3343SOL    HW221666   3.091   0.498   2.393 -0.2150 -0.8786  0.4377
 3344SOL     OW21667   0.941   2.709   9.279  0.2433 -0.5055  0.8864
 3344SOL    HW121668   0.883   2.656   9.225  0.7981  0.1803 -0.3861
 3344SOL    HW221669   1.028   2.706   9.239 -0.6924 -0.3038 -1.1500
 3345SOL     OW21670   3.149   2.010   8.545  0.2409  0.0429 -0.2940
 3345SOL    HW121671   3.232   2.043   8.511  0.5302 -2.0251 -1.5809
 3345SOL    HW221672   3.150   2.034   8.638  1.0500  0.4403 -0.4063
 3346SOL     OW21673   3.217   4.684  17.738 -0.4403 -0.1919 -0.8331
 3346SOL    HW121674   3.227   0.031  17.689 -0.0562  0.8145  0.9417
 3346SOL    HW221675   3.305   4.680   0.034 -2.6913 -0.2695  4.6571
 3347SOL     OW21676   0.820   0.626   7.267  0.1339 -0.2795 -0.3937
 3347SOL    HW121677   0.845   0.647   7.357 -1.6109  1.6958 -0.3718
 3347SOL    HW221678   0.830   0.711   7.224  0.4694 -1.2026 -2.1268
 3348SOL     OW21679   1.633   2.507   3.501 -0.5472 -0.1626 -0.2846
 3348SOL    HW121680   1.542   2.480   3.487 -0.9507  1.0421  0.0053
 3348SOL    HW221681   1.670   2.441   3.560  0.6083  1.2452  0.5654
 3349SOL     OW21682   0.729   2.007   4.115  0.3787  0.1340 -0.0397
 3349SOL    HW121683   0.810   1.987   4.163  0.1229 -0.4172  0.1601
 3349SOL    HW221684   0.741   2.095   4.078  0.6316  0.6576  1.2813
 3350SOL     OW21685   0.793   0.331   3.336  0.5985  0.3082  0.2218
 3350SOL    HW121686   0.786   0.329   3.431 -0.4465 -1.2490  0.1094
 3350SOL    HW221687   0.754   0.245   3.321  0.9084  0.1627  0.2568
 3351SOL     OW21688   0.169   1.134   4.263 -0.1771 -1.1098 -0.1754
 3351SOL    HW121689   0.244   1.178   4.303 -0.8013 -0.1885 -0.0047
 3351SOL    HW221690   0.141   1.210   4.211 -0.9285 -1.8284 -0.8100
 3352SOL     OW21691   0.519   2.818   6.685  0.4617 -0.2610  0.3372
 3352SOL    HW121692   0.502   2.847   6.774 -0.1906 -0.2049  0.1905
 3352SOL    HW221693   0.480   2.731   6.685  0.4840 -0.2853 -1.4148
 3353SOL     OW21694   0.087   3.154   1.636  0.0542  0.7341 -0.3264
 3353SOL    HW121695   0.169   3.127   1.594  0.1170  0.5866 -0.1112
 3353SOL    HW221696   0.041   3.072   1.649  1.5658  0.0635  0.8753
 3354SOL     OW21697   4.620   0.063   4.314 -0.0969  0.1178 -0.0241
 3354SOL    HW121698   4.678   0.045   4.388  2.1523 -0.1781 -1.8565
 3354SOL    HW221699   4.677   0.056   4.237 -0.5618 -1.5579 -0.2142
 3355SOL     OW21700   3.521   3.605   0.967 -1.1489 -0.1684  0.3304
 3355SOL    HW121701   3.567   3.580   1.047  0.6270  0.5290 -0.4652
 3355SOL    HW221702   3.560   3.690   0.947 -0.5570 -0.2642  1.0907
 3356SOL     OW21703   3.126   3.487  14.157 -0.0658  0.1949 -0.6782
 3356SOL    HW121704   3.208   3.461  14.199 -0.1534 -0.2447 -0.7802
 3356SOL    HW221705   3.143   3.430  14.081 -0.7959 -0.1212 -0.5979
 3357SOL     OW21706   0.895   4.667   4.465  0.0160 -0.6036  0.0280
 3357SOL    HW121707   0.914   4.587   4.416  0.5120 -0.3694 -0.1546
 3357SOL    HW221708   0.862   4.619   4.542 -0.3667  1.4098  1.1211
 3358SOL     OW21709   1.639   2.629   5.250  0.1383  0.1360  0.0521
 3358SOL    HW121710   1.598   2.604   5.167 -0.4077  0.7146  0.1461
 3358SOL    HW221711   1.576   2.589   5.309  0.3399  0.7005  0.6489
 3359SOL     OW21712   4.243   2.311   4.514 -0.2400  0.1079 -0.2050
 3359SOL    HW121713   4.337   2.320   4.526 -0.5910  1.9699  1.2745
 3359SOL    HW221714   4.213   2.402   4.506 -0.8275 -0.0107  0.5735
 3360SOL     OW21715   1.580   2.050   2.759  0.0781  0.0905 -0.1026
 3360SOL    HW121716   1.553   2.047   2.667 -1.5506  0.6589  0.3591
 3360SOL    HW221717   1.640   2.124   2.764  1.7820 -1.3480  0.7446
 3361SOL     OW21718   3.592   2.339  12.581 -0.2497 -0.2448  0.6318
 3361SOL    HW121719   3.637   2.422  12.601  1.1108 -1.1362  1.2398
 3361SOL    HW221720   3.595   2.339  12.486  0.3977 -0.7779  0.6562
 3362SOL     OW21721   4.518   2.810   8.167  0.9308  0.2080 -0.3651
 3362SOL    HW121722   4.487   2.876   8.106  0.6066 -1.2518 -1.7617
 3362SOL    HW221723   4.465   2.840   8.241 -0.4279 -0.7528 -0.9604
 3363SOL     OW21724   2.641   3.890   0.599 -0.7613 -0.2529  0.5248
 3363SOL    HW121725   2.600   3.932   0.524  0.9890  0.9567  0.2348
 3363SOL    HW221726   2.659   3.974   0.642  1.3452  0.7306 -2.2561
 3364SOL     OW21727   3.583   3.018   5.071 -0.2315 -0.1465  0.0777
 3364SOL    HW121728   3.509   3.075   5.052  0.6085  1.0390  0.3365
 3364SOL    HW221729   3.625   3.067   5.142 -2.5906  2.9815 -0.7227
 3365SOL     OW21730   3.824   3.482   2.168 -0.1759  0.2049 -0.1894
 3365SOL    HW121731   3.750   3.445   2.120  0.7200 -0.5459 -1.0094
 3365SOL    HW221732   3.772   3.546   2.216  2.2434  2.0478 -0.0564
 3366SOL     OW21733   0.767   2.014  13.933 -0.5445  0.8775  0.2258
 3366SOL    HW121734   0.829   2.087  13.939  0.7814  0.0792 -3.7545
 3366SOL    HW221735   0.801   1.949  13.995  3.2250  1.2722 -1.4109
 3367SOL     OW21736   1.459   4.400   3.695 -0.5937 -0.3503 -0.1500
 3367SOL    HW121737   1.518   4.348   3.641 -1.1007  0.7418 -1.7575
 3367SOL    HW221738   1.521   4.473   3.701  1.9398 -2.6897  2.3175
 3368SOL     OW21739   2.601   1.119  17.312  0.4667  0.2696 -0.0463
 3368SOL    HW121740   2.561   1.055  17.253 -0.6753 -0.7405  1.8160
 3368SOL    HW221741   2.693   1.107  17.290  0.3133 -0.4870 -0.2593
 3369SOL     OW21742   1.364   2.244   0.911 -0.0035 -0.4647  0.0290
 3369SOL    HW121743   1.351   2.311   0.979  0.1963 -2.2850  1.8772
 3369SOL    HW221744   1.429   2.187   0.953 -0.1995 -1.4351 -1.0187
 3370SOL     OW21745   4.683   2.023  15.681  0.4181  0.3275  0.4351
 3370SOL    HW121746   4.640   1.953  15.632  1.3339  1.0905 -1.4835
 3370SOL    HW221747   0.041   2.027  15.660  0.2207  1.4028 -0.2355
 3371SOL     OW21748   3.491   4.306   4.856 -0.4648 -0.1365  0.0001
 3371SOL    HW121749   3.560   4.325   4.920  0.5014 -0.5193 -0.9273
 3371SOL    HW221750   3.475   4.214   4.875 -0.4554  0.2044  1.7039
 3372SOL     OW21751   3.744   2.826  10.447 -0.2743  0.2048  0.3465
 3372SOL    HW121752   3.741   2.921  10.451  1.4073  0.2735  0.1034
 3372SOL    HW221753   3.837   2.807  10.459 -0.2373 -0.9199 -1.6956
 3373SOL     OW21754   1.620   0.496   2.550  0.0934  0.5154  0.4918
 3373SOL    HW121755   1.690   0.551   2.587  0.8154 -1.5266  2.1469
 3373SOL    HW221756   1.638   0.406   2.577 -2.2078 -0.4821 -1.2955
 3374SOL     OW21757   0.231   1.937   5.022  0.9173 -0.2640 -0.1731
 3374SOL    HW121758   0.325   1.921   5.018  0.8920 -0.5653  0.4752
 3374SOL    HW221759   0.202   1.910   4.935  0.4400  1.1972 -0.4684
 3375SOL     OW21760   0.772   1.286  13.013  0.4085 -0.4646  0.6665
 3375SOL    HW121761   0.761   1.358  12.952 -0.8130 -0.8953  0.3800
 3375SOL    HW221762   0.694   1.233  12.997  1.4725 -1.1502 -2.1472
 3376SOL     OW21763   0.433   2.828   7.073  0.5520  0.0355 -0.7973
 3376SOL    HW121764   0.421   2.744   7.029  1.8926 -0.3731 -0.3845
 3376SOL    HW221765   0.363   2.880   7.034 -1.2444 -1.4400  0.5042
 3377SOL     OW21766   3.107   0.751   7.178 -0.4859  0.1327 -0.5388
 3377SOL    HW121767   3.078   0.794   7.258 -1.3304 -0.1916 -0.6731
 3377SOL    HW221768   3.110   0.661   7.209 -0.0665  0.9799  1.8480
 3378SOL     OW21769   4.286   0.070  16.580  0.3945 -0.3442  0.0328
 3378SOL    HW121770   4.315   0.132  16.647  0.5262 -2.0895  1.5932
 3378SOL    HW221771   4.193   0.083  16.565  0.2794  0.2173  1.2584
 3379SOL     OW21772   3.284   4.488   9.181 -0.0957  0.3497  0.1233
 3379SOL    HW121773   3.198   4.525   9.203  0.6017  0.9050  1.9014
 3379SOL    HW221774   3.265   4.438   9.101 -1.5279 -0.2457  0.8365
 3380SOL     OW21775   1.709   0.760   3.468  0.1280  0.1845  0.0620
 3380SOL    HW121776   1.758   0.842   3.465  0.8104 -0.2202  0.1666
 3380SOL    HW221777   1.730   0.716   3.386  2.3122 -1.8069  1.6654
 3381SOL     OW21778   1.132   2.129  11.285 -0.3618  0.2815 -0.1568
 3381SOL    HW121779   1.217   2.091  11.263  0.2976  0.0274  2.8069
 3381SOL    HW221780   1.077   2.051  11.291 -0.7039  0.5244 -0.0979
 3382SOL     OW21781   1.300   0.453  13.388  0.1977 -0.0480 -0.0876
 3382SOL    HW121782   1.258   0.538  13.379 -1.5846 -0.8619  0.4612
 3382SOL    HW221783   1.365   0.451  13.318  0.2187  0.3873 -0.0812
 3383SOL     OW21784   4.173   2.056   9.419  0.1454  0.6935 -0.7116
 3383SOL    HW121785   4.218   2.016   9.345 -0.0872 -0.6866 -0.1136
 3383SOL    HW221786   4.135   2.131   9.372 -1.6822  0.6512  0.6753
 3384SOL     OW21787   3.998   1.120   3.964  0.1443 -0.0260  0.2035
 3384SOL    HW121788   4.010   1.114   3.869 -0.9132 -2.4878  0.2343
 3384SOL    HW221789   3.903   1.131   3.975  0.3730  1.3094  0.7918
 3385SOL     OW21790   0.779   1.593   7.874 -0.1755  0.2012 -0.0319
 3385SOL    HW121791   0.824   1.540   7.941 -0.9676 -0.7696 -0.2714
 3385SOL    HW221792   0.844   1.604   7.805  1.8475 -0.3421  1.7604
 3386SOL     OW21793   4.053   1.142   5.716 -0.2122 -0.0367 -0.0943
 3386SOL    HW121794   4.073   1.150   5.810 -3.2364 -0.0289  0.5505
 3386SOL    HW221795   4.004   1.062   5.736  0.6233 -0.7960 -1.0633
 3387SOL     OW21796   3.742   2.731  12.082 -0.4819  0.0289  0.1252
 3387SOL    HW121797   3.829   2.699  12.105 -1.6832 -3.3777  0.0416
 3387SOL    HW221798   3.735   2.813  12.130  0.9485  1.0237 -1.3748
 3388SOL     OW21799   1.409   0.905   1.910  0.5405 -0.0485 -0.4792
 3388SOL    HW121800   1.417   0.939   1.821 -0.1175 -1.1946 -0.9864
 3388SOL    HW221801   1.438   0.815   1.898 -0.3027 -0.1719 -1.6262
 3389SOL     OW21802   1.123   4.597  15.896  0.1347 -0.3133  0.6190
 3389SOL    HW121803   1.091   4.575  15.809 -1.3602  0.7606  0.8888
 3389SOL    HW221804   1.094   4.689  15.893 -1.5600 -0.9421 -2.1152
 3390SOL     OW21805   4.029   1.953   7.579  0.3842  0.6352 -0.1298
 3390SOL    HW121806   3.964   1.932   7.646  1.1684 -0.7916  0.1865
 3390SOL    HW221807   4.091   2.004   7.632 -0.4219  0.0982  1.3395
 3391SOL     OW21808   3.729   4.590   0.827 -0.2856 -0.1914  0.0371
 3391SOL    HW121809   3.678   4.575   0.907 -0.6443 -0.4470 -0.2400
 3391SOL    HW221810   3.809   4.615   0.874 -0.1657 -2.7783  1.2289
 3392SOL     OW21811   0.778   0.550   5.144  0.1675  0.1237  0.3489
 3392SOL    HW121812   0.814   0.462   5.142 -1.2495 -0.4643  0.4343
 3392SOL    HW221813   0.707   0.562   5.080  0.4465  1.0565  0.2105
 3393SOL     OW21814   3.604   3.267  17.736 -0.0381 -0.1441  0.0515
 3393SOL    HW121815   3.661   3.225   0.061 -1.2781  1.2694  2.0308
 3393SOL    HW221816   3.530   3.294   0.050 -1.7088 -2.4033 -1.0800
 3394SOL     OW21817   2.665   4.401   4.762 -0.4459  0.3678  0.3999
 3394SOL    HW121818   2.695   4.415   4.852 -1.3222  1.0200  0.5964
 3394SOL    HW221819   2.617   4.318   4.767  0.5697 -0.2661 -0.5862
 3395SOL     OW21820   2.552   0.792   8.396 -0.1298  0.8089  0.2723
 3395SOL    HW121821   2.637   0.816   8.358 -0.1562  2.2729  1.1473
 3395SOL    HW221822   2.537   0.713   8.343 -1.1935  2.1157 -1.3855
 3396SOL     OW21823   2.330   2.093   2.917 -0.3504 -0.5148  0.0009
 3396SOL    HW121824   2.312   2.006   2.953  0.5147 -0.5608  0.3221
 3396SOL    HW221825   2.384   2.060   2.845  0.0190  0.9765 -0.3866
 3397SOL     OW21826   2.323   4.335   0.159 -0.2491 -0.4405  0.1480
 3397SOL    HW121827   2.228   4.335   0.168 -0.1829  2.4659  0.6898
 3397SOL    HW221828   2.328   4.371   0.070  0.5282 -0.3514  0.2228
 3398SOL     OW21829   1.259   0.905   8.212  0.2668 -0.9257 -0.4031
 3398SOL    HW121830   1.211   0.822   8.212  0.3964 -1.0054  0.3969
 3398SOL    HW221831   1.305   0.898   8.128  0.9331 -3.3639  0.1575
 3399SOL     OW21832   1.769   0.527   6.153  0.4350 -0.3240  0.6845
 3399SOL    HW121833   1.717   0.446   6.153 -2.9953  1.8866 -1.4932
 3399SOL    HW221834   1.861   0.499   6.149  0.6486  0.5305 -0.4075
 3400SOL     OW21835   3.475   1.101  11.075 -0.3608 -0.2853 -0.5178
 3400SOL    HW121836   3.560   1.131  11.043  0.3436 -0.5563  1.0854
 3400SOL    HW221837   3.508   1.015  11.102 -1.2283 -1.1541 -2.2458
 3401SOL     OW21838   2.182   3.644  10.380 -0.1679 -0.2185  0.2565
 3401SOL    HW121839   2.183   3.647  10.285  1.4483 -1.5563  0.2283
 3401SOL    HW221840   2.265   3.603  10.407  0.1261  0.1286 -0.1167
 3402SOL     OW21841   4.144   3.918   0.274  0.3881  0.0991  0.0719
 3402SOL    HW121842   4.052   3.904   0.253  0.9182 -1.4569 -1.1901
 3402SOL    HW221843   4.146   4.003   0.318  1.7995 -0.6123  1.3766
 3403SOL     OW21844   0.346   3.643  10.925  0.0331 -0.3853  0.1454
 3403SOL    HW121845   0.320   3.601  10.843 -1.8532  0.9797  0.0440
 3403SOL    HW221846   0.440   3.623  10.932  0.1441 -0.0957 -0.5471
 3404SOL     OW21847   2.341   1.312   9.721 -0.1980  0.0752  0.2884
 3404SOL    HW121848   2.272   1.335   9.659  0.1260  0.2870  0.0013
 3404SOL    HW221849   2.421   1.353   9.687 -0.0815  1.6544  2.4850
 3405SOL     OW21850   0.615   4.390  13.012 -0.2446 -0.4423 -0.2596
 3405SOL    HW121851   0.543   4.328  13.017  1.0634 -1.8733  1.0310
 3405SOL    HW221852   0.659   4.350  12.937  3.2629  0.1742  1.4660
 3406SOL     OW21853   3.857   3.889  15.533  0.3168  0.4244  0.1402
 3406SOL    HW121854   3.863   3.867  15.626  0.5136 -0.6521 -0.1330
 3406SOL    HW221855   3.764   3.880  15.514  0.2886  1.1598 -0.1114
 3407SOL     OW21856   1.983   3.632   4.462 -0.4920 -0.2177  0.0746
 3407SOL    HW121857   1.982   3.609   4.555  0.1647 -0.0661  0.1191
 3407SOL    HW221858   2.066   3.606   4.421 -1.9327 -3.3969 -0.8566
 3408SOL     OW21859   0.858   1.417   3.393  0.3039  0.1800  0.7050
 3408SOL    HW121860   0.945   1.451   3.370  0.1662 -0.8787 -1.4345
 3408SOL    HW221861   0.881   1.325   3.404 -1.2570 -0.4407 -1.1506
 3409SOL     OW21862   3.421   4.667  11.890 -0.2957  0.3177  0.4517
 3409SOL    HW121863   3.403   0.026  11.885 -3.0500 -0.2574 -0.8735
 3409SOL    HW221864   3.438   4.646  11.982 -1.3446  1.7481  0.9669
 3410SOL     OW21865   3.883   2.405   2.431  0.1512 -0.5148 -0.0147
 3410SOL    HW121866   3.976   2.400   2.409  0.4040 -0.2331  1.0078
 3410SOL    HW221867   3.871   2.320   2.474  1.5811 -1.6121 -1.7920
 3411SOL     OW21868   1.071   3.293   9.236 -0.3711 -0.2051  0.5302
 3411SOL    HW121869   1.087   3.320   9.326 -1.0869  0.1374  0.5566
 3411SOL    HW221870   1.050   3.200   9.242  0.4524 -0.5795 -2.2355
 3412SOL     OW21871   1.907   2.846  16.852 -0.2135 -0.0990  0.0766
 3412SOL    HW121872   1.823   2.837  16.896 -1.6430 -0.0956 -2.6527
 3412SOL    HW221873   1.917   2.941  16.857 -0.2656 -0.0841 -0.1050
 3413SOL     OW21874   2.611   3.432   6.936 -0.2917 -0.3620  0.2301
 3413SOL    HW121875   2.661   3.400   7.011 -0.8272 -2.0739 -0.1308
 3413SOL    HW221876   2.567   3.507   6.974 -2.3527 -1.2088 -0.4991
 3414SOL     OW21877   1.775   1.014   3.187  0.2090  0.3018  0.2929
 3414SOL    HW121878   1.748   0.924   3.168  2.2568 -0.1913 -0.2490
 3414SOL    HW221879   1.689   1.055   3.196 -0.8014 -1.7174 -0.0459
 3415SOL     OW21880   0.893   4.268   4.142  0.2246 -0.3972  0.4449
 3415SOL    HW121881   0.888   4.319   4.223 -1.9003  0.0979  0.0146
 3415SOL    HW221882   0.871   4.180   4.174 -1.0735 -0.4505 -0.5634
 3416SOL     OW21883   2.172   2.325   8.064 -0.5265  0.6759 -0.3871
 3416SOL    HW121884   2.207   2.392   8.123  0.1770  0.2303 -0.2986
 3416SOL    HW221885   2.246   2.264   8.069 -0.7871  0.2100 -2.2145
 3417SOL     OW21886   0.813   4.715   5.885 -0.4767 -0.0025 -0.4822
 3417SOL    HW121887   0.800   0.014   5.797  2.2046  0.6392 -0.6309
 3417SOL    HW221888   0.898   4.671   5.876  0.4352  1.4068  1.1586
 3418SOL     OW21889   0.554   4.051   6.435  0.5424  0.3138  0.5865
 3418SOL    HW121890   0.554   4.103   6.355 -0.8661 -1.2098 -0.4184
 3418SOL    HW221891   0.541   4.111   6.508  0.6397 -0.1474  0.9874
 3419SOL     OW21892   0.110   1.623   4.656 -0.2295  0.7509 -0.2587
 3419SOL    HW121893   0.186   1.609   4.600 -0.2079  0.3535 -0.1339
 3419SOL    HW221894   0.037   1.630   4.594  0.3242  0.8812 -0.8948
 3420SOL     OW21895   3.181   0.732   8.860 -0.1712 -0.4002  0.5185
 3420SOL    HW121896   3.092   0.723   8.827 -0.4267  0.8338  0.8887
 3420SOL    HW221897   3.176   0.687   8.945  0.7062 -1.7400 -0.1375
 3421SOL     OW21898   4.325   2.069  16.770 -0.3484  0.8636  0.3715
 3421SOL    HW121899   4.378   2.038  16.844  0.1096  2.0970  0.5589
 3421SOL    HW221900   4.358   2.159  16.770  1.1143  0.3335  0.2218
 3422SOL     OW21901   0.512   2.779   6.407 -0.1729 -0.3981 -0.5081
 3422SOL    HW121902   0.450   2.852   6.410 -1.9025 -1.9513  0.8574
 3422SOL    HW221903   0.565   2.810   6.482 -1.6130  1.0576 -0.0931
 3423SOL     OW21904   0.443   1.153  15.559  0.6215  0.2522  0.6155
 3423SOL    HW121905   0.380   1.190  15.497  0.3063  0.4536  1.0556
 3423SOL    HW221906   0.422   1.216  15.628 -1.5830 -0.3633  0.5200
 3424SOL     OW21907   3.542   3.919   4.296  0.7882  0.0997 -0.1057
 3424SOL    HW121908   3.508   3.832   4.275  1.0276  0.3441 -1.5297
 3424SOL    HW221909   3.579   3.906   4.383  0.5517  0.4635  0.0498
 3425SOL     OW21910   0.716   2.469   2.598 -0.9131  0.1760  0.3536
 3425SOL    HW121911   0.693   2.394   2.652  0.2019  0.2124  0.8916
 3425SOL    HW221912   0.638   2.523   2.607 -0.5167  0.8010  0.0963
 3426SOL     OW21913   0.192   1.592   2.510  0.2019 -0.2705  0.0102
 3426SOL    HW121914   0.213   1.591   2.417 -0.3159 -0.1520 -0.1080
 3426SOL    HW221915   0.163   1.504   2.533  1.1597 -0.8049 -0.8560
 3427SOL     OW21916   2.042   2.292   6.648 -0.1414 -0.2983  0.2068
 3427SOL    HW121917   2.137   2.296   6.659 -0.3260  1.0322  1.3507
 3427SOL    HW221918   2.007   2.355   6.712 -0.7495 -1.4342  0.9833
 3428SOL     OW21919   1.461   0.162  12.169 -0.4326  0.2070  0.1778
 3428SOL    HW121920   1.459   0.183  12.262  0.3445 -1.7703  0.6291
 3428SOL    HW221921   1.381   0.207  12.142 -1.0999 -1.9400 -1.4863
 3429SOL     OW21922   2.513   0.713   6.173  0.0333 -0.0728 -0.0814
 3429SOL    HW121923   2.439   0.763   6.208 -0.7472 -1.0439 -0.3683
 3429SOL    HW221924   2.578   0.782   6.189 -0.6071  0.3346  0.7410
 3430SOL     OW21925   1.133   0.783   6.498  0.2832  0.5343 -0.0715
 3430SOL    HW121926   1.119   0.748   6.586 -1.1655  0.6709 -0.2501
 3430SOL    HW221927   1.078   0.861   6.489 -0.5229  0.1388  1.3496
 3431SOL     OW21928   3.172   2.184  14.583 -0.5745  0.3667  0.1913
 3431SOL    HW121929   3.210   2.170  14.496 -0.2949 -0.3530  0.4270
 3431SOL    HW221930   3.235   2.241  14.628 -0.1014  0.2854 -0.3618
 3432SOL     OW21931   0.467   2.232  10.552  0.2788  0.9088 -0.0596
 3432SOL    HW121932   0.549   2.208  10.509  0.9567 -0.7612  2.1915
 3432SOL    HW221933   0.397   2.218  10.488  0.4900  2.4687 -0.6478
 3433SOL     OW21934   1.850   2.361  12.190  0.3332  0.0631  0.0593
 3433SOL    HW121935   1.903   2.294  12.233 -0.6247  0.5847  2.0708
 3433SOL    HW221936   1.860   2.330  12.101 -1.5321  1.2589 -0.5686
 3434SOL     OW21937   4.023   4.028   5.558  0.2802  0.4297  0.0438
 3434SOL    HW121938   4.018   4.115   5.598  0.0756 -0.9422  2.9705
 3434SOL    HW221939   3.951   4.028   5.495  2.1913  2.5075 -2.1851
 3435SOL     OW21940   3.254   2.408   4.163  0.1941  0.1584 -0.0625
 3435SOL    HW121941   3.161   2.424   4.145  0.9278  3.0054 -1.3541
 3435SOL    HW221942   3.280   2.384   4.075  1.0997 -0.0528  0.2671
 3436SOL     OW21943   3.875   3.396   7.744  0.0108 -0.0679  0.0737
 3436SOL    HW121944   3.965   3.393   7.777 -0.3959 -0.3244  1.1464
 3436SOL    HW221945   3.870   3.467   7.679 -1.4886  0.9745  1.3362
 3437SOL     OW21946   4.157   3.302  11.238 -0.1882 -0.1757 -0.3536
 3437SOL    HW121947   4.092   3.250  11.286 -0.2346  0.1238 -0.0949
 3437SOL    HW221948   4.118   3.329  11.155  2.9670  0.4319 -1.6257
 3438SOL     OW21949   2.474   1.565   3.237 -0.1884  0.0051  0.0027
 3438SOL    HW121950   2.471   1.556   3.332 -2.3460 -0.1229 -0.0924
 3438SOL    HW221951   2.384   1.587   3.215 -0.8296 -1.7423  0.9143
 3439SOL     OW21952   0.923   2.958   8.701  0.2848 -0.0196  0.5467
 3439SOL    HW121953   0.862   2.890   8.729 -0.0213 -0.1627 -0.4859
 3439SOL    HW221954   0.864   3.018   8.654  1.3532  0.2530 -0.4329
 3440SOL     OW21955   0.118   0.492   2.936 -0.1511  0.3973  0.2814
 3440SOL    HW121956   0.064   0.414   2.932  0.7854 -0.1854 -0.9122
 3440SOL    HW221957   0.194   0.471   2.881 -0.7245  1.0935 -0.7624
 3441SOL     OW21958   0.956   2.198   6.709 -0.2155 -0.1572 -0.0967
 3441SOL    HW121959   0.925   2.233   6.625 -0.1479 -1.8438 -0.8180
 3441SOL    HW221960   1.010   2.262   6.755 -1.0607  0.2213  0.3639
 3442SOL     OW21961   1.507   1.667  14.618 -0.6565 -0.4027 -0.0779
 3442SOL    HW121962   1.588   1.713  14.638  0.4757 -1.9968 -0.9481
 3442SOL    HW221963   1.443   1.723  14.662  1.0958  2.0230 -0.5970
 3443SOL     OW21964   0.249   2.319  16.129 -0.1915 -0.4908 -0.4603
 3443SOL    HW121965   0.193   2.363  16.066 -0.3083 -0.4385 -0.3205
 3443SOL    HW221966   0.252   2.384  16.199 -1.2429 -0.0434 -0.8452
 3444SOL     OW21967   2.745   2.972   9.564  0.0880  0.6158  0.3197
 3444SOL    HW121968   2.784   2.908   9.624  0.7661  0.4814 -0.2590
 3444SOL    HW221969   2.662   3.001   9.601  0.8208  0.5375  2.0683
 3445SOL     OW21970   3.880   1.369  11.663  0.1261  0.1665 -0.4265
 3445SOL    HW121971   3.857   1.279  11.688  0.0154  0.5680  0.9327
 3445SOL    HW221972   3.815   1.384  11.595 -1.4561 -1.5407  0.7001
 3446SOL     OW21973   0.288   1.263  14.502 -0.1235  0.1895  0.0876
 3446SOL    HW121974   0.267   1.209  14.578  0.9245 -1.4227 -0.7681
 3446SOL    HW221975   0.383   1.267  14.508 -0.1628  1.1699  0.0429
 3447SOL     OW21976   4.708   3.720   5.157  1.0293 -0.4924 -0.0977
 3447SOL    HW121977   4.717   3.796   5.214 -1.9717 -0.5211  0.4219
 3447SOL    HW221978   4.615   3.699   5.165  0.9574 -1.0834 -2.6024
 3448SOL     OW21979   1.615   2.042   5.872  0.0808 -0.4263 -0.1305
 3448SOL    HW121980   1.523   2.038   5.897  0.0828 -2.7447 -0.5065
 3448SOL    HW221981   1.647   1.973   5.930  1.5012 -0.2046 -0.6344
 3449SOL     OW21982   2.728   3.543   7.873  0.5464  0.0248 -0.0896
 3449SOL    HW121983   2.743   3.569   7.964  2.3655  0.3300 -0.4818
 3449SOL    HW221984   2.742   3.627   7.830 -0.3614  1.0779  1.7067
 3450SOL     OW21985   3.704   1.321   8.235  0.2639 -0.2097  0.5858
 3450SOL    HW121986   3.630   1.348   8.289 -1.0743 -2.5211 -0.0822
 3450SOL    HW221987   3.764   1.394   8.245  0.2649 -0.1585  0.1884
 3451SOL     OW21988   4.504   0.103   8.710  0.2095  0.6238 -0.2253
 3451SOL    HW121989   4.438   0.078   8.645  1.5225 -0.7677 -1.0082
 3451SOL    HW221990   4.544   0.020   8.733 -0.6616 -0.5896 -3.1128
 3452SOL     OW21991   0.996   1.531  11.884 -0.0471 -0.3384 -0.5004
 3452SOL    HW121992   1.011   1.484  11.802 -0.0366 -1.1074 -0.0545
 3452SOL    HW221993   0.919   1.495  11.927 -0.4226  0.4522 -0.5005
 3453SOL     OW21994   1.086   2.137  14.196 -0.1241 -0.0560 -0.7887
 3453SOL    HW121995   1.167   2.110  14.240 -0.7879  0.1848  0.5652
 3453SOL    HW221996   1.030   2.169  14.266  2.3476  0.4931  0.9422
 3454SOL     OW21997   2.335   0.650   6.893 -0.2610  0.0034  0.4402
 3454SOL    HW121998   2.419   0.694   6.880 -1.1983  0.9594 -2.4427
 3454SOL    HW221999   2.264   0.705   6.860 -0.1284 -0.5273 -0.7216
 3455SOL     OW22000   3.328   3.339   8.724  0.1969  0.1998  0.2178
 3455SOL    HW122001   3.290   3.353   8.638  1.8648  1.9746 -0.2251
 3455SOL    HW222002   3.413   3.381   8.722  0.7644 -0.9976 -1.2762
 3456SOL     OW22003   3.565   3.635  15.532 -0.6338  0.3196 -0.2754
 3456SOL    HW122004   3.629   3.599  15.594  0.3681  0.9972 -0.9105
 3456SOL    HW222005   3.558   3.723  15.570  1.7389  0.5213 -0.2650
 3457SOL     OW22006   2.709   3.984   5.044  0.3065  0.3299 -0.1035
 3457SOL    HW122007   2.681   4.076   5.050  0.1521  0.2178  1.0177
 3457SOL    HW222008   2.628   3.932   5.045  1.4156 -1.3729 -0.4449
 3458SOL     OW22009   2.846   4.249   2.674  1.2060 -0.4434 -0.1571
 3458SOL    HW122010   2.870   4.219   2.587  0.6793  1.8182 -1.0608
 3458SOL    HW222011   2.813   4.177   2.728  0.2770  3.1598  4.0744
 3459SOL     OW22012   0.522   0.096  12.840  0.2822 -0.8896  0.1898
 3459SOL    HW122013   0.556   0.109  12.752  0.8762 -2.6455  0.1456
 3459SOL    HW222014   0.521   0.188  12.866  2.0402 -0.5581 -0.9699
 3460SOL     OW22015   3.549   4.699   7.632 -0.6889 -0.3000  0.4246
 3460SOL    HW122016   3.574   4.614   7.596  0.2486  0.5153 -0.8873
 3460SOL    HW222017   3.582   4.708   7.721  1.3972  1.7257 -0.5558
 3461SOL     OW22018   0.507   4.541   9.004  0.1030  0.3491 -0.4654
 3461SOL    HW122019   0.467   4.455   9.004 -0.9422  0.8376 -1.0005
 3461SOL    HW222020   0.580   4.526   8.943 -0.9708 -0.6030 -1.5115
 3462SOL     OW22021   4.056   1.877   8.256  0.0993  0.5257  0.2842
 3462SOL    HW122022   4.124   1.876   8.189 -0.4927  0.2891 -0.3111
 3462SOL    HW222023   3.991   1.929   8.209 -0.7835 -1.4083 -0.6515
 3463SOL     OW22024   2.782   3.868   7.607  0.1889 -0.2563  0.0534
 3463SOL    HW122025   2.714   3.847   7.671 -1.3630  2.2447 -0.7715
 3463SOL    HW222026   2.742   3.950   7.577  1.0046 -0.1103 -0.6360
 3464SOL     OW22027   0.842   3.930   3.951  0.3359 -0.2055  0.3139
 3464SOL    HW122028   0.828   4.023   3.971  1.4958  0.0656 -0.0847
 3464SOL    HW222029   0.927   3.916   3.994  1.7656  2.5790 -1.5361
 3465SOL     OW22030   4.148   2.237   6.186 -0.2083 -0.0122  0.3987
 3465SOL    HW122031   4.119   2.162   6.239 -0.7950  0.6361  0.9969
 3465SOL    HW222032   4.227   2.259   6.234  0.4171 -1.3893  0.0126
 3466SOL     OW22033   0.197   0.835   3.366 -0.5899  0.6777  0.2952
 3466SOL    HW122034   0.166   0.772   3.432  2.1578  1.2575  2.1471
 3466SOL    HW222035   0.249   0.779   3.309  0.0978 -0.4642  2.0272
 3467SOL     OW22036   3.586   2.859   5.838 -0.0120 -0.0208  0.0333
 3467SOL    HW122037   3.681   2.848   5.839 -0.2972 -2.6233 -0.8215
 3467SOL    HW222038   3.581   2.954   5.846  0.5584  0.0240 -0.1663
 3468SOL     OW22039   3.828   4.513  10.929 -0.3134  0.1069  0.4676
 3468SOL    HW122040   3.882   4.592  10.938 -2.5175  1.1894  4.0411
 3468SOL    HW222041   3.871   4.470  10.855 -0.7734  0.0358  0.2465
 3469SOL     OW22042   4.058   0.003   8.600 -0.9079 -0.0397 -0.4705
 3469SOL    HW122043   3.964   4.727   8.586 -1.3524  1.7173  1.0600
 3469SOL    HW222044   4.067   4.720   8.694  1.2894  1.9009 -0.3147
 3470SOL     OW22045   0.826   2.135  11.607 -0.2075 -0.3757  0.0153
 3470SOL    HW122046   0.822   2.086  11.689  2.0751  0.2354  0.5044
 3470SOL    HW222047   0.735   2.135  11.580 -0.8985 -1.0634  2.3259
 3471SOL     OW22048   3.173   2.841   4.943 -0.7019  0.2890 -0.0521
 3471SOL    HW122049   3.268   2.841   4.950 -0.7944  1.5652  1.1556
 3471SOL    HW222050   3.164   2.747   4.957  0.7170 -0.2692 -2.8813
 3472SOL     OW22051   3.436   4.001   5.477  0.3035  0.0966  0.4281
 3472SOL    HW122052   3.372   3.953   5.529  2.8165 -0.3422  3.1327
 3472SOL    HW222053   3.411   4.091   5.496 -1.0099 -0.1363 -0.2328
 3473SOL     OW22054   0.197   2.845   8.646  0.6192  0.2038 -0.3300
 3473SOL    HW122055   0.218   2.812   8.558  0.4516 -4.2422  1.3550
 3473SOL    HW222056   0.268   2.804   8.695  1.0216  0.2076 -0.8999
 3474SOL     OW22057   0.067   0.994  11.396  0.2642  0.1947  0.0084
 3474SOL    HW122058   0.111   1.005  11.312  3.7562 -0.9642  1.6604
 3474SOL    HW222059   0.085   0.904  11.425  1.5136  0.5761  0.4213
 3475SOL     OW22060   0.392   4.690   8.383  0.0677 -0.6254  0.1332
 3475SOL    HW122061   0.313   4.659   8.339  0.3439 -1.4144  0.1863
 3475SOL    HW222062   0.435   0.010   8.318  1.9825 -0.2993  1.6855
 3476SOL     OW22063   3.933   1.803   4.761  0.5173  0.4465  0.1167
 3476SOL    HW122064   3.944   1.729   4.702 -1.5550 -0.9136  1.4452
 3476SOL    HW222065   4.016   1.791   4.808  0.3860 -3.1635 -0.5862
 3477SOL     OW22066   0.476   0.356   6.686 -0.3944  0.1932 -0.0665
 3477SOL    HW122067   0.399   0.384   6.636  0.1234 -0.4524 -1.2308
 3477SOL    HW222068   0.541   0.351   6.616 -0.3249  0.8570 -0.0519
 3478SOL     OW22069   1.250   2.181   0.678 -0.5425  0.1315 -0.5990
 3478SOL    HW122070   1.291   2.197   0.764 -1.7019  3.3533 -0.6482
 3478SOL    HW222071   1.310   2.116   0.642  0.3350  0.1479  0.8108
 3479SOL     OW22072   1.601   0.980   1.326  0.0739 -0.9239  0.4317
 3479SOL    HW122073   1.696   0.975   1.338  0.0310  0.9581  1.7038
 3479SOL    HW222074   1.580   1.045   1.394  0.3894  1.4406 -1.7484
 3480SOL     OW22075   3.013   1.719   6.738 -0.5263  0.0917 -0.1425
 3480SOL    HW122076   2.933   1.770   6.750 -1.1277 -0.4297 -1.8311
 3480SOL    HW222077   3.052   1.727   6.825  1.7460 -3.5476 -0.7986
 3481SOL     OW22078   1.166   4.296   0.506  0.3946 -0.9290 -0.1726
 3481SOL    HW122079   1.258   4.292   0.481  0.7345 -0.6388  1.0377
 3481SOL    HW222080   1.172   4.358   0.578  1.1472 -1.9414  0.6452
 3482SOL     OW22081   2.289   3.277   8.251 -0.1177  0.0058 -0.2040
 3482SOL    HW122082   2.237   3.309   8.325  1.8558 -0.1876  1.2925
 3482SOL    HW222083   2.256   3.334   8.181  0.8118  0.3482 -0.3623
 3483SOL     OW22084   2.177   0.324  10.909 -0.1868  0.5150  0.3870
 3483SOL    HW122085   2.178   0.233  10.938 -2.3490 -0.2673 -2.0241
 3483SOL    HW222086   2.270   0.342  10.926  0.3863 -0.9559 -1.2156
 3484SOL     OW22087   3.944   2.318   8.571 -0.0473  0.0497  0.6430
 3484SOL    HW122088   3.991   2.288   8.649  1.1453  2.4710  0.8713
 3484SOL    HW222089   3.988   2.271   8.501 -0.0891  3.2642 -1.5691
 3485SOL     OW22090   3.007   2.152  15.263  0.0066 -0.1052  0.1867
 3485SOL    HW122091   3.052   2.189  15.339 -0.4618  2.7329 -0.9100
 3485SOL    HW222092   3.079   2.105  15.222  0.5391  0.0027  0.9929
 3486SOL     OW22093   2.107   1.722  13.208 -0.5900  0.4244 -0.0574
 3486SOL    HW122094   2.013   1.704  13.203 -0.7170  1.0018  0.2511
 3486SOL    HW222095   2.136   1.632  13.220 -0.0218  0.7946  1.3747
 3487SOL     OW22096   0.446   4.266   8.980  0.0888 -0.0170 -0.1515
 3487SOL    HW122097   0.396   4.248   8.900 -1.0361 -0.2936  0.6084
 3487SOL    HW222098   0.531   4.227   8.962  0.5121  0.3188  1.1393
 3488SOL     OW22099   3.962   1.543   7.225 -0.5883  0.8429 -0.0905
 3488SOL    HW122100   4.010   1.612   7.271 -0.1581  0.5822 -0.1446
 3488SOL    HW222101   3.884   1.585   7.190  1.0109  3.6411 -0.2592
 3489SOL     OW22102   3.485   0.501   8.484 -0.1564  0.4146 -0.0112
 3489SOL    HW122103   3.416   0.562   8.459  0.4528  0.7096 -1.0156
 3489SOL    HW222104   3.556   0.541   8.434  1.3867  0.5821  2.3202
 3490SOL     OW22105   3.143   2.316   1.737 -0.6459 -0.3113  0.7941
 3490SOL    HW122106   3.063   2.265   1.747 -1.1123  0.6023  1.8094
 3490SOL    HW222107   3.213   2.252   1.749  2.3330  2.3222 -2.4582
 3491SOL     OW22108   1.999   3.372   2.879  0.7626 -0.3776  0.4141
 3491SOL    HW122109   1.906   3.363   2.859  1.1831  1.1724 -2.2236
 3491SOL    HW222110   2.032   3.301   2.823 -1.6224 -1.3800  0.2513
 3492SOL     OW22111   1.346   1.225   0.526 -0.2362  0.1498 -0.4835
 3492SOL    HW122112   1.314   1.135   0.529  0.5879 -0.1332 -0.2954
 3492SOL    HW222113   1.299   1.267   0.598 -1.4210 -0.0373 -1.1400
 3493SOL     OW22114   1.387   1.215   6.888  0.2802  0.3187 -0.5475
 3493SOL    HW122115   1.429   1.153   6.828  1.4475  3.0669 -2.5258
 3493SOL    HW222116   1.301   1.213   6.846  0.5564  1.2068 -1.1470
 3494SOL     OW22117   4.395   4.161   3.742 -0.6831  0.0926 -0.4935
 3494SOL    HW122118   4.469   4.201   3.788  0.1603 -2.4650  0.3685
 3494SOL    HW222119   4.418   4.072   3.767  1.2384  0.4470 -0.9822
 3495SOL     OW22120   1.643   2.820   2.765 -0.5651 -0.2659  0.3231
 3495SOL    HW122121   1.607   2.895   2.719 -2.0064 -0.1910  1.5858
 3495SOL    HW222122   1.730   2.826   2.726 -0.3877  1.1349  0.9176
 3496SOL     OW22123   2.250   3.392   9.465  0.2962  0.2527  0.0555
 3496SOL    HW122124   2.227   3.447   9.540 -1.5179 -0.1836 -0.1962
 3496SOL    HW222125   2.169   3.391   9.414  0.3266  0.3872  0.0052
 3497SOL     OW22126   2.201   0.280   8.533  0.4229  0.5268 -0.6199
 3497SOL    HW122127   2.122   0.330   8.554  0.5784  1.4789 -2.2724
 3497SOL    HW222128   2.173   0.189   8.527  0.9031  0.1831  2.1951
 3498SOL     OW22129   1.249   0.504   3.540 -0.0035  0.0001  0.7014
 3498SOL    HW122130   1.338   0.468   3.542  0.3298  0.9072  1.9153
 3498SOL    HW222131   1.200   0.430   3.576 -2.0749  1.0500  0.0274
 3499SOL     OW22132   3.836   1.389   5.298  0.0320 -0.0090 -0.3294
 3499SOL    HW122133   3.800   1.307   5.334  1.3525 -0.3896  0.1327
 3499SOL    HW222134   3.769   1.426   5.241  1.6077  0.8345 -1.6203
 3500SOL     OW22135   2.916   4.297   7.941  0.2087 -0.4731 -0.2861
 3500SOL    HW122136   2.842   4.238   7.928  1.6506 -1.8126 -2.3301
 3500SOL    HW222137   2.898   4.378   7.895  2.2130  0.6724  0.9251
 3501SOL     OW22138   2.607   1.409   4.549  0.5011 -0.0605 -0.6181
 3501SOL    HW122139   2.609   1.385   4.456 -0.1362 -0.7735 -0.4490
 3501SOL    HW222140   2.563   1.334   4.589 -0.7715  1.0915  0.1162
 3502SOL     OW22141   0.479   2.146   6.376 -0.1792  0.0038 -0.3748
 3502SOL    HW122142   0.564   2.105   6.356 -0.0899  1.1109 -2.2623
 3502SOL    HW222143   0.426   2.123   6.301 -1.0349  1.9539 -0.3795
 3503SOL     OW22144   2.548   1.869   8.488  0.0379  0.3808  0.4642
 3503SOL    HW122145   2.544   1.965   8.493  2.8032  0.5653 -0.5852
 3503SOL    HW222146   2.546   1.849   8.581 -0.9079 -1.6190 -0.0029
 3504SOL     OW22147   2.248   0.210  10.345  0.0808 -0.2723 -0.3618
 3504SOL    HW122148   2.270   0.302  10.332 -1.0087 -0.1955 -1.6761
 3504SOL    HW222149   2.329   0.191  10.393 -0.8872 -1.3479  0.8140
 3505SOL     OW22150   2.931   3.328  11.528  0.0848 -0.4232 -0.0649
 3505SOL    HW122151   2.993   3.377  11.581  1.1507 -1.3535 -0.4627
 3505SOL    HW222152   2.868   3.298  11.594  0.9841  0.8591  1.3775
 3506SOL     OW22153   4.343   0.428   4.976 -0.1823  0.5105 -0.7709
 3506SOL    HW122154   4.328   0.387   5.062 -1.1708  0.6285 -0.8890
 3506SOL    HW222155   4.308   0.367   4.911  0.7607 -0.6588 -0.1950
 3507SOL     OW22156   1.205   0.978   6.247  0.1106 -0.1415 -0.4058
 3507SOL    HW122157   1.203   1.060   6.296  0.9315 -1.5412  1.9516
 3507SOL    HW222158   1.209   0.923   6.325  1.1725  2.3996  1.3729
 3508SOL     OW22159   4.191   4.271   1.349 -0.6619 -0.1484  0.4203
 3508SOL    HW122160   4.273   4.235   1.317 -2.2002 -0.8295 -2.8078
 3508SOL    HW222161   4.228   4.356   1.374 -1.1445  0.2227 -0.1178
 3509SOL     OW22162   4.370   0.277   6.360 -0.0410 -0.1018 -0.0161
 3509SOL    HW122163   4.289   0.226   6.362  0.6027 -1.0312  1.7220
 3509SOL    HW222164   4.347   0.348   6.420 -1.9996  1.9799 -3.2346
 3510SOL     OW22165   0.149   1.610   5.978  0.1081 -0.2123 -0.0595
 3510SOL    HW122166   0.080   1.545   5.990  0.5872 -0.9593 -1.3273
 3510SOL    HW222167   0.150   1.626   5.883  0.8561 -1.5247 -0.2736
 3511SOL     OW22168   2.204   4.082   1.703 -0.2837 -0.3011  0.4211
 3511SOL    HW122169   2.212   4.178   1.707 -1.6657 -0.1462 -0.4789
 3511SOL    HW222170   2.109   4.069   1.709 -0.3038 -0.1539  0.4269
 3512SOL     OW22171   3.369   1.473   2.497  0.1347 -0.0826  0.3503
 3512SOL    HW122172   3.327   1.387   2.502  1.8546 -0.9386  0.1072
 3512SOL    HW222173   3.296   1.531   2.519  0.1353  0.3053 -0.6780
 3513SOL     OW22174   0.082   0.782   5.040 -0.1972 -0.0679  0.1838
 3513SOL    HW122175   0.125   0.788   4.954 -1.6061 -2.5175 -0.6877
 3513SOL    HW222176   0.119   0.858   5.085  1.2258 -0.5634 -0.1370
 3514SOL     OW22177   0.254   4.348   0.216  0.4356 -0.0242 -0.0256
 3514SOL    HW122178   0.338   4.395   0.214  0.2161  0.3445 -0.7199
 3514SOL    HW222179   0.246   4.304   0.131  1.0326 -1.1564  0.5146
 3515SOL     OW22180   3.773   1.893  11.893  0.1264  0.0460 -0.6942
 3515SOL    HW122181   3.718   1.898  11.971  2.0648  1.9992  0.5398
 3515SOL    HW222182   3.780   1.983  11.860  1.3537 -0.2297 -1.1523
 3516SOL     OW22183   1.397   2.857   3.677 -0.0794  0.1295  0.3102
 3516SOL    HW122184   1.453   2.819   3.609 -0.8717 -0.7918  0.1712
 3516SOL    HW222185   1.324   2.801   3.702  0.8673 -0.4738  1.6893
 3517SOL     OW22186   3.388   4.235   0.965 -0.1434  1.1922 -0.2446
 3517SOL    HW122187   3.322   4.168   0.982 -0.0669  0.7856 -1.5435
 3517SOL    HW222188   3.346   4.306   0.918  0.3082 -0.0143 -2.4715
 3518SOL     OW22189   1.902   3.706   0.294 -0.5383 -0.1371  0.0922
 3518SOL    HW122190   1.935   3.792   0.266 -1.7878  1.3398  3.1605
 3518SOL    HW222191   1.985   3.659   0.302 -1.6200 -1.9260  0.8800
 3519SOL     OW22192   3.581   0.760   9.146  0.8504 -0.2099  0.1229
 3519SOL    HW122193   3.634   0.720   9.215  1.6419 -1.4781 -1.2197
 3519SOL    HW222194   3.609   0.725   9.061 -0.2618  1.5147 -0.9658
 3520SOL     OW22195   1.074   2.918  14.653 -0.6608 -0.3971  0.2498
 3520SOL    HW122196   1.024   2.924  14.734  0.9124 -1.6940  1.3123
 3520SOL    HW222197   1.045   2.998  14.608 -1.2831 -1.7196 -1.7281
 3521SOL     OW22198   2.705   2.250   0.523 -0.0415  0.6851  0.5898
 3521SOL    HW122199   2.649   2.324   0.501  3.0234  2.7594 -0.1234
 3521SOL    HW222200   2.791   2.285   0.500  0.1372  1.0537  1.7870
 3522SOL     OW22201   3.596   1.953   2.966 -0.4277  0.4439 -0.4168
 3522SOL    HW122202   3.620   2.031   2.914  0.0272  1.7970  1.8102
 3522SOL    HW222203   3.613   1.988   3.053 -0.1502  0.4550 -0.4729
 3523SOL     OW22204   2.371   2.863   3.226  0.6371  0.1001 -0.2106
 3523SOL    HW122205   2.376   2.792   3.161  0.6496 -1.5051  1.5297
 3523SOL    HW222206   2.296   2.828   3.276  2.7604 -2.7012  1.0352
 3524SOL     OW22207   3.724   2.443  15.109  0.0228  0.4179  0.0425
 3524SOL    HW122208   3.800   2.399  15.146 -1.5835 -1.1897  1.4097
 3524SOL    HW222209   3.734   2.537  15.126  0.9626  0.3252 -0.0042
 3525SOL     OW22210   1.502   1.276   8.753 -0.4866 -0.2952  0.1391
 3525SOL    HW122211   1.494   1.324   8.671 -1.7857 -2.0040 -0.7492
 3525SOL    HW222212   1.592   1.301   8.776  0.2097 -0.1641 -2.7662
 3526SOL     OW22213   0.771   2.262   9.274 -0.0187 -0.0297 -0.4257
 3526SOL    HW122214   0.853   2.215   9.283  0.4699  0.8640 -0.1377
 3526SOL    HW222215   0.746   2.235   9.185 -0.0390 -0.8893 -0.1563
 3527SOL     OW22216   4.527   3.955   3.844  0.0548  0.4611 -0.2193
 3527SOL    HW122217   4.583   3.930   3.918  1.1000  1.0214 -0.8209
 3527SOL    HW222218   4.504   3.868   3.811 -0.2219  1.1059 -1.6858
 3528SOL     OW22219   1.493   3.058   1.614  0.0847  0.2003 -0.8770
 3528SOL    HW122220   1.588   3.068   1.615 -0.1278  2.1649 -1.0661
 3528SOL    HW222221   1.479   2.964   1.600 -2.2782  0.5427 -0.8108
 3529SOL     OW22222   1.008   3.423   3.774 -0.3471  0.6421 -0.1600
 3529SOL    HW122223   1.050   3.441   3.690 -0.3674 -1.1513 -0.5589
 3529SOL    HW222224   0.927   3.382   3.743 -0.2737 -1.4888  2.4353
 3530SOL     OW22225   3.550   3.471   2.093  0.1606  0.3786  0.3180
 3530SOL    HW122226   3.526   3.540   2.030 -0.4518 -0.9728 -0.9424
 3530SOL    HW222227   3.470   3.469   2.145 -0.6541  0.4070 -0.9277
 3531SOL     OW22228   3.869   2.628   5.470  0.3035 -0.2632  0.0080
 3531SOL    HW122229   3.796   2.688   5.479 -1.3391 -2.1657 -0.5658
 3531SOL    HW222230   3.934   2.687   5.432 -0.0876  0.5667  0.6441
 3532SOL     OW22231   2.521   2.467   5.714  0.3982  0.0580  0.6361
 3532SOL    HW122232   2.549   2.515   5.636  0.3664 -1.6185 -0.3973
 3532SOL    HW222233   2.534   2.381   5.674  1.8950 -0.9972  3.4362
 3533SOL     OW22234   0.113   1.924  12.116 -0.0048 -0.2029  0.0320
 3533SOL    HW122235   0.053   1.998  12.115 -1.5890 -1.4677  0.3713
 3533SOL    HW222236   0.142   1.908  12.206  2.5112 -0.6755 -0.8621
 3534SOL     OW22237   2.444   4.732  11.572  0.1354 -0.0075  0.1758
 3534SOL    HW122238   2.509   4.715  11.641 -0.1748 -1.2084  0.1742
 3534SOL    HW222239   2.471   4.667  11.507  0.1724  0.2011 -0.0161
 3535SOL     OW22240   2.981   4.273   6.153 -0.1807 -0.2441  0.3911
 3535SOL    HW122241   2.966   4.351   6.099  0.2503 -0.4737 -0.0525
 3535SOL    HW222242   2.917   4.220   6.106 -0.5904  1.9044 -1.4860
 3536SOL     OW22243   3.007   4.023   4.997  0.2670 -0.8508  0.0391
 3536SOL    HW122244   2.922   3.991   5.028 -0.4910 -0.4916 -1.6552
 3536SOL    HW222245   3.001   4.011   4.902  0.4576  2.1909 -0.3540
 3537SOL     OW22246   4.536   2.187   5.118  0.2136  0.1468 -0.1419
 3537SOL    HW122247   4.600   2.250   5.085  0.4225 -0.6507 -1.2567
 3537SOL    HW222248   4.466   2.244   5.149  0.0439  0.1813 -0.6016
 3538SOL     OW22249   1.361   1.748   7.466  0.3887  0.1208 -0.2430
 3538SOL    HW122250   1.390   1.659   7.486  1.1150  0.8578  2.0031
 3538SOL    HW222251   1.435   1.781   7.415  0.6071 -1.9513 -1.2820
 3539SOL     OW22252   0.047   2.775  10.973 -0.0398 -0.0999  0.6559
 3539SOL    HW122253   0.111   2.813  10.913 -1.8616  1.4882 -0.2601
 3539SOL    HW222254   0.021   2.714  10.903  2.9596  0.3845 -0.8837
 3540SOL     OW22255   3.077   1.013   8.286 -0.1097 -0.0873 -0.2177
 3540SOL    HW122256   3.150   1.024   8.346  0.8731 -0.4164 -1.3474
 3540SOL    HW222257   3.083   1.093   8.234 -1.9407  1.0491  1.3297
 3541SOL     OW22258   2.256   2.566   2.164 -0.5356  0.0043  0.1992
 3541SOL    HW122259   2.272   2.603   2.078  1.9606  0.2741  0.7778
 3541SOL    HW222260   2.187   2.622   2.202 -2.0315 -1.5207 -0.2774
 3542SOL     OW22261   2.875   3.254   4.864  0.6971  0.5907 -0.5048
 3542SOL    HW122262   2.885   3.159   4.869 -4.6399  0.1096  0.3324
 3542SOL    HW222263   2.807   3.287   4.922  0.9515  0.5433 -0.1790
 3543SOL     OW22264   2.729   3.401   6.290 -0.2874  0.4259  0.6874
 3543SOL    HW122265   2.692   3.481   6.325 -0.2316  0.8506 -0.2135
 3543SOL    HW222266   2.749   3.345   6.365  0.7673 -1.5884 -1.0571
 3544SOL     OW22267   4.185   1.576  17.719 -0.6613 -0.1407  0.6158
 3544SOL    HW122268   4.223   1.597  17.633  1.0668  1.4022  1.7569
 3544SOL    HW222269   4.259   1.580   0.039  1.3815  0.0785 -1.9355
 3545SOL     OW22270   3.190   2.942   0.166  0.1289 -0.0938  0.1937
 3545SOL    HW122271   3.224   2.980   0.086 -0.4212  1.8825  0.9099
 3545SOL    HW222272   3.167   2.850   0.151 -1.4566  0.6468 -1.8165
 3546SOL     OW22273   4.539   1.766   7.938 -0.2868 -0.0566 -0.1695
 3546SOL    HW122274   4.604   1.757   8.008 -1.1571 -1.7656  0.4073
 3546SOL    HW222275   4.474   1.713   7.985  0.7173 -1.2604 -0.1356
 3547SOL     OW22276   1.360   4.203   2.906 -0.0469  0.3010 -0.1269
 3547SOL    HW122277   1.421   4.275   2.893  0.6678 -0.1195  0.8925
 3547SOL    HW222278   1.354   4.213   3.001  2.1538 -2.3850  0.3371
 3548SOL     OW22279   3.177   1.995  12.283  0.2273 -0.0445  0.0473
 3548SOL    HW122280   3.147   1.922  12.229  0.1348 -0.7489  1.0503
 3548SOL    HW222281   3.097   2.048  12.289 -0.3359 -1.0705  1.5271
 3549SOL     OW22282   1.311   2.492  13.807  0.0522 -0.3991  0.1406
 3549SOL    HW122283   1.302   2.478  13.902  1.0143  1.7173  0.5454
 3549SOL    HW222284   1.225   2.529  13.789  0.5370  0.1115 -1.0990
 3550SOL     OW22285   2.300   2.068  10.058 -0.4714 -0.4787  0.4947
 3550SOL    HW122286   2.329   2.005  10.124  0.2551 -1.0491 -0.3593
 3550SOL    HW222287   2.269   2.139  10.113  0.7588  0.4104  0.0359
 3551SOL     OW22288   0.480   0.482   5.380  0.0482 -0.5112 -0.0352
 3551SOL    HW122289   0.519   0.481   5.468  2.4199  2.8168 -1.0473
 3551SOL    HW222290   0.521   0.556   5.336  0.2861 -0.3764  0.4098
 3552SOL     OW22291   0.392   2.802   9.232 -0.1457 -0.1317 -0.2062
 3552SOL    HW122292   0.409   2.767   9.144 -0.0963 -0.6325  0.0016
 3552SOL    HW222293   0.456   2.755   9.285  1.5088  1.3691 -0.8731
 3553SOL     OW22294   0.212   0.718   2.570  0.0149 -0.3618  0.6144
 3553SOL    HW122295   0.242   0.690   2.657 -1.9453  1.8636  2.0156
 3553SOL    HW222296   0.193   0.801   2.614  0.3308  0.1162 -0.1480
 3554SOL     OW22297   2.158   2.607   5.598  0.4885 -0.7382  0.2150
 3554SOL    HW122298   2.228   2.634   5.657  1.3381 -0.6262 -0.8563
 3554SOL    HW222299   2.084   2.590   5.657  1.4264  0.7214  1.8223
 3555SOL     OW22300   4.436   2.125   3.212 -0.0657  0.2659  0.0560
 3555SOL    HW122301   4.522   2.160   3.189  0.3671 -1.1156 -0.4176
 3555SOL    HW222302   4.444   2.131   3.307  0.7645 -0.3630  0.0214
 3556SOL     OW22303   0.211   4.366  12.486 -0.1256 -0.1431  0.2186
 3556SOL    HW122304   0.244   4.421  12.557  2.2930  0.6873 -1.5601
 3556SOL    HW222305   0.146   4.424  12.448  0.8674  0.0062 -1.2541
 3557SOL     OW22306   2.030   0.672   5.386 -0.3710  0.2303 -0.1841
 3557SOL    HW122307   2.000   0.758   5.359  1.4790 -0.0147 -3.0153
 3557SOL    HW222308   1.995   0.632   5.306 -0.1227 -1.8062  0.7327
 3558SOL     OW22309   2.884   0.257   3.878  0.0793 -0.5914  0.1070
 3558SOL    HW122310   2.813   0.225   3.934 -1.2272  2.1355  0.0208
 3558SOL    HW222311   2.925   0.332   3.922  0.2964 -0.2374 -0.6888
 3559SOL     OW22312   3.736   3.886  10.301  0.0353 -0.1924 -0.5713
 3559SOL    HW122313   3.695   3.873  10.215 -0.3166 -0.0050 -0.4323
 3559SOL    HW222314   3.770   3.975  10.292  1.2244 -0.5389  0.4377
 3560SOL     OW22315   2.991   4.419   2.813  0.5757  0.4219 -0.5554
 3560SOL    HW122316   2.931   4.359   2.768 -3.1684  2.5918  1.6455
 3560SOL    HW222317   2.992   4.374   2.897  2.4727  2.3005  0.4003
 3561SOL     OW22318   3.302   0.059  13.468 -0.1061 -0.0090 -0.0486
 3561SOL    HW122319   3.389   0.074  13.432  0.1371  0.3253  0.6711
 3561SOL    HW222320   3.262   4.733  13.407 -2.3004 -1.2483  2.6390
 3562SOL     OW22321   0.523   2.457   2.331  0.2382  0.7786 -0.3966
 3562SOL    HW122322   0.479   2.486   2.412 -0.4129 -1.3902  0.0327
 3562SOL    HW222323   0.565   2.376   2.357 -1.6874 -0.1499 -0.1462
 3563SOL     OW22324   4.455   1.126   4.813 -0.1290  0.1503 -0.1252
 3563SOL    HW122325   4.461   1.031   4.803 -1.8302 -0.1350  1.6035
 3563SOL    HW222326   4.360   1.140   4.811 -0.4483 -2.0727 -0.8881
 3564SOL     OW22327   2.890   0.460   0.614 -0.2548 -0.2101  0.1655
 3564SOL    HW122328   2.827   0.465   0.542 -1.1365  0.9256  1.0270
 3564SOL    HW222329   2.827   0.417   0.672 -0.6250 -2.2411 -1.7253
 3565SOL     OW22330   2.827   0.349   1.860  0.6565 -0.3291 -0.0856
 3565SOL    HW122331   2.819   0.441   1.883  1.7832  0.3536 -2.4109
 3565SOL    HW222332   2.898   0.312   1.913  1.2281  0.3123 -0.4052
 3566SOL     OW22333   1.092   1.968   3.982 -0.4840 -0.6902 -0.4531
 3566SOL    HW122334   1.100   2.061   3.964 -1.5935 -0.8313 -1.6722
 3566SOL    HW222335   1.059   1.978   4.072 -2.6082 -0.2842 -1.2742
 3567SOL     OW22336   1.810   1.095  10.279 -0.4162  0.1763 -0.1240
 3567SOL    HW122337   1.774   1.114  10.366 -1.0433  1.5483 -0.6726
 3567SOL    HW222338   1.879   1.030  10.289 -0.0111  1.1451  3.4036
 3568SOL     OW22339   0.890   1.824  14.081  0.2387 -0.1171  0.6496
 3568SOL    HW122340   0.982   1.803  14.093  0.2073 -0.9209 -0.5618
 3568SOL    HW222341   0.860   1.750  14.027 -0.5726 -0.2457  1.2706
 3569SOL     OW22342   3.740   0.351  11.899 -0.0691  0.2251 -0.2893
 3569SOL    HW122343   3.825   0.362  11.856 -0.7816  2.3205 -1.1629
 3569SOL    HW222344   3.713   0.271  11.853  1.9560 -1.1872  0.9791
 3570SOL     OW22345   2.617   4.712   4.996  0.5337 -0.0188  0.3539
 3570SOL    HW122346   2.641   0.058   5.042  1.3854  0.5066 -1.0003
 3570SOL    HW222347   2.701   4.667   4.983  1.2852  1.5089 -0.1989
 3571SOL     OW22348   2.909   1.506   2.978 -0.3926  0.5914  0.1704
 3571SOL    HW122349   2.820   1.472   2.987 -0.0128 -0.1850  1.0467
 3571SOL    HW222350   2.897   1.577   3.041 -2.3481 -0.1090  0.5997
 3572SOL     OW22351   1.337   3.894   3.858  0.0616  0.0765  0.5501
 3572SOL    HW122352   1.308   3.978   3.894  1.4460  0.8156 -0.0644
 3572SOL    HW222353   1.369   3.848   3.935 -0.6179  0.0696  0.8313
 3573SOL     OW22354   4.227   1.367   3.299  0.2527 -0.1266 -0.0251
 3573SOL    HW122355   4.194   1.456   3.310 -0.2606 -0.6100  2.1573
 3573SOL    HW222356   4.206   1.361   3.205 -0.2061 -1.5715  0.1686
 3574SOL     OW22357   0.097   3.164   4.853  0.0020  0.5921 -0.0938
 3574SOL    HW122358   0.155   3.103   4.898  2.2334 -0.0141 -3.7616
 3574SOL    HW222359   0.082   3.124   4.767  0.4102 -0.1477  0.1906
 3575SOL     OW22360   0.181   3.584   1.420 -0.3214 -0.1849 -0.3134
 3575SOL    HW122361   0.208   3.596   1.328  0.6578 -1.2065 -0.1593
 3575SOL    HW222362   0.127   3.659   1.444  1.1954  0.1101  2.2101
 3576SOL     OW22363   0.208   2.968   5.366 -0.8925 -0.2219  0.3868
 3576SOL    HW122364   0.214   2.905   5.437  1.2928  2.3214  2.4587
 3576SOL    HW222365   0.293   3.010   5.380 -0.9284 -0.2012  0.5456
 3577SOL     OW22366   4.326   1.774   4.661  0.2588  0.2847 -0.5253
 3577SOL    HW122367   4.234   1.768   4.636 -0.1531  1.4248  0.6768
 3577SOL    HW222368   4.331   1.691   4.708  1.9883  0.8426  0.2657
 3578SOL     OW22369   1.160   4.438   7.691  0.4708 -0.3238  0.1662
 3578SOL    HW122370   1.228   4.391   7.643  1.3646 -0.7213  1.8021
 3578SOL    HW222371   1.200   4.449   7.777  0.6759 -4.8593  0.6799
 3579SOL     OW22372   1.191   1.818   7.152 -0.1195 -0.2969  0.3179
 3579SOL    HW122373   1.184   1.742   7.210 -0.1838 -0.7681 -0.3092
 3579SOL    HW222374   1.140   1.884   7.200  1.0500  0.4120  0.5786
 3580SOL     OW22375   3.022   4.360   1.561  0.0076  0.5306 -0.5380
 3580SOL    HW122376   2.950   4.408   1.601  1.2655  0.8250  1.3616
 3580SOL    HW222377   3.016   4.273   1.600 -0.0107 -0.1759 -2.0822
 3581SOL     OW22378   3.726   4.172  17.300  0.7667 -0.2546 -0.0288
 3581SOL    HW122379   3.727   4.087  17.255  0.9270  0.9245 -2.2095
 3581SOL    HW222380   3.639   4.184  17.340  1.1327 -0.6685  0.8895
 3582SOL     OW22381   1.393   2.121   6.908 -0.2481 -0.1604  0.1427
 3582SOL    HW122382   1.367   2.029   6.896 -1.3528  0.3282 -1.1263
 3582SOL    HW222383   1.348   2.151   6.830  2.1032 -0.3266 -1.2953
 3583SOL     OW22384   0.602   3.016   6.013  0.2173 -0.5805 -0.2144
 3583SOL    HW122385   0.657   2.998   6.089  0.8713 -3.2732 -1.3345
 3583SOL    HW222386   0.645   3.097   5.984 -0.9828  0.3237  0.5073
 3584SOL     OW22387   2.279   2.708   3.555 -0.1117 -0.1659 -0.2099
 3584SOL    HW122388   2.207   2.741   3.609  0.6466 -2.3062  2.0958
 3584SOL    HW222389   2.264   2.748   3.469  1.3589  0.7380 -0.0368
 3585SOL     OW22390   2.531   4.287   2.535  0.0546  0.0287  0.5611
 3585SOL    HW122391   2.524   4.198   2.568 -0.4399 -0.9313 -2.1381
 3585SOL    HW222392   2.512   4.272   2.443 -1.2872  3.0165  0.3532
 3586SOL     OW22393   3.112   4.496   2.428 -0.0951 -0.0785 -0.3118
 3586SOL    HW122394   3.117   4.401   2.438  0.0203  0.0309  0.7368
 3586SOL    HW222395   3.167   4.505   2.351  1.4575 -3.2967  0.4464
 3587SOL     OW22396   1.255   1.224   1.235  0.7842  0.0134  0.3885
 3587SOL    HW122397   1.278   1.134   1.209 -1.6269 -0.1275 -1.3160
 3587SOL    HW222398   1.324   1.254   1.293 -0.4402  1.5549  1.0504
 3588SOL     OW22399   0.824   3.135  17.225 -0.2368  0.3469 -0.4427
 3588SOL    HW122400   0.869   3.102  17.303 -0.4168  1.2215  0.0322
 3588SOL    HW222401   0.749   3.076  17.235  0.3326 -0.1442  0.9422
 3589SOL     OW22402   0.002   0.092  13.967 -0.5575  0.2120  0.3940
 3589SOL    HW122403   4.681   0.141  13.907 -2.9161 -2.1991  0.6531
 3589SOL    HW222404   4.677   0.049  14.027 -0.3134 -0.1584  0.3722
 3590SOL     OW22405   3.267   2.435   7.556 -0.5936  0.0324 -0.2890
 3590SOL    HW122406   3.225   2.392   7.482  2.8742 -1.8947 -1.1722
 3590SOL    HW222407   3.236   2.383   7.630 -0.4428 -0.9281 -0.8895
 3591SOL     OW22408   2.007   1.121  15.094  0.2771  0.3220 -0.8942
 3591SOL    HW122409   2.076   1.074  15.047  0.1192  0.5771 -1.3762
 3591SOL    HW222410   2.053   1.145  15.175 -0.1274 -0.6489 -0.3736
 3592SOL     OW22411   4.300   1.916   5.858 -0.9113  0.1655  0.0532
 3592SOL    HW122412   4.346   1.847   5.905 -0.0506 -0.1118 -1.2074
 3592SOL    HW222413   4.273   1.870   5.779  1.7832 -0.3405 -0.5640
 3593SOL     OW22414   0.710   1.004   4.703  0.3346 -0.6786  0.8405
 3593SOL    HW122415   0.769   1.001   4.628 -0.9685  0.6027 -0.2236
 3593SOL    HW222416   0.622   1.011   4.665  0.5415 -0.5403  0.3897
 3594SOL     OW22417   1.254   0.897   1.664  0.5686 -0.4614  0.1215
 3594SOL    HW122418   1.214   0.835   1.725 -2.5714  0.2816 -1.1635
 3594SOL    HW222419   1.206   0.866   1.588  1.3214  1.0572 -0.9559
 3595SOL     OW22420   3.703   1.852   3.855 -0.3308  0.2832 -0.6165
 3595SOL    HW122421   3.627   1.908   3.872 -0.0305  1.2672 -2.4244
 3595SOL    HW222422   3.775   1.913   3.836  0.8771 -0.7205  0.7535
 3596SOL     OW22423   0.004   1.488   0.942 -0.4088  0.0007  0.2118
 3596SOL    HW122424   0.073   1.550   0.917 -1.4055  1.4821  1.1226
 3596SOL    HW222425   4.716   1.456   0.855 -1.2537  0.2936  0.3316
 3597SOL     OW22426   2.024   3.232   8.114 -0.2959  0.4224 -0.0764
 3597SOL    HW122427   2.030   3.192   8.201  0.0428  2.4010  0.7965
 3597SOL    HW222428   2.035   3.155   8.058 -2.7789 -0.9267  1.2895
 3598SOL     OW22429   1.352   4.591   9.506 -0.2753  0.1285 -0.0873
 3598SOL    HW122430   1.298   4.670   9.516 -0.4017 -0.1206  1.1224
 3598SOL    HW222431   1.426   4.623   9.454  1.0325  3.1535  3.5881
 3599SOL     OW22432   1.278   3.595  15.569  0.0119 -0.5083  0.0260
 3599SOL    HW122433   1.295   3.630  15.482 -0.9649  1.4577  0.6144
 3599SOL    HW222434   1.256   3.507  15.541 -1.4021  0.6268 -2.4388
 3600SOL     OW22435   3.729   4.065   8.556 -0.3133  0.1626 -0.6521
 3600SOL    HW122436   3.781   3.998   8.600 -1.3218 -0.0342  0.2427
 3600SOL    HW222437   3.793   4.131   8.583 -2.0554  0.9308  1.5380
 3601SOL     OW22438   0.658   1.897   5.968 -0.3182 -0.1346 -0.1371
 3601SOL    HW122439   0.659   1.813   5.922  0.9020 -1.3237  2.0714
 3601SOL    HW222440   0.669   1.866   6.058  2.2645 -4.2112 -1.8914
 3602SOL     OW22441   3.195   1.646   9.155 -0.0992 -0.1266  0.7966
 3602SOL    HW122442   3.123   1.692   9.111 -0.0348 -1.4592 -0.6922
 3602SOL    HW222443   3.239   1.725   9.187 -1.5683  1.5659 -1.3430
 3603SOL     OW22444   0.428   1.386   7.561 -0.1478 -0.0033  0.1885
 3603SOL    HW122445   0.360   1.323   7.536  0.1909  0.3581 -1.7129
 3603SOL    HW222446   0.411   1.418   7.649 -0.2295 -1.3151  0.6397
 3604SOL     OW22447   2.646   4.607  17.063 -0.4841 -0.6727  0.0511
 3604SOL    HW122448   2.738   4.617  17.085 -0.5209 -0.7234  0.2314
 3604SOL    HW222449   2.654   4.581  16.971 -1.5967  0.4542 -0.3688
 3605SOL     OW22450   0.110   2.162   7.981 -0.3798 -0.0768  0.7549
 3605SOL    HW122451   0.192   2.124   8.012 -0.5179 -2.2076 -1.4440
 3605SOL    HW222452   0.049   2.146   8.054 -1.2482  2.3906  0.5583
 3606SOL     OW22453   3.320   1.833  15.462  0.2201 -0.0476  0.2074
 3606SOL    HW122454   3.292   1.768  15.398 -1.6100 -0.2832  1.2702
 3606SOL    HW222455   3.414   1.825  15.478 -0.0030  1.4569  2.2503
 3607SOL     OW22456   4.584   3.080   8.067 -0.5452  0.2745 -0.1370
 3607SOL    HW122457   4.498   3.121   8.068 -0.1741  1.0138  2.4426
 3607SOL    HW222458   4.623   3.141   8.130 -0.8106  1.8541 -1.4958
 3608SOL     OW22459   1.419   3.229   8.008  0.0879  0.3438  0.7165
 3608SOL    HW122460   1.493   3.181   8.046 -0.9177 -0.1435  2.0523
 3608SOL    HW222461   1.365   3.156   7.976  0.3979  0.7787 -0.7797
 3609SOL     OW22462   0.930   0.960   1.997  0.0532 -0.0814  0.0723
 3609SOL    HW122463   0.920   0.866   1.979  1.4444 -0.5111  1.5611
 3609SOL    HW222464   1.019   0.949   2.031  0.3803  2.6062  0.0484
 3610SOL     OW22465   4.489   1.651   8.296 -0.4508 -0.5669 -0.1831
 3610SOL    HW122466   4.470   1.574   8.243 -1.5180  1.7159 -3.1186
 3610SOL    HW222467   4.479   1.601   8.377  2.0771  0.6190  0.8667
 3611SOL     OW22468   3.361   2.367   7.210  0.2467 -0.1153 -0.5119
 3611SOL    HW122469   3.342   2.460   7.221 -0.2401 -0.1007 -1.4080
 3611SOL    HW222470   3.284   2.336   7.162 -0.0891  0.7073 -0.4945
 3612SOL     OW22471   2.240   1.784  12.656  0.0984 -0.1685 -0.3159
 3612SOL    HW122472   2.199   1.776  12.742  0.3076 -0.9253 -0.2827
 3612SOL    HW222473   2.164   1.767  12.600  0.9698  1.0480 -1.8488
 3613SOL     OW22474   2.972   0.457   9.743  1.1607  0.1706  0.5599
 3613SOL    HW122475   2.938   0.531   9.694  1.2696 -1.2656 -1.6704
 3613SOL    HW222476   2.890   0.437   9.790  1.7225 -0.5456  1.2452
 3614SOL     OW22477   0.149   2.928   7.031  0.1317  0.1447  0.4464
 3614SOL    HW122478   0.110   2.859   7.085  1.1647  0.2913  1.3861
 3614SOL    HW222479   0.066   2.953   6.992  0.1290 -1.5908 -0.6549
 3615SOL     OW22480   3.401   3.525   5.873 -0.1704 -0.4549  0.3060
 3615SOL    HW122481   3.375   3.443   5.914 -0.7518  0.2940  1.4538
 3615SOL    HW222482   3.333   3.578   5.914  0.8540  1.3797 -0.3234
 3616SOL     OW22483   0.311   0.080  17.305  0.2663 -0.3105  0.3596
 3616SOL    HW122484   0.292   0.075  17.399 -1.4563 -1.6127 -0.0576
 3616SOL    HW222485   0.361   0.003  17.279  2.5165  0.1744  3.3336
 3617SOL     OW22486   3.606   4.400  11.355  0.5118  0.0831 -0.7140
 3617SOL    HW122487   3.562   4.427  11.274 -0.2761  1.6498  0.2407
 3617SOL    HW222488   3.658   4.476  11.382 -0.0045  0.1471  0.1107
 3618SOL     OW22489   2.692   4.120   7.587  0.1997  0.3380  0.4317
 3618SOL    HW122490   2.717   4.158   7.503 -1.2482 -0.3886 -0.3060
 3618SOL    HW222491   2.621   4.179   7.614 -0.3715  0.0686 -0.4879
 3619SOL     OW22492   1.094   0.723   9.017  0.3345 -0.3384  0.6937
 3619SOL    HW122493   1.189   0.707   9.014  0.6591  1.6747  0.1494
 3619SOL    HW222494   1.089   0.819   9.017 -1.0512 -0.4114  0.1220
 3620SOL     OW22495   2.360   0.352  11.310  0.3746 -0.4982 -0.1126
 3620SOL    HW122496   2.271   0.345  11.345 -0.1689 -1.3100 -1.6537
 3620SOL    HW222497   2.407   0.277  11.348 -1.0013 -1.2573  0.0971
 3621SOL     OW22498   2.447   0.334   8.437  0.0342  0.0194 -0.7363
 3621SOL    HW122499   2.483   0.343   8.525  0.4652  0.2202 -0.9343
 3621SOL    HW222500   2.353   0.344   8.450  0.0713  1.8174 -1.9320
 3622SOL     OW22501   4.672   4.395   0.053  0.3551  0.2335  0.1598
 3622SOL    HW122502   4.623   4.464   0.009 -2.4392 -1.5955  0.3939
 3622SOL    HW222503   4.687   4.443   0.134  0.0677  3.1411 -1.5371
 3623SOL     OW22504   3.940   0.265  13.801 -0.2911  0.5611  0.2782
 3623SOL    HW122505   3.864   0.318  13.779 -0.2990  0.2541 -0.4416
 3623SOL    HW222506   4.017   0.292  13.751  0.8501 -1.7946  0.7478
 3624SOL     OW22507   3.185   4.060  13.700 -0.1533  0.4003  0.3416
 3624SOL    HW122508   3.261   4.025  13.747  0.8568  0.1263 -1.4861
 3624SOL    HW222509   3.201   4.155  13.708  0.2449  0.2268  1.5538
 3625SOL     OW22510   2.756   1.628  15.373  0.1749 -0.4532 -0.3912
 3625SOL    HW122511   2.750   1.556  15.436 -2.0289  0.3580  0.3267
 3625SOL    HW222512   2.801   1.694  15.426 -0.3291 -1.0361  0.7558
 3626SOL     OW22513   2.746   4.681   1.561 -0.6788  0.0120 -0.9562
 3626SOL    HW122514   2.800   0.022   1.581 -0.8436 -0.0823 -0.1407
 3626SOL    HW222515   2.735   4.684   1.466 -0.5688  1.5922 -0.9088
 3627SOL     OW22516   3.661   3.983   1.868  0.7955  0.0527 -0.3530
 3627SOL    HW122517   3.751   3.952   1.861  1.3194  1.4456  0.2270
 3627SOL    HW222518   3.615   3.922   1.811  1.3322 -0.6539 -0.0264
 3628SOL     OW22519   2.425   1.806   2.256 -0.3149 -0.5171 -0.4230
 3628SOL    HW122520   2.517   1.807   2.231 -0.8267 -0.0760 -2.3115
 3628SOL    HW222521   2.393   1.725   2.215  0.0431 -2.4811  3.1660
 3629SOL     OW22522   4.127   0.119  15.616 -0.2109  0.2351 -0.3614
 3629SOL    HW122523   4.184   0.089  15.545 -0.6687  1.0799 -1.0917
 3629SOL    HW222524   4.072   0.188  15.578 -0.2154 -0.0788 -0.9267
 3630SOL     OW22525   2.263   1.137  12.727  0.1367 -0.3201  0.7021
 3630SOL    HW122526   2.230   1.127  12.637  2.6593  0.3487 -0.2961
 3630SOL    HW222527   2.285   1.229  12.723  0.3250 -0.4522 -1.2303
 3631SOL     OW22528   1.791   1.948   1.616  0.1259 -0.1029 -0.2270
 3631SOL    HW122529   1.755   2.034   1.597  0.4449 -0.2613 -1.5983
 3631SOL    HW222530   1.791   1.948   1.711  0.5324 -1.0368 -0.2259
 3632SOL     OW22531   3.568   1.564  15.540 -0.0198  0.0237  0.2402
 3632SOL    HW122532   3.649   1.531  15.500 -1.4690  1.4854 -3.9864
 3632SOL    HW222533   3.576   1.656  15.515 -0.1818 -0.3044 -1.0265
 3633SOL     OW22534   4.176   1.379  11.770 -0.1944  0.2659 -0.0385
 3633SOL    HW122535   4.141   1.297  11.805 -1.3920  0.9621  0.3816
 3633SOL    HW222536   4.254   1.386  11.825 -0.2298 -0.3650  0.0965
 3634SOL     OW22537   4.534   4.661   3.746 -0.3108  0.9082 -0.0180
 3634SOL    HW122538   4.593   0.000   3.736  0.7142  0.2885  1.3982
 3634SOL    HW222539   4.566   4.611   3.671  1.4799 -0.9897  2.0241
 3635SOL     OW22540   1.155   3.079   8.020 -0.2746  0.2705 -0.0838
 3635SOL    HW122541   1.090   3.138   8.059 -1.7212 -2.0683  1.0694
 3635SOL    HW222542   1.159   3.113   7.930 -1.2330  0.8468  0.0913
 3636SOL     OW22543   3.735   2.007   8.699 -0.0366  0.2329 -0.8085
 3636SOL    HW122544   3.745   2.040   8.788 -1.5926  1.0128 -0.9110
 3636SOL    HW222545   3.721   2.091   8.654  0.1670  1.1071  0.7755
 3637SOL     OW22546   2.420   0.800   8.860  0.4466 -0.0352  0.3453
 3637SOL    HW122547   2.504   0.839   8.881  0.3326 -0.1432  1.0078
 3637SOL    HW222548   2.389   0.855   8.789 -0.2684 -0.1198  0.5922
 3638SOL     OW22549   4.363   0.673   7.568  0.0197  0.6982  0.3661
 3638SOL    HW122550   4.429   0.737   7.596  1.0922 -0.7487  1.1344
 3638SOL    HW222551   4.342   0.640   7.656 -2.6185 -0.6156 -0.7516
 3639SOL     OW22552   0.869   1.007   5.756 -0.2536  0.0520  0.2880
 3639SOL    HW122553   0.910   0.972   5.835 -4.1427  1.4016  2.8834
 3639SOL    HW222554   0.940   1.003   5.692 -0.8109  0.0189 -0.3240
 3640SOL     OW22555   3.020   0.889   8.034  0.0973 -0.3306 -0.6511
 3640SOL    HW122556   2.967   0.810   8.050  1.1138 -1.0949 -1.0993
 3640SOL    HW222557   3.017   0.919   8.125 -0.5388 -0.1387 -0.7343
 3641SOL     OW22558   4.542   3.825   0.447 -0.2414  0.0289 -0.3414
 3641SOL    HW122559   4.564   3.789   0.532 -0.6796 -0.3335 -0.3830
 3641SOL    HW222560   4.591   3.907   0.456 -0.1070 -0.1510  0.4932
 3642SOL     OW22561   2.758   4.013  14.016  0.3035 -0.1550  0.3260
 3642SOL    HW122562   2.795   3.947  13.956 -1.5844 -0.8521 -0.0646
 3642SOL    HW222563   2.838   4.053  14.052 -0.1972  2.0008 -0.9683
 3643SOL     OW22564   0.293   4.444  11.670  0.2254  0.6389  0.7646
 3643SOL    HW122565   0.210   4.400  11.648  0.5545 -0.9969  2.7576
 3643SOL    HW222566   0.355   4.372  11.676 -0.5998 -0.1077  0.3336
 3644SOL     OW22567   1.161   1.972   9.719  0.4717  0.5795  0.4520
 3644SOL    HW122568   1.110   1.905   9.765 -0.7199  0.7571 -0.6180
 3644SOL    HW222569   1.101   2.040   9.749  0.6512  0.8021  0.3071
 3645SOL     OW22570   2.083   4.583   8.098 -0.5450 -0.1106 -0.6250
 3645SOL    HW122571   2.052   4.492   8.097 -1.2506  0.1295 -0.6121
 3645SOL    HW222572   2.141   4.580   8.022  1.4237  0.6204  0.8708
 3646SOL     OW22573   2.926   1.735   9.387  0.1641 -0.4889  0.4481
 3646SOL    HW122574   2.888   1.808   9.436  0.2096 -0.7112  0.8174
 3646SOL    HW222575   2.966   1.775   9.311 -1.0630  0.1697  0.1539
 3647SOL     OW22576   3.605   0.488   2.019  0.6096  0.1146  0.3736
 3647SOL    HW122577   3.543   0.474   1.947 -0.2352  0.1886  1.0747
 3647SOL    HW222578   3.585   0.412   2.074  0.6628  0.1517  0.4435
 3648SOL     OW22579   1.246   1.293   0.778  0.3588  0.1775 -0.1835
 3648SOL    HW122580   1.239   1.334   0.865 -0.6640  0.0696 -0.2192
 3648SOL    HW222581   1.332   1.256   0.801  1.7664  3.1910 -0.6016
 3649SOL     OW22582   1.178   4.030   8.233 -0.1738  0.2154  0.2827
 3649SOL    HW122583   1.197   3.963   8.299 -2.6448  1.4807  2.2568
 3649SOL    HW222584   1.088   4.008   8.208  0.7043 -1.8489 -1.0907
 3650SOL     OW22585   1.463   3.520   5.912  0.2269 -0.2266  0.4371
 3650SOL    HW122586   1.393   3.579   5.941  1.3012  0.7847  0.9664
 3650SOL    HW222587   1.416   3.437   5.921 -0.0111 -0.3742 -2.1622
 3651SOL     OW22588   2.284   2.758  11.283  0.4348  0.0525 -0.5357
 3651SOL    HW122589   2.305   2.834  11.228 -0.7123  1.2259  0.6372
 3651SOL    HW222590   2.331   2.780  11.364 -1.9029 -2.6272  1.5334
 3652SOL     OW22591   3.972   4.229   2.019 -0.1212  0.5439  0.1941
 3652SOL    HW122592   4.032   4.282   2.072  1.4694  0.9293 -1.9799
 3652SOL    HW222593   4.041   4.170   1.991  0.1921  1.1336 -0.2914
 3653SOL     OW22594   3.322   3.809   4.569 -0.3115  0.5234 -0.1155
 3653SOL    HW122595   3.315   3.902   4.591  0.5668  0.5665  0.0011
 3653SOL    HW222596   3.385   3.778   4.634 -1.7992 -0.3008  0.9226
 3654SOL     OW22597   0.247   2.397   6.031  0.3848 -0.9582  0.0574
 3654SOL    HW122598   0.274   2.343   5.957 -0.3722  0.8665 -1.5606
 3654SOL    HW222599   0.271   2.486   6.003 -0.0502 -1.0265 -0.5277
 3655SOL     OW22600   3.835   2.458   7.341 -0.1947 -0.0810 -0.1199
 3655SOL    HW122601   3.797   2.373   7.317  0.5779 -0.2561 -0.7033
 3655SOL    HW222602   3.921   2.421   7.360 -0.5197 -0.4678  0.6280
 3656SOL     OW22603   3.234   0.315   9.701  0.0268  0.5772 -0.2232
 3656SOL    HW122604   3.155   0.333   9.752  1.4373  0.2092  2.0737
 3656SOL    HW222605   3.282   0.390   9.735 -0.8717  0.6839  0.7952
 3657SOL     OW22606   3.216   1.297   4.965  0.0090  0.4454 -0.6690
 3657SOL    HW122607   3.165   1.378   4.966  0.1888  0.5465  0.5563
 3657SOL    HW222608   3.165   1.249   4.899 -0.3719  0.5933 -0.4846
 3658SOL     OW22609   4.630   2.592   6.774 -0.3508 -0.0485  0.1552
 3658SOL    HW122610   4.587   2.661   6.724  1.0915  0.8114  0.1363
 3658SOL    HW222611   4.566   2.572   6.843 -1.9502  2.5791 -0.5751
 3659SOL     OW22612   3.611   3.804  11.680  0.2890 -0.0567 -0.3902
 3659SOL    HW122613   3.587   3.711  11.680  2.3378 -0.5793 -1.8888
 3659SOL    HW222614   3.616   3.823  11.587 -1.4497  0.7528 -0.3096
 3660SOL     OW22615   2.764   2.837   8.738  0.2149 -0.6744 -0.3629
 3660SOL    HW122616   2.742   2.921   8.697  0.4588 -0.8198 -0.7958
 3660SOL    HW222617   2.855   2.836   8.709  0.4262 -3.2082  0.4061
 3661SOL     OW22618   0.192   3.348   2.633  0.0345  0.2905  0.2612
 3661SOL    HW122619   0.194   3.424   2.692  1.2636  1.1006 -0.8343
 3661SOL    HW222620   0.282   3.347   2.602 -0.5530  0.8731 -1.5026
 3662SOL     OW22621   0.866   2.563  13.082 -0.2533  0.4234  0.1437
 3662SOL    HW122622   0.831   2.476  13.099  0.5300 -0.1225 -1.1228
 3662SOL    HW222623   0.890   2.553  12.990 -0.3467  0.1456  0.1492
 3663SOL     OW22624   0.985   2.464  14.014 -0.5891 -0.2055 -0.2311
 3663SOL    HW122625   1.072   2.460  14.052 -1.9419 -2.2851  2.6270
 3663SOL    HW222626   0.996   2.522  13.938 -0.0915  0.3995  0.3146
 3664SOL     OW22627   1.522   1.953   0.825 -0.4088  0.0737 -0.3918
 3664SOL    HW122628   1.552   1.993   0.907 -1.2572  0.8933 -0.4880
 3664SOL    HW222629   1.464   1.884   0.857 -0.0423 -0.4977 -0.9503
 3665SOL     OW22630   3.463   4.412  16.153  0.1108 -0.1432 -0.2584
 3665SOL    HW122631   3.463   4.458  16.237  2.7779 -1.2361  0.3417
 3665SOL    HW222632   3.499   4.477  16.092  0.1837 -0.6454 -0.7514
 3666SOL     OW22633   3.875   1.085   7.603  0.2500 -0.6788 -0.3183
 3666SOL    HW122634   3.844   1.175   7.612 -1.9755 -1.2880 -2.0031
 3666SOL    HW222635   3.887   1.065   7.696 -1.2639  0.3572  0.1005
 3667SOL     OW22636   3.289   0.504   2.153  0.5558 -0.3390  0.4001
 3667SOL    HW122637   3.322   0.528   2.067  0.0998 -0.5520  0.1667
 3667SOL    HW222638   3.279   0.410   2.143  0.0837 -0.5029  2.4112
 3668SOL     OW22639   3.499   2.116  12.295 -0.1266 -0.2570 -1.0408
 3668SOL    HW122640   3.403   2.118  12.291 -0.1279  1.1709 -0.4150
 3668SOL    HW222641   3.527   2.109  12.386 -1.5903  0.3622 -0.5404
 3669SOL     OW22642   4.581   2.973   0.361 -0.2822  0.0776 -0.2333
 3669SOL    HW122643   4.592   2.964   0.455  2.5536  2.0861 -0.3786
 3669SOL    HW222644   4.520   3.044   0.343  0.2602 -0.0172 -2.4814
 3670SOL     OW22645   3.595   0.683   5.209  0.0064 -0.6144  0.6023
 3670SOL    HW122646   3.605   0.756   5.148 -0.5658  0.1896  1.4754
 3670SOL    HW222647   3.669   0.626   5.187  0.9215  1.1477 -0.8523
 3671SOL     OW22648   1.496   4.488  10.491 -0.5827  0.9238  0.8054
 3671SOL    HW122649   1.433   4.431  10.537 -2.4652  2.7979  0.5117
 3671SOL    HW222650   1.450   4.571  10.497 -1.9899  0.2530 -0.6913
 3672SOL     OW22651   3.195   3.416   7.739  0.3132  0.3531  0.2809
 3672SOL    HW122652   3.240   3.331   7.732 -0.4592  0.0465 -1.0601
 3672SOL    HW222653   3.197   3.426   7.834  1.4139 -0.5307  0.3537
 3673SOL     OW22654   4.500   0.008   2.470  0.7493 -0.0358  0.7128
 3673SOL    HW122655   4.466   0.089   2.510 -0.5044 -0.9751  1.5378
 3673SOL    HW222656   4.562   4.720   2.538  0.1276 -0.9598  0.9534
 3674SOL     OW22657   3.968   3.313   5.724 -0.3864 -0.2110 -0.3029
 3674SOL    HW122658   3.955   3.408   5.731 -0.1592 -0.1439 -0.7816
 3674SOL    HW222659   4.055   3.298   5.688 -0.3701  0.1176 -0.4021
 3675SOL     OW22660   2.850   1.358   6.983 -0.0932  0.5380 -0.2361
 3675SOL    HW122661   2.763   1.324   7.001 -0.4394  1.0532 -0.9701
 3675SOL    HW222662   2.896   1.349   7.067 -1.6505 -0.5920  0.4944
 3676SOL     OW22663   3.679   2.084   4.340 -0.0588 -0.1199 -0.5130
 3676SOL    HW122664   3.632   2.010   4.380  1.7234 -0.6360  0.6428
 3676SOL    HW222665   3.737   2.112   4.411  1.2588 -1.8442 -0.9202
 3677SOL     OW22666   2.314   2.603   1.903  0.1783 -0.3406  0.2898
 3677SOL    HW122667   2.392   2.552   1.880  1.0360  0.5646  1.1704
 3677SOL    HW222668   2.299   2.646   1.820  1.7705  1.9217  1.1568
 3678SOL     OW22669   3.431   4.711   9.106  0.0261  0.0432 -0.0404
 3678SOL    HW122670   3.420   4.620   9.136  1.0694 -0.1117 -0.1396
 3678SOL    HW222671   3.341   0.005   9.088 -0.1861 -1.4003 -1.3521
 3679SOL     OW22672   1.166   3.278   5.815 -0.0715 -0.0534  0.3581
 3679SOL    HW122673   1.216   3.296   5.894 -0.8115  1.1701  0.5453
 3679SOL    HW222674   1.147   3.185   5.825 -1.0918  0.2429  1.0979
 3680SOL     OW22675   2.146   1.729   7.062  0.1603  0.9726  0.6379
 3680SOL    HW122676   2.153   1.636   7.037 -1.1710  0.6107  1.6017
 3680SOL    HW222677   2.053   1.737   7.044  0.0735  0.0134  0.6320
 3681SOL     OW22678   1.704   2.026   6.790 -0.2130 -0.5042  0.3755
 3681SOL    HW122679   1.627   2.055   6.839 -1.3562 -1.4837 -0.7862
 3681SOL    HW222680   1.777   2.048   6.847  0.5260  0.4966 -0.9408
 3682SOL     OW22681   3.446   2.163  10.598 -0.4837  0.5208  0.0802
 3682SOL    HW122682   3.361   2.179  10.639 -0.1936  2.3812 -0.0427
 3682SOL    HW222683   3.427   2.149  10.505 -0.1792  1.8474 -0.1812
 3683SOL     OW22684   3.564   0.741  10.048  0.3306  0.4401 -0.1277
 3683SOL    HW122685   3.562   0.646  10.051  0.6101  0.4635  0.9702
 3683SOL    HW222686   3.509   0.766  10.122  0.1680  1.9540 -0.7608
 3684SOL     OW22687   0.021   3.970   6.552 -0.0761 -0.0750 -0.4675
 3684SOL    HW122688   0.037   4.058   6.518 -0.0387  0.6465  1.3634
 3684SOL    HW222689   0.111   3.948   6.577  0.3655 -0.7751 -2.6870
 3685SOL     OW22690   1.866   4.279   8.597  0.3467  0.3448 -0.5023
 3685SOL    HW122691   1.803   4.350   8.582  1.1109  0.8837 -1.1568
 3685SOL    HW222692   1.828   4.241   8.676  0.2192 -2.7196 -2.0553
 3686SOL     OW22693   1.044   1.942   7.328 -0.1431 -0.3535 -0.0196
 3686SOL    HW122694   0.967   1.981   7.288  0.0385  2.6002  2.5170
 3686SOL    HW222695   1.011   1.890   7.401  1.8525  0.1903  1.2844
 3687SOL     OW22696   1.304   3.781   3.217  0.2241 -0.2872 -0.0331
 3687SOL    HW122697   1.330   3.799   3.126 -0.2475 -1.4983 -0.4087
 3687SOL    HW222698   1.367   3.821   3.277 -0.1361  0.9522 -0.4811
 3688SOL     OW22699   4.611   1.637   1.882  0.0757 -0.0608 -0.3977
 3688SOL    HW122700   4.669   1.698   1.928  1.4339 -0.7885 -1.1406
 3688SOL    HW222701   4.663   1.589   1.818  2.2801  1.9485 -0.1231
 3689SOL     OW22702   1.611   0.927  14.166  0.1146  0.3531 -1.0045
 3689SOL    HW122703   1.693   0.961  14.199 -0.3722  1.4062 -0.8761
 3689SOL    HW222704   1.649   0.924  14.078 -0.6404  1.2152 -1.3584
 3690SOL     OW22705   2.609   2.719  16.297 -0.6323  0.2822 -0.0452
 3690SOL    HW122706   2.584   2.635  16.336 -1.4931  0.3837 -0.3779
 3690SOL    HW222707   2.615   2.776  16.373  0.7319 -1.5922  1.2750
 3691SOL     OW22708   1.073   2.878  13.429 -0.0791 -0.0846  0.3234
 3691SOL    HW122709   1.042   2.807  13.485 -0.5419 -0.8564 -0.9005
 3691SOL    HW222710   1.079   2.950  13.491 -0.6469 -1.0296  1.4626
 3692SOL     OW22711   1.579   2.908   6.355  0.0856 -0.0514 -0.3990
 3692SOL    HW122712   1.564   2.831   6.411 -2.0790 -0.2559 -1.2379
 3692SOL    HW222713   1.487   2.935   6.344  0.6759  1.4574 -1.6050
 3693SOL     OW22714   3.540   1.586   2.749 -0.4250  0.1420 -0.0409
 3693SOL    HW122715   3.501   1.505   2.782  0.7549 -0.3533  0.1138
 3693SOL    HW222716   3.541   1.651   2.819  0.6624  0.5831 -0.4679
 3694SOL     OW22717   1.596   1.506   1.162  0.1139  0.1070  0.2420
 3694SOL    HW122718   1.601   1.492   1.067  2.7301  0.4325  0.3353
 3694SOL    HW222719   1.688   1.523   1.179  0.3466 -1.2464  0.2745
 3695SOL     OW22720   3.381   3.394  14.212 -0.1311 -0.5304  0.4091
 3695SOL    HW122721   3.448   3.384  14.280  0.0019 -1.1654  0.1795
 3695SOL    HW222722   3.426   3.454  14.153  2.1064 -1.0504  1.5781
 3696SOL     OW22723   0.069   3.219  11.229  0.5765 -0.7619 -0.3900
 3696SOL    HW122724   4.712   3.226  11.204  0.6973 -3.0059 -1.4567
 3696SOL    HW222725   0.111   3.175  11.155 -0.8342  1.1807 -2.3401
 3697SOL     OW22726   2.111   0.353   6.410  0.7299 -0.1085 -0.2884
 3697SOL    HW122727   2.025   0.322   6.383 -0.1863  1.7284  0.5422
 3697SOL    HW222728   2.164   0.329   6.334 -0.4532 -1.2050 -0.7664
 3698SOL     OW22729   3.390   2.228   1.802 -0.4597 -0.0090  0.1214
 3698SOL    HW122730   3.424   2.316   1.788  1.0538 -0.3199  1.8104
 3698SOL    HW222731   3.455   2.190   1.861 -0.5123 -0.1855  0.0663
 3699SOL     OW22732   1.569   4.008   5.774  0.0334  0.0385  0.0045
 3699SOL    HW122733   1.569   4.073   5.844 -2.8914  0.0225  0.0315
 3699SOL    HW222734   1.661   4.020   5.749  0.4443  1.0396  2.0289
 3700SOL     OW22735   2.567   3.448  11.568 -0.0952 -0.2684 -0.1888
 3700SOL    HW122736   2.570   3.397  11.648 -0.6881  0.6120  0.3952
 3700SOL    HW222737   2.489   3.503  11.579  1.6518  1.7253  2.3095
 3701SOL     OW22738   2.761   0.241  16.849 -0.1946 -0.1984 -0.8934
 3701SOL    HW122739   2.845   0.280  16.825 -0.0326  0.7187  1.1324
 3701SOL    HW222740   2.761   0.175  16.780  2.0838 -2.8981  1.7110
 3702SOL     OW22741   1.208   1.568   6.450  0.1546  0.5699 -0.0180
 3702SOL    HW122742   1.280   1.631   6.459  0.7648 -0.3561  1.5532
 3702SOL    HW222743   1.266   1.493   6.438 -0.4037  0.3006 -1.0169
 3703SOL     OW22744   4.074   1.284  10.059  0.0484  0.1500  0.7927
 3703SOL    HW122745   4.023   1.338  10.120 -1.1379 -1.7080  1.4495
 3703SOL    HW222746   4.127   1.353  10.020 -2.1262  2.2574  1.4938
 3704SOL     OW22747   1.104   3.852   4.877 -0.8129  0.4840  0.1985
 3704SOL    HW122748   1.016   3.825   4.902  0.0160 -1.5580  0.8709
 3704SOL    HW222749   1.099   3.948   4.884 -0.5823  0.4744  0.4855
 3705SOL     OW22750   2.320   0.107   6.159 -0.2541  0.4498  0.4923
 3705SOL    HW122751   2.400   0.058   6.178 -1.0517 -0.4747  1.5140
 3705SOL    HW222752   2.326   0.090   6.065  0.9436 -1.3938  0.9116
 3706SOL     OW22753   3.882   1.164   8.786  0.5272 -0.6348 -0.2680
 3706SOL    HW122754   3.829   1.165   8.866  1.0429  0.9859  0.0505
 3706SOL    HW222755   3.967   1.171   8.831 -0.4066 -0.7429  1.5288
 3707SOL     OW22756   2.457   2.453   2.906  0.3063  0.1588 -0.2063
 3707SOL    HW122757   2.410   2.446   2.822 -2.5081  1.1748  1.2931
 3707SOL    HW222758   2.494   2.366   2.918  0.5431 -0.1403 -3.1110
 3708SOL     OW22759   1.444   0.738   9.315 -0.0749 -0.1916 -0.0661
 3708SOL    HW122760   1.376   0.732   9.248 -0.5573  2.0137  0.2132
 3708SOL    HW222761   1.515   0.692   9.272  0.6585 -0.6459  1.6328
 3709SOL     OW22762   1.278   4.094   5.226 -0.1293  0.3293  0.5366
 3709SOL    HW122763   1.346   4.093   5.293 -0.9022 -1.0208  1.2867
 3709SOL    HW222764   1.233   4.175   5.249  2.3346  0.9584  3.1176
 3710SOL     OW22765   2.416   2.417   2.542  0.5289 -0.0813  0.0699
 3710SOL    HW122766   2.473   2.477   2.591  1.4713  0.3304 -1.5292
 3710SOL    HW222767   2.328   2.448   2.562  0.9638  1.0799  0.2070
 3711SOL     OW22768   2.117   1.658   8.244 -0.1871 -0.4352  0.4219
 3711SOL    HW122769   2.091   1.588   8.304  0.3065 -1.4814 -0.5891
 3711SOL    HW222770   2.099   1.610   8.163 -1.3253 -0.5228  0.7252
 3712SOL     OW22771   0.238   2.515   8.941  0.4049 -0.5949 -0.3742
 3712SOL    HW122772   0.168   2.450   8.931  0.0734 -0.3001  0.0306
 3712SOL    HW222773   0.288   2.463   9.003 -1.3875 -0.6670  1.0164
 3713SOL     OW22774   1.383   0.411  15.547  0.8355 -0.3060 -0.2470
 3713SOL    HW122775   1.320   0.352  15.587 -1.4179  3.5046  1.9114
 3713SOL    HW222776   1.411   0.454  15.629  0.9208 -0.1666 -0.3486
 3714SOL     OW22777   2.689   2.371   3.088  0.2402  0.3237  0.2821
 3714SOL    HW122778   2.625   2.334   3.149 -0.4721  0.7000 -0.2324
 3714SOL    HW222779   2.703   2.297   3.030 -0.2645 -1.8636  2.9469
 3715SOL     OW22780   1.229   3.842   0.461  0.4910  0.2113  0.0615
 3715SOL    HW122781   1.265   3.861   0.374  0.6099 -2.0217 -0.3757
 3715SOL    HW222782   1.156   3.784   0.439  0.1969 -0.3697  2.6316
 3716SOL     OW22783   4.365   1.544   4.361  0.2962 -0.2687 -0.0395
 3716SOL    HW122784   4.333   1.628   4.328 -0.6736 -0.2302  0.9852
 3716SOL    HW222785   4.277   1.510   4.379 -0.7344  2.1601 -0.6069
 3717SOL     OW22786   2.695   0.666   1.178  0.3655 -0.2707 -0.1132
 3717SOL    HW122787   2.599   0.665   1.187  0.3947  2.9019  0.5911
 3717SOL    HW222788   2.727   0.635   1.263  1.2479  1.1936  0.0812
 3718SOL     OW22789   0.032   2.942  11.725  0.4302  0.1430 -0.0695
 3718SOL    HW122790   4.706   3.013  11.706  0.4440  1.0511  3.3581
 3718SOL    HW222791   0.117   2.978  11.751  0.6360  0.4447 -1.1712
 3719SOL     OW22792   2.816   3.397   4.616  0.8046 -0.0063  0.1883
 3719SOL    HW122793   2.862   3.336   4.673  1.0463  0.7398  0.7887
 3719SOL    HW222794   2.795   3.464   4.682  1.6294  0.2765  0.1685
 3720SOL     OW22795   4.642   0.251   2.705 -0.0724 -0.2824  0.4839
 3720SOL    HW122796   0.002   0.246   2.702 -0.1102 -1.6041  1.2782
 3720SOL    HW222797   4.627   0.175   2.762  1.1055 -1.3238 -0.5827
 3721SOL     OW22798   0.142   0.310   4.108 -0.1945  0.6705 -0.9362
 3721SOL    HW122799   0.091   0.333   4.186  0.9422  0.3920 -0.1068
 3721SOL    HW222800   0.227   0.310   4.152 -0.3970 -2.0447 -0.5212
 3722SOL     OW22801   0.169   1.092  10.806  0.3184 -0.1220 -0.6043
 3722SOL    HW122802   0.099   1.088  10.871  0.6746 -1.2759 -0.2922
 3722SOL    HW222803   0.240   1.130  10.857 -0.2962 -1.1882  1.0552
 3723SOL     OW22804   0.230   3.700   1.147  0.0085  0.0612  0.8504
 3723SOL    HW122805   0.179   3.772   1.184 -1.1405 -1.6181  2.4965
 3723SOL    HW222806   0.313   3.724   1.188  0.4704 -0.1542  0.0582
 3724SOL     OW22807   0.205   0.218  12.798  0.1228 -0.0255 -0.5658
 3724SOL    HW122808   0.294   0.230  12.830 -0.9419  0.8488  2.0566
 3724SOL    HW222809   0.197   0.123  12.789  0.2720 -0.1324  0.4927
 3725SOL     OW22810   1.694   2.136   6.393 -0.5947  0.0435  0.0229
 3725SOL    HW122811   1.662   2.052   6.360 -1.9515  0.1123  1.1376
 3725SOL    HW222812   1.775   2.110   6.435  0.7332  0.7627 -2.0647
 3726SOL     OW22813   0.726   2.872   8.368 -0.5616 -0.0338  0.1067
 3726SOL    HW122814   0.728   2.942   8.433 -1.7545  0.1077 -0.0082
 3726SOL    HW222815   0.813   2.830   8.367 -1.5469 -2.0645 -1.6949
 3727SOL     OW22816   3.411   3.642  12.251 -0.2568  0.3050 -0.2378
 3727SOL    HW122817   3.486   3.626  12.193  0.2599  1.2665  0.1673
 3727SOL    HW222818   3.386   3.552  12.271  2.4906 -0.6553 -1.0243
 3728SOL     OW22819   0.592   0.050   1.927  0.0792 -0.1842 -0.3194
 3728SOL    HW122820   0.624   4.699   1.902  2.1515  0.1959  1.0920
 3728SOL    HW222821   0.666   0.072   1.983  1.0173 -0.2047 -1.5460
 3729SOL     OW22822   1.182   3.546  11.771 -0.3443  0.0991 -0.2505
 3729SOL    HW122823   1.100   3.587  11.744 -0.8998  1.3575  3.3995
 3729SOL    HW222824   1.178   3.459  11.731  2.1527  0.3810 -1.1167
 3730SOL     OW22825   3.942   2.522   9.256  0.1881 -0.1652 -0.9220
 3730SOL    HW122826   3.980   2.605   9.283  0.4290 -0.1365 -1.3442
 3730SOL    HW222827   3.849   2.543   9.264 -0.1610 -2.1260  0.2732
 3731SOL     OW22828   1.226   0.862   2.693  0.0279 -0.4877  0.2879
 3731SOL    HW122829   1.255   0.876   2.783  4.2208  1.3678 -1.3385
 3731SOL    HW222830   1.280   0.793   2.655  0.6600 -0.5747  1.3405
 3732SOL     OW22831   1.420   2.746   5.008  0.0508  0.4296  0.2108
 3732SOL    HW122832   1.401   2.693   4.931  0.6333  0.4483  0.0530
 3732SOL    HW222833   1.511   2.763   4.985  0.3976  0.3845  1.5415
 3733SOL     OW22834   2.120   0.538  13.940 -0.1187  0.6278 -0.3266
 3733SOL    HW122835   2.055   0.520  13.872 -0.1435  0.3827 -0.2386
 3733SOL    HW222836   2.139   0.631  13.935 -2.4457  1.1144  0.1090
 3734SOL     OW22837   3.951   4.506   1.536  0.3075 -0.2325 -0.4910
 3734SOL    HW122838   3.899   4.517   1.615  0.2612  1.1455 -0.7083
 3734SOL    HW222839   4.038   4.511   1.576  0.0181 -0.4767  0.1538
 3735SOL     OW22840   2.694   0.562   8.014  0.3440 -0.0578 -0.1759
 3735SOL    HW122841   2.722   0.648   8.046 -3.0818  1.0253 -0.0732
 3735SOL    HW222842   2.615   0.586   7.965 -0.4752 -1.1922  0.5734
 3736SOL     OW22843   2.248   2.385  12.587 -0.5329  0.1984 -0.5124
 3736SOL    HW122844   2.158   2.417  12.584 -1.1642 -1.6665 -1.0315
 3736SOL    HW222845   2.255   2.363  12.680  0.1289  0.7645 -0.4320
 3737SOL     OW22846   4.009   1.140  10.805  0.4782  0.2000 -0.3698
 3737SOL    HW122847   3.988   1.225  10.764  1.1262  0.5216 -0.0305
 3737SOL    HW222848   4.093   1.163  10.845  0.3425 -0.7071  0.4208
 3738SOL     OW22849   0.205   1.049   5.086  0.7828 -0.0078  0.5193
 3738SOL    HW122850   0.196   1.137   5.123 -0.4687  0.4951 -0.9939
 3738SOL    HW222851   0.209   1.072   4.993  0.4937 -1.6326  0.1118
 3739SOL     OW22852   3.148   1.113   5.214 -0.6298 -0.3860 -0.9677
 3739SOL    HW122853   3.175   1.036   5.165 -1.5837 -1.2108 -0.2129
 3739SOL    HW222854   3.092   1.157   5.151 -1.1108  0.4054  0.0005
 3740SOL     OW22855   3.708   4.094   1.480 -0.3825  0.0673  0.0803
 3740SOL    HW122856   3.720   3.999   1.476  2.6010  0.4507 -0.4034
 3740SOL    HW222857   3.797   4.130   1.471  0.9214 -3.3151 -0.6607
 3741SOL     OW22858   2.450   3.716  14.889  0.4385 -0.4504  0.5494
 3741SOL    HW122859   2.486   3.648  14.832 -0.1208  0.1934 -0.5804
 3741SOL    HW222860   2.368   3.688  14.928 -0.4980  2.0226  0.3546
 3742SOL     OW22861   4.719   2.673  17.015 -0.4153 -0.4367 -0.4917
 3742SOL    HW122862   4.680   2.624  17.088  1.5026 -0.2685  0.6517
 3742SOL    HW222863   0.078   2.656  17.023  0.4050  3.0212 -2.7864
 3743SOL     OW22864   4.411   0.445  12.222 -0.0544  0.2545 -0.0463
 3743SOL    HW122865   4.437   0.390  12.148  0.8486 -0.6232  0.9249
 3743SOL    HW222866   4.377   0.525  12.180  0.7038 -0.2782 -1.6680
 3744SOL     OW22867   3.605   3.642   3.547 -0.1616 -0.4575 -0.3602
 3744SOL    HW122868   3.640   3.730   3.558  0.7045 -0.6654 -1.4019
 3744SOL    HW222869   3.605   3.623   3.641  1.4220  2.6063  0.2327
 3745SOL     OW22870   1.048   2.783  12.876 -0.7494  0.0911  0.1444
 3745SOL    HW122871   1.041   2.694  12.909  2.6480 -0.8510 -1.6911
 3745SOL    HW222872   0.958   2.816  12.879 -1.0379 -0.4958 -1.6944
 3746SOL     OW22873   3.231   1.328   6.427  0.6224 -0.2374  0.0024
 3746SOL    HW122874   3.247   1.284   6.510 -0.8189  0.1652  0.4854
 3746SOL    HW222875   3.215   1.416   6.460  0.5241 -0.6516  1.0605
 3747SOL     OW22876   3.450   3.359   5.494  0.6746  0.2768 -0.3545
 3747SOL    HW122877   3.386   3.312   5.440  0.1595  1.5178 -0.8108
 3747SOL    HW222878   3.465   3.300   5.568 -2.9599  0.8680  0.9003
 3748SOL     OW22879   4.264   4.464   3.199  0.9923  0.3440 -0.7066
 3748SOL    HW122880   4.219   4.400   3.255  2.2506 -0.6213 -0.7874
 3748SOL    HW222881   4.259   4.419   3.115  1.5833  0.6471 -0.9054
 3749SOL     OW22882   2.737   1.350   4.298 -0.4149 -0.3923 -0.0775
 3749SOL    HW122883   2.805   1.417   4.301  0.5367 -1.3514 -0.4590
 3749SOL    HW222884   2.789   1.279   4.335  2.0190  1.4013 -0.0983
 3750SOL     OW22885   2.074   3.906   7.503  0.1344  0.2206  0.2777
 3750SOL    HW122886   2.129   3.971   7.545 -1.5185  2.7543 -1.4808
 3750SOL    HW222887   2.023   3.968   7.450 -0.0689 -0.0972  0.0997
 3751SOL     OW22888   1.337   1.156   7.636  0.4843  0.2158 -0.0288
 3751SOL    HW122889   1.326   1.185   7.545  4.4902  0.4856 -0.4200
 3751SOL    HW222890   1.345   1.062   7.621 -0.3971  0.1290  0.0308
 3752SOL     OW22891   4.728   2.509  16.797  0.2541  0.3155  0.4522
 3752SOL    HW122892   0.043   2.437  16.833 -1.2530  1.2138  4.3325
 3752SOL    HW222893   4.715   2.568  16.872  0.0560  2.6170 -1.3668
 3753SOL     OW22894   0.150   4.628   8.302 -0.0550 -0.4249  0.7630
 3753SOL    HW122895   0.060   4.634   8.335 -1.5204 -0.5530 -3.2164
 3753SOL    HW222896   0.134   4.610   8.210  2.1298  0.1973  0.2579
 3754SOL     OW22897   3.011   1.819   4.115  0.3196 -0.1944  0.5317
 3754SOL    HW122898   3.103   1.793   4.113 -0.2478 -2.2147  1.2635
 3754SOL    HW222899   2.992   1.789   4.203 -0.0174 -0.2583  0.4358
 3755SOL     OW22900   0.769   4.685  14.177  0.7787  0.2054  0.0297
 3755SOL    HW122901   0.787   4.619  14.244  0.2206 -0.4782 -0.4974
 3755SOL    HW222902   0.819   0.028  14.200 -0.5035  0.1245  3.1335
 3756SOL     OW22903   3.978   4.650  11.895 -0.1170 -0.9675 -0.3777
 3756SOL    HW122904   3.979   0.009  11.883 -1.4730 -1.0341 -1.0599
 3756SOL    HW222905   3.940   4.646  11.983 -1.1817  0.0225 -0.7953
 3757SOL     OW22906   3.081   2.017   7.853  0.0409 -0.0010 -0.2095
 3757SOL    HW122907   3.169   2.033   7.819 -0.7547  3.3599 -0.7202
 3757SOL    HW222908   3.105   1.975   7.935 -0.4028 -0.8590 -0.5192
 3758SOL     OW22909   2.190   4.268  11.320  0.3329  0.3033  0.3176
 3758SOL    HW122910   2.147   4.185  11.338  0.0254 -0.2399 -2.8238
 3758SOL    HW222911   2.246   4.284  11.396  0.1054  1.0880  0.3144
 3759SOL     OW22912   0.229   2.012   4.051 -0.4756  0.6207 -0.2448
 3759SOL    HW122913   0.212   1.924   4.019  2.2787  0.7312 -2.0276
 3759SOL    HW222914   0.141   2.044   4.067 -1.0625 -1.9924  1.7418
 3760SOL     OW22915   3.511   2.536   6.234 -0.2522  0.6242 -0.0546
 3760SOL    HW122916   3.541   2.527   6.324  0.4533  1.2606 -0.2236
 3760SOL    HW222917   3.422   2.501   6.228  0.4303 -1.2433  1.1477
 3761SOL     OW22918   0.813   1.870  16.026 -0.3106 -0.0420  0.0560
 3761SOL    HW122919   0.756   1.942  16.051 -1.0615 -0.3621 -0.7268
 3761SOL    HW222920   0.853   1.910  15.948  2.5815 -1.4541  0.8110
 3762SOL     OW22921   1.269   3.192   9.061 -0.3878 -0.0835  0.1117
 3762SOL    HW122922   1.188   3.146   9.040 -1.0308  0.8610  0.5824
 3762SOL    HW222923   1.225   3.268   9.098 -0.5256  0.2381 -0.7166
 3763SOL     OW22924   2.520   0.429   3.313 -0.3876  0.2466 -0.1224
 3763SOL    HW122925   2.575   0.428   3.392 -0.8793 -0.5557  0.2128
 3763SOL    HW222926   2.542   0.511   3.268 -0.3224  0.9250  1.1501
 3764SOL     OW22927   3.959   0.386  14.262 -0.0452 -0.0448 -0.0586
 3764SOL    HW122928   4.011   0.449  14.312 -1.4680  1.0025  0.0929
 3764SOL    HW222929   3.997   0.394  14.174  0.5316  0.7826  0.2643
 3765SOL     OW22930   2.710   4.057   6.980  0.0274  0.2045  0.1183
 3765SOL    HW122931   2.737   4.123   7.043  0.6626 -0.2845  0.3574
 3765SOL    HW222932   2.652   4.012   7.041  1.2404  0.4298  1.4192
 3766SOL     OW22933   2.111   1.579   2.830  0.0276 -0.1475 -0.6873
 3766SOL    HW122934   2.145   1.641   2.765 -2.4617  0.4485 -1.4296
 3766SOL    HW222935   2.079   1.510   2.772  0.9338  1.0925 -2.6692
 3767SOL     OW22936   3.066   1.501  16.390  0.2361  0.3829  0.4352
 3767SOL    HW122937   3.081   1.436  16.459  3.6003  1.2539  0.5149
 3767SOL    HW222938   2.972   1.492  16.372  0.0520 -1.0145  2.0750
 3768SOL     OW22939   4.014   4.593  11.617  0.1500 -0.0431 -0.1985
 3768SOL    HW122940   4.051   4.505  11.620  0.1175 -0.0832 -0.9235
 3768SOL    HW222941   3.984   4.616  11.705 -2.3929  0.1179 -1.1070
 3769SOL     OW22942   1.302   2.022  11.724 -0.0146 -0.3009  0.0252
 3769SOL    HW122943   1.239   1.950  11.714  0.0393 -0.3132 -0.2272
 3769SOL    HW222944   1.366   1.984  11.785 -0.1265  0.7821  0.8151
 3770SOL     OW22945   2.347   0.020   9.732  0.5732  0.0779  0.1141
 3770SOL    HW122946   2.316   0.072   9.657  1.1505 -1.9809 -1.5547
 3770SOL    HW222947   2.436   4.730   9.709  0.9952  1.2548  0.4816
 3771SOL     OW22948   3.840   0.258   6.393 -0.7349  0.5684 -0.2076
 3771SOL    HW122949   3.778   0.305   6.337  0.7332  0.2608 -2.1087
 3771SOL    HW222950   3.787   0.229   6.467  0.0150 -0.5401 -0.1024
 3772SOL     OW22951   1.424   0.164   8.289 -0.4330  0.8695  0.5836
 3772SOL    HW122952   1.410   0.242   8.343  0.5976 -0.9800  3.4850
 3772SOL    HW222953   1.418   0.092   8.352 -0.8906  0.4388  0.0483
 3773SOL     OW22954   3.472   4.044   3.850 -0.4682  0.3318 -0.6354
 3773SOL    HW122955   3.530   4.061   3.776 -0.8036  1.7378 -0.5654
 3773SOL    HW222956   3.528   4.089   3.913 -2.1787  0.0240  1.1103
 3774SOL     OW22957   0.552   1.262  14.549 -0.8605  0.5475 -0.0393
 3774SOL    HW122958   0.614   1.259  14.621 -0.2536 -1.1795 -0.6390
 3774SOL    HW222959   0.610   1.251  14.473 -0.6521 -0.1290  0.2236
 3775SOL     OW22960   1.538   2.763   1.585 -0.2453  1.0270  0.0411
 3775SOL    HW122961   1.633   2.774   1.590 -0.3079  2.0323 -0.8953
 3775SOL    HW222962   1.519   2.724   1.670 -0.1897 -0.8876 -0.8289
 3776SOL     OW22963   1.587   1.673   4.838 -0.4233 -0.6388 -0.3883
 3776SOL    HW122964   1.548   1.760   4.843  0.9524 -0.1421  1.6827
 3776SOL    HW222965   1.512   1.636   4.791 -0.0768  0.5700 -1.8861
 3777SOL     OW22966   0.559   0.611   2.967  0.0368  0.2440  0.5743
 3777SOL    HW122967   0.628   0.548   2.946 -0.3650 -0.9611  2.8892
 3777SOL    HW222968   0.606   0.665   3.031  1.3807 -0.0766 -0.1359
 3778SOL     OW22969   4.734   3.024   5.619 -0.2113 -0.2861 -0.2171
 3778SOL    HW122970   0.053   2.946   5.608  2.5581  1.5859  0.2885
 3778SOL    HW222971   0.055   3.098   5.641  0.7235 -0.2633 -2.6258
 3779SOL     OW22972   3.230   3.685   3.971  0.0857  0.1470 -0.9145
 3779SOL    HW122973   3.208   3.607   4.022  1.1996  1.5266  1.6945
 3779SOL    HW222974   3.151   3.737   3.981  0.2733  0.3974 -0.7526
 3780SOL     OW22975   2.531   1.371   9.367 -0.3426 -0.0579  0.3091
 3780SOL    HW122976   2.474   1.401   9.438  1.5452 -0.4709  1.9889
 3780SOL    HW222977   2.473   1.317   9.313 -0.4903 -0.4821  0.8834
 3781SOL     OW22978   3.983   4.337  14.902 -0.1615 -0.1378 -0.2455
 3781SOL    HW122979   4.026   4.295  14.826 -1.5252 -0.4741 -0.8274
 3781SOL    HW222980   3.910   4.279  14.920 -0.7934  0.5844 -0.5079
 3782SOL     OW22981   0.335   2.379   9.561  0.1997 -0.3498 -0.8992
 3782SOL    HW122982   0.374   2.465   9.581  0.5195 -0.5447 -0.6866
 3782SOL    HW222983   0.277   2.371   9.637 -0.2129  1.4351 -1.0157
 3783SOL     OW22984   1.100   1.606   3.002 -0.2090 -0.4938 -0.0850
 3783SOL    HW122985   1.102   1.532   2.942  1.3120 -0.7893  0.3489
 3783SOL    HW222986   1.035   1.582   3.068  0.6247  1.0944  1.3446
 3784SOL     OW22987   1.097   3.061   2.627  0.4781  0.1485 -0.2324
 3784SOL    HW122988   1.178   3.034   2.583 -0.1904  2.4769 -2.8977
 3784SOL    HW222989   1.121   3.097   2.712  0.9932 -1.5544  0.3465
 3785SOL     OW22990   2.076   0.387   3.274 -0.3611  0.0831 -0.4403
 3785SOL    HW122991   2.119   0.334   3.207  0.5534  0.3658 -0.0850
 3785SOL    HW222992   2.148   0.380   3.337 -0.5460  0.1909 -0.2158
 3786SOL     OW22993   2.504   0.187   2.652  0.4446 -0.9669 -0.4753
 3786SOL    HW122994   2.460   0.104   2.633 -0.4544 -0.7552  0.6709
 3786SOL    HW222995   2.547   0.174   2.737  1.6482  3.4772 -0.3859
 3787SOL     OW22996   2.192   4.720   5.013 -0.0053 -0.2051 -0.5085
 3787SOL    HW122997   2.162   0.075   5.006  1.5780  0.6325  3.3097
 3787SOL    HW222998   2.149   4.689   5.093 -0.7689 -1.8164 -1.5429
 3788SOL     OW22999   3.707   1.738   5.983  0.2620 -0.0467  0.0054
 3788SOL    HW123000   3.720   1.833   5.990 -0.4911 -0.0212  1.1389
 3788SOL    HW223001   3.629   1.723   5.930  0.8618  0.6408 -1.0717
 3789SOL     OW23002   1.894   0.027   0.949 -0.6604  0.4286 -0.0866
 3789SOL    HW123003   1.977   0.002   0.908 -0.0850 -0.8816  1.8795
 3789SOL    HW223004   1.928   0.053   1.035 -0.3975  2.2042 -0.7272
 3790SOL     OW23005   2.796   4.106  14.724 -0.5005 -0.5751 -0.0080
 3790SOL    HW123006   2.735   4.044  14.764 -1.8770 -0.1317 -1.4111
 3790SOL    HW223007   2.817   4.055  14.645 -1.0577 -0.5549 -0.1754
 3791SOL     OW23008   1.016   4.379  12.697 -0.5633 -0.2720 -0.6393
 3791SOL    HW123009   1.102   4.416  12.713  0.7763 -3.2244 -1.0664
 3791SOL    HW223010   1.021   4.373  12.601 -0.3036  1.6535 -0.7346
 3792SOL     OW23011   2.924   0.676   7.542 -0.1569  0.0164 -0.2020
 3792SOL    HW123012   2.987   0.650   7.474  0.4323 -1.7253  1.0101
 3792SOL    HW223013   2.936   0.770   7.533  1.0264  0.0155  1.4348
 3793SOL     OW23014   3.786   3.525  15.665 -0.1792  0.0425 -0.3406
 3793SOL    HW123015   3.810   3.433  15.654  0.7836  0.2313  0.1915
 3793SOL    HW223016   3.846   3.570  15.606 -2.5417  0.8718 -2.1441
 3794SOL     OW23017   3.794   3.413   6.701 -0.0073 -0.4461  0.0068
 3794SOL    HW123018   3.866   3.352   6.717 -0.3934 -1.1096 -0.8340
 3794SOL    HW223019   3.849   3.479   6.657  0.9329 -0.9604  0.4147
 3795SOL     OW23020   0.259   1.246  13.336  0.7065 -0.0873 -0.3048
 3795SOL    HW123021   0.342   1.198  13.344  1.5343  1.2928 -0.7265
 3795SOL    HW223022   0.280   1.338  13.319  2.1170 -0.1865  0.7956
 3796SOL     OW23023   3.100   0.594  13.832  0.2120  0.1315  0.1265
 3796SOL    HW123024   3.146   0.522  13.790 -1.7222 -1.0004 -0.0868
 3796SOL    HW223025   3.026   0.604  13.772 -0.1538 -1.9030  0.2331
 3797SOL     OW23026   1.924   1.282   5.450 -0.2457  0.0041 -0.2628
 3797SOL    HW123027   1.845   1.335   5.459  0.0984  0.7727 -1.7342
 3797SOL    HW223028   1.983   1.355   5.431 -2.8354  2.0372 -0.4028
 3798SOL     OW23029   0.159   3.069   8.466  0.4304  0.1000  0.3830
 3798SOL    HW123030   0.077   3.050   8.513 -0.5221  2.3831 -0.3713
 3798SOL    HW223031   0.172   2.983   8.426 -0.1514 -0.1550  0.7353
 3799SOL     OW23032   4.142   0.500  16.148  0.3834  0.6965  0.1263
 3799SOL    HW123033   4.170   0.553  16.073  1.4324 -0.1231 -0.0513
 3799SOL    HW223034   4.212   0.523  16.210 -0.9597  4.5444  0.2224
 3800SOL     OW23035   0.897   2.009   1.908  0.2837  0.0464 -0.3745
 3800SOL    HW123036   0.835   1.967   1.968 -1.0643  1.4223 -0.8156
 3800SOL    HW223037   0.836   2.048   1.845  1.5155 -0.3010 -1.7674
 3801SOL     OW23038   2.292   2.974   7.452 -0.3539 -0.3301  0.1812
 3801SOL    HW123039   2.271   2.895   7.502  0.5051 -0.5135  0.2449
 3801SOL    HW223040   2.281   2.946   7.361 -2.4963  1.9852 -0.2868
 3802SOL     OW23041   4.405   3.467   5.844  0.1865  0.2191 -0.0921
 3802SOL    HW123042   4.405   3.493   5.936  1.4738  0.4490 -0.1602
 3802SOL    HW223043   4.430   3.377   5.868  1.9620  0.5154 -0.8263
 3803SOL     OW23044   3.376   0.284   7.815 -0.1160  0.5717 -0.3599
 3803SOL    HW123045   3.314   0.232   7.866 -1.0620  1.4087 -0.6680
 3803SOL    HW223046   3.351   0.250   7.729 -0.6506 -0.7791  0.3279
 3804SOL     OW23047   0.340   0.290  15.426 -0.1360  0.4508 -0.4846
 3804SOL    HW123048   0.386   0.215  15.465  0.6563  0.9246 -0.5063
 3804SOL    HW223049   0.284   0.314  15.499  0.5739 -0.4452  0.3520
 3805SOL     OW23050   1.145   2.216  16.055  0.2213  0.7566  0.1136
 3805SOL    HW123051   1.132   2.311  16.049 -1.4443  0.5176 -0.0790
 3805SOL    HW223052   1.193   2.206  15.972  1.6169  3.5117  0.5826
 3806SOL     OW23053   3.728   3.213   1.368 -0.0039 -0.5186  0.7252
 3806SOL    HW123054   3.790   3.272   1.409 -1.3388  2.1387 -1.1106
 3806SOL    HW223055   3.783   3.136   1.383  0.8518 -0.8967 -4.3060
 3807SOL     OW23056   2.043   1.533   9.313  0.5074  0.1729  0.5500
 3807SOL    HW123057   2.069   1.530   9.220 -0.8441  1.7495  0.1261
 3807SOL    HW223058   1.955   1.497   9.308  0.6675  0.1527 -2.0808
 3808SOL     OW23059   1.350   4.630   4.351 -0.8373  0.1339 -0.2083
 3808SOL    HW123060   1.310   4.673   4.275 -1.1700 -0.1531 -0.1980
 3808SOL    HW223061   1.441   4.610   4.331 -0.4319  1.8602 -0.0621
 3809SOL     OW23062   0.081   2.431   2.266  0.2178 -0.5847  0.0478
 3809SOL    HW123063   0.023   2.358   2.290  0.1285 -0.6566 -0.3787
 3809SOL    HW223064   0.126   2.383   2.196 -1.9334 -2.1645 -0.2798
 3810SOL     OW23065   2.565   3.800  13.289  0.2273  0.4062 -0.0900
 3810SOL    HW123066   2.552   3.894  13.307  3.0150  1.1446 -2.1047
 3810SOL    HW223067   2.578   3.763  13.376 -0.6409 -0.6906 -0.4246
 3811SOL     OW23068   0.563   0.209   2.607 -0.1888 -0.0176  0.8767
 3811SOL    HW123069   0.578   0.187   2.515 -0.2539  0.6551  0.7041
 3811SOL    HW223070   0.471   0.182   2.617 -0.3502  0.0959 -0.3034
 3812SOL     OW23071   3.401   2.432   8.146 -0.3159  0.4302  0.2676
 3812SOL    HW123072   3.443   2.407   8.228 -0.3937 -0.4090  0.0468
 3812SOL    HW223073   3.423   2.525   8.139 -3.4021  1.3344  2.6468
 3813SOL     OW23074   1.857   3.745   1.942  0.2530  0.2460 -0.0170
 3813SOL    HW123075   1.942   3.723   1.904 -0.7116  1.9228 -3.1459
 3813SOL    HW223076   1.879   3.822   1.995 -0.0749  0.9863 -0.9434
 3814SOL     OW23077   3.890   1.849   1.961  0.2258  0.1303  0.4770
 3814SOL    HW123078   3.970   1.799   1.943  1.4232  2.7073 -1.3272
 3814SOL    HW223079   3.904   1.938   1.928 -0.7259  0.4567  0.9829
 3815SOL     OW23080   1.514   3.917   7.687  0.2789 -0.0150  0.5234
 3815SOL    HW123081   1.464   3.839   7.663  0.1729  0.1913  0.0592
 3815SOL    HW223082   1.447   3.982   7.709 -0.0303 -0.1257 -0.0675
 3816SOL     OW23083   3.332   0.927   5.110 -0.4039  0.6456 -0.2735
 3816SOL    HW123084   3.422   0.942   5.140  0.6336  0.1602 -3.1799
 3816SOL    HW223085   3.349   0.954   5.020 -2.1166  0.4755 -0.6434
 3817SOL     OW23086   3.578   3.428   9.369 -0.1105  0.0535 -0.5546
 3817SOL    HW123087   3.660   3.384   9.348 -0.5795 -1.1177  0.0781
 3817SOL    HW223088   3.615   3.503   9.416 -1.7626  0.5107 -0.0055
 3818SOL     OW23089   0.361   3.498   8.327  0.0302 -0.0189  0.3332
 3818SOL    HW123090   0.373   3.461   8.415  1.5990 -0.5649 -0.1041
 3818SOL    HW223091   0.300   3.568   8.349 -1.2259 -1.6516  2.0317
 3819SOL     OW23092   1.452   3.652   2.012 -0.2747  0.5147 -0.2939
 3819SOL    HW123093   1.410   3.620   1.932  2.5888 -3.6968 -0.0944
 3819SOL    HW223094   1.475   3.741   1.988 -0.0608  0.4405 -0.3604
 3820SOL     OW23095   1.761   4.659   9.530  0.1352  0.2557  0.1571
 3820SOL    HW123096   1.704   4.714   9.476 -0.6600  0.6963  1.4409
 3820SOL    HW223097   1.706   4.634   9.604 -1.1398 -0.1713 -0.9406
 3821SOL     OW23098   0.187   3.687   6.455 -0.1095 -0.1254 -0.3844
 3821SOL    HW123099   0.221   3.705   6.367  0.4997 -0.1484 -0.1605
 3821SOL    HW223100   0.222   3.599   6.472  2.0745  0.3245 -2.5327
 3822SOL     OW23101   2.626   3.785   3.335  0.0313  0.0090  0.2365
 3822SOL    HW123102   2.707   3.780   3.385 -0.4312  0.0329  0.9921
 3822SOL    HW223103   2.563   3.837   3.385  0.9606  1.0070  0.3786
 3823SOL     OW23104   3.008   4.634   5.602  0.1600 -0.6759  0.2732
 3823SOL    HW123105   3.078   4.661   5.543 -1.0590  3.3199  0.6557
 3823SOL    HW223106   3.042   4.659   5.688 -0.9890  0.4089  0.4147
 3824SOL     OW23107   2.308   3.575   6.498 -0.0528 -0.2094 -0.0194
 3824SOL    HW123108   2.261   3.658   6.505  1.5156  0.7472 -0.9349
 3824SOL    HW223109   2.257   3.528   6.565 -3.1641  1.2748 -1.3436
 3825SOL     OW23110   1.923   1.783  10.217 -0.5565 -0.0603  0.5362
 3825SOL    HW123111   1.920   1.692  10.247 -0.7307  0.2448  1.4568
 3825SOL    HW223112   1.980   1.827  10.281 -1.0889  0.3942  0.7048
 3826SOL     OW23113   4.192   0.723   8.515  0.0332 -0.1938 -0.0166
 3826SOL    HW123114   4.234   0.660   8.457  1.6870 -1.0786  2.1443
 3826SOL    HW223115   4.129   0.681   8.573  1.7134  1.5218  3.0473
 3827SOL     OW23116   3.804   3.923   3.516  0.5802 -0.3073 -0.2343
 3827SOL    HW123117   3.888   3.877   3.525  1.0068  0.6483  0.6960
 3827SOL    HW223118   3.767   3.881   3.438 -3.6305  0.3044  1.4449
 3828SOL     OW23119   0.091   4.727  15.428  0.0514  0.0316  0.4666
 3828SOL    HW123120   0.185   4.718  15.411  0.2109  0.5922  1.0514
 3828SOL    HW223121   0.076   4.635  15.448 -0.6100 -0.4190 -2.0543
 3829SOL     OW23122   4.210   4.722   2.926  0.1880 -0.0269  0.0474
 3829SOL    HW123123   4.277   4.697   2.990  0.6368  0.0612 -0.3950
 3829SOL    HW223124   4.201   0.081   2.936  1.7858  0.1519 -0.2714
 3830SOL     OW23125   0.944   1.397  16.425 -0.5507 -0.4504  0.2023
 3830SOL    HW123126   0.914   1.482  16.391 -1.8987 -0.7952  0.5357
 3830SOL    HW223127   0.995   1.425  16.502  0.7577 -0.3180 -0.7127
 3831SOL     OW23128   2.414   1.235  15.238 -0.0663  0.0202 -0.1405
 3831SOL    HW123129   2.507   1.223  15.257  0.1708  0.3635 -1.0704
 3831SOL    HW223130   2.407   1.202  15.148  1.4100 -1.8016  0.4143
 3832SOL     OW23131   1.080   4.436   5.638 -1.0426 -0.3760 -0.1224
 3832SOL    HW123132   0.993   4.471   5.657 -0.5475 -0.5773  2.5398
 3832SOL    HW223133   1.096   4.369   5.704 -1.8685 -0.0935  0.3675
 3833SOL     OW23134   1.304   4.134   7.386 -0.0415 -0.3975  0.2872
 3833SOL    HW123135   1.388   4.091   7.403 -0.1767  0.0590  2.1022
 3833SOL    HW223136   1.335   4.210   7.336  0.9690 -1.9131 -1.3912
 3834SOL     OW23137   3.089   1.207  10.634  0.6083  0.5470  0.2073
 3834SOL    HW123138   3.073   1.140  10.701  0.0054  1.0702  0.5885
 3834SOL    HW223139   3.053   1.283  10.679  1.3801  0.5276  0.8742
 3835SOL     OW23140   0.556   0.755   4.657 -0.0377 -0.3969 -0.1376
 3835SOL    HW123141   0.562   0.820   4.587 -1.2476  1.3023  1.3267
 3835SOL    HW223142   0.476   0.775   4.705  0.7543 -3.4735  2.4262
 3836SOL     OW23143   4.163   3.539   1.517  0.1413 -0.5896 -0.2686
 3836SOL    HW123144   4.246   3.584   1.531  0.0661  0.1667 -2.2403
 3836SOL    HW223145   4.202   3.452   1.509 -1.8052 -1.5766  0.9202
 3837SOL     OW23146   0.454   1.920   3.170 -0.0750 -0.7758 -0.5228
 3837SOL    HW123147   0.471   1.870   3.091  2.5161  2.7694 -2.2060
 3837SOL    HW223148   0.363   1.902   3.195 -0.2834  1.8907  0.6607
 3838SOL     OW23149   0.653   3.742   7.510 -0.3015 -0.2687  0.8561
 3838SOL    HW123150   0.653   3.821   7.562  1.5300 -0.2641  0.8262
 3838SOL    HW223151   0.662   3.771   7.419 -1.2994  0.3638  0.9660
 3839SOL     OW23152   4.524   0.902   7.713 -0.1897  0.3250  0.0313
 3839SOL    HW123153   4.515   0.995   7.734 -0.9031 -0.1554  1.8416
 3839SOL    HW223154   4.611   0.907   7.674  0.8738  0.9006  2.4844
 3840SOL     OW23155   1.400   3.301   1.685 -0.2372 -0.2911 -0.7305
 3840SOL    HW123156   1.403   3.315   1.779  0.3401 -0.5022 -0.7205
 3840SOL    HW223157   1.426   3.209   1.684 -1.7558 -0.7216  0.2486
 3841SOL     OW23158   3.270   1.969   5.791 -0.3072 -0.5599 -0.6163
 3841SOL    HW123159   3.322   2.012   5.858  1.7910 -1.1057 -1.8766
 3841SOL    HW223160   3.196   1.937   5.842  0.5068 -0.8329  0.3700
 3842SOL     OW23161   4.164   2.299  12.013 -0.6129  0.1523 -0.0970
 3842SOL    HW123162   4.134   2.308  11.922  2.6896  3.1694 -0.9093
 3842SOL    HW223163   4.076   2.291  12.049 -0.8424 -0.3298 -0.7623
 3843SOL     OW23164   1.784   3.829   0.737 -0.1440 -0.2858  0.5294
 3843SOL    HW123165   1.719   3.777   0.691 -1.0275  0.5611  0.8182
 3843SOL    HW223166   1.730   3.908   0.744  1.5049  0.9240 -0.1441
 3844SOL     OW23167   2.091   4.479   4.065 -0.2974  0.2450  0.3685
 3844SOL    HW123168   2.040   4.482   3.984 -0.5121  0.2948  0.5043
 3844SOL    HW223169   2.024   4.489   4.132 -0.5129 -2.0766  0.5216
 3845SOL     OW23170   3.071   0.169   3.195 -0.4870 -0.3392  0.4029
 3845SOL    HW123171   3.048   0.096   3.138 -2.2113 -0.5850  1.4045
 3845SOL    HW223172   2.991   0.183   3.246  1.7091 -1.8783  4.2372
 3846SOL     OW23173   3.045   4.337   3.635 -0.7737  0.5093 -1.0256
 3846SOL    HW123174   3.119   4.350   3.693  0.8542 -1.7920 -2.6018
 3846SOL    HW223175   2.994   4.405   3.680  0.3435  1.3554 -1.0504
 3847SOL     OW23176   1.654   3.080   4.490 -0.3571 -0.3919 -0.4177
 3847SOL    HW123177   1.710   3.149   4.453 -2.7257  1.5098 -0.4367
 3847SOL    HW223178   1.721   3.012   4.495  0.8406  0.8168  0.2596
 3848SOL     OW23179   0.227   1.038   5.930 -0.4485 -0.0640 -0.6216
 3848SOL    HW123180   0.152   0.984   5.905 -0.4490 -0.5953  0.5728
 3848SOL    HW223181   0.194   1.119   5.889 -1.2118  0.2672  0.6420
 3849SOL     OW23182   0.649   0.093  16.775 -0.4628 -0.0073  0.0132
 3849SOL    HW123183   0.625   0.119  16.686 -0.0199  0.0874 -0.0763
 3849SOL    HW223184   0.563   0.084  16.817 -0.4575  1.7473  0.3798
 3850SOL     OW23185   3.580   2.744   4.256  0.2779 -0.1834  0.3816
 3850SOL    HW123186   3.529   2.664   4.261  1.2688 -0.7758  0.9677
 3850SOL    HW223187   3.652   2.722   4.196  0.6157 -0.1422  0.7662
 3851SOL     OW23188   3.056   4.591   3.173 -0.3797 -0.0671 -0.4938
 3851SOL    HW123189   3.043   4.499   3.150 -2.9366 -0.1303  1.2396
 3851SOL    HW223190   2.991   4.591   3.243  0.8706 -2.8766  0.6500
 3852SOL     OW23191   2.434   4.727   5.840  0.7517  0.3279 -0.1812
 3852SOL    HW123192   2.530   4.722   5.831  0.5857 -1.1204 -1.2417
 3852SOL    HW223193   2.415   0.055   5.771 -1.0138 -1.9342 -1.7766
 3853SOL     OW23194   3.733   0.229   6.650 -0.2676  0.0124 -0.1492
 3853SOL    HW123195   3.709   0.169   6.722 -0.5564  0.3038 -0.0017
 3853SOL    HW223196   3.720   0.316   6.688 -0.9445  0.0814 -0.5360
 3854SOL     OW23197   3.591   4.403  11.013  0.3932  0.1600  0.8544
 3854SOL    HW123198   3.677   4.445  11.012  0.9164 -0.9314  0.4501
 3854SOL    HW223199   3.563   4.415  10.922  0.5988 -0.2538  0.7383
 3855SOL     OW23200   1.586   1.750  16.841  0.1445 -0.0932  0.3669
 3855SOL    HW123201   1.557   1.837  16.867  2.9917  0.6599  0.9505
 3855SOL    HW223202   1.519   1.718  16.780 -1.6706  1.4700  1.5131
 3856SOL     OW23203   3.367   0.720  13.018  0.1419 -0.0405 -0.6301
 3856SOL    HW123204   3.286   0.738  12.970 -0.5262  0.1076  0.5580
 3856SOL    HW223205   3.421   0.687  12.946 -0.2167 -2.6720  0.2847
 3857SOL     OW23206   3.475   1.643  14.212  0.2882  0.0359 -0.2486
 3857SOL    HW123207   3.502   1.552  14.196 -1.2747 -0.7912  1.8910
 3857SOL    HW223208   3.538   1.673  14.277  0.0814 -2.4999  1.1194
 3858SOL     OW23209   2.477   3.282   5.544 -0.3314  0.5440  0.1120
 3858SOL    HW123210   2.448   3.321   5.626 -0.6192  2.2229 -0.7772
 3858SOL    HW223211   2.548   3.225   5.575 -0.7890  0.5609  1.1986
 3859SOL     OW23212   1.351   1.229   2.727 -0.4224 -0.5114  0.1651
 3859SOL    HW123213   1.364   1.136   2.707 -1.9123 -0.7364  0.2139
 3859SOL    HW223214   1.433   1.266   2.696 -0.1503  0.0479  1.5746
 3860SOL     OW23215   4.029   4.049   6.227 -0.4598 -0.6038  0.1105
 3860SOL    HW123216   4.039   4.074   6.135 -0.5605 -1.1996 -0.0561
 3860SOL    HW223217   4.025   4.136   6.268  1.2792 -0.3812 -0.1616
 3861SOL     OW23218   3.596   0.774  17.079 -0.4395 -0.5520  0.5026
 3861SOL    HW123219   3.558   0.704  17.026 -0.8972  0.7484 -0.8880
 3861SOL    HW223220   3.677   0.734  17.111  1.0351  1.1187 -1.1446
 3862SOL     OW23221   0.792   1.772   4.767 -0.5860  0.4615  0.1724
 3862SOL    HW123222   0.820   1.707   4.702  0.8155  1.3025 -0.0694
 3862SOL    HW223223   0.826   1.731   4.847 -1.1177 -0.6883 -0.1892
 3863SOL     OW23224   3.994   3.176  11.610 -0.1663 -0.4474 -0.1639
 3863SOL    HW123225   4.002   3.181  11.515 -1.7748 -0.1189 -0.2960
 3863SOL    HW223226   4.067   3.229  11.642  0.1615 -1.6008  1.0210
 3864SOL     OW23227   2.120   2.270   7.392  0.2440  0.9911 -0.2559
 3864SOL    HW123228   2.051   2.235   7.447  1.3727  0.9343  1.1269
 3864SOL    HW223229   2.098   2.233   7.307 -0.0008  0.1380  0.1833
 3865SOL     OW23230   1.799   1.838   2.108  0.4380 -0.1653 -0.1799
 3865SOL    HW123231   1.770   1.750   2.083  2.2951 -1.0296  0.6729
 3865SOL    HW223232   1.735   1.895   2.066 -1.2792 -2.8841 -1.2259
 3866SOL     OW23233   2.540   0.375  16.567 -0.5253 -0.1275 -0.1061
 3866SOL    HW123234   2.586   0.349  16.487 -0.3566  1.0070 -0.3720
 3866SOL    HW223235   2.496   0.448  16.524 -0.9796 -0.1513  0.3294
 3867SOL     OW23236   3.263   0.515  16.334 -0.5726 -0.3868 -0.3543
 3867SOL    HW123237   3.271   0.421  16.351 -0.4189 -0.2651  0.2296
 3867SOL    HW223238   3.353   0.546  16.346  0.0943 -2.4703 -0.0044
 3868SOL     OW23239   1.003   0.341   3.188  0.2431 -0.2999  0.2622
 3868SOL    HW123240   0.923   0.328   3.239 -0.7362  0.7159 -0.9990
 3868SOL    HW223241   1.049   0.405   3.241  0.1959  1.3925 -1.7288
 3869SOL     OW23242   1.680   3.808   6.765  0.1058  0.1134 -0.4482
 3869SOL    HW123243   1.645   3.853   6.842 -1.1256 -0.1204 -0.8750
 3869SOL    HW223244   1.602   3.785   6.714 -0.2574  3.5151 -1.4180
 3870SOL     OW23245   3.566   4.321   0.783 -0.3009  0.4593 -0.5789
 3870SOL    HW123246   3.584   4.410   0.813  0.1886  0.1277  0.1212
 3870SOL    HW223247   3.501   4.293   0.847 -0.2949  1.1187 -0.2800
 3871SOL     OW23248   4.075   3.762   8.459 -0.4786  0.1989  0.4537
 3871SOL    HW123249   4.049   3.840   8.509 -0.3915 -0.9684  2.3015
 3871SOL    HW223250   4.030   3.785   8.378  1.2268  1.9367  0.0137
 3872SOL     OW23251   0.992   1.795  17.477 -0.5487  0.1668  0.5065
 3872SOL    HW123252   1.060   1.804  17.410 -1.3581 -0.0046 -0.3358
 3872SOL    HW223253   0.982   1.701  17.483 -2.1006  0.3741  1.0784
 3873SOL     OW23254   2.419   1.969   6.902  0.2118  0.3369  0.3611
 3873SOL    HW123255   2.331   2.008   6.902  1.3534  2.9685  1.6069
 3873SOL    HW223256   2.477   2.041   6.926  0.2138  0.4332  0.0655
 3874SOL     OW23257   0.450   0.174   6.367 -0.4138  0.2938  0.0526
 3874SOL    HW123258   0.401   0.239   6.316  0.9507  0.3105 -1.2215
 3874SOL    HW223259   0.494   0.126   6.298 -0.5469  2.2532 -1.4081
 3875SOL     OW23260   1.136   2.977   5.870  0.5079 -0.3385 -0.2499
 3875SOL    HW123261   1.117   2.990   5.963 -0.7051 -0.0806 -0.5283
 3875SOL    HW223262   1.134   2.882   5.878  0.9008 -0.3341 -0.0753
 3876SOL     OW23263   0.532   4.635   0.794 -0.3872  0.2273 -0.5487
 3876SOL    HW123264   0.458   4.626   0.854 -0.1211  3.8044  0.2677
 3876SOL    HW223265   0.563   4.721   0.821 -1.9036  1.2934 -2.1799
 3877SOL     OW23266   2.190   1.288   4.225 -0.2074 -0.5730 -0.3006
 3877SOL    HW123267   2.282   1.279   4.250  0.0260 -0.8562 -1.2451
 3877SOL    HW223268   2.178   1.208   4.174  0.5187 -0.3977 -0.7412
 3878SOL     OW23269   4.572   4.409   2.461  0.1737  0.3497 -0.1308
 3878SOL    HW123270   4.647   4.362   2.422  0.5391  1.5620 -0.8805
 3878SOL    HW223271   4.562   4.474   2.391  1.4928 -1.2097 -1.7884
 3879SOL     OW23272   3.700   1.130   2.535  0.9145 -0.1989  0.6800
 3879SOL    HW123273   3.679   1.145   2.627  0.6249 -0.4220  0.6487
 3879SOL    HW223274   3.794   1.118   2.542  1.3547  1.3865 -2.4034
 3880SOL     OW23275   0.697   3.498   8.767  0.5076 -0.1646 -0.7890
 3880SOL    HW123276   0.691   3.542   8.852 -1.3405 -0.7295 -0.6129
 3880SOL    HW223277   0.769   3.533   8.716  1.8334  0.3732  1.4410
 3881SOL     OW23278   3.135   1.727   8.533 -0.2467 -0.1375  0.4897
 3881SOL    HW123279   3.161   1.818   8.546 -0.2349  0.4042 -3.1784
 3881SOL    HW223280   3.048   1.746   8.497  0.9273  2.9765 -0.6678
 3882SOL     OW23281   2.181   2.982   4.973 -0.3266  0.3686  0.1814
 3882SOL    HW123282   2.152   3.036   5.046 -1.6638 -2.0670  1.3948
 3882SOL    HW223283   2.274   2.965   4.987 -0.2246  0.7475 -0.0161
 3883SOL     OW23284   4.418   1.235   2.018 -0.6016  0.0536  0.2437
 3883SOL    HW123285   4.387   1.145   2.028  2.6773 -1.1185 -0.2654
 3883SOL    HW223286   4.350   1.290   2.057  0.6884  2.2477 -0.6227
 3884SOL     OW23287   3.522   1.327  13.521  0.3064  0.1868  0.1642
 3884SOL    HW123288   3.572   1.398  13.480 -3.5680  2.6795 -0.2293
 3884SOL    HW223289   3.455   1.308  13.456 -2.7289 -0.8817  3.5890
 3885SOL     OW23290   1.038   1.014   3.353  0.0166  0.2756 -0.0598
 3885SOL    HW123291   1.116   1.036   3.303 -1.4079 -0.1584 -2.5089
 3885SOL    HW223292   1.074   1.038   3.438  0.6886 -0.3039 -0.1848
 3886SOL     OW23293   2.667   3.021   2.344  0.1085  0.4037  0.5010
 3886SOL    HW123294   2.746   3.073   2.331 -1.1481  2.2557  0.0673
 3886SOL    HW223295   2.704   2.938   2.373 -0.8873  0.9514  3.2566
 3887SOL     OW23296   2.525   3.105   3.958 -0.4020  0.1655 -0.1537
 3887SOL    HW123297   2.532   3.100   3.863 -0.4062  3.7389 -0.3366
 3887SOL    HW223298   2.596   3.165   3.981 -0.4564  0.5811 -1.0816
 3888SOL     OW23299   2.685   0.594   7.667  0.3164 -0.6750  0.3501
 3888SOL    HW123300   2.691   0.664   7.731  0.3285  0.8995 -1.3885
 3888SOL    HW223301   2.759   0.611   7.608 -0.3108  2.7135  0.5388
 3889SOL     OW23302   3.957   1.354  10.647 -0.1853 -0.3011 -0.1972
 3889SOL    HW123303   4.036   1.390  10.688 -0.4423 -1.3125  1.2008
 3889SOL    HW223304   3.896   1.426  10.664  0.4620  0.1587  0.1901
 3890SOL     OW23305   1.030   0.790   8.559 -0.3440 -0.4282 -0.0461
 3890SOL    HW123306   1.116   0.781   8.517  0.5667 -0.9216  1.9191
 3890SOL    HW223307   1.002   0.700   8.576  2.5063 -1.3407 -0.1240
 3891SOL     OW23308   0.475   0.711  13.199 -0.5314  0.2046 -0.5130
 3891SOL    HW123309   0.494   0.666  13.116  0.6679  0.5303 -0.4111
 3891SOL    HW223310   0.438   0.633  13.239 -1.1262  1.5154  1.4813
 3892SOL     OW23311   1.257   2.659   3.887 -0.1755 -0.1335  1.2892
 3892SOL    HW123312   1.306   2.604   3.825 -0.7298  1.2751 -0.4004
 3892SOL    HW223313   1.220   2.595   3.948  0.2771 -1.6457 -0.0192
 3893SOL     OW23314   3.672   1.186   6.747  0.6591  0.1430  0.6036
 3893SOL    HW123315   3.594   1.142   6.779 -0.1603  3.2938  3.0057
 3893SOL    HW223316   3.722   1.203   6.827  0.9023 -2.0357  0.9182
 3894SOL     OW23317   2.463   3.837   3.028 -0.1262 -0.1666  0.1802
 3894SOL    HW123318   2.460   3.746   3.058 -1.1387 -0.1817  0.0637
 3894SOL    HW223319   2.530   3.877   3.082  1.8870 -0.7515 -1.8816
 3895SOL     OW23320   4.729   0.087  17.001  0.2034  0.0977  0.0357
 3895SOL    HW123321   4.705   0.180  16.997 -3.6431 -0.9891 -1.7466
 3895SOL    HW223322   4.686   0.050  17.079  0.5205  1.4152  0.8415
 3896SOL     OW23323   3.444   3.767   0.109 -0.3259  0.5765  0.2827
 3896SOL    HW123324   3.419   3.833   0.044  0.0520  1.5791  1.1608
 3896SOL    HW223325   3.367   3.757   0.166 -0.3519  2.2409  0.5198
 3897SOL     OW23326   2.419   3.527  10.445 -0.0448  0.3266  0.4559
 3897SOL    HW123327   2.447   3.448  10.398  3.1882  0.7032  1.7341
 3897SOL    HW223328   2.363   3.485  10.510 -2.1120  0.2895 -1.3262
 3898SOL     OW23329   3.938   4.155   4.210  0.5813  0.3890 -0.4956
 3898SOL    HW123330   4.020   4.154   4.260  0.1557  1.4811  0.2244
 3898SOL    HW223331   3.873   4.182   4.275  0.3102 -0.1046 -0.5687
 3899SOL     OW23332   2.615   3.054   4.848  0.2496 -0.0877  0.5179
 3899SOL    HW123333   2.586   3.129   4.796  0.7073 -1.2672 -1.4250
 3899SOL    HW223334   2.634   2.997   4.774 -0.4519 -0.5799  0.7173
 3900SOL     OW23335   3.975   3.176   3.381  0.1931 -0.0591 -0.0636
 3900SOL    HW123336   4.001   3.185   3.473 -1.4136  2.0867  0.1642
 3900SOL    HW223337   4.045   3.224   3.336  0.7966 -2.0938 -1.3063
 3901SOL     OW23338   1.854   3.657   7.913  0.6701  0.1287 -0.7015
 3901SOL    HW123339   1.808   3.734   7.878 -0.4954  0.1631  0.8873
 3901SOL    HW223340   1.785   3.592   7.898  0.9015 -0.2543 -0.1027
 3902SOL     OW23341   3.823   0.482   4.710  0.0316 -0.0331  0.5883
 3902SOL    HW123342   3.808   0.404   4.764 -0.9270  0.3248  0.8274
 3902SOL    HW223343   3.736   0.519   4.719  0.6960  1.8556 -0.8206
 3903SOL     OW23344   2.483   3.679   0.099 -0.0024  0.0362 -0.4033
 3903SOL    HW123345   2.576   3.693   0.080  0.3724  1.1487  2.2870
 3903SOL    HW223346   2.468   3.596   0.055 -0.9598 -0.3207  0.5880
 3904SOL     OW23347   1.673   2.205   9.566 -0.1244  0.6522  0.3803
 3904SOL    HW123348   1.612   2.131   9.573  1.4563 -0.5375  1.5418
 3904SOL    HW223349   1.745   2.151   9.533  0.3590  2.1302 -0.9239
 3905SOL     OW23350   1.274   0.205   6.337 -0.6438  0.1896  0.6607
 3905SOL    HW123351   1.238   0.202   6.425  0.1185  1.1782  1.0064
 3905SOL    HW223352   1.246   0.295   6.318 -1.1504  0.1240  1.1045
 3906SOL     OW23353   0.836   3.081   4.055  0.1281  0.0202 -0.1078
 3906SOL    HW123354   0.813   3.157   4.001 -1.5813 -0.6904 -0.3603
 3906SOL    HW223355   0.802   3.021   3.989 -1.4262 -0.6136  1.2889
 3907SOL     OW23356   0.666   4.155   8.700  0.1958  0.5620 -0.0077
 3907SOL    HW123357   0.651   4.068   8.737  2.7609 -0.4785 -1.4359
 3907SOL    HW223358   0.760   4.146   8.686  0.4823  2.8150  0.3828
 3908SOL     OW23359   2.300   1.507   1.846 -0.3178 -0.4708  0.0644
 3908SOL    HW123360   2.296   1.421   1.888 -0.7313 -1.5020 -2.0686
 3908SOL    HW223361   2.328   1.472   1.761  2.2696  0.5233  0.5031
 3909SOL     OW23362   2.051   1.399   3.213  0.1332 -0.2775 -0.3273
 3909SOL    HW123363   2.131   1.423   3.165 -0.0738 -0.1247 -0.5938
 3909SOL    HW223364   2.037   1.313   3.173  0.4363 -0.0172 -0.9978
 3910SOL     OW23365   3.840   1.892   7.767  0.4595 -0.6241  0.5118
 3910SOL    HW123366   3.752   1.921   7.790  1.0947  2.3990 -0.7875
 3910SOL    HW223367   3.882   1.855   7.845  0.9853  2.1986  1.6001
 3911SOL     OW23368   3.888   2.026  12.498  0.1417 -0.7053 -0.2647
 3911SOL    HW123369   3.951   2.075  12.551 -1.5133  1.5237 -0.3340
 3911SOL    HW223370   3.805   2.072  12.516  0.8709  0.5930 -0.2177
 3912SOL     OW23371   3.683   2.001   0.933 -0.4561 -0.1914 -0.3736
 3912SOL    HW123372   3.592   1.982   0.911 -0.1011 -2.9595  0.5548
 3912SOL    HW223373   3.720   2.040   0.854 -1.6458 -0.8988 -1.2673
 3913SOL     OW23374   2.710   3.430   7.193  0.6585 -0.1446 -0.1692
 3913SOL    HW123375   2.715   3.377   7.273 -0.5180  0.3640  0.2528
 3913SOL    HW223376   2.711   3.518   7.232  0.6753 -0.2547  0.0773
 3914SOL     OW23377   0.987   2.154   9.814 -0.0822  0.5005  0.0231
 3914SOL    HW123378   0.896   2.144   9.843 -0.4844 -1.8444 -2.0781
 3914SOL    HW223379   1.033   2.229   9.851 -0.5430  0.6399  0.3177
 3915SOL     OW23380   0.032   3.393   5.375  0.1393 -0.4627 -0.1597
 3915SOL    HW123381   0.039   3.488   5.365 -1.6417 -0.2154  0.9208
 3915SOL    HW223382   4.697   3.391   5.310  0.0148 -1.2414  0.0015
 3916SOL     OW23383   1.715   1.322   8.431 -0.2156 -0.0060 -0.0340
 3916SOL    HW123384   1.711   1.372   8.512 -2.2106  1.3821 -0.9963
 3916SOL    HW223385   1.792   1.366   8.394  0.6219 -0.6460  0.9470
 3917SOL     OW23386   3.295   3.668   6.095 -0.4603 -0.0086  0.0688
 3917SOL    HW123387   3.347   3.667   6.175  0.3678  0.4926 -0.4616
 3917SOL    HW223388   3.223   3.609   6.120 -0.4394  0.0929  0.3746
 3918SOL     OW23389   3.604   4.415  15.323 -0.4124  0.0801 -0.2023
 3918SOL    HW123390   3.619   4.326  15.356 -1.2458  0.1170  0.2779
 3918SOL    HW223391   3.624   4.405  15.230 -0.1128 -1.5577  0.0323
 3919SOL     OW23392   1.698   2.062  16.601 -0.1873 -0.0325 -0.2718
 3919SOL    HW123393   1.609   2.064  16.568 -0.6661 -0.2325  0.9854
 3919SOL    HW223394   1.715   1.972  16.573 -0.3402 -0.4499  0.9375
 3920SOL     OW23395   3.662   2.608   8.339  0.3420  0.4632 -0.0433
 3920SOL    HW123396   3.646   2.631   8.248 -2.5580 -2.7289 -0.3731
 3920SOL    HW223397   3.602   2.534   8.352  0.0641  0.7050  0.0373
 3921SOL     OW23398   0.458   0.994   6.755 -0.2347  0.3081 -0.1796
 3921SOL    HW123399   0.508   1.072   6.736  0.2624  0.3876  1.4279
 3921SOL    HW223400   0.367   1.021   6.771 -0.2387 -0.4241  1.0397
 3922SOL     OW23401   4.558   3.912  12.665  0.0064 -0.0476 -0.2412
 3922SOL    HW123402   4.618   3.931  12.593 -1.8434  0.8257 -1.5660
 3922SOL    HW223403   4.560   3.997  12.709 -1.4424  0.1161 -0.4945
 3923SOL     OW23404   2.671   4.003   5.880  0.7239  0.1498  0.3046
 3923SOL    HW123405   2.715   4.041   5.804 -1.1006 -2.1804 -1.8905
 3923SOL    HW223406   2.692   3.910   5.869  0.3488  0.0925  0.0967
 3924SOL     OW23407   0.914   4.566   4.101 -0.4927 -0.0595  0.0092
 3924SOL    HW123408   0.890   4.474   4.118 -1.0424 -0.0626 -0.7887
 3924SOL    HW223409   0.854   4.609   4.161  1.2595  0.0631  1.6828
 3925SOL     OW23410   1.619   3.669   2.520  0.2166 -0.6451 -0.6381
 3925SOL    HW123411   1.704   3.664   2.563 -0.4975 -1.4664  0.6879
 3925SOL    HW223412   1.563   3.701   2.590 -0.1269 -1.6893 -0.4284
 3926SOL     OW23413   1.724   4.597   3.354  0.0965  0.5313 -0.2241
 3926SOL    HW123414   1.760   4.599   3.265  0.0503 -1.6996 -0.2762
 3926SOL    HW223415   1.757   4.675   3.399 -1.6646  1.2545 -0.1393
 3927SOL     OW23416   3.014   2.341   6.295  0.6831 -0.0351 -0.3381
 3927SOL    HW123417   2.955   2.398   6.345  2.1163  2.1484 -1.1521
 3927SOL    HW223418   2.959   2.263   6.302  2.9215 -1.2891  3.3416
 3928SOL     OW23419   3.283   2.619   7.208  0.4692  0.1393 -0.2384
 3928SOL    HW123420   3.326   2.626   7.123  1.3021 -1.2113  0.0746
 3928SOL    HW223421   3.290   2.709   7.240  0.0769 -0.4534  1.4701
 3929SOL     OW23422   0.661   1.396   9.047  0.1529 -0.4012 -0.0816
 3929SOL    HW123423   0.754   1.414   9.061  0.4009 -1.1234 -0.8245
 3929SOL    HW223424   0.614   1.437   9.120 -0.4314 -0.0650 -0.6492
 3930SOL     OW23425   1.098   1.196   8.134 -0.2291 -0.1775  0.2846
 3930SOL    HW123426   1.143   1.238   8.061 -0.0506 -2.1075 -0.7341
 3930SOL    HW223427   1.167   1.197   8.200 -1.0679  0.3224  1.1510
 3931SOL     OW23428   3.230   1.214   4.471 -0.4976 -0.4256  0.8457
 3931SOL    HW123429   3.175   1.194   4.396 -0.0888 -1.7880  0.8899
 3931SOL    HW223430   3.302   1.264   4.432 -0.8152 -1.1032 -0.5959
 3932SOL     OW23431   0.454   2.479   5.709  0.0970  0.1105  0.1098
 3932SOL    HW123432   0.443   2.450   5.618 -0.4817  1.1945 -0.1608
 3932SOL    HW223433   0.411   2.405   5.751 -0.8023  0.1144 -0.8158
 3933SOL     OW23434   4.537   4.141   5.019 -0.8938  0.3508  0.5389
 3933SOL    HW123435   4.561   4.215   4.963  0.5066 -0.6753 -0.2345
 3933SOL    HW223436   4.620   4.118   5.060 -1.5829  0.1714  1.8441
 3934SOL     OW23437   1.160   0.540   3.990  0.7366  0.1522 -0.1609
 3934SOL    HW123438   1.078   0.490   3.984  0.1787  0.9644  0.7310
 3934SOL    HW223439   1.227   0.480   3.957 -1.8469 -2.4688 -0.6966
 3935SOL     OW23440   2.359   3.830   5.836  0.2135 -0.0349  0.2828
 3935SOL    HW123441   2.428   3.848   5.772 -0.2537 -1.6215 -0.6795
 3935SOL    HW223442   2.329   3.768   5.770 -2.0384  1.6970 -0.3006
 3936SOL     OW23443   0.169   4.590  11.849 -0.0699  0.0132  0.2592
 3936SOL    HW123444   0.231   4.568  11.780  1.4621  2.9122  0.7403
 3936SOL    HW223445   0.222   4.626  11.920  2.8169 -2.5300 -0.6227
 3937SOL     OW23446   4.577   0.962   3.935 -0.4957  0.4367  0.5863
 3937SOL    HW123447   4.518   0.890   3.957 -0.9031  0.6715  0.2663
 3937SOL    HW223448   4.530   1.030   3.982 -0.4106  0.1976  1.0200
 3938SOL     OW23449   4.515   3.439   3.417 -0.1676 -0.2691  0.0406
 3938SOL    HW123450   4.526   3.365   3.477 -0.1701  0.2488  0.6870
 3938SOL    HW223451   4.460   3.400   3.350  0.9905 -1.0917 -0.4198
 3939SOL     OW23452   3.200   0.590  12.721 -0.0275  0.6776  0.1548
 3939SOL    HW123453   3.198   0.678  12.757 -1.5939  0.6961 -0.0073
 3939SOL    HW223454   3.123   0.592  12.664 -0.6386 -1.9730  0.8823
 3940SOL     OW23455   2.867   2.812   4.423  0.3475  0.4077  0.0197
 3940SOL    HW123456   2.884   2.906   4.422 -0.2012  0.5257  0.9798
 3940SOL    HW223457   2.853   2.775   4.336  3.1078 -0.8234  0.1054
 3941SOL     OW23458   1.771   2.673   1.176  0.5904  0.0328 -0.3733
 3941SOL    HW123459   1.696   2.694   1.121  0.2417  1.1387  0.5306
 3941SOL    HW223460   1.805   2.762   1.173  1.8687 -0.4552 -0.3504
 3942SOL     OW23461   4.669   2.933   5.316  0.2992  0.2203  0.0808
 3942SOL    HW123462   0.028   2.948   5.324  0.1946 -1.0696  3.8613
 3942SOL    HW223463   4.647   2.887   5.397  2.3576 -0.1922  0.3980
 3943SOL     OW23464   4.452   2.730   0.325 -0.5537 -0.5840 -0.0515
 3943SOL    HW123465   4.461   2.715   0.231  1.1896  0.6655 -0.0753
 3943SOL    HW223466   4.499   2.813   0.330 -0.2622 -0.8579  1.6394
 3944SOL     OW23467   1.307   2.164  15.841 -0.0189  0.1236  0.4899
 3944SOL    HW123468   1.346   2.250  15.828 -1.5812  1.1614  2.6529
 3944SOL    HW223469   1.382   2.104  15.841 -0.9639 -1.0826  0.0830
 3945SOL     OW23470   4.647   0.644   8.587 -0.0334 -0.2514  0.1006
 3945SOL    HW123471   4.684   0.730   8.568 -2.0455  0.6148  0.1358
 3945SOL    HW223472   4.609   0.654   8.674 -1.8722  0.6582 -0.8046
 3946SOL     OW23473   2.091   4.684   9.855  0.2589  0.0231 -0.3502
 3946SOL    HW123474   2.166   4.715   9.804 -0.4829 -0.4974 -1.7575
 3946SOL    HW223475   2.110   4.714   9.944  2.5093 -0.5035 -0.6542
 3947SOL     OW23476   0.612   3.834   8.457 -0.4672  0.1378 -1.1324
 3947SOL    HW123477   0.610   3.751   8.409 -1.0419  1.6830 -3.7408
 3947SOL    HW223478   0.627   3.817   8.550  2.2624  2.2782 -1.1910
 3948SOL     OW23479   3.921   1.503   4.033 -0.3755  0.4418  0.5696
 3948SOL    HW123480   3.850   1.439   4.041 -1.2596  1.4794  1.0045
 3948SOL    HW223481   3.887   1.586   4.066  1.9553  1.3925  0.5660
 3949SOL     OW23482   3.823   3.190   4.503 -0.2150  0.2115  0.4170
 3949SOL    HW123483   3.797   3.137   4.429 -0.9351  1.9662 -0.5869
 3949SOL    HW223484   3.752   3.253   4.513 -1.8725 -1.7681  1.1450
 3950SOL     OW23485   1.908   4.619  16.877  0.2914  0.4430  0.2938
 3950SOL    HW123486   1.823   4.662  16.869 -0.7426 -1.8271 -0.8537
 3950SOL    HW223487   1.963   4.696  16.866  1.0024 -0.2205 -0.8005
 3951SOL     OW23488   1.051   0.354   5.356  0.0527  0.8208  0.3826
 3951SOL    HW123489   1.133   0.387   5.320 -0.4604  0.9752 -0.6227
 3951SOL    HW223490   1.061   0.375   5.449  0.2892 -1.2834  0.8297
 3952SOL     OW23491   0.805   2.443   4.374 -0.2740 -0.3496  0.3861
 3952SOL    HW123492   0.814   2.539   4.367 -0.7469 -0.4752 -2.0987
 3952SOL    HW223493   0.895   2.410   4.378  0.3468  1.2558 -0.1197
 3953SOL     OW23494   4.406   0.557  13.866  0.4154  1.0571 -0.1058
 3953SOL    HW123495   4.338   0.571  13.800 -1.3471 -1.5481  1.1500
 3953SOL    HW223496   4.465   0.506  13.809 -0.3360 -0.4665  0.4763
 3954SOL     OW23497   3.702   1.796   2.418 -0.2326  0.1760 -0.3837
 3954SOL    HW123498   3.670   1.722   2.367  0.9766 -1.2025  0.8953
 3954SOL    HW223499   3.761   1.752   2.479 -1.2318 -2.2496 -1.1601
 3955SOL     OW23500   4.208   3.288   8.563  0.2250  0.4443 -0.0855
 3955SOL    HW123501   4.188   3.226   8.492  1.7574 -2.0508  1.6346
 3955SOL    HW223502   4.132   3.346   8.556 -0.5840 -0.3197  2.4068
 3956SOL     OW23503   0.236   1.945   7.679 -0.0978  0.7068 -0.1056
 3956SOL    HW123504   0.209   1.902   7.598  0.2855 -1.9004  1.1522
 3956SOL    HW223505   0.154   1.950   7.728 -0.2413  1.2794 -0.4006
 3957SOL     OW23506   4.734   0.018   1.839  0.1492 -0.3205 -0.2925
 3957SOL    HW123507   4.722   4.659   1.848 -0.2375  0.1314  3.9870
 3957SOL    HW223508   4.643   0.046   1.851  0.0040 -0.6949 -0.5102
 3958SOL     OW23509   2.913   2.551   5.669  0.4619  0.4588  0.3083
 3958SOL    HW123510   2.842   2.551   5.605  1.1453  0.6712 -0.4575
 3958SOL    HW223511   2.971   2.617   5.630 -0.6896  1.6380  0.5787
 3959SOL     OW23512   4.249   0.613  12.091  0.2669  0.1135  0.4008
 3959SOL    HW123513   4.166   0.587  12.132  1.2164 -1.9577  1.0577
 3959SOL    HW223514   4.251   0.708  12.101  1.7121  0.0906  0.2459
 3960SOL     OW23515   4.349   1.591   2.575 -0.0303 -0.6370  0.0853
 3960SOL    HW123516   4.352   1.651   2.500 -0.9686  2.4744  2.5392
 3960SOL    HW223517   4.356   1.507   2.530 -3.2942  0.7890 -3.1115
 3961SOL     OW23518   2.317   3.781   6.743 -0.6001  0.5260  0.3602
 3961SOL    HW123519   2.248   3.725   6.779  0.0369  0.2489  1.1609
 3961SOL    HW223520   2.286   3.790   6.653  0.6746 -0.9889 -0.2289
 3962SOL     OW23521   3.688   1.938   5.333  0.4579  0.0882  0.8611
 3962SOL    HW123522   3.720   1.956   5.421 -2.7405  1.1376  1.8059
 3962SOL    HW223523   3.637   1.865   5.367 -0.3653  0.4550  0.4217
 3963SOL     OW23524   1.463   1.147   6.107 -0.5101  0.7547 -0.3677
 3963SOL    HW123525   1.451   1.089   6.182 -0.6486  0.8783 -0.2957
 3963SOL    HW223526   1.399   1.215   6.129 -1.7168 -0.9716  1.4363
 3964SOL     OW23527   1.220   2.603  13.105 -0.8288  0.2548 -0.7530
 3964SOL    HW123528   1.152   2.536  13.105 -3.2774  2.7018  2.0090
 3964SOL    HW223529   1.287   2.562  13.160  0.3393  1.5426 -1.2252
 3965SOL     OW23530   1.337   4.209  10.939 -0.2003  0.5739  0.3760
 3965SOL    HW123531   1.375   4.121  10.936 -0.2984  0.4976  1.4221
 3965SOL    HW223532   1.249   4.173  10.954 -0.3192 -0.0492 -1.7034
 3966SOL     OW23533   3.485   0.225  14.563 -0.0734 -0.1868  0.6695
 3966SOL    HW123534   3.548   0.161  14.530  0.3215  0.2562  0.5572
 3966SOL    HW223535   3.452   0.272  14.486 -0.2177 -1.2621  0.0740
 3967SOL     OW23536   0.926   3.220   1.557  0.1541  0.4657  0.6616
 3967SOL    HW123537   0.953   3.291   1.615  0.6918  0.4719  0.4027
 3967SOL    HW223538   1.010   3.190   1.522 -1.2890  0.2511 -2.6376
 3968SOL     OW23539   4.588   3.604  12.434 -0.4553  0.0124  0.2372
 3968SOL    HW123540   4.633   3.683  12.403  0.2798 -0.3617  0.3641
 3968SOL    HW223541   4.505   3.636  12.469 -0.5911 -0.6434  0.5266
 3969SOL     OW23542   1.192   3.638  16.057  0.8552  0.7168  0.6824
 3969SOL    HW123543   1.241   3.662  15.979 -2.6690 -0.7433 -1.9557
 3969SOL    HW223544   1.232   3.553  16.074  1.3642  0.3463 -2.4881
 3970SOL     OW23545   2.017   3.514   7.225 -0.1257  1.0066  0.5952
 3970SOL    HW123546   2.080   3.511   7.297 -0.2600 -1.7276  0.6067
 3970SOL    HW223547   2.067   3.510   7.143 -2.5178  1.2885 -0.8815
 3971SOL     OW23548   1.956   0.906   5.306 -0.8644 -0.3694 -0.0114
 3971SOL    HW123549   1.936   0.923   5.214  0.3283  0.7554 -0.0593
 3971SOL    HW223550   1.868   0.923   5.340 -1.0157 -0.4749 -0.3527
 3972SOL     OW23551   1.235   1.450  16.488 -0.1554  0.1588 -0.0104
 3972SOL    HW123552   1.178   1.451  16.564  0.2982 -0.2984  0.3412
 3972SOL    HW223553   1.194   1.504  16.420  0.8337  2.4901  1.2544
 3973SOL     OW23554   4.263   4.299   0.706 -0.1636  0.3671  0.1648
 3973SOL    HW123555   4.218   4.333   0.629 -0.0827  2.3987  1.0339
 3973SOL    HW223556   4.199   4.312   0.775  0.3713  0.5884  0.6230
 3974SOL     OW23557   2.767   1.814   2.984  0.1411 -0.1253  0.4091
 3974SOL    HW123558   2.709   1.850   3.051  0.0347  0.6866 -0.1197
 3974SOL    HW223559   2.849   1.815   3.032  0.4126  1.2633 -0.0778
 3975SOL     OW23560   1.528   3.664   4.303 -0.2011  0.4590  0.1820
 3975SOL    HW123561   1.551   3.585   4.352  0.0850  0.6979  0.4352
 3975SOL    HW223562   1.616   3.702   4.304  0.2443 -0.5690 -0.1656
 3976SOL     OW23563   4.100   3.479   6.896 -0.0499 -0.3672 -0.2228
 3976SOL    HW123564   4.146   3.539   6.837 -2.8568 -1.1967 -3.2271
 3976SOL    HW223565   4.177   3.439   6.936  0.1980  0.0378 -0.2914
 3977SOL     OW23566   3.912   2.730   7.955  0.3441 -0.1703  1.6500
 3977SOL    HW123567   3.946   2.806   7.908 -4.4206  0.6588 -0.5543
 3977SOL    HW223568   3.817   2.736   7.944  0.4734 -1.7838 -0.2821
 3978SOL     OW23569   3.273   4.234   5.181 -0.0171  0.6646  0.3479
 3978SOL    HW123570   3.275   4.330   5.179 -0.0611  0.6807  1.0587
 3978SOL    HW223571   3.204   4.218   5.244 -1.9994  2.4269 -1.3517
 3979SOL     OW23572   3.505   2.236   4.174 -0.7270 -0.6507  0.2492
 3979SOL    HW123573   3.541   2.195   4.252  0.9399  1.0912  0.3781
 3979SOL    HW223574   3.466   2.319   4.202 -0.6619 -1.1770  1.8822
 3980SOL     OW23575   3.852   0.700  11.933  0.0976 -0.0006 -0.5140
 3980SOL    HW123576   3.915   0.692  12.004  0.6991 -0.4444 -1.0973
 3980SOL    HW223577   3.853   0.795  11.921 -3.8242  0.0360 -0.5274
 3981SOL     OW23578   4.693   0.583   8.321 -0.2818  0.5824  0.4480
 3981SOL    HW123579   4.693   0.591   8.417  0.0910 -0.3732  0.5274
 3981SOL    HW223580   4.660   0.669   8.296  0.3973  1.5076  2.7020
 3982SOL     OW23581   2.366   4.003   5.576  0.7042  0.0674 -0.1690
 3982SOL    HW123582   2.301   3.984   5.509  2.5633  1.0326 -2.2938
 3982SOL    HW223583   2.409   4.077   5.531 -0.7703  1.8338  1.3439
 3983SOL     OW23584   0.316   2.413   2.552  0.1357 -0.2705  0.4540
 3983SOL    HW123585   0.229   2.450   2.536  0.2801  0.6466  1.7724
 3983SOL    HW223586   0.285   2.324   2.564 -2.2924  0.3211 -1.2241
 3984SOL     OW23587   3.863   3.775   6.096  0.1263 -0.2681  0.5259
 3984SOL    HW123588   3.846   3.865   6.067  0.5281 -0.5833 -0.7259
 3984SOL    HW223589   3.802   3.731   6.036  0.7612  0.6471 -0.7892
 3985SOL     OW23590   0.817   0.282  12.628  0.4463  0.5124 -0.5254
 3985SOL    HW123591   0.864   0.208  12.668 -1.5810 -0.2787  0.3937
 3985SOL    HW223592   0.732   0.243  12.648  1.0024 -1.0120 -1.1287
 3986SOL     OW23593   3.272   1.433   5.279  0.2074  1.0612  0.5994
 3986SOL    HW123594   3.222   1.438   5.198 -1.2786  0.1562  1.4580
 3986SOL    HW223595   3.275   1.526   5.302 -0.6873  1.0557  0.7489
 3987SOL     OW23596   1.762   1.503   5.531 -0.2818  0.2779 -0.0398
 3987SOL    HW123597   1.802   1.579   5.487  0.2110  0.0268 -0.0240
 3987SOL    HW223598   1.799   1.518   5.618  0.6537  0.8499 -0.5352
 3988SOL     OW23599   4.278   2.136   5.446 -0.1228  0.2453  0.1826
 3988SOL    HW123600   4.357   2.082   5.456 -0.4160  0.0228  1.2931
 3988SOL    HW223601   4.205   2.076   5.458 -0.1432  0.2534  0.1006
 3989SOL     OW23602   0.366   4.589   5.351 -0.0309  0.7909  0.3398
 3989SOL    HW123603   0.399   4.553   5.269  0.6585  1.5845  0.2715
 3989SOL    HW223604   0.423   4.549   5.416 -0.5592 -2.1247 -0.9500
 3990SOL     OW23605   4.280   1.753   8.493 -0.0264  0.5381 -0.0270
 3990SOL    HW123606   4.332   1.706   8.428  2.3941  0.9646  1.6044
 3990SOL    HW223607   4.257   1.680   8.551 -0.9541  0.5531 -0.3825
 3991SOL     OW23608   4.043   1.821   0.861 -0.1328 -0.0204 -0.0620
 3991SOL    HW123609   4.012   1.791   0.776 -0.0540 -1.6698  0.4916
 3991SOL    HW223610   3.961   1.810   0.909 -0.2311  1.0784  0.0272
 3992SOL     OW23611   2.890   2.183   9.806 -0.0877 -0.4393  0.0657
 3992SOL    HW123612   2.844   2.223   9.879  1.0227 -1.4321  1.3183
 3992SOL    HW223613   2.816   2.143   9.759 -1.3475  0.0964  1.6260
 3993SOL     OW23614   1.623   1.330  10.676 -0.3261 -0.4693 -0.3468
 3993SOL    HW123615   1.528   1.342  10.679 -0.0696  1.5483 -0.6048
 3993SOL    HW223616   1.654   1.419  10.690  0.3117 -0.2122 -3.3600
 3994SOL     OW23617   2.946   3.941   1.050  0.0420  0.2778 -0.3360
 3994SOL    HW123618   2.937   3.854   1.091  0.3862  0.6286  0.4807
 3994SOL    HW223619   2.892   3.942   0.971  1.8505 -2.0601 -1.6305
 3995SOL     OW23620   0.569   3.277   7.153  0.0046  0.4076 -0.0778
 3995SOL    HW123621   0.520   3.202   7.188 -0.4795  0.4568 -0.6574
 3995SOL    HW223622   0.659   3.246   7.155 -0.0976  0.0948 -0.3907
 3996SOL     OW23623   0.433   0.125  16.038 -0.2448 -0.2051 -0.1784
 3996SOL    HW123624   0.468   0.041  16.068  0.2094 -0.4501 -1.4157
 3996SOL    HW223625   0.511   0.180  16.048 -0.4477  0.1974 -0.8244
 3997SOL     OW23626   3.119   1.982   6.120  0.0208 -0.4568 -0.5400
 3997SOL    HW123627   3.174   2.032   6.180  0.7741 -0.8735 -0.8821
 3997SOL    HW223628   3.067   1.933   6.183  2.3532  0.7231  2.2845
 3998SOL     OW23629   1.596   2.543  15.346  0.0211 -0.2654  0.0814
 3998SOL    HW123630   1.680   2.574  15.381  0.3336 -0.9663 -0.0481
 3998SOL    HW223631   1.557   2.540  15.434  0.3655  2.7949  0.3377
 3999SOL     OW23632   0.128   2.456   9.366  0.5451  0.1321  0.3140
 3999SOL    HW123633   0.162   2.435   9.279 -1.6067  2.1776 -1.0233
 3999SOL    HW223634   0.192   2.407   9.417  1.6399  3.5120  2.1535
 4000SOL     OW23635   2.928   1.004   3.636  1.0410 -0.7283 -0.0406
 4000SOL    HW123636   3.023   1.012   3.643  1.0732 -2.3119  1.3325
 4000SOL    HW223637   2.898   1.063   3.705 -1.0522 -2.3928  0.4803
 4001SOL     OW23638   0.003   2.213   7.074  0.6248 -0.3305 -0.4454
 4001SOL    HW123639   0.069   2.169   7.128 -0.7410 -2.1043 -0.2135
 4001SOL    HW223640   0.055   2.236   6.997  2.4477  1.7506  1.3837
 4002SOL     OW23641   3.997   1.036   6.196 -0.0364  0.0140 -0.4576
 4002SOL    HW123642   3.924   0.997   6.147  0.0119  1.9154 -2.0282
 4002SOL    HW223643   4.008   0.967   6.261  0.1842  0.4258 -0.0527
 4003SOL     OW23644   2.596   3.854   2.457 -0.4186 -0.0393 -0.3610
 4003SOL    HW123645   2.508   3.892   2.457 -1.1023 -1.6123 -0.6874
 4003SOL    HW223646   2.613   3.866   2.550 -0.6365 -0.5109 -0.2597
 4004SOL     OW23647   3.687   0.173   3.878  0.3987 -0.1030  0.0001
 4004SOL    HW123648   3.733   0.214   3.805  0.5620 -0.4655 -0.1057
 4004SOL    HW223649   3.685   0.079   3.858 -2.3146 -0.1717  0.5499
 4005SOL     OW23650   1.042   2.731   4.678  0.4242  0.0755 -0.3553
 4005SOL    HW123651   0.970   2.794   4.685 -0.0864 -0.6805  1.2031
 4005SOL    HW223652   1.111   2.784   4.639  0.3978 -0.2805 -0.8788
 4006SOL     OW23653   0.268   0.773   6.609  0.5140  0.0090 -0.5078
 4006SOL    HW123654   0.199   0.751   6.673  1.8910 -1.4725  0.4654
 4006SOL    HW223655   0.317   0.822   6.675 -0.4209  0.7252 -0.3344
 4007SOL     OW23656   4.734   1.758  11.372 -0.8940 -0.0423  0.2732
 4007SOL    HW123657   0.016   1.827  11.435 -0.8754  1.3459 -1.2480
 4007SOL    HW223658   0.084   1.716  11.382 -0.7745 -0.3726 -2.1259
 4008SOL     OW23659   0.679   1.943   6.392  0.1451  0.5005 -0.0187
 4008SOL    HW123660   0.616   1.885   6.434  2.1754  0.3027  2.7121
 4008SOL    HW223661   0.749   1.937   6.457  0.6874  2.0993 -0.4522
 4009SOL     OW23662   3.472   3.711   8.971 -0.3929 -0.2626  0.1455
 4009SOL    HW123663   3.379   3.693   8.960 -0.0311 -1.9374 -0.2107
 4009SOL    HW223664   3.467   3.806   8.983  1.7646 -0.2148  0.5828
 4010SOL     OW23665   2.021   1.712  17.445 -0.3068  0.4275 -0.0582
 4010SOL    HW123666   2.066   1.710  17.530  1.4855 -0.2556 -1.0395
 4010SOL    HW223667   2.093   1.689  17.387  0.2219  0.4088  0.6075
 4011SOL     OW23668   0.281   3.545  11.844  0.0325  0.3423  0.5377
 4011SOL    HW123669   0.254   3.574  11.931  0.7905  0.2964  0.7887
 4011SOL    HW223670   0.196   3.560  11.802  0.2409  3.3558  1.2222
 4012SOL     OW23671   0.453   3.425   4.245  0.6264  0.1508 -0.0603
 4012SOL    HW123672   0.403   3.366   4.189  1.0836 -1.0083  0.7611
 4012SOL    HW223673   0.379   3.456   4.298  0.2826  1.4717 -1.3012
 4013SOL     OW23674   0.118   2.116   3.700 -0.2173 -0.3961  0.1791
 4013SOL    HW123675   0.189   2.170   3.734 -0.2265 -0.1679 -0.1691
 4013SOL    HW223676   0.080   2.082   3.781  0.5372 -2.0797 -0.1809
 4014SOL     OW23677   3.501   2.902  15.199  0.3841 -0.3585  0.3394
 4014SOL    HW123678   3.414   2.940  15.205  0.5560  0.4075 -1.7690
 4014SOL    HW223679   3.541   2.974  15.149  1.5906 -1.2247  0.0524
 4015SOL     OW23680   3.048   0.438   3.988 -0.0736 -0.3256  0.2610
 4015SOL    HW123681   3.040   0.449   4.083  1.6424  0.0659  0.3723
 4015SOL    HW223682   3.125   0.494   3.974 -0.4543  0.4879  1.3811
 4016SOL     OW23683   0.058   0.160  10.020 -0.0955  0.0968  0.2964
 4016SOL    HW123684   0.056   0.249   9.984  0.5254 -0.2098 -0.4882
 4016SOL    HW223685   0.150   0.139  10.008 -0.0413  1.1642 -1.2789
 4017SOL     OW23686   2.485   4.176   5.980  0.0009  0.2039  0.1925
 4017SOL    HW123687   2.555   4.126   5.936 -2.0958 -3.3959  0.9238
 4017SOL    HW223688   2.537   4.234   6.035  1.6837 -0.9870 -0.1382
 4018SOL     OW23689   4.524   3.551   4.165  0.2709 -0.4296  0.1408
 4018SOL    HW123690   4.520   3.583   4.255  0.4871 -2.2181  0.7875
 4018SOL    HW223691   4.530   3.633   4.116 -0.7862 -0.1880  0.4203
 4019SOL     OW23692   0.173   2.504   6.956 -0.0310 -0.0325 -0.4779
 4019SOL    HW123693   0.190   2.427   6.902  0.5897 -1.1334  1.2851
 4019SOL    HW223694   0.077   2.502   6.951 -0.0033 -1.3517 -0.5576
 4020SOL     OW23695   0.126   3.620   4.680  0.2533 -0.4525  0.0078
 4020SOL    HW123696   0.061   3.687   4.657  1.6202  0.5440 -0.9372
 4020SOL    HW223697   0.060   3.555   4.705  1.0800 -0.8322  1.1887
 4021SOL     OW23698   1.969   0.311   7.641  0.8881 -0.2848  0.0979
 4021SOL    HW123699   1.957   0.237   7.581  0.2385  1.1338 -1.4946
 4021SOL    HW223700   1.943   0.386   7.588  0.4158 -0.1816  0.4747
 4022SOL     OW23701   1.442   3.543  12.969  0.2955 -0.6959 -0.2128
 4022SOL    HW123702   1.411   3.600  13.040 -0.2115 -0.8943 -0.2712
 4022SOL    HW223703   1.391   3.462  12.974 -1.5074  0.5195  1.4114
 4023SOL     OW23704   4.412   1.528   6.529 -0.6377 -0.2957  0.3067
 4023SOL    HW123705   4.384   1.499   6.616 -0.2772 -0.1255  0.4776
 4023SOL    HW223706   4.331   1.555   6.487  0.0102  0.4424 -0.4636
 4024SOL     OW23707   3.213   2.018  13.241 -0.6226  0.0953  0.1534
 4024SOL    HW123708   3.148   1.969  13.291 -0.2968  0.4468  0.9153
 4024SOL    HW223709   3.214   2.100  13.292  0.0051  0.8557 -1.0778
 4025SOL     OW23710   2.958   3.357  17.261 -0.0130 -0.2516 -0.8057
 4025SOL    HW123711   3.020   3.287  17.246 -2.7587 -2.5685 -1.2985
 4025SOL    HW223712   2.981   3.433  17.207 -1.1762  0.8746  0.2666
 4026SOL     OW23713   2.019   1.340   8.347  0.2526  0.2555  0.2035
 4026SOL    HW123714   1.950   1.405   8.335  0.3158  0.5510  1.4080
 4026SOL    HW223715   2.010   1.286   8.269 -1.9294 -1.8911  1.9276
 4027SOL     OW23716   3.529   2.255   9.095 -0.9033  0.0267 -0.4312
 4027SOL    HW123717   3.466   2.286   9.030 -0.1809 -1.6543 -1.9347
 4027SOL    HW223718   3.506   2.303   9.175 -0.8103  0.9515 -0.9507
 4028SOL     OW23719   4.251   4.362   1.964 -0.0114 -0.2163  0.3290
 4028SOL    HW123720   4.277   4.447   1.928  0.9965 -0.5025  0.3814
 4028SOL    HW223721   4.183   4.336   1.901 -1.8158  2.5367  1.1648
 4029SOL     OW23722   2.023   1.250  15.993  0.5319  0.0505  0.0082
 4029SOL    HW123723   2.032   1.182  15.926 -1.6866 -0.9775  0.7295
 4029SOL    HW223724   2.060   1.317  15.936 -2.0313  1.6915  0.2886
 4030SOL     OW23725   2.774   3.199   1.899  0.1507  0.0791 -0.1536
 4030SOL    HW123726   2.682   3.189   1.923  0.8365  0.4890  2.5601
 4030SOL    HW223727   2.802   3.108   1.908  1.4748  0.6972  2.0034
 4031SOL     OW23728   2.360   2.399  17.145 -0.3914 -0.1621 -0.2050
 4031SOL    HW123729   2.410   2.468  17.189  1.3563 -0.9265 -0.9832
 4031SOL    HW223730   2.369   2.328  17.208  0.2269 -0.2737 -0.4190
 4032SOL     OW23731   2.035   3.269   7.820  0.0858  0.0691  0.2551
 4032SOL    HW123732   2.053   3.175   7.819 -2.4688 -0.4165 -1.1137
 4032SOL    HW223733   2.022   3.289   7.912 -2.5146 -0.2491 -0.0346
 4033SOL     OW23734   2.650   1.787   2.092  0.4244 -0.5252  0.8161
 4033SOL    HW123735   2.624   1.739   2.014  0.3137  0.9730 -0.0741
 4033SOL    HW223736   2.721   1.845   2.063 -1.8890  1.7538 -0.2441
 4034SOL     OW23737   4.104   1.441   5.152 -0.2478  0.5018 -0.1306
 4034SOL    HW123738   4.014   1.438   5.183 -0.2043  0.2460 -0.0263
 4034SOL    HW223739   4.104   1.356   5.107  2.1072 -0.3549  1.5192
 4035SOL     OW23740   2.222   0.885  15.236  0.6941  0.2889  0.1899
 4035SOL    HW123741   2.199   0.971  15.269  0.4975 -0.4399  1.9271
 4035SOL    HW223742   2.220   0.903  15.142  0.5401  0.2573  0.1870
 4036SOL     OW23743   1.923   0.333   4.452 -0.2353  0.0210 -0.1735
 4036SOL    HW123744   1.923   0.419   4.494 -0.8998 -1.0520  2.0296
 4036SOL    HW223745   1.926   0.359   4.360 -0.1246  1.9151  0.3491
 4037SOL     OW23746   2.772   4.020  17.470  0.1037 -0.6049 -0.0229
 4037SOL    HW123747   2.861   4.047  17.496 -0.1187  1.6881 -1.6402
 4037SOL    HW223748   2.761   3.939  17.519  2.2825  0.4138  2.1800
 4038SOL     OW23749   0.842   4.088   5.886  0.0151 -0.0988 -0.0179
 4038SOL    HW123750   0.884   4.021   5.833 -0.7184  0.4961 -1.3513
 4038SOL    HW223751   0.804   4.054   5.968  0.0521  1.9777  0.8520
 4039SOL     OW23752   3.849   0.639   6.971  0.4267 -0.4812  0.2800
 4039SOL    HW123753   3.896   0.681   7.043  1.4264 -0.9386 -0.1023
 4039SOL    HW223754   3.765   0.626   7.016 -0.0665 -1.1064 -0.8273
 4040SOL     OW23755   0.750   3.642   3.194 -0.0508 -0.3835 -0.4336
 4040SOL    HW123756   0.667   3.689   3.204 -0.3930 -0.7693 -1.4555
 4040SOL    HW223757   0.728   3.570   3.254 -2.4719 -0.5158 -1.4520
 4041SOL     OW23758   1.290   2.912  12.813 -0.3588  0.1365 -0.4377
 4041SOL    HW123759   1.320   2.995  12.849 -2.2566  1.0346 -0.9396
 4041SOL    HW223760   1.212   2.891  12.863  0.2544  0.6382  0.7238
 4042SOL     OW23761   2.049   1.953   3.719  0.4010 -0.1794  0.2141
 4042SOL    HW123762   2.125   1.999   3.681 -0.7952  1.6200 -0.0204
 4042SOL    HW223763   2.011   1.924   3.636  1.4549 -2.6976  0.6052
 4043SOL     OW23764   3.712   4.633   3.774  0.2006  0.6944  0.3349
 4043SOL    HW123765   3.635   4.596   3.731  0.7543 -0.6866  0.5491
 4043SOL    HW223766   3.761   4.645   3.693  1.3558  0.4046  0.9869
 4044SOL     OW23767   2.161   3.687   0.567  0.2868  0.5043  0.1776
 4044SOL    HW123768   2.131   3.654   0.652 -0.6789 -0.7310 -0.6387
 4044SOL    HW223769   2.226   3.620   0.550 -0.6453 -0.7204  1.4351
 4045SOL     OW23770   1.980   2.982   7.962 -0.2325 -0.1993 -0.2507
 4045SOL    HW123771   2.013   2.904   8.006 -0.8344 -1.6991 -2.4323
 4045SOL    HW223772   1.891   2.958   7.937 -0.9895  1.0529  1.2224
 4046SOL     OW23773   3.887   4.685   2.948 -0.1395 -0.0908  0.0753
 4046SOL    HW123774   3.972   4.721   2.924 -0.0238  0.4768  1.2954
 4046SOL    HW223775   3.820   4.723   2.890 -1.3144 -0.4891  1.1613
 4047SOL     OW23776   1.699   0.212   3.786 -0.2018  0.1162  0.0014
 4047SOL    HW123777   1.700   0.303   3.756  3.2797 -0.7714 -2.6205
 4047SOL    HW223778   1.732   0.170   3.706  1.5722  0.0987  0.7225
 4048SOL     OW23779   3.067   0.320   4.429 -0.0804 -0.4405  0.3996
 4048SOL    HW123780   3.036   0.397   4.381  0.6671  0.6694  1.6817
 4048SOL    HW223781   2.979   0.289   4.453 -1.2855  1.4513 -1.5857
 4049SOL     OW23782   1.564   4.106  10.055 -0.1919  0.6336  0.1133
 4049SOL    HW123783   1.563   4.081  10.148  1.1631  0.1402 -0.0143
 4049SOL    HW223784   1.656   4.132  10.049 -0.1092  0.6619  1.3932
 4050SOL     OW23785   0.221   0.149   8.526 -0.2843  0.4106  0.5512
 4050SOL    HW123786   0.291   0.211   8.506 -0.7573  0.4325 -1.0186
 4050SOL    HW223787   0.250   0.074   8.474 -1.2917  1.2612 -1.2367
 4051SOL     OW23788   0.386   2.057   8.390  0.0682 -0.2506  0.1751
 4051SOL    HW123789   0.315   2.030   8.448 -0.1607  0.4363  0.2161
 4051SOL    HW223790   0.368   2.003   8.313 -2.8092 -0.8633  1.2693
 4052SOL     OW23791   4.441   2.780   1.900  0.1210  0.2125  0.4965
 4052SOL    HW123792   4.486   2.783   1.985 -0.3527 -1.7971  0.8209
 4052SOL    HW223793   4.453   2.871   1.874 -1.4744  0.8167  1.8918
 4053SOL     OW23794   3.776   2.786   0.539 -0.2092  0.0140  0.1902
 4053SOL    HW123795   3.770   2.691   0.532 -0.9653  0.2270 -1.9833
 4053SOL    HW223796   3.844   2.793   0.607  1.4340  3.4428 -1.7798
 4054SOL     OW23797   2.291   3.126   3.218 -0.5116  0.1750  0.0993
 4054SOL    HW123798   2.333   3.041   3.231 -1.0627 -0.1480 -0.2178
 4054SOL    HW223799   2.357   3.168   3.164 -0.2113  1.1993  1.2720
 4055SOL     OW23800   3.262   1.750   7.484  0.0936 -0.0427  0.1940
 4055SOL    HW123801   3.203   1.812   7.526 -0.0229  1.4706 -2.2385
 4055SOL    HW223802   3.281   1.690   7.557  3.2530 -0.7465 -1.2382
 4056SOL     OW23803   0.667   4.284   3.585 -0.2041  0.0053  0.0400
 4056SOL    HW123804   0.652   4.374   3.558  2.3799  0.3355 -0.3231
 4056SOL    HW223805   0.720   4.288   3.664 -0.5917 -0.8685  0.3489
 4057SOL     OW23806   0.726   1.564   6.515  0.2532 -0.1777  0.0099
 4057SOL    HW123807   0.686   1.650   6.507 -1.8798 -1.5022 -3.9886
 4057SOL    HW223808   0.818   1.584   6.534 -0.1190 -0.5865  2.1837
 4058SOL     OW23809   3.589   0.896   6.511 -0.0361  0.6346 -0.0021
 4058SOL    HW123810   3.606   0.913   6.604  3.2851  1.9933 -0.8524
 4058SOL    HW223811   3.554   0.984   6.497 -1.9962  0.1135  1.6490
 4059SOL     OW23812   4.347   0.748   8.857 -0.3610  0.7645 -0.1559
 4059SOL    HW123813   4.432   0.705   8.855 -1.7826 -2.0731 -0.1363
 4059SOL    HW223814   4.285   0.686   8.895  0.3879 -0.0292 -0.2283
 4060SOL     OW23815   0.510   2.267   6.824  0.0842  0.0657 -0.1318
 4060SOL    HW123816   0.572   2.326   6.868  1.5653 -1.9752  0.4975
 4060SOL    HW223817   0.563   2.225   6.756 -1.3665 -0.1564 -1.1288
 4061SOL     OW23818   2.523   2.338   5.011  0.0098 -0.1630  0.0956
 4061SOL    HW123819   2.518   2.286   5.092 -2.6758  0.0316  0.0763
 4061SOL    HW223820   2.447   2.395   5.021  1.3327  1.5086  0.4692
 4062SOL     OW23821   3.957   4.499  15.246  0.2494  0.5034  0.4235
 4062SOL    HW123822   3.925   4.410  15.234  3.2956 -0.4010 -1.0755
 4062SOL    HW223823   3.897   4.551  15.192 -0.4664 -0.4005  0.3604
 4063SOL     OW23824   1.291   1.236   5.110  0.4045  0.1129  0.0374
 4063SOL    HW123825   1.222   1.301   5.101  0.2912  0.3845  2.8331
 4063SOL    HW223826   1.295   1.200   5.021 -0.1934  1.9948 -0.7334
 4064SOL     OW23827   3.454   4.254   3.050 -0.2602  0.3990 -0.0007
 4064SOL    HW123828   3.427   4.342   3.076 -0.1354  0.1648  0.9180
 4064SOL    HW223829   3.501   4.243   3.132 -2.5392  0.0805  1.2837
 4065SOL     OW23830   3.647   2.731   7.823  0.4490 -0.4683 -0.0448
 4065SOL    HW123831   3.557   2.761   7.838  0.3221 -1.4349  1.1533
 4065SOL    HW223832   3.664   2.788   7.748  0.8415 -0.5109  0.0145
 4066SOL     OW23833   1.079   2.323   4.918 -0.1061  0.5354  0.4267
 4066SOL    HW123834   1.085   2.418   4.918 -1.7078  0.6302  0.1285
 4066SOL    HW223835   1.013   2.311   4.850 -0.7806 -0.3582  1.2398
 4067SOL     OW23836   2.851   1.381   4.643 -0.0578  0.0344 -0.0743
 4067SOL    HW123837   2.850   1.391   4.738  0.8697  1.4739 -0.2158
 4067SOL    HW223838   2.765   1.417   4.627  0.0548 -0.3776 -1.5908
 4068SOL     OW23839   1.046   4.545   2.839  0.2279 -0.1254  0.2409
 4068SOL    HW123840   1.068   4.453   2.850  0.2615 -0.4294 -2.5348
 4068SOL    HW223841   0.952   4.539   2.821  0.0092  0.0582  1.3072
 4069SOL     OW23842   1.464   0.766   1.227 -0.0764 -0.6947 -0.1107
 4069SOL    HW123843   1.537   0.711   1.199 -0.5522 -0.7611 -1.2206
 4069SOL    HW223844   1.506   0.843   1.265 -0.9214 -0.1389 -0.3058
 4070SOL     OW23845   2.204   4.295   2.020  0.4310  0.1769  0.3995
 4070SOL    HW123846   2.258   4.216   2.015  0.3860  0.0680  1.5404
 4070SOL    HW223847   2.254   4.343   2.087  2.0658  0.4707 -1.0369
 4071SOL     OW23848   0.598   1.251   4.010  0.2014 -0.1353  0.2775
 4071SOL    HW123849   0.528   1.309   4.041 -0.3772 -0.5187 -0.3091
 4071SOL    HW223850   0.615   1.211   4.095 -0.2720  0.1023  0.4873
 4072SOL     OW23851   1.611   0.489   7.820  0.0693  0.2136 -0.2160
 4072SOL    HW123852   1.641   0.417   7.877 -0.1241  0.4080  0.1315
 4072SOL    HW223853   1.619   0.555   7.889 -0.5964 -0.2015  0.2605
 4073SOL     OW23854   0.093   0.095   2.289  0.6838 -0.2978  0.1668
 4073SOL    HW123855   0.078   0.127   2.200  2.2071  0.4796  0.1951
 4073SOL    HW223856   0.052   0.174   2.326 -0.9270 -1.1682  0.2483
 4074SOL     OW23857   2.035   1.661   1.805 -0.5147 -0.2194 -0.6017
 4074SOL    HW123858   2.037   1.681   1.712  0.4448  2.4497 -0.0177
 4074SOL    HW223859   1.942   1.641   1.809 -0.3186 -1.2556 -1.3001
 4075SOL     OW23860   2.894   2.693  11.182 -0.3228 -0.2758 -0.3660
 4075SOL    HW123861   2.844   2.760  11.228 -0.8712 -1.5823  0.9401
 4075SOL    HW223862   2.979   2.733  11.166 -0.1826 -0.2791  0.3977
 4076SOL     OW23863   1.670   2.687   9.355  0.7568 -0.9417  0.6647
 4076SOL    HW123864   1.584   2.653   9.381  0.1247  0.7847  0.8328
 4076SOL    HW223865   1.661   2.782   9.359  0.4495 -0.9156 -0.5936
 4077SOL     OW23866   3.105   3.469   6.182 -0.2587  0.1219  0.2321
 4077SOL    HW123867   3.166   3.441   6.250  0.0950  0.8868  0.2347
 4077SOL    HW223868   3.052   3.537   6.223 -3.0147 -0.9261 -1.6020
 4078SOL     OW23869   1.816   2.247   1.671  0.4585  0.0929 -0.0486
 4078SOL    HW123870   1.907   2.230   1.645  1.3404  2.1449  1.7226
 4078SOL    HW223871   1.827   2.263   1.765  1.5090 -0.3036 -0.0993
 4079SOL     OW23872   4.082   3.465  17.172 -0.1362 -0.4979 -0.0405
 4079SOL    HW123873   4.119   3.545  17.136  0.5683 -0.7068  0.2106
 4079SOL    HW223874   4.158   3.409  17.193  0.3403  1.2321  2.9288
 4080SOL     OW23875   4.357   3.672  14.892  0.1625  0.2896  0.0239
 4080SOL    HW123876   4.350   3.732  14.966 -0.7341  0.1415  0.0599
 4080SOL    HW223877   4.309   3.596  14.924 -0.5570  1.3083  1.3622
 4081SOL     OW23878   3.599   1.689   7.877  0.1240 -0.0649  0.1337
 4081SOL    HW123879   3.590   1.708   7.784  0.0340  2.5039  0.6558
 4081SOL    HW223880   3.544   1.756   7.919  2.5246  0.1612  2.9480
 4082SOL     OW23881   2.404   0.196   3.233  0.2317  0.4403 -0.2295
 4082SOL    HW123882   2.403   0.195   3.328 -0.1639  2.8322 -0.2140
 4082SOL    HW223883   2.465   0.269   3.228  0.8792 -0.1758 -1.4642
 4083SOL     OW23884   2.751   1.879   6.173 -0.1155 -0.2001 -0.9322
 4083SOL    HW123885   2.835   1.864   6.215 -1.4194 -2.5347  0.8575
 4083SOL    HW223886   2.732   1.969   6.200 -0.3067 -0.6126  0.3026
 4084SOL     OW23887   0.620   2.307  11.829 -0.0525  0.0043  0.4632
 4084SOL    HW123888   0.614   2.212  11.815 -0.4843 -0.0080  0.7066
 4084SOL    HW223889   0.709   2.319  11.797  0.7031 -1.1955  2.1444
 4085SOL     OW23890   1.610   3.038   5.106 -0.7193  0.6925 -0.4997
 4085SOL    HW123891   1.628   3.045   5.012 -3.7173  1.4502 -1.0060
 4085SOL    HW223892   1.516   3.022   5.115 -0.1981 -0.5035  2.6011
 4086SOL     OW23893   1.092   3.531   1.167  0.7211  0.2959 -0.0796
 4086SOL    HW123894   1.035   3.458   1.146  1.4775 -0.2525 -0.2322
 4086SOL    HW223895   1.101   3.561   1.076 -0.3434 -2.8460 -1.2313
 4087SOL     OW23896   0.182   2.676   5.247  0.1392  0.1338  0.6437
 4087SOL    HW123897   0.087   2.670   5.262  0.2209 -1.0460  0.6413
 4087SOL    HW223898   0.189   2.715   5.160 -0.8080 -0.6757  0.2068
 4088SOL     OW23899   0.451   4.062   5.388 -0.2402  0.8638 -0.1037
 4088SOL    HW123900   0.430   4.109   5.308 -0.5743  1.5820  0.4122
 4088SOL    HW223901   0.502   3.987   5.357 -0.2627 -0.1355  2.2278
 4089SOL     OW23902   4.421   2.100   3.707 -0.0902 -0.1368 -0.0003
 4089SOL    HW123903   4.463   2.047   3.775  0.3128 -2.0312 -1.7359
 4089SOL    HW223904   4.341   2.136   3.747 -0.3285 -1.8057  1.0483
 4090SOL     OW23905   3.834   3.005   7.046 -0.2558  0.0356  0.1913
 4090SOL    HW123906   3.768   2.937   7.034 -0.6609 -0.0132  2.6850
 4090SOL    HW223907   3.913   2.952   7.049  0.6198  1.3560  0.8279
 4091SOL     OW23908   1.838   0.070   5.870  0.2909 -0.3377  1.0291
 4091SOL    HW123909   1.842   0.066   5.966 -4.3509  1.2025  1.2756
 4091SOL    HW223910   1.924   0.112   5.862  1.0658 -2.0820  0.1202
 4092SOL     OW23911   1.845   4.169   8.336  0.1497  0.3317  0.6982
 4092SOL    HW123912   1.848   4.223   8.414 -0.9568  0.5246  0.6052
 4092SOL    HW223913   1.765   4.118   8.343  0.6757 -0.7239 -0.8774
 4093SOL     OW23914   3.782   2.415   5.302  0.1058 -0.5086  0.3012
 4093SOL    HW123915   3.851   2.352   5.282 -0.3071 -0.2314 -2.0147
 4093SOL    HW223916   3.823   2.473   5.366  0.0028 -1.6431  1.4011
 4094SOL     OW23917   2.393   4.529   1.585 -0.0117  0.1121  0.2252
 4094SOL    HW123918   2.416   4.447   1.542  0.8445  0.4527  0.0334
 4094SOL    HW223919   2.322   4.563   1.532  0.4561 -0.7761 -0.9630
 4095SOL     OW23920   2.380   0.693  13.336 -0.0377  0.7886  0.2366
 4095SOL    HW123921   2.290   0.660  13.331 -0.1862  1.2873 -0.3155
 4095SOL    HW223922   2.401   0.727  13.423 -1.3285  0.1435  0.8011
 4096SOL     OW23923   2.483   0.036   9.997 -0.3723 -0.4283 -0.1692
 4096SOL    HW123924   2.480   0.126   9.964 -0.4187 -0.7974 -1.1596
 4096SOL    HW223925   2.497   4.718   9.919 -1.0238 -0.3078 -0.3659
 4097SOL     OW23926   2.545   2.562   2.221 -0.3387  0.0856 -0.2915
 4097SOL    HW123927   2.580   2.476   2.246 -1.0638  0.3721  1.6696
 4097SOL    HW223928   2.490   2.582   2.297  0.1190 -0.2169  0.1250
 4098SOL     OW23929   4.237   2.921  13.749  0.8124 -0.0095  0.0651
 4098SOL    HW123930   4.267   2.925  13.658 -0.4810 -0.3310 -0.3808
 4098SOL    HW223931   4.315   2.943  13.800  1.4130  0.0500 -0.8849
 4099SOL     OW23932   4.291   4.245   3.455 -0.1532  0.4094  0.4443
 4099SOL    HW123933   4.269   4.159   3.490 -0.1902 -0.2250 -1.1342
 4099SOL    HW223934   4.279   4.303   3.530 -3.4584 -0.5131  0.6249
 4100SOL     OW23935   0.041   0.187   2.047  0.2508 -0.3364 -0.0914
 4100SOL    HW123936   0.031   0.112   1.990  0.6787 -1.4310  1.2824
 4100SOL    HW223937   0.007   0.257   1.991 -1.6593 -1.4076 -0.2652
 4101SOL     OW23938   0.375   2.519   6.476  0.2837 -0.0956  0.2256
 4101SOL    HW123939   0.280   2.523   6.480  0.3724 -0.3640  2.8117
 4101SOL    HW223940   0.405   2.600   6.436 -0.5495  0.5506  0.9017
 4102SOL     OW23941   1.088   2.151  15.109 -0.0370 -0.3051 -0.1250
 4102SOL    HW123942   1.176   2.113  15.116 -0.0240 -0.3554 -0.5650
 4102SOL    HW223943   1.059   2.105  15.030 -0.2642  1.0672 -0.8298
 4103SOL     OW23944   3.784   1.709   7.079  0.3212 -0.0479 -0.0491
 4103SOL    HW123945   3.733   1.733   7.001 -1.1291 -0.1650  0.8680
 4103SOL    HW223946   3.742   1.766   7.144 -2.7686 -0.9663 -1.2403
 4104SOL     OW23947   4.518   0.411   9.536  0.0444  0.0504  0.4056
 4104SOL    HW123948   4.472   0.331   9.511  1.9837 -0.4628 -1.6089
 4104SOL    HW223949   4.553   0.388   9.622  2.4050 -0.9904 -0.8280
 4105SOL     OW23950   2.574   2.219   2.843  0.0740 -0.2077  0.1711
 4105SOL    HW123951   2.557   2.144   2.786 -0.6323  0.2913 -0.2637
 4105SOL    HW223952   2.670   2.224   2.836 -0.0814  1.9094 -0.5150
 4106SOL     OW23953   2.315   2.304   6.710 -0.5045 -0.2034  0.3554
 4106SOL    HW123954   2.348   2.315   6.799 -0.4681 -1.8031  0.5469
 4106SOL    HW223955   2.396   2.307   6.659 -0.3308  1.0200  0.7174
 4107SOL     OW23956   4.372   4.337   8.390  0.8044  0.8705  0.3276
 4107SOL    HW123957   4.354   4.430   8.375  1.0244  1.1958  2.0730
 4107SOL    HW223958   4.408   4.315   8.304 -1.5859 -0.2286 -0.3912
 4108SOL     OW23959   1.163   4.004   5.910  0.0844 -0.4864 -0.0106
 4108SOL    HW123960   1.186   3.983   6.001 -1.5443  0.5846  0.6559
 4108SOL    HW223961   1.228   3.955   5.860  0.6856  1.7272 -1.4324
 4109SOL     OW23962   2.781   0.686   0.915 -0.1524  0.2048 -0.2704
 4109SOL    HW123963   2.749   0.681   1.005  0.1255 -1.0413 -0.2389
 4109SOL    HW223964   2.751   0.771   0.884 -1.0264 -0.4074 -1.1092
 4110SOL     OW23965   0.282   3.393   2.288 -0.3375 -0.0797 -0.1359
 4110SOL    HW123966   0.266   3.422   2.198  1.5779  0.6674 -0.2514
 4110SOL    HW223967   0.311   3.475   2.329  0.0290  0.6442 -1.8326
 4111SOL     OW23968   3.257   0.178   7.328 -0.0181 -0.0808 -0.0356
 4111SOL    HW123969   3.170   0.142   7.312  0.6720 -1.1628 -1.3728
 4111SOL    HW223970   3.250   0.271   7.308 -1.1425 -0.5987 -1.9978
 4112SOL     OW23971   3.244   4.198  17.540  0.6714 -0.1702  0.0331
 4112SOL    HW123972   3.172   4.134  17.542  0.9475 -0.5080 -0.7346
 4112SOL    HW223973   3.203   4.253  17.473 -1.1828 -0.6302  0.8019
 4113SOL     OW23974   2.498   3.491  14.468 -0.6685 -0.0240  0.0890
 4113SOL    HW123975   2.435   3.530  14.408 -1.3307  0.6989  1.2565
 4113SOL    HW223976   2.527   3.414  14.419 -1.4007 -0.0133 -0.3582
 4114SOL     OW23977   3.091   3.139   1.368 -0.7100 -0.4245  0.6820
 4114SOL    HW123978   3.165   3.200   1.373 -0.6849 -0.3361 -0.8869
 4114SOL    HW223979   3.024   3.183   1.316 -0.9078  1.3391  2.4374
 4115SOL     OW23980   1.176   4.395   6.756 -0.1700 -0.0961 -0.4698
 4115SOL    HW123981   1.222   4.478   6.743  0.4418 -0.0701  1.7988
 4115SOL    HW223982   1.208   4.350   6.678 -0.3975 -0.5488 -0.3030
 4116SOL     OW23983   3.098   4.501  11.101 -0.2969  0.0700 -0.1075
 4116SOL    HW123984   3.138   4.503  11.188  2.9487  0.0393 -1.6117
 4116SOL    HW223985   3.151   4.573  11.066  0.5069  0.2940  1.5412
 4117SOL     OW23986   3.188   0.398   7.600  0.2217 -0.1358  0.0173
 4117SOL    HW123987   3.150   0.310   7.596  0.1349 -0.0286 -1.6685
 4117SOL    HW223988   3.126   0.419   7.669 -0.7560 -0.1272 -0.8564
 4118SOL     OW23989   3.047   3.015   4.463 -0.1283  0.2935  0.0103
 4118SOL    HW123990   3.103   3.083   4.424 -1.9990  1.3767 -0.7591
 4118SOL    HW223991   3.077   3.030   4.553 -0.1611 -0.6233  0.1737
 4119SOL     OW23992   0.985   1.294  12.701  0.3181 -0.1503 -0.4374
 4119SOL    HW123993   1.008   1.229  12.767 -0.7661 -1.1123 -1.0001
 4119SOL    HW223994   0.917   1.255  12.646  1.0509 -0.3245 -1.2177
 4120SOL     OW23995   3.804   0.537   7.302  0.8395 -0.1370 -0.3122
 4120SOL    HW123996   3.840   0.599   7.366  1.3529 -1.5279  0.7344
 4120SOL    HW223997   3.882   0.483   7.291  0.5001 -0.5804 -0.5395
 4121SOL     OW23998   1.276   2.949   9.448  0.1483  0.5508 -0.5917
 4121SOL    HW123999   1.315   2.981   9.367 -0.4001 -0.5113 -1.2738
 4121SOL    HW224000   1.306   3.004   9.521 -2.3204  2.5340 -1.0888
 4122SOL     OW24001   0.186   1.074   6.767 -0.1299  0.1341  0.0350
 4122SOL    HW124002   0.131   1.126   6.708 -0.9403 -1.3183 -0.4651
 4122SOL    HW224003   0.124   1.031   6.826 -0.6204  0.2516 -0.3938
 4123SOL     OW24004   4.138   2.262   5.059 -0.2907  0.0119  0.3656
 4123SOL    HW124005   4.165   2.180   5.018  0.6948  0.8037 -0.6004
 4123SOL    HW224006   4.226   2.300   5.059 -0.5613  0.6661 -1.1238
 4124SOL     OW24007   2.779   3.176   6.857  0.4613 -0.4412  0.4943
 4124SOL    HW124008   2.808   3.120   6.785 -0.1841 -0.3214  0.1414
 4124SOL    HW224009   2.757   3.251   6.802  1.9586 -0.0184  0.4574
 4125SOL     OW24010   2.305   3.566   8.413  0.5558  0.4191  0.1008
 4125SOL    HW124011   2.264   3.594   8.495  0.1823 -0.5353  0.2415
 4125SOL    HW224012   2.237   3.542   8.350  2.2704  1.7095 -2.2334
 4126SOL     OW24013   2.347   3.912   0.532 -0.0357 -0.2557  0.0041
 4126SOL    HW124014   2.301   3.907   0.448 -1.3129 -0.3827  0.7170
 4126SOL    HW224015   2.300   3.837   0.569 -0.5716 -0.6350 -1.4437
 4127SOL     OW24016   3.626   0.155   7.884 -0.0543 -0.2584 -0.4351
 4127SOL    HW124017   3.552   0.216   7.878  2.0199  2.2354 -0.7155
 4127SOL    HW224018   3.623   0.145   7.979 -1.5024  1.8794 -0.2460
 4128SOL     OW24019   4.566   2.115   7.653 -0.3250 -0.2612 -0.0106
 4128SOL    HW124020   4.658   2.140   7.643 -0.3629 -0.2094 -0.2432
 4128SOL    HW224021   4.544   2.169   7.728  1.6110 -1.7233  1.6086
 4129SOL     OW24022   0.518   2.233   0.345  0.6143 -0.2402  0.4458
 4129SOL    HW124023   0.611   2.255   0.341  0.0574  2.0297 -0.0029
 4129SOL    HW224024   0.487   2.260   0.258 -2.1668  2.0369  2.1554
 4130SOL     OW24025   2.013   2.716   7.273  0.6631  0.2980 -0.3381
 4130SOL    HW124026   2.043   2.647   7.332  0.0918  0.3047 -0.0341
 4130SOL    HW224027   2.098   2.748   7.245  0.8238 -0.6099 -0.9067
 4131SOL     OW24028   1.746   2.041   3.074 -0.3337  0.2307 -0.1868
 4131SOL    HW124029   1.721   1.952   3.051 -0.2529  0.7786 -2.3544
 4131SOL    HW224030   1.676   2.095   3.038 -0.0983  0.2666 -0.5896
 4132SOL     OW24031   2.314   1.082   4.430  0.0305 -0.0152 -0.1130
 4132SOL    HW124032   2.297   1.154   4.491 -1.1277 -1.1691  0.9298
 4132SOL    HW224033   2.374   1.129   4.372 -0.8752 -0.9614 -1.8290
 4133SOL     OW24034   4.385   1.105   6.226  0.5855 -0.0699  0.3083
 4133SOL    HW124035   4.339   1.046   6.287 -0.0632 -1.0692 -1.1548
 4133SOL    HW224036   4.327   1.181   6.226 -2.3291 -2.3005  2.2674
 4134SOL     OW24037   4.537   3.099   2.460 -0.0905  0.5193  0.0886
 4134SOL    HW124038   4.511   3.122   2.550 -1.8331 -0.1674 -0.2281
 4134SOL    HW224039   4.626   3.129   2.446  0.0117  0.5521  0.7751
 4135SOL     OW24040   4.470   3.387  12.315 -0.1309  0.4653  0.0634
 4135SOL    HW124041   4.530   3.459  12.331 -1.0087  1.2333 -0.1294
 4135SOL    HW224042   4.439   3.366  12.404 -0.0666  0.3920  0.0693
 4136SOL     OW24043   3.503   3.035  16.731 -0.1435 -0.2912 -0.2277
 4136SOL    HW124044   3.433   3.062  16.672 -0.1097 -0.1632 -0.2096
 4136SOL    HW224045   3.574   3.074  16.681  1.2219 -1.2019  0.9899
 4137SOL     OW24046   4.363   1.890   5.331 -0.0595 -0.0121 -0.0611
 4137SOL    HW124047   4.329   1.809   5.294  1.2058  0.0125 -1.2635
 4137SOL    HW224048   4.396   1.918   5.246 -1.1028 -1.3378 -0.8920
 4138SOL     OW24049   2.983   4.385   1.063 -0.3615 -0.6870 -0.4340
 4138SOL    HW124050   2.982   4.426   1.150 -0.0012 -1.7807  0.0925
 4138SOL    HW224051   2.982   4.296   1.099  0.3678 -1.0127 -1.2241
 4139SOL     OW24052   0.125   3.100  10.172  0.0001  0.2327  0.1365
 4139SOL    HW124053   0.212   3.140  10.175  0.4754 -0.7150 -0.9884
 4139SOL    HW224054   0.099   3.115  10.081  1.5046 -3.0905 -0.8404
 4140SOL     OW24055   2.919   2.412   0.527  0.0930 -0.5461  0.3439
 4140SOL    HW124056   2.899   2.487   0.584 -0.7868  0.4540 -1.2871
 4140SOL    HW224057   3.014   2.416   0.517  0.0785  0.8743  0.6379
 4141SOL     OW24058   1.388   3.278  12.046  0.2540 -0.6200  0.0854
 4141SOL    HW124059   1.324   3.310  12.109  1.5506  3.6005 -0.7521
 4141SOL    HW224060   1.460   3.244  12.099 -0.1838 -0.7541  0.5961
 4142SOL     OW24061   2.202   2.739   7.541 -0.1009  0.2845  0.0750
 4142SOL    HW124062   2.110   2.765   7.549 -0.8141 -1.4439 -2.5008
 4142SOL    HW224063   2.201   2.643   7.541  0.9941  0.2691  0.8745
 4143SOL     OW24064   1.296   3.351  12.296 -0.2293 -0.3092 -0.1206
 4143SOL    HW124065   1.350   3.323  12.371  0.0777  0.2430 -0.1310
 4143SOL    HW224066   1.229   3.410  12.331 -0.7327 -0.9595  0.0258
 4144SOL     OW24067   1.568   2.152   7.727 -0.3816 -0.4548 -0.0322
 4144SOL    HW124068   1.504   2.159   7.656 -1.4214 -1.9073  0.7767
 4144SOL    HW224069   1.542   2.078   7.781 -2.7493  0.9911  0.8134
 4145SOL     OW24070   0.789   4.619   2.764 -0.1883 -0.5982 -0.0895
 4145SOL    HW124071   0.739   4.537   2.771  0.5315 -0.9211  1.3079
 4145SOL    HW224072   0.811   4.614   2.671  0.8297 -0.4411  0.1321
 4146SOL     OW24073   4.256   1.421   2.132 -0.4162  0.2636 -0.8319
 4146SOL    HW124074   4.183   1.482   2.140 -0.5690 -0.1448  0.8055
 4146SOL    HW224075   4.328   1.469   2.173 -2.4602  1.3481  1.4853
 4147SOL     OW24076   2.127   2.569   4.368  0.0740  0.0211 -0.7153
 4147SOL    HW124077   2.209   2.615   4.349  0.2781  0.0090  0.1510
 4147SOL    HW224078   2.066   2.628   4.324 -3.6308 -1.2257  2.8427
 4148SOL     OW24079   1.044   1.654  13.602  0.3882 -0.5472 -0.2393
 4148SOL    HW124080   1.023   1.669  13.510  0.9718 -0.4721 -0.3608
 4148SOL    HW224081   0.969   1.687  13.651 -0.2047  0.1640 -1.6348
 4149SOL     OW24082   1.403   3.223  10.197 -0.0218 -0.2075 -0.4616
 4149SOL    HW124083   1.349   3.279  10.142 -2.0461 -2.3965 -0.6851
 4149SOL    HW224084   1.491   3.259  10.184 -0.5832  0.7008 -1.7330
 4150SOL     OW24085   0.725   3.595   7.768  0.3800 -0.5393 -0.4535
 4150SOL    HW124086   0.783   3.587   7.691 -0.8731  1.8550 -1.6354
 4150SOL    HW224087   0.716   3.690   7.767 -1.4187 -0.6973  2.4449
 4151SOL     OW24088   2.060   3.456   5.678  0.2419 -0.4274  0.1622
 4151SOL    HW124089   2.034   3.364   5.666 -1.8120  0.1897 -0.1926
 4151SOL    HW224090   2.032   3.470   5.769 -0.1879 -1.7268  0.2279
 4152SOL     OW24091   0.596   0.794   6.872  0.4501 -0.1225 -0.0086
 4152SOL    HW124092   0.555   0.869   6.830  0.5334  1.2418  2.3617
 4152SOL    HW224093   0.513   0.749   6.889 -1.2870  2.6668 -1.1440
 4153SOL     OW24094   3.231   0.904   2.408  0.7236  0.6861  0.0865
 4153SOL    HW124095   3.155   0.952   2.441  1.6554  1.3357  1.3126
 4153SOL    HW224096   3.301   0.944   2.461  2.0741 -1.2253 -0.2574
 4154SOL     OW24097   4.462   3.400   5.340 -0.0690 -0.7669  0.7097
 4154SOL    HW124098   4.373   3.396   5.306  0.0037  1.0423  0.3317
 4154SOL    HW224099   4.502   3.318   5.309 -0.9988 -0.8150 -0.3722
 4155SOL     OW24100   2.613   3.871   2.738  0.5729  0.2323 -0.8177
 4155SOL    HW124101   2.558   3.850   2.813  0.1470  1.6607 -0.7334
 4155SOL    HW224102   2.695   3.888   2.785 -0.6892  1.1580  1.0363
 4156SOL     OW24103   0.320   0.659   0.690  0.5707  0.4441 -0.1651
 4156SOL    HW124104   0.341   0.590   0.753 -0.3634 -1.1570 -1.6169
 4156SOL    HW224105   0.301   0.614   0.608 -0.1421 -0.8406  0.7051
 4157SOL     OW24106   1.669   2.740   2.048 -0.0927  0.4726 -0.0519
 4157SOL    HW124107   1.735   2.724   1.980 -0.2889  1.1371 -0.3975
 4157SOL    HW224108   1.584   2.726   2.006  0.6186  1.1418 -1.7347
 4158SOL     OW24109   0.647   1.555   3.346 -0.1964  0.1132 -0.5856
 4158SOL    HW124110   0.706   1.622   3.310  0.8975 -1.3574 -1.5698
 4158SOL    HW224111   0.718   1.496   3.373  1.0771  1.2859 -1.3511
 4159SOL     OW24112   4.326   3.042   9.282  0.3032  0.3918 -1.0504
 4159SOL    HW124113   4.246   3.046   9.333  1.4156 -1.0915  0.8094
 4159SOL    HW224114   4.354   2.950   9.285 -0.8830  0.0903  0.6673
 4160SOL     OW24115   1.128   4.696   3.408  0.5712  0.4513 -0.1291
 4160SOL    HW124116   1.191   4.625   3.420  0.1660 -0.0555 -0.9747
 4160SOL    HW224117   1.164   4.727   3.324  0.6172  0.1365 -0.2241
 4161SOL     OW24118   3.038   4.596   9.896  0.4230  0.7786  0.2942
 4161SOL    HW124119   3.128   4.587   9.928  0.6701  0.4470 -0.4858
 4161SOL    HW224120   3.009   4.630   9.981 -1.7893  0.7680 -0.4671
 4162SOL     OW24121   0.477   3.118   2.073 -0.2449  0.1717 -0.6238
 4162SOL    HW124122   0.490   3.024   2.086  1.3821  0.2161 -1.9793
 4162SOL    HW224123   0.452   3.111   1.980  0.6276 -4.0349 -0.5531
 4163SOL     OW24124   0.294   2.063   2.866  0.5237  0.0738 -0.1997
 4163SOL    HW124125   0.248   2.120   2.928  2.4320  0.7070  0.6063
 4163SOL    HW224126   0.341   2.133   2.820  1.0646 -0.5350 -0.5650
 4164SOL     OW24127   1.003   1.234   6.263 -0.3111 -0.2368  0.2060
 4164SOL    HW124128   0.958   1.157   6.229 -0.0442 -0.5589  0.5977
 4164SOL    HW224129   0.932   1.298   6.274  0.0672  0.2834 -0.3830
 4165SOL     OW24130   1.777   1.063   2.287 -0.6668  0.3459 -0.5464
 4165SOL    HW124131   1.727   1.142   2.308  1.7061  1.4937  0.8465
 4165SOL    HW224132   1.724   1.018   2.221 -2.2494 -0.4706  1.3006
 4166SOL     OW24133   0.058   0.895   4.080 -0.2235  0.5120  0.6382
 4166SOL    HW124134   4.730   0.887   4.009  1.2486 -0.4510 -0.5645
 4166SOL    HW224135   0.102   0.979   4.069 -1.0945  1.1298  1.8140
 4167SOL     OW24136   2.243   3.833   2.860 -0.0180 -0.5614  0.8980
 4167SOL    HW124137   2.289   3.908   2.823 -0.1153 -0.3006  1.2992
 4167SOL    HW224138   2.301   3.806   2.932  0.8400 -3.7978 -0.9994
 4168SOL     OW24139   4.583   2.449   6.346 -0.3731  0.5000 -0.3025
 4168SOL    HW124140   4.561   2.541   6.360  0.4028  0.4177  1.4345
 4168SOL    HW224141   4.657   2.444   6.285 -1.0856  1.3094 -1.2429
 4169SOL     OW24142   1.186   3.330   7.885 -0.2881 -0.0355 -0.0479
 4169SOL    HW124143   1.255   3.340   7.951  0.7184 -0.9942 -0.9669
 4169SOL    HW224144   1.123   3.390   7.926  0.9516  0.7169  0.7544
 4170SOL     OW24145   1.291   4.718  16.268  0.2655 -0.1627  0.3391
 4170SOL    HW124146   1.306   4.666  16.189 -2.3039 -1.4024  0.6656
 4170SOL    HW224147   1.273   4.661  16.343  1.3218 -0.1720  0.5990
 4171SOL     OW24148   3.580   4.509  11.726  0.5131 -0.1796 -0.4183
 4171SOL    HW124149   3.526   4.556  11.790 -1.5148 -0.8049 -1.6389
 4171SOL    HW224150   3.551   4.419  11.740  2.6064 -1.1337 -2.3006
 4172SOL     OW24151   4.454   3.990   6.644 -0.5787  0.2932  0.2824
 4172SOL    HW124152   4.534   3.994   6.591 -1.8526 -0.9733 -1.7784
 4172SOL    HW224153   4.427   4.076   6.612 -2.0880  0.1504  1.2176
 4173SOL     OW24154   0.314   4.262  13.796  0.6586  1.2267 -0.1834
 4173SOL    HW124155   0.287   4.225  13.879  0.0748  2.1355  0.0353
 4173SOL    HW224156   0.245   4.328  13.787 -1.0410 -0.3661  1.2879
 4174SOL     OW24157   1.666   2.340  15.712  0.3871  0.0542  0.2872
 4174SOL    HW124158   1.651   2.255  15.669 -1.0877  0.5736 -0.2327
 4174SOL    HW224159   1.712   2.387  15.642 -0.6868  0.4486 -0.1584
 4175SOL     OW24160   3.320   0.504  13.651 -0.3974 -0.1155 -0.4532
 4175SOL    HW124161   3.345   0.425  13.603  1.4450  0.2178 -0.0269
 4175SOL    HW224162   3.353   0.482  13.738 -0.9781  0.6389 -0.0443
 4176SOL     OW24163   0.264   1.490   3.479 -0.0747  0.4559  0.1610
 4176SOL    HW124164   0.197   1.425   3.460 -1.3832  0.9355  3.2289
 4176SOL    HW224165   0.330   1.487   3.409 -0.7278  1.0178 -0.4749
 4177SOL     OW24166   1.369   2.475   4.811  0.0888  0.3328  0.9716
 4177SOL    HW124167   1.277   2.464   4.834 -0.2583  1.3921  0.1012
 4177SOL    HW224168   1.373   2.562   4.772 -0.1853 -0.6406 -1.2608
 4178SOL     OW24169   4.730   0.164   6.795  0.3247  0.0482 -0.1011
 4178SOL    HW124170   4.705   0.169   6.702 -0.9629 -3.4371  0.0725
 4178SOL    HW224171   4.658   0.212   6.836 -0.7714 -0.7505 -1.0771
 4179SOL     OW24172   0.519   2.403  17.531 -0.9308  0.0469 -0.0130
 4179SOL    HW124173   0.441   2.449  17.499 -0.2631  0.7200 -0.6471
 4179SOL    HW224174   0.504   2.316  17.495  1.4405 -0.6779  0.7964
 4180SOL     OW24175   3.223   0.142   1.325  0.5479 -0.2398  0.2471
 4180SOL    HW124176   3.290   0.209   1.313  1.6513 -0.7229  3.5940
 4180SOL    HW224177   3.159   0.155   1.255  1.0238 -1.0163 -0.3246
 4181SOL     OW24178   1.395   1.400   1.727 -0.2000 -0.1145  0.3301
 4181SOL    HW124179   1.461   1.435   1.668 -0.8860  0.6643  0.0200
 4181SOL    HW224180   1.393   1.309   1.699  3.1971  0.0321 -0.3710
 4182SOL     OW24181   1.419   4.512   4.581 -0.1253 -0.2313 -0.4183
 4182SOL    HW124182   1.433   4.592   4.632 -0.8623 -0.4807  0.1736
 4182SOL    HW224183   1.363   4.548   4.512 -1.4039 -0.6153  0.4098
 4183SOL     OW24184   3.653   2.036  15.656 -0.0381  0.5864  0.2679
 4183SOL    HW124185   3.689   1.978  15.723 -0.5314 -0.1107 -0.0653
 4183SOL    HW224186   3.568   2.056  15.696 -1.1853  1.8837 -2.7966
 4184SOL     OW24187   1.864   4.276   5.399  0.2321  0.2704  0.0110
 4184SOL    HW124188   1.783   4.327   5.408 -0.4301 -1.0551  1.5766
 4184SOL    HW224189   1.912   4.334   5.340 -0.9711  0.8487 -0.3969
 4185SOL     OW24190   2.849   2.736   1.083  0.1334 -0.3759 -0.1978
 4185SOL    HW124191   2.785   2.709   1.018 -0.3661 -2.6478  1.2440
 4185SOL    HW224192   2.815   2.824   1.102  0.6325 -0.6836  2.1373
 4186SOL     OW24193   1.311   4.102   7.767 -0.1497  0.1823  0.3479
 4186SOL    HW124194   1.346   4.185   7.736  0.4790 -1.7308 -4.0967
 4186SOL    HW224195   1.281   4.142   7.848  0.5444 -0.0661  0.7222
 4187SOL     OW24196   1.175   0.732   7.297 -0.0611  0.5412 -0.3588
 4187SOL    HW124197   1.174   0.815   7.346  0.0935  0.3967 -0.1111
 4187SOL    HW224198   1.252   0.759   7.247  0.5929  0.7679  0.7763
 4188SOL     OW24199   0.935   3.936   5.660  0.5329  0.2690 -0.1704
 4188SOL    HW124200   0.899   3.939   5.572  1.5779  1.7139 -0.5574
 4188SOL    HW224201   1.021   3.899   5.638 -0.2532 -1.6348 -0.0017
 4189SOL     OW24202   3.284   0.001   6.584  0.2528 -0.0820 -0.6675
 4189SOL    HW124203   3.212   0.050   6.623  0.0368  1.3540 -2.9008
 4189SOL    HW224204   3.357   0.058   6.611  0.1165  1.0691 -2.7862
 4190SOL     OW24205   0.801   2.481  15.455 -0.3807 -0.7556  0.0887
 4190SOL    HW124206   0.827   2.544  15.388 -0.4709  0.3978  1.1491
 4190SOL    HW224207   0.784   2.405  15.399  1.2531 -0.8681 -0.2599
 4191SOL     OW24208   1.568   3.972   8.975  0.1599  0.4253  0.5126
 4191SOL    HW124209   1.627   3.929   9.037  2.4560  1.5011 -0.9324
 4191SOL    HW224210   1.531   3.900   8.923  1.2725  0.7852 -0.7806
 4192SOL     OW24211   0.689   4.172  16.236 -0.2768  0.2746  0.4825
 4192SOL    HW124212   0.733   4.197  16.317 -0.2979 -1.9055  1.1642
 4192SOL    HW224213   0.721   4.083  16.227 -1.4968  0.0503 -1.7099
 4193SOL     OW24214   4.347   2.851  14.295  0.0763 -0.1801  0.4865
 4193SOL    HW124215   4.309   2.773  14.336 -1.8024 -0.1787 -1.2717
 4193SOL    HW224216   4.328   2.842  14.202 -3.5775 -0.3972  1.2685
 4194SOL     OW24217   1.517   3.595   8.419  0.2045  0.5106  0.2634
 4194SOL    HW124218   1.534   3.574   8.327  2.3463  0.6420  0.6253
 4194SOL    HW224219   1.440   3.541   8.435  0.2447 -0.0285 -1.4118
 4195SOL     OW24220   4.338   4.111  17.118 -0.2676 -0.4396 -0.0436
 4195SOL    HW124221   4.429   4.103  17.146 -0.1836  1.7765  0.3400
 4195SOL    HW224222   4.298   4.149  17.196 -0.9036 -1.1221 -0.0404
 4196SOL     OW24223   0.164   0.112   5.861  0.3462 -0.3756  0.6862
 4196SOL    HW124224   0.139   0.164   5.784 -0.6656 -0.4168  0.9860
 4196SOL    HW224225   0.115   0.032   5.845 -0.3418  0.3854 -1.0621
 4197SOL     OW24226   0.831   0.144   4.296 -0.0354  0.2221 -0.5697
 4197SOL    HW124227   0.787   0.059   4.296 -1.1009  0.7532  1.4398
 4197SOL    HW224228   0.871   0.126   4.381  0.3484 -0.6529 -0.9412
 4198SOL     OW24229   1.667   0.499   2.977  0.2997  0.0789 -0.2780
 4198SOL    HW124230   1.611   0.542   2.913 -0.2150  0.4090  0.3870
 4198SOL    HW224231   1.636   0.413   3.004 -0.8096 -0.6151 -3.8348
 4199SOL     OW24232   4.250   3.396   5.600 -0.4097 -0.3861  0.1505
 4199SOL    HW124233   4.318   3.423   5.661 -1.5441  1.0562  0.7843
 4199SOL    HW224234   4.269   3.310   5.561  1.0017 -0.7511  1.6553
 4200SOL     OW24235   2.023   0.181   4.868 -0.1959  0.0156  0.1240
 4200SOL    HW124236   2.103   0.218   4.831 -0.2183  0.5927  0.6558
 4200SOL    HW224237   2.009   0.115   4.801 -1.1123  2.5434 -2.1448
 4201SOL     OW24238   1.130   0.394   5.597 -0.7376  0.1296 -0.2397
 4201SOL    HW124239   1.116   0.439   5.680 -1.8949 -2.0819  0.7459
 4201SOL    HW224240   1.223   0.371   5.604 -0.7622  0.4746  1.1522
 4202SOL     OW24241   1.098   0.803  17.471  0.8007 -0.1119  0.5295
 4202SOL    HW124242   1.128   0.741  17.405 -2.4919  0.2488 -1.2629
 4202SOL    HW224243   1.176   0.813  17.526  2.0338 -0.2196 -1.2233
 4203SOL     OW24244   4.254   0.470   2.056  0.0084  0.1238 -0.0172
 4203SOL    HW124245   4.181   0.426   2.099  0.1670  1.0105  1.1700
 4203SOL    HW224246   4.303   0.390   2.038  0.4020  0.9564 -2.6859
 4204SOL     OW24247   3.412   4.234   0.104  0.1291  0.0299  0.1103
 4204SOL    HW124248   3.463   4.222   0.184  0.2616  0.9128  0.1654
 4204SOL    HW224249   3.324   4.241   0.141  0.3017 -0.7403  0.6730
 4205SOL     OW24250   1.408   1.740  11.184  0.2145 -0.1191  0.6007
 4205SOL    HW124251   1.349   1.739  11.260  1.1325 -0.1218  1.3191
 4205SOL    HW224252   1.380   1.820  11.140 -0.0833 -1.0942 -0.9570
 4206SOL     OW24253   1.090   0.995   7.936 -0.1686  1.0867 -0.1921
 4206SOL    HW124254   1.064   1.066   7.876 -1.0158  0.7076 -0.2795
 4206SOL    HW224255   1.099   1.045   8.017  1.0085  2.2528 -1.0415
 4207SOL     OW24256   1.027   0.461   6.661  0.0727 -0.0554  0.4230
 4207SOL    HW124257   1.054   0.545   6.698  0.8324 -0.6178  1.1526
 4207SOL    HW224258   0.931   0.464   6.670 -0.1609 -1.4643 -1.6983
 4208SOL     OW24259   2.948   3.396   0.904  0.2028 -0.1852 -0.0320
 4208SOL    HW124260   2.958   3.465   0.838 -0.3823 -1.3630 -1.3471
 4208SOL    HW224261   2.863   3.353   0.896  0.7403 -1.1018 -0.7103
 4209SOL     OW24262   2.558   4.670  15.441 -0.2748 -0.1457  0.4718
 4209SOL    HW124263   2.621   4.608  15.405  0.8395  1.3110 -0.0990
 4209SOL    HW224264   2.507   4.613  15.498 -0.4085  0.9253  1.4173
 4210SOL     OW24265   1.009   4.524  13.409  0.3777 -0.3851 -0.4422
 4210SOL    HW124266   0.917   4.497  13.416  1.0417 -2.3283  0.6315
 4210SOL    HW224267   1.041   4.505  13.497 -0.2806 -0.0427 -0.1258
 4211SOL     OW24268   0.669   2.288   1.994 -0.4072 -0.5794 -0.3168
 4211SOL    HW124269   0.630   2.236   2.064 -1.0525 -0.6703 -0.7452
 4211SOL    HW224270   0.660   2.224   1.923  2.3539 -0.8482 -0.4464
 4212SOL     OW24271   1.005   0.836  10.273  0.6879  0.3852  0.6032
 4212SOL    HW124272   0.949   0.890  10.216 -2.2017 -1.7568  1.3938
 4212SOL    HW224273   1.078   0.841  10.212  0.0038 -0.9743 -0.3341
 4213SOL     OW24274   0.597   1.823   7.855 -0.1181 -0.6049 -0.1176
 4213SOL    HW124275   0.563   1.777   7.932 -1.1989 -1.0978 -0.8959
 4213SOL    HW224276   0.639   1.747   7.816  0.6930 -0.2567  0.0783
 4214SOL     OW24277   4.281   4.514   1.473 -0.1590  0.4436 -0.0197
 4214SOL    HW124278   4.367   4.553   1.488  0.0868  0.1675 -0.7027
 4214SOL    HW224279   4.225   4.585   1.442  0.9064  2.1465  1.9453
 4215SOL     OW24280   4.704   4.700   4.790  0.1151  0.0995 -0.2467
 4215SOL    HW124281   4.714   4.624   4.733  1.5596  0.6638 -0.7483
 4215SOL    HW224282   0.038   4.678   4.852  0.7574 -1.2579 -1.4330
 4216SOL     OW24283   3.261   1.465   3.073  0.2908  0.2127 -0.0179
 4216SOL    HW124284   3.332   1.509   3.120  0.1411 -0.8886  1.2208
 4216SOL    HW224285   3.205   1.537   3.044  1.2905  0.2644 -1.8568
 4217SOL     OW24286   3.457   4.617   1.990 -0.2209 -0.4352 -0.1078
 4217SOL    HW124287   3.522   4.679   2.024 -3.5559  2.7476  0.3542
 4217SOL    HW224288   3.495   4.598   1.904  0.4390  0.3269  0.0121
 4218SOL     OW24289   3.338   0.586   3.084  0.1926  0.0379  0.4105
 4218SOL    HW124290   3.320   0.514   3.144 -0.5529 -0.9447 -0.9698
 4218SOL    HW224291   3.289   0.552   3.009 -0.1754  0.0176  0.6641
 4219SOL     OW24292   2.877   2.483   9.509 -0.3470  0.0074  0.1345
 4219SOL    HW124293   2.908   2.543   9.442 -1.4216  0.0965 -0.2810
 4219SOL    HW224294   2.798   2.451   9.465  0.8028 -0.4896 -1.5739
 4220SOL     OW24295   0.162   4.493   8.759 -0.6427 -0.5863 -0.3439
 4220SOL    HW124296   0.237   4.516   8.705 -1.5027  2.2225 -0.3914
 4220SOL    HW224297   0.201   4.426   8.815 -1.6332 -1.4235 -0.6419
 4221SOL     OW24298   3.503   1.302   2.780 -0.4932  0.1218 -0.1755
 4221SOL    HW124299   3.422   1.300   2.730 -1.9856 -0.5421  2.2581
 4221SOL    HW224300   3.483   1.265   2.866 -0.1355 -0.3570 -0.2982
 4222SOL     OW24301   4.711   4.382  10.822 -0.1209 -0.0354 -0.3537
 4222SOL    HW124302   4.667   4.377  10.906  2.1235  0.0376  0.8201
 4222SOL    HW224303   0.058   4.424  10.847  0.4824 -0.0362 -2.3123
 4223SOL     OW24304   0.947   4.385  15.265 -0.5559  0.6230 -0.0211
 4223SOL    HW124305   1.021   4.402  15.323 -0.2520  0.9829 -0.5098
 4223SOL    HW224306   0.987   4.417  15.184 -0.6983 -0.6447 -0.5877
 4224SOL     OW24307   3.868   2.965  11.767  0.1167  0.4967  0.0754
 4224SOL    HW124308   3.909   3.011  11.693 -0.2484  1.6979  0.6214
 4224SOL    HW224309   3.887   3.006  11.851 -0.3860 -0.6647  0.7626
 4225SOL     OW24310   3.209   3.694   8.889 -0.0472 -0.1120 -0.5955
 4225SOL    HW124311   3.167   3.762   8.941 -0.6929 -1.0564  0.1153
 4225SOL    HW224312   3.135   3.660   8.839 -0.8598 -0.3551  0.7574
 4226SOL     OW24313   0.832   3.768  16.484  0.9257  0.6911 -0.1249
 4226SOL    HW124314   0.910   3.810  16.520  0.5346  1.5622 -0.2945
 4226SOL    HW224315   0.865   3.678  16.481 -0.3639  0.1236  2.8696
 4227SOL     OW24316   3.446   1.895   8.681 -0.2290  0.1565 -0.7512
 4227SOL    HW124317   3.505   1.949   8.733 -1.2994  0.7950 -0.1813
 4227SOL    HW224318   3.364   1.941   8.700  0.4741  1.7397 -1.5971
 4228SOL     OW24319   3.731   2.717  15.169  0.3526  0.9809  0.0758
 4228SOL    HW124320   3.672   2.737  15.096  0.3167  2.1567  0.4288
 4228SOL    HW224321   3.687   2.762  15.240  0.7538  1.6628 -0.1066
 4229SOL     OW24322   3.050   3.107   3.769 -0.4031  0.0306 -0.0833
 4229SOL    HW124323   3.105   3.186   3.768  0.9995 -0.9748 -1.8327
 4229SOL    HW224324   3.045   3.083   3.677 -0.6264  0.7053 -0.2482
 4230SOL     OW24325   1.542   3.838   5.059 -0.1933  0.4995 -0.3508
 4230SOL    HW124326   1.570   3.751   5.088  0.1059  0.1637 -1.6515
 4230SOL    HW224327   1.449   3.833   5.083 -0.6097 -0.8553 -2.2432
 4231SOL     OW24328   4.365   2.237   6.862  0.2411  0.4931 -0.4828
 4231SOL    HW124329   4.332   2.247   6.951 -1.1836 -0.9952 -0.8440
 4231SOL    HW224330   4.282   2.241   6.814 -1.6840 -0.1442  2.7984
 4232SOL     OW24331   3.652   0.037   2.822 -0.2537  0.0866  0.6818
 4232SOL    HW124332   3.639   0.126   2.856 -0.1339 -0.2125  1.5096
 4232SOL    HW224333   3.565   4.735   2.837  0.3194 -0.2830  3.0293
 4233SOL     OW24334   4.260   2.324   9.144 -0.2134 -0.8066 -0.2031
 4233SOL    HW124335   4.343   2.353   9.182 -1.9562  0.2097  2.7740
 4233SOL    HW224336   4.210   2.310   9.224  1.5083  0.2706  1.0539
 4234SOL     OW24337   3.552   3.228   9.079 -0.0214  0.0952  0.2175
 4234SOL    HW124338   3.511   3.312   9.100  0.9678  0.4059  0.9185
 4234SOL    HW224339   3.562   3.238   8.985  2.4276  0.4480  0.5057
 4235SOL     OW24340   0.486   1.340   3.307  0.1289  0.8585 -0.2189
 4235SOL    HW124341   0.536   1.293   3.375 -2.6302  0.6123  1.6400
 4235SOL    HW224342   0.529   1.425   3.308 -1.4755  1.6652 -1.1777
 4236SOL     OW24343   3.735   1.514   3.371 -0.2840  0.0731 -0.2164
 4236SOL    HW124344   3.725   1.519   3.466  2.5582  0.8480  0.0497
 4236SOL    HW224345   3.693   1.597   3.348 -1.1846 -0.6384 -1.1625
 4237SOL     OW24346   0.725   4.417   7.191 -0.3725 -0.2462 -0.0229
 4237SOL    HW124347   0.684   4.374   7.117 -0.9103  1.6624 -0.8430
 4237SOL    HW224348   0.643   4.429   7.240 -0.3427 -0.3710  0.0578
 4238SOL     OW24349   0.716   0.386   9.655  0.5429 -0.1067  0.3530
 4238SOL    HW124350   0.728   0.422   9.567  1.1754  0.4257  0.6557
 4238SOL    HW224351   0.729   0.462   9.712  4.0093 -0.4306 -0.0075
 4239SOL     OW24352   1.391   3.187  16.480 -0.2229 -0.4238 -0.0226
 4239SOL    HW124353   1.359   3.228  16.560 -0.6429 -2.0719  0.6528
 4239SOL    HW224354   1.433   3.115  16.527  1.0189  0.3314  0.0205
 4240SOL     OW24355   4.130   3.008   3.701 -0.2750 -0.3313  0.7140
 4240SOL    HW124356   4.226   3.011   3.708 -0.1003 -0.4787 -1.7190
 4240SOL    HW224357   4.111   2.927   3.749  1.3829 -0.6997  0.7484
 4241SOL     OW24358   2.598   3.851   7.796  0.2274 -0.1204 -0.6086
 4241SOL    HW124359   2.608   3.848   7.891  1.2309 -0.4325 -0.7218
 4241SOL    HW224360   2.504   3.837   7.787  0.1664  1.4348 -2.2738
 4242SOL     OW24361   3.133   2.044  15.810 -0.6093 -0.1066 -0.8363
 4242SOL    HW124362   3.081   2.002  15.878  1.5998 -0.1988  0.7943
 4242SOL    HW224363   3.109   2.130  15.843 -4.0044 -1.8448  1.1418
 4243SOL     OW24364   1.164   1.523   3.319  0.2959 -0.3383  0.2108
 4243SOL    HW124365   1.250   1.481   3.325  1.2086  1.3167 -1.4323
 4243SOL    HW224366   1.119   1.478   3.248  1.8341  0.0292 -0.9839
 4244SOL     OW24367   1.480   2.027  13.485 -0.5364  0.3208  0.5064
 4244SOL    HW124368   1.396   2.059  13.516 -2.2491 -3.8003  0.0744
 4244SOL    HW224369   1.513   2.100  13.432  0.2575  0.2383  0.8808
 4245SOL     OW24370   4.336   4.543  16.640 -0.0999  0.1510  0.6912
 4245SOL    HW124371   4.427   4.563  16.662 -0.3464  1.4948  0.4974
 4245SOL    HW224372   4.312   4.625  16.596  0.1382 -0.5280 -0.7297
 4246SOL     OW24373   1.140   1.366   2.874 -0.6895 -0.5016 -0.6095
 4246SOL    HW124374   1.219   1.321   2.846 -1.9024 -1.6151 -2.2480
 4246SOL    HW224375   1.077   1.327   2.814  0.5779 -1.7813 -1.1017
 4247SOL     OW24376   3.352   2.133   8.400  0.3709  0.2326  0.2232
 4247SOL    HW124377   3.375   2.225   8.417  0.1993  0.1984  0.6451
 4247SOL    HW224378   3.440   2.100   8.382 -0.6462 -0.3644 -3.5857
 4248SOL     OW24379   2.217   0.325   9.480 -0.2673  0.5823  0.2693
 4248SOL    HW124380   2.255   0.396   9.532 -0.6519  0.2897  0.9403
 4248SOL    HW224381   2.299   0.275   9.484  0.2053  1.4537  1.5620
 4249SOL     OW24382   3.088   1.061   6.916  0.2770  0.3282  0.0963
 4249SOL    HW124383   3.122   1.007   6.844  0.9111  2.5120 -1.2447
 4249SOL    HW224384   3.013   1.008   6.940 -0.4824  1.0384 -0.6950
 4250SOL     OW24385   3.306   4.616   6.991  0.0701 -0.0271  0.3579
 4250SOL    HW124386   3.379   4.603   7.051  0.9886  1.3557 -0.4515
 4250SOL    HW224387   3.352   4.585   6.913 -0.1407 -1.7346  0.9122
 4251SOL     OW24388   1.400   4.626   3.180 -0.5699  0.1867 -0.0485
 4251SOL    HW124389   1.431   4.687   3.247  1.4408 -0.2009 -0.6462
 4251SOL    HW224390   1.337   4.686   3.138 -1.3778 -0.1350  0.6968
 4252SOL     OW24391   4.687   2.053   3.932  0.3078  0.0256  0.4650
 4252SOL    HW124392   4.674   2.148   3.928 -0.2169 -0.0120  1.4576
 4252SOL    HW224393   4.669   2.053   4.026 -2.5291 -0.0925 -0.0789
 4253SOL     OW24394   3.203   4.389  10.214  0.4602  0.0019 -0.1689
 4253SOL    HW124395   3.258   4.456  10.173  1.8386 -0.9230  0.1934
 4253SOL    HW224396   3.117   4.431  10.212  0.2488 -0.5268 -1.7730
 4254SOL     OW24397   1.172   0.453   6.382 -0.4040 -0.4720  0.1151
 4254SOL    HW124398   1.144   0.535   6.341  1.3288 -0.2091 -0.5728
 4254SOL    HW224399   1.136   0.459   6.470  0.7596  2.3419  0.4130
 4255SOL     OW24400   1.224   3.857   1.103 -0.3442  0.1189 -0.3542
 4255SOL    HW124401   1.172   3.937   1.099 -0.9010 -0.2012  0.3525
 4255SOL    HW224402   1.208   3.825   1.192 -3.3896  0.6189 -0.7125
 4256SOL     OW24403   0.945   2.004   8.565 -0.1108 -0.1388  0.7605
 4256SOL    HW124404   0.939   2.094   8.599 -0.5325  0.7754 -1.7219
 4256SOL    HW224405   0.855   1.976   8.584  0.0555 -2.2106 -1.5711
 4257SOL     OW24406   3.224   4.502   5.175 -0.3123 -0.6365 -0.4908
 4257SOL    HW124407   3.169   4.533   5.102  0.1579 -1.0246 -1.0085
 4257SOL    HW224408   3.313   4.529   5.155 -0.2139 -0.3659  0.3090
 4258SOL     OW24409   0.042   4.103   7.490  0.6626  1.2200 -0.3064
 4258SOL    HW124410   4.696   4.072   7.450 -0.1113  1.7380  0.8544
 4258SOL    HW224411   0.065   4.147   7.409 -1.1952 -0.6574 -1.8714
 4259SOL     OW24412   0.844   3.539   4.161 -0.3018  0.3449  0.1749
 4259SOL    HW124413   0.771   3.594   4.132  1.3066  2.6062  0.3450
 4259SOL    HW224414   0.800   3.463   4.196 -1.2230  0.9372  0.3076
 4260SOL     OW24415   1.963   1.752   6.505  0.6585  0.2719 -0.0383
 4260SOL    HW124416   1.977   1.675   6.559 -0.8802 -1.0688 -1.5507
 4260SOL    HW224417   2.016   1.813   6.557 -3.1682  2.9801  0.7366
 4261SOL     OW24418   0.810   1.274   8.773 -0.1113 -0.1988  0.6322
 4261SOL    HW124419   0.829   1.259   8.865 -0.7127  0.9915  0.9556
 4261SOL    HW224420   0.855   1.199   8.734  1.0588  1.5553 -1.3946
 4262SOL     OW24421   2.217   2.429   0.052 -0.2754  0.7835 -0.1065
 4262SOL    HW124422   2.266   2.489  17.736  0.6396 -0.0550 -0.2120
 4262SOL    HW224423   2.136   2.431   0.002 -0.5433  1.5461  0.3575
 4263SOL     OW24424   3.368   3.096  15.608  0.5811  0.1746 -0.3014
 4263SOL    HW124425   3.288   3.132  15.647  1.5346  0.1090  1.6826
 4263SOL    HW224426   3.339   3.013  15.571 -0.1608 -0.1497  1.0083
 4264SOL     OW24427   0.986   2.392   8.173 -0.5056  0.2706 -0.0117
 4264SOL    HW124428   0.924   2.368   8.104  0.4287  0.5385 -0.9494
 4264SOL    HW224429   1.066   2.394   8.120  1.6931 -0.4956  3.2734
 4265SOL     OW24430   1.175   2.342   1.431  0.8917  0.4750  0.2048
 4265SOL    HW124431   1.124   2.336   1.350  0.3090  0.3404  0.5850
 4265SOL    HW224432   1.112   2.387   1.486  1.4658 -0.5628  1.7299
 4266SOL     OW24433   4.082   2.820   3.885 -0.9162 -0.4915  0.4346
 4266SOL    HW124434   4.107   2.780   3.968  0.3826  0.9214  0.7359
 4266SOL    HW224435   4.007   2.874   3.911 -0.4810 -0.7912  2.3168
 4267SOL     OW24436   4.372   2.190   5.833 -0.0897 -0.7698  0.2331
 4267SOL    HW124437   4.335   2.102   5.840  0.1862 -0.9999 -1.1698
 4267SOL    HW224438   4.429   2.184   5.756  0.2488  2.3910  0.2293
 4268SOL     OW24439   4.484   1.178  17.195  0.2532  0.1729 -0.3748
 4268SOL    HW124440   4.546   1.115  17.229 -0.2755 -0.6898 -1.0165
 4268SOL    HW224441   4.408   1.128  17.165  0.0438 -0.2664  0.8787
 4269SOL     OW24442   3.723   1.741   1.667  0.8816  0.4460  0.1280
 4269SOL    HW124443   3.688   1.655   1.691 -1.0770  1.8324  2.3107
 4269SOL    HW224444   3.662   1.803   1.707 -0.3504 -1.4400  1.1744
 4270SOL     OW24445   1.964   2.158   9.095 -0.9417 -0.2977 -0.1296
 4270SOL    HW124446   1.973   2.170   9.190  1.0289  1.4663 -0.5359
 4270SOL    HW224447   2.026   2.228   9.072  0.7624 -1.7660  0.0171
 4271SOL     OW24448   0.906   1.125  13.196  0.2452  0.4116  0.4690
 4271SOL    HW124449   0.830   1.068  13.206 -1.2796  2.1505 -1.1888
 4271SOL    HW224450   0.866   1.195  13.143 -2.3949 -1.1107  0.4255
 4272SOL     OW24451   1.659   1.179   3.418  0.0018 -0.5184  0.0809
 4272SOL    HW124452   1.575   1.131   3.420 -2.2195  3.4513  1.5868
 4272SOL    HW224453   1.656   1.199   3.512 -0.2841 -1.3623  0.2544
 4273SOL     OW24454   3.781   3.418   6.294  0.0607 -0.2358  0.4002
 4273SOL    HW124455   3.754   3.330   6.322 -1.3562  0.7930  2.2299
 4273SOL    HW224456   3.738   3.418   6.208  0.8850  2.4167 -0.0145
 4274SOL     OW24457   1.943   3.451   5.911  0.3383 -0.4172 -0.3146
 4274SOL    HW124458   1.883   3.473   5.982 -0.8833 -0.8214 -1.2064
 4274SOL    HW224459   2.018   3.422   5.963  1.6463 -0.6361 -2.2979
 4275SOL     OW24460   0.885   0.175   9.420  0.0992 -0.5115 -0.2454
 4275SOL    HW124461   0.829   0.103   9.391 -1.9922 -1.2287  5.4818
 4275SOL    HW224462   0.889   0.223   9.338 -2.6382  0.7013  0.3543
 4276SOL     OW24463   2.481   4.707   8.748 -0.1067 -0.5844  0.1880
 4276SOL    HW124464   2.572   4.725   8.771 -0.2137 -1.5653  1.4365
 4276SOL    HW224465   2.436   0.040   8.797 -0.8125  1.0435 -2.7625
 4277SOL     OW24466   2.878   2.757  15.558  0.0058 -0.1625  0.1251
 4277SOL    HW124467   2.973   2.763  15.571 -0.3040  2.6467  1.0172
 4277SOL    HW224468   2.850   2.847  15.545 -1.1926 -0.7032 -1.1044
 4278SOL     OW24469   3.853   3.046   8.411 -0.4225  0.0689  0.4159
 4278SOL    HW124470   3.913   2.979   8.445  2.1879  3.1889  1.8656
 4278SOL    HW224471   3.866   3.044   8.316 -1.8346  0.4183  0.2218
 4279SOL     OW24472   1.958   3.802   3.787 -0.0201  0.2786 -0.1965
 4279SOL    HW124473   1.922   3.749   3.858  0.8528 -1.3211 -0.9509
 4279SOL    HW224474   1.989   3.731   3.731 -0.0668  0.9756 -1.1060
 4280SOL     OW24475   4.024   2.801   5.911 -0.0709  0.1808  0.7036
 4280SOL    HW124476   3.968   2.850   5.851 -1.1273 -0.7899  0.8951
 4280SOL    HW224477   3.962   2.741   5.952  1.8577 -2.0628  0.3327
 4281SOL     OW24478   3.457   3.419   1.789  0.1927  0.0638  0.2369
 4281SOL    HW124479   3.443   3.328   1.815 -0.1520 -0.7013 -2.6362
 4281SOL    HW224480   3.543   3.422   1.748  0.6134  0.9965  1.1645
 4282SOL     OW24481   3.885   3.479   3.240  0.2919  0.1688 -0.0354
 4282SOL    HW124482   3.948   3.440   3.179  1.9165  1.4755  0.8160
 4282SOL    HW224483   3.811   3.464   3.181 -0.8378  1.3022  1.1010
 4283SOL     OW24484   3.077   3.355   2.670  0.0308  0.3277  0.1857
 4283SOL    HW124485   3.027   3.419   2.720  1.3552  1.6493 -0.2115
 4283SOL    HW224486   3.009   3.288   2.660 -0.3697  0.8500 -0.5697
 4284SOL     OW24487   2.926   4.305  11.107  0.3871 -0.5065  0.0841
 4284SOL    HW124488   3.020   4.316  11.092  0.3976 -0.0587  0.5114
 4284SOL    HW224489   2.894   4.394  11.099  0.0913 -0.6408 -0.2175
 4285SOL     OW24490   2.620   3.288   4.212 -0.2299  0.4906 -0.6609
 4285SOL    HW124491   2.706   3.270   4.251  1.2424  0.2376 -4.0943
 4285SOL    HW224492   2.641   3.344   4.138  2.0469  0.3334 -0.1533
 4286SOL     OW24493   1.379   1.128   4.415  0.2446  0.0235  0.6868
 4286SOL    HW124494   1.443   1.087   4.473 -0.8428 -1.8670  0.5316
 4286SOL    HW224495   1.296   1.084   4.432 -0.1814  0.2522 -0.8213
 4287SOL     OW24496   4.497   2.748  17.347 -0.5602  0.6146 -0.0393
 4287SOL    HW124497   4.432   2.745  17.417 -1.0024  0.6949 -0.4431
 4287SOL    HW224498   4.535   2.832  17.372  0.2475  0.9367 -2.2912
 4288SOL     OW24499   1.388   0.414   8.100  0.0268 -0.1423 -0.1346
 4288SOL    HW124500   1.427   0.422   8.187 -1.3446 -1.5142  0.6184
 4288SOL    HW224501   1.381   0.319   8.093 -1.5865 -0.0142 -0.2971
 4289SOL     OW24502   4.593   4.146  17.173  0.3799  0.3042  0.5312
 4289SOL    HW124503   4.680   4.170  17.205  1.3525  0.3610 -2.1079
 4289SOL    HW224504   4.608   4.073  17.113  0.2581  1.0359 -0.3964
 4290SOL     OW24505   3.791   3.513  17.131  0.0468 -0.1272 -0.3436
 4290SOL    HW124506   3.881   3.497  17.159  0.3272 -0.2343 -1.3020
 4290SOL    HW224507   3.813   3.566  17.054 -1.4198  1.1838  0.1294
 4291SOL     OW24508   3.660   3.889   5.783  0.1217 -0.9736  0.0427
 4291SOL    HW124509   3.684   3.854   5.868  2.2241  1.3476  0.3999
 4291SOL    HW224510   3.565   3.897   5.790  0.1336 -2.7365  1.9659
 4292SOL     OW24511   0.604   0.293   3.786 -0.2842  0.0912  0.2637
 4292SOL    HW124512   0.529   0.352   3.771 -0.2858  0.1424  0.4695
 4292SOL    HW224513   0.596   0.275   3.880  2.2580 -0.6254  0.3233
 4293SOL     OW24514   3.183   1.559  11.294  0.6473  0.7514  0.1954
 4293SOL    HW124515   3.149   1.495  11.357  1.0443 -0.1682 -0.5304
 4293SOL    HW224516   3.196   1.633  11.355  1.2719 -1.3370  2.5973
 4294SOL     OW24517   3.979   3.215  16.045 -0.3223  0.1541 -0.4574
 4294SOL    HW124518   3.915   3.255  15.986 -2.3523 -0.8115  1.1111
 4294SOL    HW224519   4.008   3.150  15.981 -1.7054 -1.2929  0.4065
 4295SOL     OW24520   2.246   1.069  13.358  0.0851  0.3851 -0.0202
 4295SOL    HW124521   2.237   0.992  13.414 -1.4207 -0.1257 -0.9428
 4295SOL    HW224522   2.340   1.080  13.343  0.3322 -1.2674  0.3145
 4296SOL     OW24523   2.958   1.934  10.716 -0.0857  0.3790 -0.5346
 4296SOL    HW124524   3.020   1.994  10.675  2.5727 -1.5638  0.6758
 4296SOL    HW224525   2.881   1.990  10.725  1.0650  2.0042 -0.9382
 4297SOL     OW24526   3.138   2.781   1.093  0.0908 -0.2449  0.5971
 4297SOL    HW124527   3.045   2.773   1.072 -0.2476  1.5844  1.3952
 4297SOL    HW224528   3.147   2.759   1.186  1.6354 -2.7276 -0.1553
 4298SOL     OW24529   2.414   2.819   8.081  0.4872 -0.2262 -0.1516
 4298SOL    HW124530   2.507   2.835   8.098  0.0398  2.0010  0.2481
 4298SOL    HW224531   2.367   2.895   8.116  0.1641  1.0907 -3.4771
 4299SOL     OW24532   0.653   3.967   4.805  0.0405 -0.1679 -0.0086
 4299SOL    HW124533   0.733   4.018   4.816  0.4031 -0.7604  0.1045
 4299SOL    HW224534   0.683   3.886   4.846  1.3419  1.4201  2.1896
 4300SOL     OW24535   0.718   4.441   1.603  0.3037  0.2428 -0.5528
 4300SOL    HW124536   0.747   4.351   1.587  0.5124  0.5671 -2.0306
 4300SOL    HW224537   0.682   4.463   1.517  1.8421 -0.2468 -1.3212
 4301SOL     OW24538   1.934   2.602   6.216  0.4227 -0.1700  0.1361
 4301SOL    HW124539   1.949   2.546   6.140 -1.1683 -0.4346  0.0087
 4301SOL    HW224540   1.935   2.546   6.294  0.6640 -1.7082 -0.9674
 4302SOL     OW24541   2.959   1.744   3.173  0.3205 -0.1413 -0.1717
 4302SOL    HW124542   2.897   1.695   3.226  2.9068 -0.8412  2.2087
 4302SOL    HW224543   2.955   1.827   3.221  0.8685  0.5619 -1.3382
 4303SOL     OW24544   0.722   0.683   9.736 -0.0537  0.5593  0.0884
 4303SOL    HW124545   0.790   0.745   9.760 -0.5580  2.2315 -2.7950
 4303SOL    HW224546   0.699   0.725   9.653  0.2113  0.1206 -0.2037
 4304SOL     OW24547   3.956   2.958   1.456 -0.3545  0.3242  0.2015
 4304SOL    HW124548   3.970   2.869   1.486  1.4657  1.2266  2.0083
 4304SOL    HW224549   3.870   2.952   1.415 -0.5763  0.6588  0.6242
 4305SOL     OW24550   0.910   3.613  11.780  0.9627  0.5467  0.2500
 4305SOL    HW124551   0.879   3.700  11.806  0.9456  0.1483  1.5514
 4305SOL    HW224552   0.828   3.566  11.764  1.3531 -0.3432  0.8541
 4306SOL     OW24553   3.276   1.506   8.405  0.3437  0.1489  0.7314
 4306SOL    HW124554   3.362   1.517   8.445  0.6564 -0.7853  0.3264
 4306SOL    HW224555   3.231   1.581   8.444  1.1087  0.3993  1.1134
 4307SOL     OW24556   2.286   1.728   6.755  0.5269  0.0363 -0.1044
 4307SOL    HW124557   2.368   1.755   6.797  0.4234  0.1305  0.0354
 4307SOL    HW224558   2.308   1.636   6.745  2.3704  0.5814 -1.1276
 4308SOL     OW24559   3.195   3.604   5.479  0.0961  0.2854 -0.1280
 4308SOL    HW124560   3.176   3.511   5.496 -0.2912  0.5086  0.6580
 4308SOL    HW224561   3.278   3.621   5.524  1.3992 -0.9912 -2.0635
 4309SOL     OW24562   0.521   0.480   7.197  0.8854  0.0612  0.8615
 4309SOL    HW124563   0.479   0.394   7.191  3.2301 -0.8355 -2.1786
 4309SOL    HW224564   0.595   0.452   7.252 -0.5192 -0.9176  2.2522
 4310SOL     OW24565   0.713   3.325   8.376  0.5177 -0.5284  0.3258
 4310SOL    HW124566   0.745   3.251   8.428 -1.4086 -1.5193  0.1037
 4310SOL    HW224567   0.635   3.291   8.333 -0.0289 -0.0520  0.9611
 4311SOL     OW24568   3.437   2.238  11.660  0.4283  0.0307  0.9557
 4311SOL    HW124569   3.488   2.185  11.721  2.2572  0.7485  0.0480
 4311SOL    HW224570   3.362   2.257  11.716 -0.3144 -0.5881  0.1550
 4312SOL     OW24571   1.074   4.351   6.111 -0.1975  0.4600  0.0570
 4312SOL    HW124572   1.004   4.290   6.085 -0.5681  1.1746 -0.6179
 4312SOL    HW224573   1.070   4.328   6.204  0.6698  0.0940 -0.0006
 4313SOL     OW24574   3.724   4.032   2.745 -0.1458  0.0554  0.3043
 4313SOL    HW124575   3.666   3.962   2.718  3.6889 -2.0263 -2.5145
 4313SOL    HW224576   3.654   4.087   2.781 -2.0079 -1.1598 -1.4387
 4314SOL     OW24577   3.224   4.654   8.834  0.2286  0.0681  0.3533
 4314SOL    HW124578   3.227   4.559   8.827  0.3635 -0.0372  1.9592
 4314SOL    HW224579   3.192   4.665   8.923  0.2128 -0.2770  0.3910
 4315SOL     OW24580   0.303   2.096  16.325 -0.5077 -0.1773  0.1672
 4315SOL    HW124581   0.288   2.156  16.398  3.0622 -1.6963  2.1638
 4315SOL    HW224582   0.243   2.126  16.257 -0.5105  2.3513  1.3201
 4316SOL     OW24583   0.980   0.670   1.206 -0.3317  0.1562  0.3189
 4316SOL    HW124584   0.988   0.575   1.218  0.8993  0.2940  0.5658
 4316SOL    HW224585   0.892   0.691   1.237 -0.7926 -0.4269 -0.5950
 4317SOL     OW24586   1.887   1.678   7.035 -0.0928  0.2978  0.4466
 4317SOL    HW124587   1.822   1.659   7.103 -1.6740 -0.4220 -1.2703
 4317SOL    HW224588   1.875   1.610   6.968 -1.6445  0.8696  0.1465
 4318SOL     OW24589   3.902   2.389   6.237  0.3725  0.4735 -0.7929
 4318SOL    HW124590   3.988   2.347   6.230 -1.2557 -2.5113 -2.8925
 4318SOL    HW224591   3.869   2.349   6.317 -1.2270 -0.7768 -2.0936
 4319SOL     OW24592   4.574   2.435   3.746  0.3052 -0.2462 -0.4430
 4319SOL    HW124593   4.545   2.494   3.676  1.0769 -0.1579 -0.6914
 4319SOL    HW224594   4.488   2.425   3.788  1.4264  0.7548  2.1101
 4320SOL     OW24595   2.348   3.920  12.639 -0.2000  0.2278 -0.3284
 4320SOL    HW124596   2.406   3.972  12.583  0.1147 -0.1640 -0.3701
 4320SOL    HW224597   2.409   3.896  12.709  1.1006  0.8284 -1.2731
 4321SOL     OW24598   2.001   2.137   3.055  0.3769  0.1658 -1.6477
 4321SOL    HW124599   2.027   2.079   2.983 -0.8248 -1.3060 -0.8879
 4321SOL    HW224600   1.911   2.106   3.061 -0.2050  2.4523  1.2011
 4322SOL     OW24601   0.265   1.586   6.220  0.1958  0.3930  0.0758
 4322SOL    HW124602   0.229   1.607   6.134 -0.1033  1.4285  0.4505
 4322SOL    HW224603   0.258   1.676   6.253 -1.7469  0.0032  0.7131
 4323SOL     OW24604   0.679   0.339   2.168  0.5243  0.4994  0.0150
 4323SOL    HW124605   0.651   0.394   2.095 -0.6153  0.1079  0.1505
 4323SOL    HW224606   0.752   0.294   2.126  1.3505 -0.1544  2.1815
 4324SOL     OW24607   3.390   4.038  15.353  0.4238  0.1412 -0.6869
 4324SOL    HW124608   3.339   4.089  15.290 -1.6243  0.0310  0.8841
 4324SOL    HW224609   3.350   3.951  15.353 -1.4797  1.0218  0.1277
 4325SOL     OW24610   4.084   3.220   4.224  0.0828 -0.0335 -0.4670
 4325SOL    HW124611   4.080   3.293   4.286 -1.0918 -0.5931  0.1300
 4325SOL    HW224612   4.169   3.244   4.188  1.1746 -0.0236  2.0797
 4326SOL     OW24613   1.516   3.334  16.285  1.0917 -0.6472 -0.4048
 4326SOL    HW124614   1.483   3.274  16.352  0.7246 -0.0606 -0.0551
 4326SOL    HW224615   1.545   3.399  16.349 -1.3503  0.8692 -0.8448
 4327SOL     OW24616   3.371   3.116   7.038 -0.4124  0.3596  0.1829
 4327SOL    HW124617   3.418   3.177   7.096 -2.2752 -0.3161  2.3891
 4327SOL    HW224618   3.372   3.142   6.946 -2.2982 -1.4435 -0.3346
 4328SOL     OW24619   0.434   2.077   9.010  0.3700  0.4299 -0.3265
 4328SOL    HW124620   0.349   2.095   8.972  0.4678  2.5052  0.4253
 4328SOL    HW224621   0.434   2.018   9.085  0.4212 -0.5419 -1.0995
 4329SOL     OW24622   3.623   0.491   3.826  0.4363  0.1042 -0.1457
 4329SOL    HW124623   3.559   0.487   3.754  1.1510 -0.9416 -0.7124
 4329SOL    HW224624   3.703   0.489   3.773 -0.4543 -0.3192 -1.4697
 4330SOL     OW24625   2.346   2.828   6.618  0.5726 -0.2174 -0.1401
 4330SOL    HW124626   2.281   2.768   6.581 -2.0643  2.1352  0.6633
 4330SOL    HW224627   2.423   2.772   6.619  0.3028 -0.5788  0.4055
 4331SOL     OW24628   2.172   0.441  10.671 -0.0341  0.1827  0.1298
 4331SOL    HW124629   2.264   0.443  10.645 -0.2097  0.3972 -0.4704
 4331SOL    HW224630   2.177   0.392  10.753  1.4797  0.9452  0.4900
 4332SOL     OW24631   2.084   1.887   1.182  0.0059 -0.1531 -0.1834
 4332SOL    HW124632   2.051   1.973   1.209 -0.9849 -0.8540  0.8669
 4332SOL    HW224633   2.163   1.915   1.135  0.2116 -1.6833 -0.7243
 4333SOL     OW24634   2.727   1.130  16.971 -0.5069 -0.8102  0.3512
 4333SOL    HW124635   2.812   1.113  17.011 -0.1179 -2.6550 -1.2828
 4333SOL    HW224636   2.754   1.164  16.885  2.1888  1.3813  2.0727
 4334SOL     OW24637   2.986   0.422   5.307  0.2813  0.2777 -0.3440
 4334SOL    HW124638   3.048   0.356   5.275 -1.9700 -1.6179 -0.7700
 4334SOL    HW224639   2.965   0.390   5.395  1.0316 -2.0767 -1.0093
 4335SOL     OW24640   0.811   4.154   2.315 -0.0175 -0.1987 -0.1580
 4335SOL    HW124641   0.832   4.241   2.281  0.1022 -0.0679  0.2545
 4335SOL    HW224642   0.871   4.106   2.258  2.2660 -0.0345  2.1014
 4336SOL     OW24643   1.774   1.081  11.993 -0.0942 -0.0551 -0.0867
 4336SOL    HW124644   1.808   1.093  11.905  0.7963 -0.2986  0.2256
 4336SOL    HW224645   1.855   1.097  12.042  0.4353  1.5586 -1.4506
 4337SOL     OW24646   0.823   1.515   3.081  0.6081  0.1034 -0.1840
 4337SOL    HW124647   0.845   1.422   3.090 -1.6955 -0.1102  3.2786
 4337SOL    HW224648   0.734   1.517   3.045  0.6012  1.2201 -0.0781
 4338SOL     OW24649   4.347   1.073  14.560 -0.4788 -0.1453  0.0147
 4338SOL    HW124650   4.439   1.094  14.575  0.2365 -2.9891 -0.3973
 4338SOL    HW224651   4.342   0.979  14.544  2.7379  0.0845 -2.3477
 4339SOL     OW24652   0.317   0.912   4.264 -0.3002  0.3903  0.0682
 4339SOL    HW124653   0.266   0.861   4.200  0.2896 -1.4554  1.0704
 4339SOL    HW224654   0.259   0.988   4.272 -1.5228 -0.5057 -0.1818
 4340SOL     OW24655   1.564   1.152  12.155 -0.2959  0.0035 -0.0704
 4340SOL    HW124656   1.499   1.132  12.088  0.3036 -2.0170 -0.0529
 4340SOL    HW224657   1.644   1.143  12.103 -0.5227  1.6535 -0.7068
 4341SOL     OW24658   2.143   0.404   7.846  0.0917 -0.2361 -0.0835
 4341SOL    HW124659   2.093   0.387   7.925 -0.9951  0.1294 -0.6873
 4341SOL    HW224660   2.081   0.366   7.784 -0.1090  1.5752 -1.0022
 4342SOL     OW24661   3.382   0.064   8.316 -0.5788 -0.0819  0.0522
 4342SOL    HW124662   3.365   0.152   8.282 -0.7270  0.7526  2.2671
 4342SOL    HW224663   3.430   0.086   8.396 -0.9435 -3.1540  1.1377
 4343SOL     OW24664   0.855   0.302   9.175 -0.0061  0.5310  0.2878
 4343SOL    HW124665   0.796   0.366   9.215 -0.9207 -0.9799  1.3716
 4343SOL    HW224666   0.907   0.354   9.114 -1.0398  0.5288 -0.6049
 4344SOL     OW24667   0.742   2.668  13.485  0.3218 -0.2717  0.2628
 4344SOL    HW124668   0.711   2.679  13.395 -2.0098 -0.8286  1.0202
 4344SOL    HW224669   0.698   2.746  13.519  0.3550 -0.7435  1.3728
 4345SOL     OW24670   0.122   4.154   2.632 -0.5654  0.2693  0.7125
 4345SOL    HW124671   0.202   4.202   2.611 -1.3398  0.5005 -1.6706
 4345SOL    HW224672   0.126   4.081   2.570  0.6286  1.3333 -0.4498
 4346SOL     OW24673   2.048   3.332  15.252 -0.4973 -0.0809  0.2035
 4346SOL    HW124674   2.088   3.353  15.168  1.6147  1.3858  1.5609
 4346SOL    HW224675   2.026   3.241  15.233  0.0375 -0.0863 -0.3959
 4347SOL     OW24676   3.199   0.617   5.750 -0.2746 -0.7282 -0.2049
 4347SOL    HW124677   3.294   0.605   5.756 -0.6351 -2.5900  1.6734
 4347SOL    HW224678   3.191   0.578   5.663 -0.0515  0.3771 -0.7084
 4348SOL     OW24679   2.921   3.757   8.565  0.3060 -0.5324  0.1796
 4348SOL    HW124680   2.914   3.828   8.501 -0.8089 -1.7291 -1.0155
 4348SOL    HW224681   2.906   3.670   8.527 -0.2510 -1.5067  2.6167
 4349SOL     OW24682   1.178   1.587   9.997 -0.2050  0.0871  0.3506
 4349SOL    HW124683   1.170   1.493  10.013 -0.2247 -0.1541 -1.0957
 4349SOL    HW224684   1.225   1.625  10.071 -0.1940  1.6865 -0.4690
 4350SOL     OW24685   3.046   3.211   6.567  0.3671 -0.1982 -0.0228
 4350SOL    HW124686   3.058   3.116   6.570  0.5566 -0.1804 -0.2297
 4350SOL    HW224687   3.047   3.234   6.660 -0.6306 -0.7723  0.1199
 4351SOL     OW24688   2.186   2.938   7.199  0.1431 -0.3850  0.7567
 4351SOL    HW124689   2.180   3.033   7.188 -2.0104 -0.7325 -1.0039
 4351SOL    HW224690   2.240   2.920   7.122  0.4236  3.9627 -0.0550
 4352SOL     OW24691   1.602   3.014   3.889  0.2221 -0.1128  0.1182
 4352SOL    HW124692   1.513   2.984   3.908 -0.2219  0.3163 -1.2613
 4352SOL    HW224693   1.592   3.103   3.922 -0.1814  0.2608 -1.0046
 4353SOL     OW24694   2.687   3.563  11.328  0.3407 -0.3291 -0.1471
 4353SOL    HW124695   2.757   3.509  11.292 -2.0831 -3.0628 -0.7481
 4353SOL    HW224696   2.646   3.507  11.395 -0.4087 -0.7481 -0.9590
 4354SOL     OW24697   2.562   0.626  15.548  0.1860  0.5500  0.9966
 4354SOL    HW124698   2.593   0.717  15.552 -0.0707  0.6414  0.9415
 4354SOL    HW224699   2.624   0.590  15.484 -0.9631 -2.8709  1.7951
 4355SOL     OW24700   1.639   2.050  11.153  0.0715 -0.1500 -0.2322
 4355SOL    HW124701   1.640   2.083  11.063 -1.0935 -1.2924 -0.6672
 4355SOL    HW224702   1.686   2.113  11.207 -1.4401  1.8968 -1.2921
 4356SOL     OW24703   2.859   2.062   6.952 -0.0375  0.3915 -0.6669
 4356SOL    HW124704   2.923   2.114   6.904 -2.1685  2.7217 -1.0096
 4356SOL    HW224705   2.824   1.999   6.889  0.4792 -0.4716 -0.0771
 4357SOL     OW24706   1.305   2.055   9.464  0.1197  0.1007  0.1710
 4357SOL    HW124707   1.220   2.036   9.505  0.0557 -0.1104 -0.0560
 4357SOL    HW224708   1.356   1.977   9.486  0.6971  0.0172 -1.4946
 4358SOL     OW24709   1.185   3.101   1.492  0.0179  0.2448  0.8497
 4358SOL    HW124710   1.270   3.068   1.522  0.9169 -0.8381 -2.8724
 4358SOL    HW224711   1.205   3.151   1.412  0.4644 -1.9746 -0.4254
 4359SOL     OW24712   0.690   2.908   6.945  0.6825 -0.8364 -0.5667
 4359SOL    HW124713   0.623   2.954   6.894  1.3552  1.1652  0.3260
 4359SOL    HW224714   0.633   2.876   7.015 -0.9261  2.7260 -0.2313
 4360SOL     OW24715   2.872   0.880   2.756  0.0396 -0.0094  0.0882
 4360SOL    HW124716   2.794   0.878   2.811 -1.4373  0.5755 -1.9652
 4360SOL    HW224717   2.945   0.888   2.817  0.2298  0.3537 -0.1775
 4361SOL     OW24718   3.645   4.177   6.936  0.1135  0.3499  0.0542
 4361SOL    HW124719   3.646   4.085   6.906 -1.8350  0.3476 -0.0352
 4361SOL    HW224720   3.597   4.163   7.017 -3.2431  0.2552 -1.9483
 4362SOL     OW24721   3.215   1.419   7.443  0.0404 -0.7459  0.7456
 4362SOL    HW124722   3.167   1.440   7.363  0.6295  3.8327  1.5725
 4362SOL    HW224723   3.149   1.377   7.497 -0.6680 -2.0810 -1.1790
 4363SOL     OW24724   3.663   1.569  13.399 -0.5763  0.4782  0.0120
 4363SOL    HW124725   3.629   1.562  13.310  0.4160 -2.7461 -0.0992
 4363SOL    HW224726   3.756   1.571  13.378 -0.5175 -2.0589  0.0150
 4364SOL     OW24727   1.535   4.419   7.443  0.3497 -0.0234  0.4517
 4364SOL    HW124728   1.487   4.369   7.377  1.4434  0.0054 -0.3632
 4364SOL    HW224729   1.492   4.504   7.441 -1.2862 -0.7774  2.4664
 4365SOL     OW24730   0.578   3.274   3.246 -0.7432 -0.2587  0.0439
 4365SOL    HW124731   0.648   3.216   3.217 -1.5170 -0.3353 -1.6392
 4365SOL    HW224732   0.627   3.339   3.297  0.4397  0.4660 -2.0018
 4366SOL     OW24733   3.117   0.927  14.988 -0.6910  0.5351  0.0223
 4366SOL    HW124734   3.181   0.943  14.919  1.7411 -0.3990  2.0408
 4366SOL    HW224735   3.138   1.001  15.045  1.1353  0.6138 -0.7322
 4367SOL     OW24736   2.354   1.626   5.985 -0.2095  0.1117 -0.0250
 4367SOL    HW124737   2.406   1.546   5.983 -1.2194 -0.5552  0.3171
 4367SOL    HW224738   2.394   1.675   6.058  0.4158  2.5148 -1.9857
 4368SOL     OW24739   3.537   2.450  11.839  0.2645 -0.8669 -0.4701
 4368SOL    HW124740   3.469   2.511  11.809 -0.4678 -0.8926  1.1254
 4368SOL    HW224741   3.559   2.408  11.756 -1.7444  0.2257 -1.5637
 4369SOL     OW24742   4.600   3.206   9.990  0.2691 -0.4592 -0.2326
 4369SOL    HW124743   4.620   3.275   9.927  3.1928  2.2074  3.6175
 4369SOL    HW224744   4.543   3.153   9.934  0.7068 -1.7444  0.5536
 4370SOL     OW24745   1.037   1.375   6.010  0.1149 -0.6131 -0.1398
 4370SOL    HW124746   1.075   1.444   6.064 -1.4095 -1.5445  2.1396
 4370SOL    HW224747   1.021   1.314   6.083  2.0031 -0.8775  0.0603
 4371SOL     OW24748   3.343   1.849  14.671 -0.7068 -0.3866 -0.0941
 4371SOL    HW124749   3.264   1.814  14.711 -1.0759  2.9753  2.0637
 4371SOL    HW224750   3.399   1.871  14.745 -0.8739 -0.8022  0.1581
 4372SOL     OW24751   2.785   4.585   9.355 -0.3113  0.1678 -0.5695
 4372SOL    HW124752   2.695   4.555   9.363 -0.4692  1.1820  1.4482
 4372SOL    HW224753   2.829   4.508   9.391  1.3878  1.1912 -0.4458
 4373SOL     OW24754   4.671   2.260   3.220  0.1680 -0.1831 -0.7174
 4373SOL    HW124755   4.715   2.220   3.296  0.3439  1.0856 -0.1585
 4373SOL    HW224756   4.718   2.343   3.219 -0.3180  0.1099  0.3180
 4374SOL     OW24757   4.337   0.692   5.108  0.3457  0.5440  0.0529
 4374SOL    HW124758   4.367   0.602   5.090 -1.1181  0.3481 -1.4257
 4374SOL    HW224759   4.396   0.744   5.053  0.4614  0.9823  0.5906
 4375SOL     OW24760   3.080   2.882   3.168 -0.2324 -0.1333 -0.3687
 4375SOL    HW124761   3.006   2.847   3.217  0.6503 -1.5699 -0.0427
 4375SOL    HW224762   3.126   2.923   3.242 -1.5588 -0.7329  0.7822
 4376SOL     OW24763   3.832   0.978   1.993  0.5736 -0.2576 -0.0239
 4376SOL    HW124764   3.777   1.034   2.048  2.6083 -0.3108  2.0617
 4376SOL    HW224765   3.918   0.971   2.034  1.1058  0.3607 -1.0428
 4377SOL     OW24766   3.571   3.075   6.039  0.6322 -0.1296 -0.0350
 4377SOL    HW124767   3.492   3.055   5.989 -0.4479 -1.1133  2.0643
 4377SOL    HW224768   3.602   2.990   6.072 -1.8961 -0.7105  0.8659
 4378SOL     OW24769   1.659   0.020  17.429  0.0872  0.2309 -0.2695
 4378SOL    HW124770   1.723   0.045  17.362 -1.5715  0.4518 -1.7593
 4378SOL    HW224771   1.717   4.698  17.480  1.3433  2.0651  0.3722
 4379SOL     OW24772   1.295   4.103  16.739 -0.0600  0.3354  0.6424
 4379SOL    HW124773   1.298   4.199  16.739  2.9076  0.2454 -0.9641
 4379SOL    HW224774   1.275   4.090  16.647 -2.0178  0.3081  1.0624
 4380SOL     OW24775   0.563   0.510   1.140  0.0157 -0.1766 -0.2571
 4380SOL    HW124776   0.648   0.477   1.108 -0.6721  0.1415 -2.3975
 4380SOL    HW224777   0.501   0.436   1.144 -1.0542  0.6913 -0.9025
 4381SOL     OW24778   0.875   1.962   6.582 -0.5791 -0.2279 -0.0955
 4381SOL    HW124779   0.900   2.036   6.637 -2.4224  0.5182 -0.2665
 4381SOL    HW224780   0.945   1.899   6.599 -1.5276 -1.2367  0.0366
 4382SOL     OW24781   0.983   2.739   6.361 -0.0161  0.1744 -0.2217
 4382SOL    HW124782   0.959   2.714   6.272  0.4857 -0.0195 -0.3007
 4382SOL    HW224783   0.932   2.683   6.420  2.3473  0.1274  1.7730
 4383SOL     OW24784   3.170   2.278  15.956 -0.0286 -0.2430 -0.0833
 4383SOL    HW124785   3.264   2.277  15.934 -0.1326 -2.3041 -0.4302
 4383SOL    HW224786   3.160   2.226  16.036 -0.6691  0.0862  0.0477
 4384SOL     OW24787   3.419   0.011   1.487  0.1125 -0.9132 -0.3779
 4384SOL    HW124788   3.337   0.028   1.442  0.1165 -0.3916 -0.1892
 4384SOL    HW224789   3.395   4.671   1.540 -0.4303 -1.6368 -1.6511
 4385SOL     OW24790   1.101   1.741   5.378 -0.2782 -0.2851  0.4008
 4385SOL    HW124791   1.102   1.687   5.458  0.3756  0.2876  0.7766
 4385SOL    HW224792   1.180   1.792   5.392  0.6618 -1.6631  0.0932
 4386SOL     OW24793   1.459   4.331   9.453 -0.2320  0.1842  0.2923
 4386SOL    HW124794   1.401   4.407   9.447 -3.3562 -2.1975  0.2521
 4386SOL    HW224795   1.418   4.288   9.529  0.9468 -0.1210  0.7493
 4387SOL     OW24796   2.267   1.316   5.054 -0.2754  1.0386  0.0271
 4387SOL    HW124797   2.188   1.289   5.102 -0.1954  1.0563  0.1696
 4387SOL    HW224798   2.245   1.289   4.965 -1.3174  0.9965  0.2980
 4388SOL     OW24799   1.782   2.458   3.932 -0.3109 -0.1793 -0.9597
 4388SOL    HW124800   1.872   2.429   3.948 -0.5030 -1.0286 -1.3691
 4388SOL    HW224801   1.759   2.401   3.858  0.0066 -1.3559 -0.1599
 4389SOL     OW24802   3.822   0.529   5.168  0.6923  0.2369 -0.8052
 4389SOL    HW124803   3.903   0.484   5.144  1.3247  1.5988 -1.2260
 4389SOL    HW224804   3.779   0.453   5.208  1.4828  0.9087  1.3086
 4390SOL     OW24805   2.176   3.221   5.779  0.8081 -1.0327  0.3294
 4390SOL    HW124806   2.141   3.229   5.868  0.9086  2.3280  0.0487
 4390SOL    HW224807   2.108   3.168   5.737 -0.5789 -0.5174  1.8817
 4391SOL     OW24808   3.057   3.545   8.688 -0.2552 -1.0374 -1.4535
 4391SOL    HW124809   3.088   3.535   8.598 -0.2208  0.3122 -1.5914
 4391SOL    HW224810   2.999   3.619   8.669  1.8567  0.9262 -0.1485
 4392SOL     OW24811   1.675   1.709  10.533  0.0520 -0.5334 -0.1334
 4392SOL    HW124812   1.678   1.690  10.627  0.4759 -0.6352 -0.1688
 4392SOL    HW224813   1.691   1.626  10.489 -0.1131 -0.4421 -0.3673
 4393SOL     OW24814   2.828   2.182  16.421  0.3165  0.3571  0.3815
 4393SOL    HW124815   2.737   2.156  16.432  0.0155  1.2028 -0.0836
 4393SOL    HW224816   2.829   2.182  16.325  2.6393 -1.9210  0.4153
 4394SOL     OW24817   1.223   0.445   8.885  1.1418 -0.3249 -0.1106
 4394SOL    HW124818   1.226   0.367   8.830  0.2021 -0.8166  0.5380
 4394SOL    HW224819   1.226   0.515   8.820  0.8597  1.8693  2.2291
 4395SOL     OW24820   2.902   3.875   4.339  0.1151 -0.0657 -0.6331
 4395SOL    HW124821   2.829   3.828   4.378  3.5040 -2.0699  3.2099
 4395SOL    HW224822   2.968   3.868   4.408  0.0456  0.3835 -0.5216
 4396SOL     OW24823   1.222   1.620   5.837  0.0148 -0.3508  0.2934
 4396SOL    HW124824   1.298   1.673   5.813 -1.7766  2.6454  1.3435
 4396SOL    HW224825   1.165   1.683   5.880  2.0443  1.8942 -0.2799
 4397SOL     OW24826   0.693   4.404   7.688 -0.0801  0.1404  0.0493
 4397SOL    HW124827   0.744   4.465   7.742  0.1911  1.2021 -1.4296
 4397SOL    HW224828   0.757   4.356   7.637 -0.8837 -0.6386 -0.2318
 4398SOL     OW24829   1.675   4.194   0.533  0.3501  0.5317 -0.0397
 4398SOL    HW124830   1.682   4.259   0.603 -1.0896  0.6703 -0.0150
 4398SOL    HW224831   1.587   4.157   0.542 -0.2720  1.7434 -1.1071
 4399SOL     OW24832   2.759   2.894  10.128  0.3275 -0.0267  0.5106
 4399SOL    HW124833   2.704   2.962  10.090  1.0931 -0.4345 -1.2872
 4399SOL    HW224834   2.818   2.941  10.188 -1.1491  0.3845  1.6570
 4400SOL     OW24835   2.039   4.254   3.101  0.3441 -0.3200 -0.7192
 4400SOL    HW124836   2.016   4.168   3.067 -1.3991  0.2494 -0.9634
 4400SOL    HW224837   1.967   4.256   3.164  0.5053  1.0285 -0.5834
 4401SOL     OW24838   2.489   3.458   3.770  0.0733 -0.2511 -0.3739
 4401SOL    HW124839   2.476   3.412   3.687  0.9988 -1.6754  0.2632
 4401SOL    HW224840   2.395   3.470   3.784  0.5507  0.7062  2.1351
 4402SOL     OW24841   1.051   1.370   4.986  0.3533  0.4655 -0.2423
 4402SOL    HW124842   1.006   1.415   5.058  1.6961  0.2075  0.7686
 4402SOL    HW224843   1.091   1.440   4.934  1.3978  0.1738  0.1577
 4403SOL     OW24844   3.888   0.053   5.092 -0.0996  0.2671  0.1292
 4403SOL    HW124845   3.893   4.701   5.053 -2.8310 -0.2657  0.9719
 4403SOL    HW224846   3.982   0.063   5.107  0.6237 -4.0051 -1.5944
 4404SOL     OW24847   2.394   0.030  17.596  0.9807  0.6135  0.0958
 4404SOL    HW124848   2.374   4.684  17.549 -1.3478  0.1635  1.8294
 4404SOL    HW224849   2.464   0.059  17.538 -0.7273  0.1025 -2.2586
 4405SOL     OW24850   2.584   0.493   8.804 -0.8626 -0.0204 -0.1654
 4405SOL    HW124851   2.600   0.444   8.723  0.9935  0.8961 -0.3658
 4405SOL    HW224852   2.668   0.485   8.850 -2.4231 -1.3675  2.4525
 4406SOL     OW24853   2.514   3.242   4.688 -0.5239  0.2030 -0.5198
 4406SOL    HW124854   2.428   3.265   4.724 -0.5003 -0.6525  0.0714
 4406SOL    HW224855   2.540   3.315   4.631  0.1020 -0.1260 -0.6564
 4407SOL     OW24856   1.620   1.663  15.812 -0.4938 -0.3951 -0.4457
 4407SOL    HW124857   1.647   1.702  15.729  0.6444  0.5552  0.3851
 4407SOL    HW224858   1.536   1.626  15.782  0.3048 -1.9924 -0.7031
 4408SOL     OW24859   0.097   4.629   8.036 -0.4143 -0.3783 -0.7260
 4408SOL    HW124860   0.058   4.583   7.962  1.1282  0.5614 -2.1177
 4408SOL    HW224861   0.121   4.716   8.003 -2.1582  0.3534 -0.0729
 4409SOL     OW24862   2.757   1.232   7.686 -0.1416  0.0246  0.1059
 4409SOL    HW124863   2.755   1.311   7.740 -1.0272  0.1073 -0.0399
 4409SOL    HW224864   2.785   1.164   7.747 -0.1763 -1.1656 -1.2114
 4410SOL     OW24865   1.499   0.469  13.205 -0.6021  0.2103 -0.5472
 4410SOL    HW124866   1.487   0.533  13.134 -3.5800 -0.1798 -0.3614
 4410SOL    HW224867   1.523   0.384  13.167 -1.6714 -0.3063 -0.0442
 4411SOL     OW24868   0.228   4.570  12.682  0.2226  0.2918  0.0440
 4411SOL    HW124869   0.139   4.604  12.687 -1.1683 -3.2710 -0.4801
 4411SOL    HW224870   0.245   4.518  12.761 -0.5449  1.6767  1.1135
 4412SOL     OW24871   2.005   2.472   5.161 -0.2353  0.1014 -0.4329
 4412SOL    HW124872   2.000   2.550   5.105  0.0282  0.6919  0.3670
 4412SOL    HW224873   1.977   2.511   5.244  0.0867  1.7634 -1.0933
 4413SOL     OW24874   0.664   0.120   3.243  0.0105 -0.0957 -0.0792
 4413SOL    HW124875   0.699   0.080   3.163  3.2624  0.8449  0.8916
 4413SOL    HW224876   0.593   0.062   3.269 -0.7756  0.4312 -1.0335
 4414SOL     OW24877   0.568   2.494   4.668 -0.0676  0.3594  0.3000
 4414SOL    HW124878   0.566   2.448   4.753 -2.1671  2.1600  1.2052
 4414SOL    HW224879   0.549   2.426   4.603  1.9004  1.1224 -1.0748
 4415SOL     OW24880   3.348   0.949   0.119  0.2029  0.1162  0.4624
 4415SOL    HW124881   3.299   0.970   0.198 -0.4818 -1.3870  0.4423
 4415SOL    HW224882   3.438   0.978   0.133  0.9853 -0.8981 -2.4378
 4416SOL     OW24883   0.639   3.084   4.780  0.0136  0.0214  0.4187
 4416SOL    HW124884   0.716   3.039   4.814  0.0930 -1.0891 -1.2179
 4416SOL    HW224885   0.569   3.021   4.798  0.0473  0.8880  3.4675
 4417SOL     OW24886   3.465   0.792   8.634  0.3632  0.0033  0.3225
 4417SOL    HW124887   3.489   0.835   8.717  1.0216  0.4295 -0.0825
 4417SOL    HW224888   3.498   0.859   8.574 -1.3578 -0.1725 -0.8239
 4418SOL     OW24889   3.613   4.669   6.522 -0.1777 -0.4078 -0.3483
 4418SOL    HW124890   3.676   4.720   6.471 -2.2369  1.6937 -0.7603
 4418SOL    HW224891   3.652   4.673   6.609  0.2258  0.3708 -0.5626
 4419SOL     OW24892   2.779   2.406   1.126  0.1199  0.6423  0.4537
 4419SOL    HW124893   2.740   2.434   1.209  0.1815  0.7071  0.4599
 4419SOL    HW224894   2.817   2.319   1.138 -0.4839  0.4106  0.7329
 4420SOL     OW24895   4.091   0.989  10.125 -0.1136  0.6878 -0.2059
 4420SOL    HW124896   4.097   1.083  10.140  1.8766  0.5936 -0.4405
 4420SOL    HW224897   3.995   0.986  10.121 -0.0491 -0.9985 -0.2463
 4421SOL     OW24898   0.746   1.203   5.042  0.4947  0.5325  0.8380
 4421SOL    HW124899   0.831   1.247   5.045  1.1113 -0.6458  0.7396
 4421SOL    HW224900   0.689   1.242   5.109 -0.3423 -1.1689  1.1025
 4422SOL     OW24901   0.726   0.504   6.781  0.6248 -0.2785  0.0241
 4422SOL    HW124902   0.652   0.453   6.750 -0.2768  0.4225  1.0247
 4422SOL    HW224903   0.683   0.565   6.841  1.9712 -0.3083  1.0255
 4423SOL     OW24904   3.811   3.208   7.922  0.1711  0.2740  0.2258
 4423SOL    HW124905   3.800   3.286   7.868 -0.3535 -1.2560 -1.8538
 4423SOL    HW224906   3.847   3.142   7.863  3.0957  0.3964  1.8626
 4424SOL     OW24907   0.024   1.470   7.328  0.2270  0.0545  0.0401
 4424SOL    HW124908   4.721   1.543   7.378 -1.3827 -0.8591  0.1434
 4424SOL    HW224909   4.720   1.410   7.391 -0.3459  0.0191 -0.3519
 4425SOL     OW24910   0.156   0.157   7.766  0.5836  0.1630 -0.1337
 4425SOL    HW124911   0.196   0.208   7.836  1.1945 -1.8947  1.0039
 4425SOL    HW224912   0.074   0.127   7.804  1.1934 -0.4378  0.6995
 4426SOL     OW24913   0.518   1.953  16.435  0.1075 -0.1644 -0.2261
 4426SOL    HW124914   0.545   1.876  16.384  0.1712 -0.4771  0.2815
 4426SOL    HW224915   0.434   1.985  16.403  0.3269  1.7182  1.1015
 4427SOL     OW24916   1.339   4.530   6.458 -0.0572  0.0827 -0.1007
 4427SOL    HW124917   1.291   4.452   6.430  3.6377 -1.0241 -3.3527
 4427SOL    HW224918   1.269   4.587   6.487  1.6652  2.2803 -0.2579
 4428SOL     OW24919   2.920   1.856  15.392 -0.4451  0.2733  0.0628
 4428SOL    HW124920   2.955   1.895  15.473 -3.0931 -2.1366  2.3649
 4428SOL    HW224921   2.992   1.802  15.358  0.8074  1.6790  0.4646
 4429SOL     OW24922   2.336   2.604   4.647  0.0264  0.3557  0.2433
 4429SOL    HW124923   2.398   2.671   4.673  1.1488 -0.5352 -0.1406
 4429SOL    HW224924   2.388   2.530   4.680 -0.0780  0.8424  1.4690
 4430SOL     OW24925   0.003   1.915  13.336  0.2149  0.1740  0.2366
 4430SOL    HW124926   4.646   1.890  13.348 -0.2888  1.5768 -0.7015
 4430SOL    HW224927   0.022   1.977  13.406 -1.8967 -0.1817  1.1329
 4431SOL     OW24928   1.552   2.270   1.215 -0.1963  0.6055 -0.1180
 4431SOL    HW124929   1.504   2.348   1.188  1.0836  1.6075  0.5036
 4431SOL    HW224930   1.614   2.296   1.283  0.9904  3.0262 -2.1669
 4432SOL     OW24931   3.504   0.286  14.846  0.4479  0.2964 -0.2028
 4432SOL    HW124932   3.419   0.313  14.880  0.7516  1.6849 -0.5484
 4432SOL    HW224933   3.486   0.273  14.753 -1.1593 -0.5159  0.2342
 4433SOL     OW24934   0.720   2.470  13.849  0.3928  0.0927  0.5277
 4433SOL    HW124935   0.721   2.560  13.816  0.6578 -0.4364 -0.9243
 4433SOL    HW224936   0.747   2.489  13.939 -2.2901  1.4846  1.0212
 4434SOL     OW24937   2.777   0.316   8.080 -0.1103  0.3305 -0.0455
 4434SOL    HW124938   2.849   0.304   8.019 -3.6056  1.9072 -4.4749
 4434SOL    HW224939   2.731   0.393   8.047 -0.7580  0.0823  0.2539
 4435SOL     OW24940   4.706   3.224   0.658 -0.4810 -0.2275  0.0613
 4435SOL    HW124941   4.668   3.302   0.617 -0.7140  0.0123  0.7377
 4435SOL    HW224942   0.043   3.272   0.699 -1.6581 -0.0249  1.9113
 4436SOL     OW24943   0.843   3.826  11.618  0.0990 -0.3764  0.5204
 4436SOL    HW124944   0.807   3.865  11.698 -1.9481  1.0174 -1.0798
 4436SOL    HW224945   0.867   3.736  11.639 -1.2217 -0.7270  0.5380
 4437SOL     OW24946   0.878   1.776   3.959 -0.2215  0.5904  0.3798
 4437SOL    HW124947   0.940   1.849   3.949  2.1020 -1.7031 -2.1949
 4437SOL    HW224948   0.859   1.769   3.865  1.7745 -0.2952  0.0410
 4438SOL     OW24949   1.055   0.111  11.058  0.1067  0.0612  0.0675
 4438SOL    HW124950   0.991   0.169  11.016  0.4857  0.1963 -0.3166
 4438SOL    HW224951   1.052   0.129  11.152  0.2992  2.9824 -0.4743
 4439SOL     OW24952   1.416   2.136   1.900  0.0355 -0.1305 -0.3328
 4439SOL    HW124953   1.356   2.211   1.902 -1.5189 -1.4327  1.9354
 4439SOL    HW224954   1.408   2.106   1.809  1.4399 -0.8362 -0.2188
 4440SOL     OW24955   1.078   3.053  12.094 -0.3956 -0.1967  0.2803
 4440SOL    HW124956   1.171   3.043  12.073 -0.6970 -1.8173 -0.3053
 4440SOL    HW224957   1.062   2.973  12.143 -1.9824  0.3047  0.5753
 4441SOL     OW24958   1.990   3.496   3.273 -0.5185 -0.7270 -0.7253
 4441SOL    HW124959   2.070   3.513   3.322  0.2068 -0.4904 -2.0166
 4441SOL    HW224960   1.998   3.403   3.253  1.7221 -0.7196  0.1154
 4442SOL     OW24961   0.530   1.969   9.348 -0.0741  0.2185 -0.1703
 4442SOL    HW124962   0.575   1.899   9.395  0.3413  0.0705 -0.7970
 4442SOL    HW224963   0.572   2.043   9.391 -1.2695  1.2479 -0.7622
 4443SOL     OW24964   1.141   3.310  16.327 -0.3724  0.6215  0.2866
 4443SOL    HW124965   1.204   3.269  16.387  0.5868  1.3361 -0.2332
 4443SOL    HW224966   1.195   3.326  16.249 -2.4167  1.0468 -1.0179
 4444SOL     OW24967   1.419   0.841   7.962  0.5679  0.7949 -0.3197
 4444SOL    HW124968   1.353   0.806   7.902  0.3844  0.0371  0.3216
 4444SOL    HW224969   1.490   0.847   7.899 -0.2147  1.4130 -1.1359
 4445SOL     OW24970   0.713   2.225  10.405 -0.4102 -0.1356  0.2801
 4445SOL    HW124971   0.776   2.202  10.472  1.9293  0.5752 -1.6703
 4445SOL    HW224972   0.735   2.318  10.400  0.3640 -0.3182  0.3681
 4446SOL     OW24973   4.584   2.556  15.140  0.1117 -0.4387  0.6718
 4446SOL    HW124974   4.514   2.616  15.168  0.4284  0.6110 -0.7180
 4446SOL    HW224975   4.578   2.559  15.044  0.8288 -2.8133  0.5747
 4447SOL     OW24976   0.016   3.788  10.643  0.2148 -0.1707 -0.1683
 4447SOL    HW124977   4.732   3.851  10.574  1.3414  1.0987  0.6873
 4447SOL    HW224978   4.665   3.770  10.680 -0.1981  0.9879 -0.5841
 4448SOL     OW24979   3.526   4.242   2.764  0.4413 -0.2563  0.8141
 4448SOL    HW124980   3.479   4.227   2.846 -0.0765  1.0896  0.7629
 4448SOL    HW224981   3.552   4.332   2.780  0.9221 -0.3916  0.7852
 4449SOL     OW24982   2.069   0.386  16.381  0.0212 -0.1963  0.3781
 4449SOL    HW124983   2.043   0.477  16.364  1.2512  0.0267 -0.2652
 4449SOL    HW224984   2.077   0.356  16.291 -1.6658 -1.9247  0.8084
 4450SOL     OW24985   1.307   3.925   4.354  0.2725 -0.7019  0.4849
 4450SOL    HW124986   1.395   3.958   4.371  1.0028 -2.3448 -0.0537
 4450SOL    HW224987   1.283   3.886   4.438  2.6295 -0.3935  1.3265
 4451SOL     OW24988   3.991   4.709  11.345  0.3150  0.1528  0.1894
 4451SOL    HW124989   3.923   4.660  11.298 -0.0309 -0.9815  1.8771
 4451SOL    HW224990   4.019   4.653  11.418  0.9993  1.7549  1.1610
 4452SOL     OW24991   0.375   3.185   5.803 -0.5780 -0.3503 -0.1525
 4452SOL    HW124992   0.304   3.223   5.751 -0.7356 -1.8290 -1.0154
 4452SOL    HW224993   0.407   3.250   5.865  0.7783 -1.5048  0.3380
 4453SOL     OW24994   0.783   4.130   8.182  0.5234  0.4204 -0.5467
 4453SOL    HW124995   0.820   4.061   8.238  1.3295  0.3264 -1.1959
 4453SOL    HW224996   0.732   4.183   8.243 -0.7324 -0.8752 -0.4594
 4454SOL     OW24997   4.595   2.386  11.164  0.3171  0.6376 -0.7968
 4454SOL    HW124998   4.604   2.308  11.218 -0.4199  1.6027  0.7157
 4454SOL    HW224999   4.520   2.425  11.209  1.1484 -1.0081  1.9664
 4455SOL     OW25000   2.230   1.488  13.278 -0.2348  0.5161  0.1617
 4455SOL    HW125001   2.323   1.497  13.299 -0.3543  0.4982  0.7027
 4455SOL    HW225002   2.238   1.439  13.196  1.0158 -0.0001  0.5846
 4456SOL     OW25003   0.836   1.331   7.232  0.0979 -0.1525  0.3288
 4456SOL    HW125004   0.742   1.333   7.250  0.1632  1.4964  0.5075
 4456SOL    HW225005   0.848   1.426   7.225 -4.4693  0.4540  0.9857
 4457SOL     OW25006   4.400   1.804   3.240  0.1846 -0.1565  0.3972
 4457SOL    HW125007   4.378   1.823   3.149 -1.5360  0.8023  1.0018
 4457SOL    HW225008   4.328   1.751   3.273  0.3647 -0.1818  0.7588
 4458SOL     OW25009   4.236   3.284  11.677 -0.3610  0.1871 -0.6760
 4458SOL    HW125010   4.280   3.231  11.744  1.7492 -0.2000 -2.3877
 4458SOL    HW225011   4.288   3.260  11.601  0.4904 -0.7642  0.2083
 4459SOL     OW25012   2.159   0.759   6.728  0.1204 -0.2395 -0.3274
 4459SOL    HW125013   2.232   0.802   6.684  1.5222 -1.0734  1.2331
 4459SOL    HW225014   2.158   0.672   6.689  2.7185  0.0369 -1.0231
 4460SOL     OW25015   4.410   3.563   4.622 -0.0070  0.3630 -0.3389
 4460SOL    HW125016   4.440   3.602   4.705 -1.9258  0.9527  0.0759
 4460SOL    HW225017   4.336   3.515   4.657  0.0019 -1.2663 -2.5850
 4461SOL     OW25018   3.851   2.976   5.773  0.7515 -0.2328 -0.0499
 4461SOL    HW125019   3.906   3.036   5.824 -0.6987  0.3996  0.7874
 4461SOL    HW225020   3.875   2.998   5.683  0.4331  3.0095  0.6509
 4462SOL     OW25021   2.684   1.150   6.702 -0.5954 -0.0766  0.4584
 4462SOL    HW125022   2.633   1.172   6.624 -0.9873  0.7367  0.9436
 4462SOL    HW225023   2.736   1.074   6.676  2.0022  1.7335  0.2745
 4463SOL     OW25024   2.324   1.577   5.705 -0.1475  0.4735 -0.4046
 4463SOL    HW125025   2.358   1.491   5.678  0.0359  0.1356  0.9330
 4463SOL    HW225026   2.340   1.576   5.799 -2.5468  0.5503 -0.0100
 4464SOL     OW25027   2.651   4.241   0.539 -0.8090  0.7553  0.2178
 4464SOL    HW125028   2.706   4.163   0.531 -1.1325  0.5434  0.0868
 4464SOL    HW225029   2.720   4.304   0.560  2.0469 -1.8854 -1.2003
 4465SOL     OW25030   1.143   3.490   5.239 -0.0002  0.1007 -0.5440
 4465SOL    HW125031   1.111   3.400   5.251  0.6779 -0.2273 -1.2171
 4465SOL    HW225032   1.071   3.523   5.186 -0.2904  0.3131 -0.0229
 4466SOL     OW25033   3.852   0.023   4.385 -0.2820  0.8172  0.1453
 4466SOL    HW125034   3.816   0.040   4.298 -0.4622  1.1394  0.2839
 4466SOL    HW225035   3.945   0.008   4.370 -0.2972 -2.2398  2.9000
 4467SOL     OW25036   0.299   0.815   3.747  0.1565  0.1967 -0.2596
 4467SOL    HW125037   0.373   0.832   3.689  1.7593 -1.4056  1.3536
 4467SOL    HW225038   0.238   0.786   3.679  2.1072 -0.5729 -1.6841
 4468SOL     OW25039   4.727   1.926   9.305 -0.4115 -0.3783  0.3525
 4468SOL    HW125040   0.037   1.897   9.385 -0.1830  0.5195  0.5510
 4468SOL    HW225041   4.700   2.011   9.340  1.3098 -0.1771  1.2349
 4469SOL     OW25042   1.309   1.985  11.080  0.0372  0.3653  0.1798
 4469SOL    HW125043   1.223   1.968  11.042  1.1591 -0.6229 -1.8701
 4469SOL    HW225044   1.329   2.073  11.048  0.3079  0.7703  1.4296
 4470SOL     OW25045   2.622   3.258   5.309  0.2565 -0.8853  0.0615
 4470SOL    HW125046   2.570   3.245   5.388 -0.8678 -0.5668 -0.6250
 4470SOL    HW225047   2.598   3.177   5.266  0.5739 -0.7387 -0.3906
 4471SOL     OW25048   1.362   2.449   7.035  0.6465 -0.3047 -0.0447
 4471SOL    HW125049   1.407   2.387   7.093 -0.3982 -2.2269 -1.2715
 4471SOL    HW225050   1.434   2.475   6.978  0.4205 -2.4587 -1.3141
 4472SOL     OW25051   1.973   4.622   9.239 -0.7709  0.3188 -0.3462
 4472SOL    HW125052   2.029   4.676   9.184 -1.3581  0.7539 -0.5163
 4472SOL    HW225053   1.989   4.649   9.329 -1.4473  1.8691 -0.6921
 4473SOL     OW25054   2.197   1.679   3.280 -0.1137 -0.0525 -0.4945
 4473SOL    HW125055   2.114   1.689   3.233 -0.7242  0.2101  0.6454
 4473SOL    HW225056   2.170   1.659   3.369  3.1171 -1.1917  0.2390
 4474SOL     OW25057   2.764   2.439   2.679  0.2567 -0.0809  0.2503
 4474SOL    HW125058   2.813   2.414   2.757 -2.1045 -1.7016  1.2485
 4474SOL    HW225059   2.782   2.533   2.678  1.2424 -0.3030 -1.4313
 4475SOL     OW25060   0.962   4.301   8.015 -0.0307  0.1117 -0.2301
 4475SOL    HW125061   0.923   4.242   8.079 -0.7103  0.8875  0.0694
 4475SOL    HW225062   0.915   4.273   7.937  0.1429  1.0940 -0.6828
 4476SOL     OW25063   3.834   1.260   1.842  0.0110 -0.1271 -0.3932
 4476SOL    HW125064   3.815   1.171   1.873 -0.5793  0.3568  0.6450
 4476SOL    HW225065   3.930   1.259   1.849 -0.3090 -0.7511  4.4810
 4477SOL     OW25066   2.277   0.615  16.631  0.1634  0.0530 -0.1310
 4477SOL    HW125067   2.187   0.604  16.661 -0.0413 -1.6866 -1.4033
 4477SOL    HW225068   2.319   0.540  16.674  1.1678  0.5194 -0.2916
 4478SOL     OW25069   3.347   0.750  16.089  0.1836  0.5245 -0.7655
 4478SOL    HW125070   3.384   0.836  16.108  1.3106  0.0290 -0.7327
 4478SOL    HW225071   3.314   0.712  16.171  0.2710 -0.3076 -1.1174
 4479SOL     OW25072   2.635   1.233   3.546  0.2020 -0.0225  0.6734
 4479SOL    HW125073   2.666   1.151   3.584  1.4453 -0.7211 -1.8506
 4479SOL    HW225074   2.550   1.245   3.587 -0.5618 -0.8626 -0.6820
 4480SOL     OW25075   1.305   2.493  11.138  0.5663  0.3425  0.6920
 4480SOL    HW125076   1.351   2.411  11.156 -1.2063 -0.5699  1.0557
 4480SOL    HW225077   1.255   2.509  11.217  2.2607  0.9373  1.6536
 4481SOL     OW25078   0.292   0.409   0.841  0.5589 -0.2367 -0.1232
 4481SOL    HW125079   0.221   0.390   0.902  2.0590  0.2731  1.8007
 4481SOL    HW225080   0.283   0.347   0.769  0.5246  0.0374 -0.3554
 4482SOL     OW25081   2.959   2.422   5.030 -0.4256 -0.3596 -0.5790
 4482SOL    HW125082   2.948   2.510   4.994  1.6946 -0.4778 -1.5118
 4482SOL    HW225083   2.895   2.431   5.101  1.4226  0.5574  0.9620
 4483SOL     OW25084   1.226   2.185   2.271  0.0271 -0.2004  0.0162
 4483SOL    HW125085   1.213   2.107   2.324 -2.8376  0.9138  0.9950
 4483SOL    HW225086   1.200   2.144   2.189  1.5689 -2.3243  0.6071
 4484SOL     OW25087   0.268   2.524  14.251 -0.1501 -0.2465 -0.1584
 4484SOL    HW125088   0.301   2.614  14.245 -0.3365 -0.1391  0.4958
 4484SOL    HW225089   0.301   2.486  14.169 -0.7393 -0.1170 -0.4585
 4485SOL     OW25090   4.483   0.055  17.188  0.0962  0.9542  0.5053
 4485SOL    HW125091   4.453   0.146  17.190 -2.6680  0.1025 -3.9993
 4485SOL    HW225092   4.518   0.038  17.276 -0.0506  0.6064  0.4949
 4486SOL     OW25093   1.229   4.150  15.920  0.0642  0.1652  0.4015
 4486SOL    HW125094   1.193   4.063  15.936 -0.3763  0.0263 -1.2507
 4486SOL    HW225095   1.154   4.209  15.929 -1.6545 -1.8858 -0.3968
 4487SOL     OW25096   3.598   0.558   7.064  0.4458 -0.0296 -0.2016
 4487SOL    HW125097   3.574   0.589   7.152  0.9732 -1.3728  0.4124
 4487SOL    HW225098   3.545   0.478   7.061  0.4580 -0.0324 -0.3496
 4488SOL     OW25099   0.523   4.443   5.510  0.0165  0.3306  0.4505
 4488SOL    HW125100   0.544   4.350   5.520 -0.0091  0.0518 -1.9522
 4488SOL    HW225101   0.600   4.472   5.461  1.2592 -0.5753  1.8959
 4489SOL     OW25102   0.653   2.778   4.557  0.6324 -0.0953 -0.0484
 4489SOL    HW125103   0.640   2.686   4.580  0.6197  0.4104  1.9348
 4489SOL    HW225104   0.681   2.817   4.640 -1.4273 -0.0294  0.6108
 4490SOL     OW25105   0.020   1.249   1.080  0.0528 -0.1569  0.3245
 4490SOL    HW125106   4.732   1.188   1.010  2.2276 -2.3992  1.5662
 4490SOL    HW225107   0.018   1.334   1.036  0.0880 -0.6725 -0.6620
 4491SOL     OW25108   3.835   1.202   4.275 -0.6974 -0.5421  0.5246
 4491SOL    HW125109   3.794   1.254   4.206  2.4549 -0.3168 -1.1373
 4491SOL    HW225110   3.757   1.157   4.308 -0.9596 -0.9364 -0.6382
 4492SOL     OW25111   0.239   1.871   5.497  0.1106  0.5949 -0.3606
 4492SOL    HW125112   0.312   1.868   5.436  0.8302 -0.1986  0.5428
 4492SOL    HW225113   0.176   1.801   5.480  0.3192 -0.0674  1.5417
 4493SOL     OW25114   2.961   3.772   5.442 -0.4680 -0.2307 -0.5003
 4493SOL    HW125115   3.029   3.705   5.441 -1.1191 -0.9071  0.2301
 4493SOL    HW225116   2.992   3.828   5.371 -0.0291  0.3215  0.1365
 4494SOL     OW25117   2.396   0.056   8.019 -0.4195 -0.2695 -0.5085
 4494SOL    HW125118   2.453   0.106   8.077 -2.2550 -0.9978  1.9064
 4494SOL    HW225119   2.325   0.052   8.083 -0.2554  2.3686 -0.1519
 4495SOL     OW25120   1.283   1.118   5.479 -0.1433  0.0162 -0.2146
 4495SOL    HW125121   1.221   1.185   5.508 -0.0690  0.7878 -1.8554
 4495SOL    HW225122   1.274   1.050   5.546  0.7534  0.4242  0.3175
 4496SOL     OW25123   1.017   2.231   2.990 -0.4913 -0.3296  0.6034
 4496SOL    HW125124   1.005   2.138   3.010 -0.6097 -0.7224 -1.3145
 4496SOL    HW225125   1.052   2.269   3.071 -2.0456  3.0232 -0.2976
 4497SOL     OW25126   3.544   3.965   5.157  0.3254  0.3467 -0.3701
 4497SOL    HW125127   3.492   3.889   5.179  0.2882  1.2047  2.4521
 4497SOL    HW225128   3.482   4.038   5.164 -0.4664 -0.7564  3.9787
 4498SOL     OW25129   0.131   1.423  15.913  0.4029 -0.2315  0.7101
 4498SOL    HW125130   0.211   1.474  15.927  0.7113 -0.2115 -1.1223
 4498SOL    HW225131   0.103   1.401  16.002  0.9349 -1.3524  0.6028
 4499SOL     OW25132   1.629   2.940  13.060  0.0918  0.4894 -0.2541
 4499SOL    HW125133   1.657   2.992  12.984  1.3986  0.1140 -0.0260
 4499SOL    HW225134   1.622   3.009  13.126  0.2937  0.4383 -0.1797
 4500SOL     OW25135   0.451   1.685  12.449  0.4742 -0.1414 -0.4652
 4500SOL    HW125136   0.389   1.628  12.404  1.0443 -1.3036  0.2179
 4500SOL    HW225137   0.451   1.770  12.405 -0.5868  1.6071  2.9210
 4501SOL     OW25138   2.349   2.734   2.955  0.5125  0.1961  0.0002
 4501SOL    HW125139   2.341   2.696   2.868  3.9890 -1.2635  0.3134
 4501SOL    HW225140   2.352   2.657   3.012 -1.4442  1.0543  1.2920
 4502SOL     OW25141   2.900   3.705   7.419 -0.2262 -0.2459  0.0738
 4502SOL    HW125142   2.880   3.751   7.501  0.1589  0.3813 -0.1769
 4502SOL    HW225143   2.973   3.652   7.452 -0.1686 -0.3543 -0.2319
 4503SOL     OW25144   2.677   3.983   1.939  0.4980  0.5378  0.3417
 4503SOL    HW125145   2.756   3.940   1.906 -0.5267 -0.8719 -0.2465
 4503SOL    HW225146   2.663   3.948   2.026  0.4958  1.5391  0.7505
 4504SOL     OW25147   0.358   3.795   2.558  0.3134  0.9219  0.3898
 4504SOL    HW125148   0.334   3.796   2.650  0.2865  1.7319  0.3713
 4504SOL    HW225149   0.414   3.872   2.565  0.8832  0.6798 -1.3834
 4505SOL     OW25150   1.713   1.223   1.249  0.1761  0.3788  0.2901
 4505SOL    HW125151   1.671   1.139   1.228 -2.4980  2.0277 -0.8127
 4505SOL    HW225152   1.708   1.269   1.165 -1.4401 -0.9160 -0.3225
 4506SOL     OW25153   0.663   3.276   5.206  0.1062  0.1979 -0.0533
 4506SOL    HW125154   0.642   3.300   5.296 -0.8683  2.5123 -0.9085
 4506SOL    HW225155   0.595   3.319   5.155 -0.5123 -0.7006  0.0290
 4507SOL     OW25156   1.906   3.099   0.561  0.2487  0.1203  0.7230
 4507SOL    HW125157   1.824   3.149   0.553  0.3582  0.2452  0.3950
 4507SOL    HW225158   1.959   3.159   0.614  0.3567 -0.1955  0.9730
 4508SOL     OW25159   4.010   3.057   9.095 -0.5081  0.3336  0.6574
 4508SOL    HW125160   3.997   2.967   9.065  0.5300  0.6668 -0.7980
 4508SOL    HW225161   3.930   3.073   9.146 -1.0684  0.4576 -0.2457
 4509SOL     OW25162   1.240   2.477   2.838  0.7175  0.1262  0.0522
 4509SOL    HW125163   1.273   2.404   2.786 -0.1047 -0.4129  0.2884
 4509SOL    HW225164   1.259   2.440   2.924  0.2405  2.4483  1.1658
 4510SOL     OW25165   1.619   1.928   5.441  0.0755  0.0794  0.4145
 4510SOL    HW125166   1.559   1.983   5.491  0.7225 -0.5423  1.8702
 4510SOL    HW225167   1.669   1.987   5.385 -0.3458  0.6757  0.6677
 4511SOL     OW25168   4.286   0.522  15.486  0.9430  0.1786  0.0690
 4511SOL    HW125169   4.257   0.453  15.425 -1.5708  0.4993  0.9111
 4511SOL    HW225170   4.366   0.488  15.526  1.3685  2.6887  1.3080
 4512SOL     OW25171   2.957   0.856  15.527  0.3359  0.6617 -0.2937
 4512SOL    HW125172   2.995   0.925  15.472  0.5393  0.7276 -0.0747
 4512SOL    HW225173   2.866   0.876  15.546  0.3369  1.1333 -0.7770
 4513SOL     OW25174   1.801   1.403   3.870 -0.1458  0.6828 -0.4790
 4513SOL    HW125175   1.787   1.310   3.891 -2.3866  1.3346  0.8930
 4513SOL    HW225176   1.897   1.406   3.861  0.2783 -3.7825  2.3160
 4514SOL     OW25177   0.674   1.664   2.391 -0.4490  0.1785 -0.2650
 4514SOL    HW125178   0.669   1.641   2.483  0.4518 -2.0990 -0.7795
 4514SOL    HW225179   0.606   1.615   2.345 -0.0412  1.6255 -2.4359
 4515SOL     OW25180   2.456   4.071   7.990  0.3633  0.1307 -0.0496
 4515SOL    HW125181   2.390   4.137   7.967 -0.6826 -0.7668  0.3424
 4515SOL    HW225182   2.429   4.000   7.930 -0.1247  0.9533 -0.8065
 4516SOL     OW25183   0.648   0.121   4.878 -0.6219 -0.6098  0.1551
 4516SOL    HW125184   0.616   0.163   4.798  1.2573 -1.4111 -1.0286
 4516SOL    HW225185   0.731   0.083   4.849  1.0811  2.7002  0.7298
 4517SOL     OW25186   4.520   1.890   7.487  0.0089 -0.4301 -0.0728
 4517SOL    HW125187   4.498   1.817   7.545 -2.2812  0.5836  0.3506
 4517SOL    HW225188   4.562   1.952   7.547 -1.2661  1.1536 -0.8074
 4518SOL     OW25189   2.874   3.329   3.690 -0.4766  0.0349  0.1563
 4518SOL    HW125190   2.960   3.318   3.648 -0.2367  1.5854  0.2635
 4518SOL    HW225191   2.858   3.420   3.667  0.4834  0.3990  0.9232
 4519SOL     OW25192   0.364   0.840   7.960  0.5627  0.4418  0.6301
 4519SOL    HW125193   0.442   0.797   7.925  0.5383  0.9310 -0.0286
 4519SOL    HW225194   0.361   0.791   8.042  2.5601  0.1407  0.5249
 4520SOL     OW25195   3.860   1.047   6.591 -0.3244 -0.1873 -0.1914
 4520SOL    HW125196   3.826   0.982   6.653 -0.6501 -1.0292 -1.2521
 4520SOL    HW225197   3.822   1.129   6.621 -0.6253 -0.9553  1.5526
 4521SOL     OW25198   0.319   0.541  10.227  0.3112 -0.2422  0.3345
 4521SOL    HW125199   0.314   0.509  10.137 -1.5284 -0.9138  0.6755
 4521SOL    HW225200   0.231   0.580  10.227 -0.1610 -1.2869  1.6703
 4522SOL     OW25201   2.664   0.551   4.519  0.2557  0.4824  0.1666
 4522SOL    HW125202   2.711   0.633   4.529  1.5578 -0.2137 -0.2434
 4522SOL    HW225203   2.655   0.509   4.604  2.3857 -1.6257 -0.6363
 4523SOL     OW25204   0.195   2.509  17.134  0.0091 -0.0798 -0.1292
 4523SOL    HW125205   0.258   2.441  17.158  2.0080  0.7597 -2.9824
 4523SOL    HW225206   0.114   2.459  17.133 -0.0798  0.0191  2.9971
 4524SOL     OW25207   3.224   0.879   6.750 -0.2915  0.5088 -0.2251
 4524SOL    HW125208   3.224   0.832   6.667  1.2889  0.5099 -0.2262
 4524SOL    HW225209   3.214   0.806   6.811  1.7780  2.5255  2.5236
 4525SOL     OW25210   2.825   4.204  10.854  0.2317 -0.5969  0.1656
 4525SOL    HW125211   2.878   4.258  10.913  1.4235 -2.3557  0.7290
 4525SOL    HW225212   2.891   4.184  10.787 -1.5071 -0.5589 -1.5351
 4526SOL     OW25213   0.020   1.642  15.785  0.1028  0.0200 -0.3156
 4526SOL    HW125214   0.033   1.571  15.848  0.0430 -0.3039 -0.6709
 4526SOL    HW225215   0.100   1.636  15.733  1.1397  2.0597  1.0317
 4527SOL     OW25216   2.241   2.271  10.225 -0.6238  0.4468  0.0856
 4527SOL    HW125217   2.196   2.349  10.193 -1.1059 -0.0773 -0.5409
 4527SOL    HW225218   2.327   2.304  10.249 -0.9221  1.8142 -0.7456
 4528SOL     OW25219   1.963   2.841   0.421 -0.1928 -0.0196  0.1043
 4528SOL    HW125220   1.911   2.908   0.464  1.5147  1.7617 -0.5674
 4528SOL    HW225221   1.919   2.834   0.336  0.9195  1.9121 -0.6370
 4529SOL     OW25222   2.067   3.351  17.318 -0.4731  0.3692  0.5628
 4529SOL    HW125223   2.151   3.396  17.311 -1.3771  1.8992 -0.3693
 4529SOL    HW225224   2.021   3.383  17.396 -0.9540  1.7702 -0.3047
 4530SOL     OW25225   4.083   3.543   0.426 -0.1790  0.6759 -0.3647
 4530SOL    HW125226   4.107   3.471   0.484 -0.8930  0.5450 -0.2262
 4530SOL    HW225227   4.144   3.613   0.449 -0.0781  0.5197 -0.1585
 4531SOL     OW25228   2.391   2.134  15.700 -0.1536 -0.3948  0.1574
 4531SOL    HW125229   2.409   2.202  15.765  1.3139 -1.7079  1.1135
 4531SOL    HW225230   2.317   2.178  15.657 -1.4136  0.3551  3.0706
 4532SOL     OW25231   4.048   3.773   7.011 -0.0975  0.3287 -0.1045
 4532SOL    HW125232   4.065   3.714   7.084  2.0036  1.8598  0.6343
 4532SOL    HW225233   3.981   3.720   6.968 -1.5473  1.0464  1.2358
 4533SOL     OW25234   0.575   2.913   1.750 -0.9298 -0.2757 -0.1126
 4533SOL    HW125235   0.664   2.947   1.760 -1.1450  1.2808 -3.4405
 4533SOL    HW225236   0.592   2.836   1.695 -1.1916  0.2873 -0.9807
 4534SOL     OW25237   0.939   0.069   7.281  0.1933  0.1461 -0.0571
 4534SOL    HW125238   0.892   0.151   7.265  0.6833  0.5021  0.3683
 4534SOL    HW225239   0.876   0.038   7.346  0.6864 -3.3924 -1.2910
 4535SOL     OW25240   1.962   1.134   2.495  0.0568 -0.1025 -0.3788
 4535SOL    HW125241   1.885   1.099   2.450 -0.4186 -0.1468  0.4645
 4535SOL    HW225242   2.016   1.133   2.416 -1.9224  0.7141 -1.7378
 4536SOL     OW25243   0.575   3.654   6.677  0.0852 -0.0286 -0.0841
 4536SOL    HW125244   0.650   3.596   6.664  1.1387  1.0364  1.2295
 4536SOL    HW225245   0.570   3.687   6.588 -0.3142 -1.7630 -0.7180
 4537SOL     OW25246   0.636   0.515   5.661  0.5196  0.5488  0.0771
 4537SOL    HW125247   0.593   0.487   5.742  0.8886  2.1753  0.8238
 4537SOL    HW225248   0.651   0.609   5.672  2.5004  0.2313  0.0692
 4538SOL     OW25249   3.270   0.114   8.017 -0.5490 -0.2031 -0.1540
 4538SOL    HW125250   3.196   0.074   8.062  0.5661  0.9153  2.6782
 4538SOL    HW225251   3.301   0.179   8.080  0.7492  0.6328 -1.6743
 4539SOL     OW25252   4.285   4.225  14.422 -0.1245  0.5798 -0.3286
 4539SOL    HW125253   4.332   4.205  14.341  0.1043 -0.7060  0.1200
 4539SOL    HW225254   4.354   4.210  14.487  2.3519  2.7116 -2.4645
 4540SOL     OW25255   2.995   2.678   7.717  0.2633 -0.1688  0.0096
 4540SOL    HW125256   2.956   2.591   7.714  1.9190 -0.8968 -0.1765
 4540SOL    HW225257   3.075   2.684   7.665  1.5167 -2.4993  1.6932
 4541SOL     OW25258   3.431   4.133   4.178 -0.3133  0.3740 -0.1157
 4541SOL    HW125259   3.378   4.068   4.131  2.8273 -1.0595 -1.6870
 4541SOL    HW225260   3.470   4.068   4.237 -0.9810  0.4788  0.4460
 4542SOL     OW25261   0.826   0.845   7.979 -0.0355  0.3156  0.2447
 4542SOL    HW125262   0.857   0.888   8.058  0.3929  2.4469 -1.0632
 4542SOL    HW225263   0.887   0.772   7.986  2.4404  2.3243 -0.5345
 4543SOL     OW25264   4.158   0.837   5.917  0.0831  0.4912  0.4992
 4543SOL    HW125265   4.071   0.856   5.881  0.2033 -0.3537 -0.2276
 4543SOL    HW225266   4.183   0.916   5.965  1.5539  0.6581 -0.5294
 4544SOL     OW25267   3.811   2.768   4.108 -0.0589 -0.6708 -0.7223
 4544SOL    HW125268   3.879   2.812   4.159  0.4038 -2.7476  0.4263
 4544SOL    HW225269   3.810   2.827   4.032  0.0848  0.0281 -0.1875
 4545SOL     OW25270   1.328   4.550  16.066 -0.4740  0.4246 -0.2116
 4545SOL    HW125271   1.404   4.536  16.010 -0.0109 -0.3473  0.6048
 4545SOL    HW225272   1.254   4.570  16.009 -1.1126 -1.1148  0.0860
 4546SOL     OW25273   2.243   0.425  16.999  0.1020  0.2652  0.0399
 4546SOL    HW125274   2.291   0.389  16.924  0.2754 -2.4739  1.4598
 4546SOL    HW225275   2.238   0.520  16.991  2.4126  0.2082 -2.2918
 4547SOL     OW25276   1.647   1.367   7.554 -0.3386  0.0128  0.2329
 4547SOL    HW125277   1.667   1.304   7.485 -0.5530 -1.1896  1.2450
 4547SOL    HW225278   1.736   1.389   7.582 -0.3088 -0.1190  0.2418
 4548SOL     OW25279   1.961   0.863   2.204 -0.2587  0.8258 -0.4316
 4548SOL    HW125280   2.029   0.905   2.152 -0.0452  0.1639 -0.6803
 4548SOL    HW225281   1.921   0.942   2.241 -0.7448  0.7980 -0.8923
 4549SOL     OW25282   4.089   4.693   9.899 -0.2868 -0.1100  0.8683
 4549SOL    HW125283   4.143   4.663   9.826  0.1437 -0.4020  1.3022
 4549SOL    HW225284   4.131   0.041   9.922  0.5493 -0.9014  2.2249
 4550SOL     OW25285   1.931   2.411   7.946  0.3944  0.4202 -0.2718
 4550SOL    HW125286   1.954   2.501   7.923  0.9827 -0.8800 -4.6872
 4550SOL    HW225287   2.017   2.386   7.980 -0.2752 -0.3274  0.8791
 4551SOL     OW25288   4.718   1.683   6.810 -0.8606  0.5254 -0.2684
 4551SOL    HW125289   0.044   1.656   6.741  0.7550 -0.6286  1.6084
 4551SOL    HW225290   4.712   1.600   6.859 -0.0352  0.4696 -0.2562
 4552SOL     OW25291   2.727   0.211   5.826  0.1867 -0.3292 -0.2953
 4552SOL    HW125292   2.755   0.123   5.800  0.7716 -0.4157  0.6285
 4552SOL    HW225293   2.665   0.234   5.757  2.4279 -0.0416 -2.2245
 4553SOL     OW25294   2.178   2.213   7.021  0.0723  0.6480  0.0224
 4553SOL    HW125295   2.114   2.179   7.084  0.3695 -1.7212 -0.9524
 4553SOL    HW225296   2.146   2.166   6.944 -1.5552  2.6886 -0.5439
 4554SOL     OW25297   1.416   3.507   5.303  0.2602 -0.2122  0.1199
 4554SOL    HW125298   1.321   3.520   5.299  0.4102  1.1679  0.9216
 4554SOL    HW225299   1.451   3.519   5.391 -2.2139  0.4719  1.0187
 4555SOL     OW25300   3.047   2.000   2.878 -0.7355 -0.1125 -0.5838
 4555SOL    HW125301   3.140   1.990   2.898 -0.9160 -2.4302 -0.8096
 4555SOL    HW225302   3.048   1.959   2.791  0.7954 -1.1814 -0.0510
 4556SOL     OW25303   2.890   2.747   9.693 -0.3735 -0.3738  0.1611
 4556SOL    HW125304   2.931   2.731   9.778  0.7872  1.9795  0.0266
 4556SOL    HW225305   2.967   2.747   9.636 -0.5312  0.8500 -0.0334
 4557SOL     OW25306   0.636   2.252  12.822 -0.1020  0.5696 -0.4053
 4557SOL    HW125307   0.694   2.258  12.899  0.2696  1.7533 -0.7806
 4557SOL    HW225308   0.555   2.294  12.851  0.5526  0.7475  1.1908
 4558SOL     OW25309   0.566   2.155   3.340  0.1212 -0.7634  0.7300
 4558SOL    HW125310   0.622   2.210   3.285 -1.2216  1.0193  1.1343
 4558SOL    HW225311   0.475   2.180   3.321  0.1270 -0.8832  0.5444
 4559SOL     OW25312   3.385   3.860   3.391 -0.3761 -0.2316 -0.9005
 4559SOL    HW125313   3.384   3.799   3.465  0.9342  0.3230 -0.4303
 4559SOL    HW225314   3.477   3.861   3.364  0.4690 -0.0056  1.9353
 4560SOL     OW25315   2.829   4.506  10.957  0.8435  1.0873 -0.6048
 4560SOL    HW125316   2.808   4.559  10.880 -0.7203  0.9236 -0.2886
 4560SOL    HW225317   2.743   4.483  10.991  0.9284  0.5908 -0.7156
 4561SOL     OW25318   2.994   0.365  17.561 -0.1078  0.5905 -0.3199
 4561SOL    HW125319   2.942   0.297  17.603  1.0484 -0.3788 -0.4258
 4561SOL    HW225320   2.976   0.436  17.622 -3.1294 -0.5382  0.0719
 4562SOL     OW25321   4.666   3.455  16.370  0.0485 -0.1476  0.1547
 4562SOL    HW125322   4.684   3.366  16.399  4.5717  0.7726  0.2023
 4562SOL    HW225323   4.617   3.432  16.290 -0.6023 -1.6342  0.9804
 4563SOL     OW25324   0.020   3.288   3.212  0.0006 -0.0351 -0.6335
 4563SOL    HW125325   0.047   3.345   3.140 -3.0084  0.1777 -1.6005
 4563SOL    HW225326   0.040   3.335   3.293 -1.0743  0.1538 -0.4817
 4564SOL     OW25327   1.921   2.589   9.005  0.0618  0.0320  0.2308
 4564SOL    HW125328   1.957   2.660   8.952  0.4245 -0.7217 -0.5368
 4564SOL    HW225329   1.997   2.533   9.018 -1.4252 -1.6829  1.5798
 4565SOL     OW25330   1.070   4.028  10.729  0.2578  0.1785  0.0461
 4565SOL    HW125331   1.150   3.994  10.688  0.1229 -0.4212  0.2836
 4565SOL    HW225332   1.099   4.094  10.792  1.7528 -0.4074 -0.0115
 4566SOL     OW25333   3.606   3.502  13.413 -0.2708 -0.7294  0.4974
 4566SOL    HW125334   3.602   3.461  13.499  1.0487  0.9653  1.3601
 4566SOL    HW225335   3.516   3.531  13.397  1.1552  2.9635 -0.8930
 4567SOL     OW25336   3.649   0.230   9.240  0.2128  0.7366 -0.0650
 4567SOL    HW125337   3.681   0.156   9.188 -1.2731 -0.4509  0.7042
 4567SOL    HW225338   3.596   0.268   9.169 -1.4539 -2.6801 -0.6747
 4568SOL     OW25339   0.520   2.838   5.205 -0.0929 -0.1223 -0.2104
 4568SOL    HW125340   0.473   2.902   5.258 -1.4793 -0.0718 -1.4918
 4568SOL    HW225341   0.503   2.758   5.255  2.4245 -0.2745  0.4136
 4569SOL     OW25342   0.043   4.496   7.786  0.0367  0.2903  0.1042
 4569SOL    HW125343   0.103   4.462   7.719 -0.3037  2.3271 -1.2295
 4569SOL    HW225344   4.721   4.555   7.737  1.7134  0.8673 -1.2108
 4570SOL     OW25345   0.229   4.708   3.767 -0.6375  0.5689  0.1406
 4570SOL    HW125346   0.194   0.052   3.726 -0.6072  0.4521 -0.1180
 4570SOL    HW225347   0.268   0.006   3.847  0.6574  2.6172 -1.3256
 4571SOL     OW25348   2.659   4.132   3.824  0.3707 -0.2122 -0.4504
 4571SOL    HW125349   2.679   4.047   3.785 -1.4483 -0.7898 -0.1166
 4571SOL    HW225350   2.568   4.142   3.797  0.5667 -1.0522 -1.4508
 4572SOL     OW25351   2.853   1.765   4.689 -0.1486 -0.3781 -0.6474
 4572SOL    HW125352   2.904   1.760   4.609  3.8846 -0.7682  1.9273
 4572SOL    HW225353   2.768   1.798   4.658 -1.4411 -2.5421  0.5571
 4573SOL     OW25354   4.108   0.015   3.330 -0.0097  0.4202 -0.4240
 4573SOL    HW125355   4.174   4.701   3.380 -0.0501  0.6725 -0.1282
 4573SOL    HW225356   4.155   0.096   3.309  0.5871  0.2456  0.2272
 4574SOL     OW25357   3.993   0.694   2.274  0.3135 -0.1579 -0.3399
 4574SOL    HW125358   3.934   0.618   2.273 -0.1374  0.2655 -4.2126
 4574SOL    HW225359   4.020   0.694   2.366  1.2323 -0.1515 -0.6190
 4575SOL     OW25360   4.581   0.714   9.669 -0.0907 -0.6116  0.0865
 4575SOL    HW125361   4.618   0.719   9.757  0.7589  0.5516 -0.3481
 4575SOL    HW225362   4.491   0.687   9.687 -1.1804  3.7910  1.1580
 4576SOL     OW25363   3.440   2.532   3.799 -0.6822 -0.2537  0.2001
 4576SOL    HW125364   3.366   2.590   3.817  0.7571  1.2553  1.2166
 4576SOL    HW225365   3.511   2.583   3.838  0.0005 -1.1929  0.1660
 4577SOL     OW25366   2.881   2.077   7.582  0.0176  0.8274 -0.2030
 4577SOL    HW125367   2.845   2.091   7.670 -0.1833  1.4602 -0.3903
 4577SOL    HW225368   2.807   2.064   7.523  0.0597 -0.9836  0.1437
 4578SOL     OW25369   3.212   1.280   7.993  0.1169  0.4230  0.4388
 4578SOL    HW125370   3.185   1.273   8.085  0.3528  0.2145  0.4906
 4578SOL    HW225371   3.143   1.335   7.957  0.3346  1.0718  1.0018
 4579SOL     OW25372   2.258   2.123   3.653 -0.3825 -0.1503  0.1326
 4579SOL    HW125373   2.222   2.132   3.564 -0.6978  0.9873  0.3824
 4579SOL    HW225374   2.264   2.215   3.677  1.6787  0.4980 -2.8375
 4580SOL     OW25375   4.680   1.505   4.966  0.0946 -0.2611 -0.2711
 4580SOL    HW125376   4.603   1.474   5.013  0.7308 -1.5156 -0.0538
 4580SOL    HW225377   4.661   1.492   4.874 -2.0694 -3.1002  0.5899
 4581SOL     OW25378   3.591   3.502  11.698 -0.1447  0.4377  0.3413
 4581SOL    HW125379   3.512   3.463  11.736  0.6057  1.5577  3.0242
 4581SOL    HW225380   3.647   3.433  11.730 -0.3741 -0.9935 -2.3427
 4582SOL     OW25381   2.091   4.463  11.181  0.3320 -0.4250  0.4635
 4582SOL    HW125382   2.148   4.537  11.204  0.5067 -0.0231 -1.2958
 4582SOL    HW225383   2.127   4.396  11.239  0.6425 -0.7411 -0.1020
 4583SOL     OW25384   2.889   0.112   2.172 -0.0176 -0.0617  0.1525
 4583SOL    HW125385   2.797   0.084   2.181 -0.4447  0.8764 -1.2319
 4583SOL    HW225386   2.910   0.112   2.265  1.2141  0.3806 -0.1343
 4584SOL     OW25387   1.416   2.546  16.469  0.3233  0.2328 -0.3147
 4584SOL    HW125388   1.325   2.575  16.475 -0.0473 -0.7806 -0.9865
 4584SOL    HW225389   1.450   2.543  16.559 -1.2397  1.7047  0.3170
 4585SOL     OW25390   1.316   1.609   2.812 -0.1322  0.8237  0.0942
 4585SOL    HW125391   1.268   1.579   2.889 -1.5270 -1.2064 -1.5606
 4585SOL    HW225392   1.265   1.571   2.740 -0.1091  3.0476 -1.0947
 4586SOL     OW25393   0.332   1.693   9.455  0.2368 -0.2306 -0.4147
 4586SOL    HW125394   0.376   1.685   9.370  1.4399  3.2132 -0.1271
 4586SOL    HW225395   0.253   1.642   9.440 -0.2507  0.5581 -0.5587
 4587SOL     OW25396   1.686   4.193   5.095 -0.9924 -0.4550 -0.3445
 4587SOL    HW125397   1.695   4.138   5.173  0.6122  0.6068  0.2273
 4587SOL    HW225398   1.605   4.239   5.115  1.0934  3.1101 -0.1256
 4588SOL     OW25399   2.402   2.410   1.482 -0.7626  0.2256 -0.6986
 4588SOL    HW125400   2.315   2.429   1.517 -0.6830 -0.5022 -0.1276
 4588SOL    HW225401   2.436   2.350   1.548  0.7876 -0.0605 -1.7717
 4589SOL     OW25402   2.377   3.304   7.226  0.0663 -0.6344 -0.2258
 4589SOL    HW125403   2.419   3.383   7.260  0.2354 -0.2539 -1.3034
 4589SOL    HW225404   2.442   3.241   7.258  0.8186 -0.1802 -0.8494
 4590SOL     OW25405   2.875   1.439  11.264  0.6264  0.0889  0.1684
 4590SOL    HW125406   2.926   1.411  11.340 -0.0401 -2.0976 -0.1757
 4590SOL    HW225407   2.933   1.415  11.191  0.7683  1.1308 -0.0579
 4591SOL     OW25408   2.274   4.687   4.108 -0.4530 -0.1796 -0.6450
 4591SOL    HW125409   2.200   4.645   4.064 -0.7018  0.6804 -1.0400
 4591SOL    HW225410   2.327   4.611   4.134  0.6016 -0.2294 -2.8607
 4592SOL     OW25411   3.314   3.567   9.798 -0.4303  0.2729  0.0940
 4592SOL    HW125412   3.364   3.486   9.800  2.4185  2.0321  1.9666
 4592SOL    HW225413   3.341   3.608   9.880 -0.1981  1.5709 -0.6285
 4593SOL     OW25414   0.065   1.604  10.542 -0.9777 -0.4698 -0.6273
 4593SOL    HW125415   0.092   1.606  10.450 -1.4888  0.8678 -0.7494
 4593SOL    HW225416   4.708   1.582  10.531 -1.1631 -0.2090  0.4173
 4594SOL     OW25417   1.062   1.635  11.177  0.5803 -0.0005 -0.0639
 4594SOL    HW125418   1.101   1.549  11.194 -2.6209 -1.5424 -0.4346
 4594SOL    HW225419   1.012   1.609  11.100 -0.2711  2.2449 -0.2727
 4595SOL     OW25420   2.911   3.595   7.001 -0.4207  0.1619 -0.0214
 4595SOL    HW125421   2.860   3.545   7.065  0.1903 -2.3186 -1.4503
 4595SOL    HW225422   2.970   3.642   7.061 -0.6624  1.0068 -0.4561
 4596SOL     OW25423   2.806   3.908  11.403 -0.0599 -0.2998 -0.2794
 4596SOL    HW125424   2.829   3.816  11.391 -0.9779 -0.3645 -1.6063
 4596SOL    HW225425   2.873   3.953  11.351 -1.7614  1.8328 -0.6021
 4597SOL     OW25426   2.169   2.090   9.412  0.7564  0.0640 -0.2080
 4597SOL    HW125427   2.258   2.105   9.444  0.8192  2.4073 -1.4748
 4597SOL    HW225428   2.139   2.177   9.384  2.5039  0.1205 -1.8481
 4598SOL     OW25429   1.797   0.506   2.294 -0.2851 -0.3284  0.4887
 4598SOL    HW125430   1.789   0.439   2.226 -2.2837 -1.1883  1.5516
 4598SOL    HW225431   1.784   0.456   2.375  1.5024 -2.9888 -0.8477
 4599SOL     OW25432   2.324   3.630  17.393  0.0066  0.4179 -0.6827
 4599SOL    HW125433   2.229   3.627  17.399  0.0479 -1.3285 -0.6231
 4599SOL    HW225434   2.346   3.695  17.459  1.3636 -1.9253  1.1989
 4600SOL     OW25435   2.230   0.574   8.967  0.9162 -0.7051  0.3232
 4600SOL    HW125436   2.309   0.620   8.939  1.2428 -1.5817 -0.1917
 4600SOL    HW225437   2.169   0.612   8.904 -0.6259 -1.6944  1.2191
 4601SOL     OW25438   1.599   3.089   1.921 -0.1433  0.0251 -0.5779
 4601SOL    HW125439   1.637   3.052   1.841  2.1128  1.3072 -0.1078
 4601SOL    HW225440   1.639   3.176   1.920 -1.8852  0.7949 -1.5343
 4602SOL     OW25441   0.092   2.152   5.758 -0.3176  0.0917 -0.9547
 4602SOL    HW125442   0.065   2.064   5.784  2.4964 -0.7842 -0.9606
 4602SOL    HW225443   0.109   2.134   5.666 -3.5671  0.5799 -1.6410
 4603SOL     OW25444   2.149   2.354  15.702 -0.4019  0.5141 -0.2496
 4603SOL    HW125445   2.198   2.362  15.621  0.4232  0.6754  0.2637
 4603SOL    HW225446   2.069   2.311  15.671  0.5536  0.7177 -3.0107
 4604SOL     OW25447   1.149   4.200  15.120  0.1696 -0.6769  0.1492
 4604SOL    HW125448   1.082   4.155  15.170 -2.0648  0.7908 -1.5126
 4604SOL    HW225449   1.207   4.225  15.192  2.3927 -0.2686 -1.7804
 4605SOL     OW25450   2.957   3.668   6.348  0.1719 -0.1396  0.3027
 4605SOL    HW125451   2.907   3.722   6.286  0.5338 -0.3506 -0.1681
 4605SOL    HW225452   2.899   3.664   6.424  1.6402  2.4418  1.5796
 4606SOL     OW25453   4.371   0.642   9.809  0.0288 -0.6320 -0.0180
 4606SOL    HW125454   4.314   0.652   9.734 -0.3127 -1.4275  0.1325
 4606SOL    HW225455   4.337   0.706   9.871  3.3461  0.2083  0.9620
 4607SOL     OW25456   4.082   1.367  11.471  0.1848  0.2646  0.1377
 4607SOL    HW125457   4.017   1.388  11.538  0.7581  2.3674  0.0418
 4607SOL    HW225458   4.036   1.402  11.395 -0.5613  0.4710  0.6984
 4608SOL     OW25459   3.535   3.838   2.712  0.0417  0.4183  0.5054
 4608SOL    HW125460   3.450   3.878   2.693 -1.4680 -1.6711  2.8740
 4608SOL    HW225461   3.521   3.754   2.756 -0.4322 -1.0729 -2.4839
 4609SOL     OW25462   0.176   1.936  11.506  0.2960 -0.2898 -0.1708
 4609SOL    HW125463   0.218   1.989  11.574 -1.7216  1.4522 -0.2839
 4609SOL    HW225464   0.181   1.848  11.545  0.2530 -1.3223 -2.4804
 4610SOL     OW25465   3.057   1.288   3.141 -0.3364  0.1886 -0.0621
 4610SOL    HW125466   3.141   1.332   3.129 -0.3593 -0.4115 -2.4229
 4610SOL    HW225467   3.000   1.358   3.107 -1.3464 -0.1961  0.8438
 4611SOL     OW25468   4.387   0.889   2.399 -0.1000  0.1608 -0.1441
 4611SOL    HW125469   4.391   0.848   2.312  0.5763 -0.5784  0.2365
 4611SOL    HW225470   4.439   0.968   2.384  1.0622 -0.7916 -1.1691
 4612SOL     OW25471   1.186   4.272   1.848 -0.5828 -0.3285  0.3747
 4612SOL    HW125472   1.268   4.250   1.893 -1.2202 -2.5790  0.4591
 4612SOL    HW225473   1.210   4.353   1.804  0.6815 -1.0083 -0.1792
 4613SOL     OW25474   1.342   3.264   6.018 -0.8340 -0.3933  0.4023
 4613SOL    HW125475   1.344   3.268   6.113 -0.6103  0.5321  0.3567
 4613SOL    HW225476   1.428   3.233   5.990 -0.5774  1.3797 -0.8082
 4614SOL     OW25477   1.369   1.699   8.499  0.2620 -0.2000 -0.4015
 4614SOL    HW125478   1.408   1.767   8.555 -1.8721  0.7350 -0.0547
 4614SOL    HW225479   1.310   1.761   8.457 -1.1634 -1.7831 -0.7131
 4615SOL     OW25480   4.576   1.353   2.388 -0.0645  0.4406  0.4086
 4615SOL    HW125481   4.611   1.307   2.463  0.9591  2.0250  0.9109
 4615SOL    HW225482   4.493   1.305   2.383  1.3507 -2.0499  0.9882
 4616SOL     OW25483   2.963   2.487  15.595 -0.1205 -0.1890  0.1795
 4616SOL    HW125484   2.942   2.580  15.603 -2.4121 -0.7162  0.4189
 4616SOL    HW225485   2.997   2.470  15.683  4.0340  0.5770 -1.2643
 4617SOL     OW25486   1.154   2.740   3.007 -0.7092  0.2336 -0.3406
 4617SOL    HW125487   1.191   2.654   2.990  0.7671  0.8691 -0.3042
 4617SOL    HW225488   1.076   2.725   3.060  0.6844  1.4825  2.0351
 4618SOL     OW25489   4.133   1.775   6.202 -0.1226  0.0386  0.2036
 4618SOL    HW125490   4.128   1.864   6.237  0.3605 -0.8378  2.4921
 4618SOL    HW225491   4.078   1.773   6.123  0.4511 -0.7038 -0.1779
 4619SOL     OW25492   0.066   2.746   3.937 -0.2931 -0.1610  0.0731
 4619SOL    HW125493   0.062   2.710   4.026 -0.7132 -0.5368 -0.0949
 4619SOL    HW225494   4.717   2.708   3.910 -0.6853  0.7760 -0.0206
 4620SOL     OW25495   3.116   1.210   4.732 -0.6039  0.1180  0.0291
 4620SOL    HW125496   3.136   1.220   4.639 -1.2995 -1.0321 -0.2374
 4620SOL    HW225497   3.037   1.260   4.750 -1.5805 -0.7026 -2.0408
 4621SOL     OW25498   2.522   1.315  17.133 -0.1948  0.2209 -0.1227
 4621SOL    HW125499   2.561   1.244  17.185 -0.7730 -0.0855 -0.1022
 4621SOL    HW225500   2.601   1.344  17.088  1.1865 -1.9893  0.8818
 4622SOL     OW25501   2.087   3.620   6.724  0.0151  0.1233  0.2921
 4622SOL    HW125502   2.049   3.577   6.801 -3.9041  1.2088 -1.0173
 4622SOL    HW225503   2.011   3.669   6.694 -0.5008 -0.7823  0.0955
 4623SOL     OW25504   2.201   2.548   2.761  0.0714  0.2663 -0.0339
 4623SOL    HW125505   2.165   2.460   2.772 -0.3512  0.7081  2.0983
 4623SOL    HW225506   2.129   2.590   2.808 -0.8832 -0.1034 -1.1577
 4624SOL     OW25507   0.801   1.795   3.020 -0.2064  0.6019  0.0201
 4624SOL    HW125508   0.777   1.853   3.092 -3.3527  0.4765 -0.9060
 4624SOL    HW225509   0.831   1.721   3.072 -1.3282 -0.4753 -0.8572
 4625SOL     OW25510   2.479   1.013   6.865 -0.6630  0.2011 -0.2180
 4625SOL    HW125511   2.559   1.066   6.870  0.1563 -1.2860  1.9597
 4625SOL    HW225512   2.479   1.008   6.769  2.3801 -0.7505 -0.1595
 4626SOL     OW25513   1.892   0.357  10.937  0.2166  0.3536 -0.1950
 4626SOL    HW125514   1.981   0.344  10.905  0.2624 -0.5814  0.3023
 4626SOL    HW225515   1.882   0.274  10.984 -0.5820  0.7849  0.3977
 4627SOL     OW25516   1.804   3.440  13.846 -0.6587 -0.6031  0.1301
 4627SOL    HW125517   1.870   3.407  13.785 -0.9415 -1.1930  0.1455
 4627SOL    HW225518   1.867   3.474  13.910 -0.8280 -0.5961  0.2914
 4628SOL     OW25519   0.837   0.802  15.368 -0.7637 -0.4638 -0.7562
 4628SOL    HW125520   0.790   0.879  15.400 -0.3730 -0.5785  0.0911
 4628SOL    HW225521   0.841   0.752  15.450  1.7576 -0.4864 -0.8910
 4629SOL     OW25522   3.890   2.317   4.489  0.5958  0.0716  0.1713
 4629SOL    HW125523   3.871   2.409   4.470  0.6292  0.3365  1.4098
 4629SOL    HW225524   3.834   2.288   4.561 -2.8112  1.7888 -1.8083
 4630SOL     OW25525   4.195   2.596   6.303 -0.4567 -0.6292  0.3949
 4630SOL    HW125526   4.103   2.586   6.277 -0.0167 -0.8170 -1.0590
 4630SOL    HW225527   4.232   2.600   6.215  1.4548 -2.1458  1.1400
 4631SOL     OW25528   1.991   1.535   2.449  0.3072 -0.0471 -0.1705
 4631SOL    HW125529   2.046   1.470   2.492 -0.9664 -1.5092 -0.7571
 4631SOL    HW225530   2.042   1.616   2.453  1.4589 -0.6987 -1.6967
 4632SOL     OW25531   4.260   0.893  12.158  0.2600  0.5711  0.7638
 4632SOL    HW125532   4.165   0.899  12.157  0.3796  1.3113 -3.0291
 4632SOL    HW225533   4.270   0.970  12.103  0.0079  0.8491  1.1132
 4633SOL     OW25534   4.635   1.606   6.401  0.2650  0.0778  0.0320
 4633SOL    HW125535   4.553   1.569   6.432  1.2603 -0.1731  2.4110
 4633SOL    HW225536   4.628   1.677   6.465  0.5693  0.3655 -0.2567
 4634SOL     OW25537   3.139   3.204  15.721 -0.6527 -0.1458 -0.2595
 4634SOL    HW125538   3.134   3.290  15.680 -2.3327 -0.5501 -0.8943
 4634SOL    HW225539   3.099   3.222  15.806  1.4138  1.5504  0.3591
 4635SOL     OW25540   1.633   4.493   9.305 -0.3463 -0.1661  0.6059
 4635SOL    HW125541   1.580   4.431   9.355 -0.4663  0.5518  1.3706
 4635SOL    HW225542   1.707   4.517   9.361 -1.4895  0.4427  1.8707
 4636SOL     OW25543   2.996   4.535   5.972 -0.5896 -0.0803  0.1125
 4636SOL    HW125544   3.019   4.617   5.930 -1.4928 -0.3817 -0.9563
 4636SOL    HW225545   2.990   4.571   6.061 -1.5904  3.5107 -1.4345
 4637SOL     OW25546   2.126   0.574  13.321  0.1517 -0.3430 -0.4037
 4637SOL    HW125547   2.033   0.596  13.331  0.4230  0.3541  0.5329
 4637SOL    HW225548   2.134   0.528  13.237  0.3096  1.5333 -1.4139
 4638SOL     OW25549   3.160   3.141   4.225 -0.3808 -0.1128  0.1198
 4638SOL    HW125550   3.183   3.094   4.145  0.7763  1.1729 -0.3034
 4638SOL    HW225551   3.241   3.152   4.274  0.4867 -0.9912 -1.1387
 4639SOL     OW25552   3.096   2.335   8.791 -0.3498 -0.0452 -0.8400
 4639SOL    HW125553   3.083   2.428   8.809  2.5286  0.1343  0.2231
 4639SOL    HW225554   3.167   2.341   8.728 -2.4378 -0.3059 -3.2154
 4640SOL     OW25555   3.049   1.532   5.086  0.0057 -0.7357  0.2515
 4640SOL    HW125556   3.016   1.534   5.175  0.2633  0.5793  0.3164
 4640SOL    HW225557   2.974   1.566   5.037  0.5775  0.7492  0.4202
 4641SOL     OW25558   3.374   0.857   7.196  0.4464 -0.4049 -0.3961
 4641SOL    HW125559   3.409   0.783   7.246 -0.0021 -0.0940  0.3731
 4641SOL    HW225560   3.280   0.839   7.195 -0.1590  2.6476 -0.5939
 4642SOL     OW25561   0.664   1.617  16.466  0.3555  0.0158  0.2314
 4642SOL    HW125562   0.669   1.528  16.500 -0.7918 -0.3077 -0.4362
 4642SOL    HW225563   0.680   1.663  16.548 -0.0644  2.6804 -1.1518
 4643SOL     OW25564   0.380   0.397   1.545  0.6666 -0.3236 -0.3837
 4643SOL    HW125565   0.461   0.388   1.596  0.5361 -0.0807 -0.1403
 4643SOL    HW225566   0.351   0.306   1.546  1.4712 -0.5780  0.2844
 4644SOL     OW25567   1.300   1.643   3.865  0.2408  0.6398  0.4662
 4644SOL    HW125568   1.269   1.569   3.917  0.8566  0.6306  0.8222
 4644SOL    HW225569   1.224   1.655   3.809 -0.0674  1.5994  1.0700
 4645SOL     OW25570   0.821   0.912   7.290  0.6906  0.6499  0.3652
 4645SOL    HW125571   0.856   0.920   7.201  0.4019  3.4158  0.4987
 4645SOL    HW225572   0.734   0.946   7.268 -0.4235 -3.5513 -1.7240
 4646SOL     OW25573   0.160   2.302   4.276  0.1641 -0.8541  0.6418
 4646SOL    HW125574   0.073   2.292   4.237 -0.0278  0.4131  0.7293
 4646SOL    HW225575   0.161   2.236   4.345 -1.6427 -0.4165  1.0667
 4647SOL     OW25576   3.454   1.378  15.228  0.2345  0.0213  0.0058
 4647SOL    HW125577   3.540   1.336  15.237 -0.2001 -0.5777  1.3646
 4647SOL    HW225578   3.417   1.351  15.312  2.4839 -1.7577  0.4339
 4648SOL     OW25579   4.623   1.115   7.877 -0.4527  0.1119 -0.1582
 4648SOL    HW125580   4.681   1.039   7.886 -0.9028 -0.4031 -1.4853
 4648SOL    HW225581   4.610   1.113   7.971 -0.7103  1.4472 -0.1720
 4649SOL     OW25582   3.614   1.782  12.417 -0.7352 -0.4885 -0.3264
 4649SOL    HW125583   3.669   1.794  12.495 -1.3887  0.1663  0.0378
 4649SOL    HW225584   3.625   1.689  12.398  2.9691 -0.0062 -0.3986
 4650SOL     OW25585   3.227   3.405   9.013 -0.3787  0.2430  0.1354
 4650SOL    HW125586   3.314   3.434   9.042 -1.1337  3.3015 -0.6085
 4650SOL    HW225587   3.239   3.432   8.922 -1.2395 -2.2173 -0.6996
 4651SOL     OW25588   1.328   1.158   8.323  0.0246 -0.0827  0.3271
 4651SOL    HW125589   1.395   1.143   8.390  0.3462 -0.6125 -0.1121
 4651SOL    HW225590   1.307   1.067   8.301 -2.2651  1.1856 -2.5550
 4652SOL     OW25591   4.463   3.049   6.530 -0.1874 -0.0538  0.3120
 4652SOL    HW125592   4.406   3.090   6.595  1.6702  1.5384  0.9563
 4652SOL    HW225593   4.402   3.022   6.462  0.6813  1.2618 -0.9898
 4653SOL     OW25594   3.652   4.374   5.064 -0.0194  0.4868 -0.1817
 4653SOL    HW125595   3.746   4.370   5.051 -0.1310  0.4310 -1.0324
 4653SOL    HW225596   3.645   4.340   5.153  0.4812  1.6161  0.2829
 4654SOL     OW25597   3.004   3.204   9.066  0.0123 -0.0686 -0.1334
 4654SOL    HW125598   2.996   3.259   9.144  0.7176  0.1169 -0.1906
 4654SOL    HW225599   3.076   3.249   9.023  1.2824 -0.6367  1.3673
 4655SOL     OW25600   3.407   4.679  14.814 -0.0976  0.1965  0.5336
 4655SOL    HW125601   3.411   4.584  14.809  1.0112  0.2858 -0.1242
 4655SOL    HW225602   3.488   4.701  14.860  1.1633 -1.9790 -0.6212
 4656SOL     OW25603   0.740   3.075   3.433  0.0197 -0.1447  0.2833
 4656SOL    HW125604   0.781   3.131   3.367  2.4107 -0.2922  1.6565
 4656SOL    HW225605   0.680   3.027   3.376  0.0819 -0.3325  0.3756
 4657SOL     OW25606   4.386   2.558   7.379  0.0980  0.1377  0.1918
 4657SOL    HW125607   4.399   2.510   7.461  2.9625  1.8984  0.7668
 4657SOL    HW225608   4.320   2.620   7.413  1.3245  0.6944  1.5747
 4658SOL     OW25609   3.708   3.763   8.427 -0.2188 -0.0440  0.1124
 4658SOL    HW125610   3.776   3.705   8.392 -0.6194  0.3050 -1.2428
 4658SOL    HW225611   3.712   3.830   8.358  1.5620 -1.1680 -0.8889
 4659SOL     OW25612   1.413   4.097  10.509 -0.8188 -0.1403  0.1815
 4659SOL    HW125613   1.349   4.154  10.466 -0.4512  0.3648  0.2977
 4659SOL    HW225614   1.495   4.126  10.469 -2.0620  1.3336 -1.2964
 4660SOL     OW25615   4.152   0.457   2.663  0.4726 -0.3527  0.2090
 4660SOL    HW125616   4.188   0.502   2.587 -0.0173  1.0370  0.8051
 4660SOL    HW225617   4.230   0.430   2.711  2.0632  0.7969 -1.7467
 4661SOL     OW25618   3.733   3.433  17.535  0.2615  0.5631  0.0066
 4661SOL    HW125619   3.694   3.380  17.604  1.4458 -1.3629 -0.7932
 4661SOL    HW225620   3.682   3.417  17.456  0.3644 -3.0557  0.6696
 4662SOL     OW25621   2.553   4.113   3.149 -0.2204 -0.5157 -0.1869
 4662SOL    HW125622   2.479   4.173   3.137 -0.3193 -0.9822 -1.8988
 4662SOL    HW225623   2.579   4.124   3.241 -0.4218 -3.2005  0.1955
 4663SOL     OW25624   4.312   3.880   4.060  0.0577  0.6761  0.4281
 4663SOL    HW125625   4.300   3.819   3.987 -0.4389  0.6737  0.5095
 4663SOL    HW225626   4.220   3.881   4.085 -0.0830 -3.3577  0.0686
 4664SOL     OW25627   3.617   4.426   6.108  0.1927 -0.2713 -0.1512
 4664SOL    HW125628   3.594   4.410   6.199  1.4369 -1.0728  0.0159
 4664SOL    HW225629   3.641   4.340   6.074  1.1585  0.5411 -1.5547
 4665SOL     OW25630   2.393   4.146   3.694  0.0753  0.9797  0.1925
 4665SOL    HW125631   2.369   4.060   3.659  0.3250  2.2021 -2.9888
 4665SOL    HW225632   2.318   4.168   3.750 -1.9972 -1.3577 -1.6553
 4666SOL     OW25633   2.625   0.283   6.661  0.5796  0.0602  0.2544
 4666SOL    HW125634   2.549   0.335   6.687  0.1217 -0.0316 -0.9037
 4666SOL    HW225635   2.596   0.194   6.678 -1.3342  0.5303 -0.5279
 4667SOL     OW25636   4.473   3.115   5.272 -0.5230 -0.2123  0.1612
 4667SOL    HW125637   4.549   3.060   5.289  0.5075  0.8461 -1.0247
 4667SOL    HW225638   4.505   3.158   5.193  0.1031 -2.0677 -0.5719
 4668SOL     OW25639   2.395   1.189  16.202 -0.4155 -0.1359  0.4100
 4668SOL    HW125640   2.310   1.233  16.205 -0.8419 -1.1068  3.0523
 4668SOL    HW225641   2.361   1.099  16.199 -3.6987  1.1071 -0.2612
 4669SOL     OW25642   0.115   1.849  16.022  0.7344 -0.2963  0.2529
 4669SOL    HW125643   0.070   1.909  16.082  0.6200 -1.3419  1.2216
 4669SOL    HW225644   0.047   1.842  15.955  0.8676 -0.5349  0.1452
 4670SOL     OW25645   0.609   3.387   6.239  0.2506 -0.3599 -0.0067
 4670SOL    HW125646   0.659   3.459   6.202 -0.0166  0.2005  0.7389
 4670SOL    HW225647   0.585   3.424   6.324  0.2701  2.4828 -1.2529
 4671SOL     OW25648   0.074   1.662   8.383 -0.0514  0.0354  0.1672
 4671SOL    HW125649   0.034   1.695   8.463 -1.4988 -0.8654 -0.1810
 4671SOL    HW225650   0.165   1.647   8.405  0.6310  1.4678 -1.6910
 4672SOL     OW25651   0.555   1.345  11.742 -0.3859  0.7497 -0.0914
 4672SOL    HW125652   0.527   1.361  11.832 -1.4313  0.5638 -0.3743
 4672SOL    HW225653   0.649   1.343  11.758 -0.5250 -0.8451  0.5147
 4673SOL     OW25654   1.501   0.888   3.258  0.3425 -0.6635 -0.4924
 4673SOL    HW125655   1.554   0.846   3.190 -0.4209  0.2225 -1.6352
 4673SOL    HW225656   1.437   0.821   3.282 -1.2144  1.2032  0.5168
 4674SOL     OW25657   0.088   1.528  13.491 -0.7035 -0.4325 -0.4440
 4674SOL    HW125658   0.029   1.586  13.540 -0.3094  0.2004 -0.7240
 4674SOL    HW225659   0.172   1.572  13.504 -0.2313 -0.9113 -1.8922
 4675SOL     OW25660   0.211   2.827  10.744  0.1216  0.2165 -0.1522
 4675SOL    HW125661   0.282   2.763  10.733 -0.3100 -0.4257  0.8593
 4675SOL    HW225662   0.266   2.906  10.745 -0.3609  0.5285  1.4734
 4676SOL     OW25663   0.313   1.417  10.603 -0.6365  0.0083  0.3861
 4676SOL    HW125664   0.243   1.432  10.540 -0.8110 -1.1374  0.3136
 4676SOL    HW225665   0.265   1.408  10.685 -0.2189  0.7697  0.7200
 4677SOL     OW25666   0.301   2.132   9.306  0.1927  0.3024  0.4427
 4677SOL    HW125667   0.363   2.073   9.348 -0.8379 -1.0863  0.0000
 4677SOL    HW225668   0.251   2.072   9.251 -0.0759 -0.8192  1.8904
 4678SOL     OW25669   2.293   4.608   3.321  0.0244  0.2185  0.3287
 4678SOL    HW125670   2.337   4.685   3.356  0.3848  0.9003 -1.6609
 4678SOL    HW225671   2.313   4.536   3.382  3.1371  1.6551  1.0059
 4679SOL     OW25672   1.943   1.355  11.021 -0.8168  0.2985  0.3468
 4679SOL    HW125673   1.922   1.319  11.107 -0.1725  1.1480  0.8581
 4679SOL    HW225674   1.855   1.383  10.995 -0.8187 -1.6619 -1.8246
 4680SOL     OW25675   0.298   2.045   3.386 -0.0170  0.3683  0.5814
 4680SOL    HW125676   0.246   1.965   3.379  0.0843  0.4222 -0.9015
 4680SOL    HW225677   0.384   2.012   3.412 -1.6546 -4.0173  0.4768
 4681SOL     OW25678   4.596   2.140   6.784  0.2773  0.3381  0.0234
 4681SOL    HW125679   4.504   2.164   6.788  0.0702 -0.6622  1.3061
 4681SOL    HW225680   4.645   2.204   6.732 -1.6292  0.2050 -1.8926
 4682SOL     OW25681   0.810   0.349   7.252  0.3875 -0.1039 -0.3129
 4682SOL    HW125682   0.819   0.444   7.248 -2.0526  0.1769  0.5673
 4682SOL    HW225683   0.827   0.332   7.160 -0.2329 -0.7150 -0.3163
 4683SOL     OW25684   1.864   1.034  14.226  0.4524  0.4540  0.0640
 4683SOL    HW125685   1.945   1.017  14.178 -0.0353 -0.5125 -0.4080
 4683SOL    HW225686   1.906   1.051  14.311  2.1977 -2.5907 -0.1775
 4684SOL     OW25687   3.236   1.242   2.569 -0.1621 -0.1449  0.1036
 4684SOL    HW125688   3.281   1.165   2.534 -0.2883  0.6042 -1.6760
 4684SOL    HW225689   3.206   1.197   2.648  0.2333  0.2651  0.4904
 4685SOL     OW25690   2.832   3.407   2.103  0.1101  0.1953 -0.6711
 4685SOL    HW125691   2.751   3.401   2.052  0.1371 -1.0100 -0.5609
 4685SOL    HW225692   2.897   3.410   2.032 -0.5931 -0.1292 -1.3250
 4686SOL     OW25693   2.095   2.313   4.212  0.5382 -0.0855 -0.2290
 4686SOL    HW125694   2.076   2.381   4.276 -2.6018  0.9319 -2.2155
 4686SOL    HW225695   2.084   2.242   4.276  0.8456  1.2742  1.3255
 4687SOL     OW25696   2.025   1.764   7.370 -0.3709  0.3654  0.8208
 4687SOL    HW125697   1.947   1.751   7.424 -1.0598  1.4777  0.1004
 4687SOL    HW225698   2.048   1.676   7.340  0.4957  0.6088  0.7716
 4688SOL     OW25699   2.027   3.469   5.247 -0.2268  0.0883  0.1860
 4688SOL    HW125700   2.093   3.456   5.315 -1.1944 -1.2500  0.8940
 4688SOL    HW225701   1.956   3.409   5.270 -1.5777  2.1953  1.5268
 4689SOL     OW25702   0.957   0.609   7.884  0.2705 -0.2287  0.0779
 4689SOL    HW125703   1.009   0.548   7.936  1.5191  0.7668  0.0077
 4689SOL    HW225704   0.881   0.553   7.867 -0.3363  0.7051 -0.3166
 4690SOL     OW25705   2.646   1.869   4.325 -0.9034 -0.1509  0.4401
 4690SOL    HW125706   2.629   1.789   4.275  0.1342 -0.1676  0.1029
 4690SOL    HW225707   2.606   1.850   4.410 -0.2087 -0.5871  0.6751
 4691SOL     OW25708   1.007   3.285   8.152  0.5445 -0.5321  0.3421
 4691SOL    HW125709   0.948   3.310   8.223  1.6911  1.2968  0.6404
 4691SOL    HW225710   0.961   3.325   8.079  2.0303  1.1087  0.3240
 4692SOL     OW25711   2.771   1.386   7.914 -0.7310  0.3225 -0.7640
 4692SOL    HW125712   2.699   1.413   7.970 -0.0677  0.4677  0.0142
 4692SOL    HW225713   2.852   1.427   7.942 -0.1592 -0.0120 -1.8844
 4693SOL     OW25714   4.058   0.625   1.987 -0.1719 -0.1796 -0.2451
 4693SOL    HW125715   4.019   0.638   2.073  1.5236 -4.0023  1.0936
 4693SOL    HW225716   4.129   0.565   2.011  0.4015  1.0199  1.0698
 4694SOL     OW25717   1.996   3.392   1.785  0.6761  0.1088 -0.7420
 4694SOL    HW125718   2.063   3.323   1.791  0.1034 -0.5016 -1.3669
 4694SOL    HW225719   2.035   3.477   1.805 -4.7289  2.6704 -1.0649
 4695SOL     OW25720   0.691   2.639  11.799  0.4964  0.4784  0.0972
 4695SOL    HW125721   0.693   2.674  11.710 -1.2637 -1.8844 -0.8974
 4695SOL    HW225722   0.742   2.558  11.790 -3.5825 -2.0129 -0.5382
 4696SOL     OW25723   0.958   2.212   6.218  0.0872 -0.8092 -0.7785
 4696SOL    HW125724   1.021   2.258   6.162  1.9176 -1.6988  0.5589
 4696SOL    HW225725   0.882   2.185   6.165 -0.6466 -0.8210  0.2866
 4697SOL     OW25726   1.330   1.854   2.147  0.2101 -0.3017 -0.1565
 4697SOL    HW125727   1.257   1.797   2.173 -1.6200  0.9948 -2.4272
 4697SOL    HW225728   1.283   1.930   2.112 -1.1312 -0.0343  2.2178
 4698SOL     OW25729   3.404   4.391  17.607 -0.3116  0.6011  0.3087
 4698SOL    HW125730   3.405   4.348  17.692 -0.4651 -1.2614 -0.6224
 4698SOL    HW225731   3.345   4.330  17.562 -1.0203  1.6129 -0.1225
 4699SOL     OW25732   2.539   1.905   7.733 -0.2923 -0.0793  0.0652
 4699SOL    HW125733   2.596   1.920   7.657  1.7259  0.3218  1.6433
 4699SOL    HW225734   2.547   1.810   7.745 -2.1661 -0.5246 -2.2722
 4700SOL     OW25735   3.482   4.429   8.510 -0.6141 -0.0959 -0.2985
 4700SOL    HW125736   3.505   4.486   8.583 -2.9969 -0.4399  0.7307
 4700SOL    HW225737   3.540   4.461   8.441 -0.6120 -0.5399 -0.5036
 4701SOL     OW25738   1.795   1.761  14.614 -0.0705 -0.2797  0.0715
 4701SOL    HW125739   1.804   1.826  14.544 -0.1031  0.4659  0.7605
 4701SOL    HW225740   1.831   1.682  14.574  1.3931 -1.0480  2.8679
 4702SOL     OW25741   3.963   2.167   2.626 -0.1395  0.3519 -0.5860
 4702SOL    HW125742   4.051   2.192   2.598  0.8159 -0.1159  2.0649
 4702SOL    HW225743   3.989   2.094   2.682 -0.0854  0.9008  0.0892
 4703SOL     OW25744   2.977   2.103  10.992  0.5667  0.4792  0.0103
 4703SOL    HW125745   3.060   2.065  10.962 -0.3722 -1.0178 -0.6895
 4703SOL    HW225746   2.927   2.035  11.036 -0.9630  0.4819 -1.7437
 4704SOL     OW25747   2.193   4.604  15.995  0.0974 -0.6185  0.7042
 4704SOL    HW125748   2.250   4.646  15.930 -0.9546 -0.7926 -0.3402
 4704SOL    HW225749   2.131   4.673  16.017  0.7663  1.0851 -2.7540
 4705SOL     OW25750   2.914   1.681   3.577 -0.6273  0.2730 -0.0365
 4705SOL    HW125751   2.904   1.592   3.612  3.7064 -0.3618 -0.4370
 4705SOL    HW225752   2.904   1.740   3.652  0.5523  0.2473  0.1421
 4706SOL     OW25753   0.028   3.380   9.399 -0.0778 -0.1994 -0.2797
 4706SOL    HW125754   0.016   3.287   9.416  0.6151 -0.1490  0.4695
 4706SOL    HW225755   0.120   3.391   9.374 -0.5072 -1.2022 -2.3184
 4707SOL     OW25756   2.634   4.335   8.688  0.3024  0.0241 -0.2250
 4707SOL    HW125757   2.679   4.348   8.604  1.2041  0.9509  0.3961
 4707SOL    HW225758   2.550   4.376   8.669  1.1107  1.7834 -0.0383
 4708SOL     OW25759   4.204   1.135  15.778  0.2176  0.0588 -0.0961
 4708SOL    HW125760   4.200   1.198  15.707  1.2234 -0.6013 -0.7415
 4708SOL    HW225761   4.215   1.192  15.854 -0.3611  0.3928 -0.2650
 4709SOL     OW25762   0.115   1.120   8.660 -0.2288  0.2653  0.4475
 4709SOL    HW125763   0.055   1.155   8.725  1.5926  0.8919  1.7935
 4709SOL    HW225764   0.151   1.196   8.615  2.9429 -2.5554 -1.8666
 4710SOL     OW25765   4.184   3.661  16.120  0.3169  0.1974  0.0662
 4710SOL    HW125766   4.114   3.644  16.182 -0.7894  1.9098 -0.7068
 4710SOL    HW225767   4.244   3.594  16.154  0.9735 -1.7905 -4.9720
 4711SOL     OW25768   2.813   4.602   2.685  0.3719 -0.4672 -0.1670
 4711SOL    HW125769   2.879   4.544   2.723  1.5003 -1.0582 -3.0461
 4711SOL    HW225770   2.797   4.670   2.750  4.3586  0.3097 -0.0262
 4712SOL     OW25771   1.706   1.302   2.761 -0.3433 -0.2102 -0.2145
 4712SOL    HW125772   1.775   1.335   2.818  1.6292  0.1917 -2.8135
 4712SOL    HW225773   1.708   1.358   2.683 -1.3085  1.2523  0.8108
 4713SOL     OW25774   4.534   0.565   4.845 -0.1058  0.2500 -0.4349
 4713SOL    HW125775   4.600   0.556   4.913 -2.5640  1.1610  2.0871
 4713SOL    HW225776   4.467   0.503   4.874 -0.9143  0.1624 -2.4584
 4714SOL     OW25777   2.224   1.716   0.925 -0.0649 -0.9383  0.2700
 4714SOL    HW125778   2.233   1.811   0.933  1.1969 -1.2286  2.3741
 4714SOL    HW225779   2.195   1.700   0.835 -1.3174 -0.0587  0.5171
 4715SOL     OW25780   0.031   2.722  10.007 -0.0249 -0.3762  0.5300
 4715SOL    HW125781   4.730   2.745  10.092 -1.6841  0.0742 -0.2846
 4715SOL    HW225782   0.056   2.808   9.972  0.0363 -0.3712  0.5861
 4716SOL     OW25783   3.910   2.706   1.501 -0.3598 -0.8195  0.0124
 4716SOL    HW125784   3.917   2.675   1.591 -1.5627 -1.5318 -0.1357
 4716SOL    HW225785   3.861   2.632   1.465 -0.8843 -0.8422  0.7728
 4717SOL     OW25786   2.294   2.540   9.190  0.1095  0.3526 -0.4826
 4717SOL    HW125787   2.235   2.562   9.262  0.1796  1.7513 -0.8444
 4717SOL    HW225788   2.300   2.445   9.201  0.0228  0.4628  0.5337
 4718SOL     OW25789   0.753   2.121   0.084 -0.2816 -0.0130  0.8159
 4718SOL    HW125790   0.763   2.074   0.001 -0.7326  1.0163  0.1647
 4718SOL    HW225791   0.838   2.163   0.097 -0.6291  1.3431 -1.1748
 4719SOL     OW25792   3.842   2.111   5.524  0.3030 -0.3844 -0.5209
 4719SOL    HW125793   3.880   2.188   5.482 -1.4424  1.3304  1.0087
 4719SOL    HW225794   3.876   2.110   5.614  0.5642 -1.1595 -0.6265
 4720SOL     OW25795   0.582   0.550   3.380 -0.5059 -0.0761  0.0467
 4720SOL    HW125796   0.631   0.482   3.334  0.3092  2.4644 -2.7982
 4720SOL    HW225797   0.601   0.629   3.330 -2.3785 -0.4204 -1.2072
 4721SOL     OW25798   3.506   1.226   5.134  0.8146 -0.4799  0.1346
 4721SOL    HW125799   3.531   1.319   5.139  0.5874 -0.3653 -0.8243
 4721SOL    HW225800   3.416   1.230   5.100  0.1296  0.6510  2.0582
 4722SOL     OW25801   2.340   4.496   3.075  0.3510 -0.2539  0.4198
 4722SOL    HW125802   2.322   4.539   3.158 -0.7369  0.6323 -0.2682
 4722SOL    HW225803   2.434   4.499   3.058  0.2947  1.2804  0.4112
 4723SOL     OW25804   4.733   0.203   3.022 -0.1208 -0.2873  0.0935
 4723SOL    HW125805   0.020   0.157   2.941 -1.1562  0.8537 -0.8459
 4723SOL    HW225806   4.722   0.138   3.091  0.4631  0.4369  0.8682
 4724SOL     OW25807   0.069   3.098   9.430 -0.1424 -0.0881  0.2626
 4724SOL    HW125808   0.124   3.044   9.373 -1.6261 -1.1202 -0.2122
 4724SOL    HW225809   4.727   3.109   9.373  1.2542  0.7779 -1.4535
 4725SOL     OW25810   1.623   2.160   5.620  0.1790  0.0401  0.2653
 4725SOL    HW125811   1.532   2.176   5.645  0.1362  0.5998 -0.2646
 4725SOL    HW225812   1.660   2.096   5.682  3.3857  1.4850 -0.1438
 4726SOL     OW25813   4.441   2.496   2.415  0.1471  0.2812  0.2184
 4726SOL    HW125814   4.463   2.550   2.491  1.4961 -0.5860  0.4494
 4726SOL    HW225815   4.468   2.553   2.343  1.7801 -0.6873  0.0747
 4727SOL     OW25816   0.988   0.663   2.054 -0.5313  0.2884  1.1278
 4727SOL    HW125817   0.939   0.591   2.016 -3.8023  3.1980 -0.1795
 4727SOL    HW225818   0.937   0.674   2.134  0.3705 -0.7291  1.8602
 4728SOL     OW25819   4.681   3.714  16.416 -0.0364 -0.4972 -0.4845
 4728SOL    HW125820   4.686   3.712  16.512 -1.8081  0.2221 -0.3744
 4728SOL    HW225821   4.685   3.621  16.393  3.2462 -0.4967  0.0272
 4729SOL     OW25822   0.101   0.710  11.372 -0.0269  0.1152 -0.7766
 4729SOL    HW125823   0.165   0.682  11.436 -1.1327  1.8183  1.0828
 4729SOL    HW225824   0.148   0.714  11.289 -1.2546  2.4615 -1.3685
 4730SOL     OW25825   0.952   0.882   5.978  0.8934  0.3049 -0.2128
 4730SOL    HW125826   0.918   0.918   6.060  0.0570 -0.3150 -0.2863
 4730SOL    HW225827   0.884   0.815   5.976 -1.4832  2.7576 -2.2454
 4731SOL     OW25828   0.424   3.460   1.488  0.0514 -0.3195 -0.5754
 4731SOL    HW125829   0.348   3.490   1.438  1.1695  0.2717 -1.9169
 4731SOL    HW225830   0.487   3.436   1.420  0.5932 -0.3791 -0.0622
 4732SOL     OW25831   1.435   2.219  10.958 -0.1937 -0.5842 -0.1626
 4732SOL    HW125832   1.500   2.267  11.010 -0.6402  0.0320 -0.1724
 4732SOL    HW225833   1.491   2.168  10.900 -0.1380 -1.0299  0.2812
 4733SOL     OW25834   0.323   0.275   9.336  0.0468 -0.1030  0.1261
 4733SOL    HW125835   0.327   0.298   9.428  0.2332 -1.5198  0.4807
 4733SOL    HW225836   0.280   0.190   9.337  3.0690 -1.6780 -1.2506
 4734SOL     OW25837   2.369   1.882  10.218 -0.3834 -0.3477 -0.3644
 4734SOL    HW125838   2.354   1.907  10.309  1.4667 -1.2833  0.1966
 4734SOL    HW225839   2.337   1.791  10.219  2.8515 -1.4907 -0.6089
 4735SOL     OW25840   3.741   3.226  14.420  0.0509  1.0256 -0.4103
 4735SOL    HW125841   3.693   3.146  14.399  2.7856 -0.3703 -1.2099
 4735SOL    HW225842   3.792   3.240  14.340 -0.3182 -0.3207 -0.8803
 4736SOL     OW25843   0.231   4.540   1.525 -0.6245  0.1983 -0.0468
 4736SOL    HW125844   0.276   4.620   1.497  0.7855 -1.2241 -1.8651
 4736SOL    HW225845   0.288   4.507   1.594  0.1217  0.9820 -0.2772
 4737SOL     OW25846   4.503   4.046  10.503  0.0853  0.9654 -0.1891
 4737SOL    HW125847   4.485   3.997  10.583 -0.4101  0.3543 -0.6689
 4737SOL    HW225848   4.571   4.107  10.531  1.5935 -0.1244 -1.4973
 4738SOL     OW25849   1.628   0.172   0.948  0.3120  0.2529 -0.3243
 4738SOL    HW125850   1.701   0.131   0.995  0.0273  3.1109  2.5921
 4738SOL    HW225851   1.555   0.149   1.005  0.1124  1.2634 -0.1719
 4739SOL     OW25852   0.920   2.306  11.416  0.3497  0.5495  0.0419
 4739SOL    HW125853   0.874   2.246  11.475  0.0253  1.8697  1.1298
 4739SOL    HW225854   0.985   2.250  11.374  2.0519  1.8350  0.9591
 4740SOL     OW25855   2.439   0.574   7.927  0.1837  0.0371  0.2665
 4740SOL    HW125856   2.353   0.613   7.910 -1.1381 -3.1353 -0.2341
 4740SOL    HW225857   2.420   0.484   7.902 -0.6932  0.3080 -0.0624
 4741SOL     OW25858   3.158   2.767   4.412  0.0946 -0.4775 -0.3526
 4741SOL    HW125859   3.093   2.835   4.431 -0.8398 -0.7780 -2.5808
 4741SOL    HW225860   3.232   2.812   4.373  1.0774  0.2783  2.3396
 4742SOL     OW25861   2.410   0.611   8.594  0.1648  0.3890 -0.1672
 4742SOL    HW125862   2.469   0.580   8.663 -0.1109  1.6202  0.6212
 4742SOL    HW225863   2.469   0.671   8.549  2.0637 -1.6457 -0.3977
 4743SOL     OW25864   3.313   3.696   6.996  0.8671  0.0074  0.1921
 4743SOL    HW125865   3.276   3.783   6.979 -0.7809 -0.5364  1.0602
 4743SOL    HW225866   3.301   3.660   6.908  1.9646 -1.4013  0.6059
 4744SOL     OW25867   0.586   0.498   1.957  0.5144  0.0694  0.3947
 4744SOL    HW125868   0.614   0.589   1.943 -1.6886  0.1696 -3.3143
 4744SOL    HW225869   0.575   0.465   1.868 -0.2107  1.0472  0.1286
 4745SOL     OW25870   0.505   0.866   3.559  0.2502  0.1848 -0.3655
 4745SOL    HW125871   0.566   0.798   3.588  0.3958  0.4054 -0.1551
 4745SOL    HW225872   0.536   0.880   3.470 -1.7339 -0.5947 -1.1835
 4746SOL     OW25873   3.526   2.420   7.449  0.1906  0.3728 -0.6738
 4746SOL    HW125874   3.440   2.441   7.485 -0.7085 -3.4115 -0.6316
 4746SOL    HW225875   3.494   2.391   7.363  2.3462 -0.9064 -1.0297
 4747SOL     OW25876   1.278   3.950   6.196 -0.2241  0.0962  0.1348
 4747SOL    HW125877   1.254   3.885   6.263 -1.2853  0.4785  0.1211
 4747SOL    HW225878   1.315   4.021   6.248  0.8438 -0.9987  0.8841
 4748SOL     OW25879   2.790   2.934  16.611  0.1367 -0.1615  0.2424
 4748SOL    HW125880   2.715   2.898  16.564 -0.0441  0.0001  0.4052
 4748SOL    HW225881   2.854   2.869  16.581  0.9750  0.9135 -0.3082
 4749SOL     OW25882   0.124   1.359   4.756 -0.3518 -0.4948 -0.4016
 4749SOL    HW125883   0.132   1.450   4.729 -0.1774 -0.0857  0.9931
 4749SOL    HW225884   0.036   1.350   4.718  0.3271 -1.5589 -1.6997
 4750SOL     OW25885   0.845   1.804   2.216  1.0075  0.0250 -0.1453
 4750SOL    HW125886   0.771   1.795   2.156 -0.4497 -0.2190  1.6849
 4750SOL    HW225887   0.824   1.739   2.283  0.6748  0.9015  0.6011
 4751SOL     OW25888   4.651   3.777   4.607  0.7730  0.1294  0.5965
 4751SOL    HW125889   4.618   3.718   4.538  0.4416 -0.0081  0.8785
 4751SOL    HW225890   4.629   3.865   4.579  1.7344  0.8423  2.1141
 4752SOL     OW25891   0.343   2.215   5.816 -0.3098 -0.1376  0.3541
 4752SOL    HW125892   0.248   2.206   5.808 -0.2672  0.8900 -1.2241
 4752SOL    HW225893   0.361   2.124   5.792 -2.5387 -0.3629 -0.4680
 4753SOL     OW25894   3.632   3.374   2.383 -0.1587  0.2266 -0.0190
 4753SOL    HW125895   3.614   3.464   2.354 -3.1734 -0.3856 -0.0344
 4753SOL    HW225896   3.544   3.342   2.365  0.7611  0.2040 -4.4652
 4754SOL     OW25897   0.838   4.578  12.377 -0.5291  0.1547 -0.6204
 4754SOL    HW125898   0.885   4.495  12.368  0.4826  0.3807  2.6770
 4754SOL    HW225899   0.887   4.624  12.445  0.7395  1.4831 -2.4465
 4755SOL     OW25900   2.504   3.513  14.741  0.0180  0.2486 -0.0881
 4755SOL    HW125901   2.571   3.449  14.768  0.0717 -0.6727 -2.4069
 4755SOL    HW225902   2.492   3.502  14.647  1.3305 -1.1103 -0.0993
 4756SOL     OW25903   4.223   0.602   6.942 -0.4757 -0.2410 -0.0766
 4756SOL    HW125904   4.250   0.680   6.894  0.2637 -0.2542  0.3145
 4756SOL    HW225905   4.238   0.531   6.878 -1.2967 -0.4202 -0.0653
 4757SOL     OW25906   1.365   4.200   3.183  0.3877 -0.2695  0.2124
 4757SOL    HW125907   1.418   4.135   3.231  0.3877 -0.9816 -0.7560
 4757SOL    HW225908   1.278   4.188   3.222  1.6908 -1.5268  2.7694
 4758SOL     OW25909   0.856   3.274   4.967  0.4104  0.4758  0.0697
 4758SOL    HW125910   0.878   3.202   4.908  2.2940  0.0169  1.3383
 4758SOL    HW225911   0.804   3.230   5.035 -1.6563  3.2609  0.2838
 4759SOL     OW25912   3.005   3.066   5.927  0.2157  0.1542 -0.1099
 4759SOL    HW125913   2.979   3.079   6.018  0.4343 -1.3351  0.1660
 4759SOL    HW225914   3.002   2.970   5.934 -0.4846 -0.0046 -2.4463
 4760SOL     OW25915   4.196   4.682  15.085 -0.3087  0.7493  0.1036
 4760SOL    HW125916   4.116   4.703  15.132  0.3090 -1.0788  1.9459
 4760SOL    HW225917   4.242   0.030  15.096 -0.3147  1.0604 -2.2041
 4761SOL     OW25918   4.521   1.282   7.107 -0.4954 -0.7367 -0.1823
 4761SOL    HW125919   4.430   1.285   7.078  0.7608  0.2159 -4.0200
 4761SOL    HW225920   4.535   1.187   7.114  0.8743 -0.5316 -0.1455
 4762SOL     OW25921   0.267   2.240   6.549 -0.1094 -0.6599  0.4454
 4762SOL    HW125922   0.318   2.240   6.468 -0.2123  2.7575  0.3884
 4762SOL    HW225923   0.258   2.335   6.561  0.1047 -0.5876  0.0306
 4763SOL     OW25924   3.211   1.780   1.682  0.4967  0.4468  0.1665
 4763SOL    HW125925   3.156   1.793   1.606  0.9618  1.1178 -0.0497
 4763SOL    HW225926   3.300   1.795   1.649  0.3403  0.4330 -0.2584
 4764SOL     OW25927   0.170   0.927   2.721 -0.2277  0.5356 -0.4792
 4764SOL    HW125928   0.234   0.981   2.768  0.3584 -0.1786 -0.4532
 4764SOL    HW225929   0.111   0.921   2.796  0.2812 -0.0192 -0.1206
 4765SOL     OW25930   1.376   2.170   7.488  0.2064 -0.1489 -0.4679
 4765SOL    HW125931   1.423   2.252   7.472 -0.6247  0.2735 -0.7275
 4765SOL    HW225932   1.358   2.137   7.400 -1.1173 -0.1667 -0.1892
 4766SOL     OW25933   3.928   4.214   2.717 -0.0122  0.0743 -0.7955
 4766SOL    HW125934   3.861   4.147   2.705  1.2724 -0.9293 -2.3139
 4766SOL    HW225935   3.892   4.258   2.794 -1.4280  0.7794 -1.8586
 4767SOL     OW25936   4.518   2.266  10.920 -0.2429 -0.4137  0.2799
 4767SOL    HW125937   4.593   2.256  10.861  0.2492  0.9775  0.6810
 4767SOL    HW225938   4.554   2.325  10.985 -0.4286  0.3080 -0.2699
 4768SOL     OW25939   2.405   2.772   5.662 -0.0698 -0.1331 -0.0786
 4768SOL    HW125940   2.424   2.731   5.747  0.7966  0.3825 -0.0260
 4768SOL    HW225941   2.396   2.863   5.688  1.6616  0.1898 -0.6221
 4769SOL     OW25942   4.142   0.763  12.850  0.1306 -0.2010  0.1431
 4769SOL    HW125943   4.144   0.695  12.917  1.2010 -0.1277  0.1772
 4769SOL    HW225944   4.211   0.731  12.792 -0.0184  1.5668 -1.0071
 4770SOL     OW25945   1.670   1.562   6.167 -0.2057  0.0541 -0.1660
 4770SOL    HW125946   1.584   1.529   6.138  0.9388 -1.0281 -2.3389
 4770SOL    HW225947   1.664   1.558   6.262  0.8238 -1.2513 -0.1572
 4771SOL     OW25948   4.491   0.712   6.135 -0.3096 -0.1807 -0.0080
 4771SOL    HW125949   4.397   0.696   6.123 -0.2641  0.3573 -1.0472
 4771SOL    HW225950   4.513   0.619   6.134 -0.4351 -0.2037 -0.9618
 4772SOL     OW25951   3.696   1.807   8.254 -0.4987 -0.3023  0.3082
 4772SOL    HW125952   3.689   1.859   8.174  2.4471 -0.8267 -0.2860
 4772SOL    HW225953   3.646   1.871   8.305 -0.6300 -1.5759  1.7976
 4773SOL     OW25954   1.333   1.403   4.476  0.1166 -0.1084 -0.0694
 4773SOL    HW125955   1.378   1.444   4.403  2.6853 -2.3005  0.2626
 4773SOL    HW225956   1.378   1.318   4.465  3.2921  1.4093  0.9918
 4774SOL     OW25957   2.898   2.654   4.930 -0.5074 -0.1797  0.0158
 4774SOL    HW125958   2.929   2.653   4.839  0.8950  0.3311  0.4877
 4774SOL    HW225959   2.805   2.662   4.911 -0.1379  2.9502 -0.4486
 4775SOL     OW25960   2.448   3.275   8.769  0.3768  0.5976  0.0400
 4775SOL    HW125961   2.354   3.259   8.780  0.6584  0.4159  2.2301
 4775SOL    HW225962   2.458   3.369   8.756 -1.0954  0.4780 -1.9049
 4776SOL     OW25963   2.466   3.956   8.575 -0.4218  0.5142  0.0118
 4776SOL    HW125964   2.429   4.020   8.635 -0.6564 -2.1680  2.6783
 4776SOL    HW225965   2.459   3.879   8.631 -0.5760 -0.5973 -1.5147
 4777SOL     OW25966   0.249   1.660  10.012  0.2896 -0.6306 -0.2273
 4777SOL    HW125967   0.188   1.730   9.988  1.3867  0.1362 -0.8034
 4777SOL    HW225968   0.195   1.585   9.987 -0.0714 -0.6348  0.5646
 4778SOL     OW25969   3.268   4.242  10.881 -0.2027 -0.5959 -0.6243
 4778SOL    HW125970   3.188   4.287  10.855 -0.0466  0.6817  1.1099
 4778SOL    HW225971   3.333   4.309  10.857  2.5577 -3.5508 -1.4402
 4779SOL     OW25972   3.698   0.633  16.504 -0.1751  0.0689  0.1969
 4779SOL    HW125973   3.738   0.700  16.449  0.8555 -0.9172 -0.2380
 4779SOL    HW225974   3.769   0.573  16.525 -1.0554 -1.0867 -0.1189
 4780SOL     OW25975   3.400   3.343   0.148  0.2818 -0.0512 -0.5513
 4780SOL    HW125976   3.345   3.280   0.195 -1.7006  1.9994 -0.1113
 4780SOL    HW225977   3.413   3.404   0.220  0.2851  0.9407 -1.3832
 4781SOL     OW25978   2.283   1.881   8.179  0.4152  0.0805 -0.2070
 4781SOL    HW125979   2.222   1.812   8.204 -0.3147  0.9433  0.4124
 4781SOL    HW225980   2.262   1.873   8.086 -1.5737 -1.8325  0.4074
 4782SOL     OW25981   2.913   2.957  13.804  0.2403  0.2941  0.3572
 4782SOL    HW125982   2.839   2.919  13.852 -1.0882  1.2733 -0.9424
 4782SOL    HW225983   2.972   2.963  13.879 -0.6527  0.0669  1.0879
 4783SOL     OW25984   3.218   3.573   6.749  0.0259  0.4021  0.2547
 4783SOL    HW125985   3.124   3.587   6.755 -0.0014  0.7881 -1.0942
 4783SOL    HW225986   3.254   3.628   6.679  0.7515  0.6814  0.8453
 4784SOL     OW25987   0.399   4.430  12.099 -0.3825 -0.4987 -0.2693
 4784SOL    HW125988   0.446   4.464  12.176 -0.3588 -0.8778 -0.1143
 4784SOL    HW225989   0.376   4.516  12.066  0.7622  0.2201  0.8018
 4785SOL     OW25990   0.592   3.309   1.859  0.0144 -0.3942  0.3266
 4785SOL    HW125991   0.558   3.358   1.934  0.2199  1.0770 -0.5410
 4785SOL    HW225992   0.667   3.261   1.893  0.6552  0.0175 -0.5123
 4786SOL     OW25993   0.292   1.490   7.246 -0.3479 -0.2815  0.3425
 4786SOL    HW125994   0.198   1.501   7.262 -0.3740 -0.8920  0.5906
 4786SOL    HW225995   0.300   1.536   7.162 -0.4161  0.4631  0.7410
 4787SOL     OW25996   0.878   3.090   6.909  0.3400  0.0274  0.2404
 4787SOL    HW125997   0.884   3.114   7.001  1.2234 -0.0978  0.2159
 4787SOL    HW225998   0.804   3.029   6.911 -0.7104  1.3671  1.7812
 4788SOL     OW25999   1.526   0.845   5.591 -0.2168  0.0609  0.0499
 4788SOL    HW126000   1.552   0.796   5.669  0.8120 -0.0501 -0.3729
 4788SOL    HW226001   1.468   0.905   5.638  0.0005 -0.5732  1.1348
 4789SOL     OW26002   3.807   2.255   6.468 -0.6622  0.2548  0.6061
 4789SOL    HW126003   3.774   2.223   6.552 -2.7182  1.4208  0.2383
 4789SOL    HW226004   3.884   2.296   6.508 -0.4669  0.2502  0.2343
 4790SOL     OW26005   0.977   2.672  13.575 -0.0042  0.2949 -0.3935
 4790SOL    HW126006   0.887   2.687  13.545  0.7659  3.4051 -1.1104
 4790SOL    HW226007   0.971   2.576  13.573 -2.0396  0.4027 -0.1463
 4791SOL     OW26008   1.179   3.268   3.940  0.1747  0.3538 -0.2447
 4791SOL    HW126009   1.228   3.350   3.954  0.5730 -0.0005  0.4812
 4791SOL    HW226010   1.095   3.294   3.903  0.7527 -2.5700 -3.5842
 4792SOL     OW26011   3.562   4.240   1.925  0.4314  0.0510 -0.0899
 4792SOL    HW126012   3.590   4.271   1.839 -1.1639 -0.4840 -0.8081
 4792SOL    HW226013   3.601   4.152   1.921  1.0143  0.3736 -1.3257
 4793SOL     OW26014   1.698   3.779   6.234  0.2214  0.1675  0.4124
 4793SOL    HW126015   1.717   3.835   6.310 -1.3373  2.5153 -0.9538
 4793SOL    HW226016   1.780   3.788   6.184  0.8687  1.1463  1.6511
 4794SOL     OW26017   3.991   1.031   3.698  0.3909 -0.6767  0.1513
 4794SOL    HW126018   3.896   1.032   3.691  0.3041 -0.1645  1.4687
 4794SOL    HW226019   4.010   0.938   3.712  0.8307 -0.2094  2.5803
 4795SOL     OW26020   3.857   1.065   2.847  0.2172  0.2028 -0.2508
 4795SOL    HW126021   3.828   1.155   2.857 -0.7744 -0.3923  2.2161
 4795SOL    HW226022   3.923   1.075   2.778 -0.2101 -0.9678 -0.8383
 4796SOL     OW26023   3.089   1.517  16.756  0.4081  0.0686 -0.8788
 4796SOL    HW126024   3.047   1.600  16.778  1.1501  0.0062  0.7413
 4796SOL    HW226025   3.151   1.515  16.829 -0.7685  0.3118  0.1260
 4797SOL     OW26026   0.436   0.779   4.974 -0.3550 -0.1804 -0.0138
 4797SOL    HW126027   0.448   0.873   4.982 -0.6042 -0.1178 -0.3900
 4797SOL    HW226028   0.445   0.749   5.064 -1.4548 -0.5046 -0.0172
 4798SOL     OW26029   3.761   0.017   5.949  0.0093  0.4309 -0.4635
 4798SOL    HW126030   3.780   4.687   5.882  0.3721 -0.4465  0.4980
 4798SOL    HW226031   3.824   4.734   6.018 -0.5182  0.6184  0.0647
 4799SOL     OW26032   3.421   2.341   3.630 -0.2892  0.8671 -0.0004
 4799SOL    HW126033   3.433   2.418   3.685  2.6932  1.6170 -1.6739
 4799SOL    HW226034   3.498   2.293   3.660 -0.8722 -1.3617 -1.9930
 4800SOL     OW26035   3.027   4.315   8.678 -0.3093  0.9092  0.3602
 4800SOL    HW126036   3.034   4.237   8.623  0.4592  0.0295  1.7002
 4800SOL    HW226037   3.092   4.279   8.739  0.1599  1.6686  0.3118
 4801SOL     OW26038   3.892   1.694   3.544  0.6263 -0.0100 -0.3776
 4801SOL    HW126039   3.798   1.707   3.535  0.7273 -0.0117 -1.4932
 4801SOL    HW226040   3.933   1.771   3.503  0.1758  0.9330  0.9285
 4802SOL     OW26041   4.122   2.563  11.969  0.6029 -0.4036  0.2829
 4802SOL    HW126042   4.067   2.602  12.038  2.1204  1.7640  0.2802
 4802SOL    HW226043   4.147   2.481  12.011 -0.5287 -0.9931 -0.1890
 4803SOL     OW26044   1.643   2.107   1.011  0.0403 -0.0925  0.1346
 4803SOL    HW126045   1.708   2.154   0.959  1.0662  0.0263  1.5447
 4803SOL    HW226046   1.627   2.176   1.075  2.4779  1.0770 -0.5382
 4804SOL     OW26047   1.696   2.663  10.117 -0.2334  0.0508  0.1005
 4804SOL    HW126048   1.665   2.573  10.107 -1.4060  0.5094 -0.3770
 4804SOL    HW226049   1.702   2.666  10.213 -2.1934 -0.6136  0.2394
 4805SOL     OW26050   4.388   1.867   2.965  0.0609  0.1817  0.2120
 4805SOL    HW126051   4.352   1.782   2.941  1.1641 -0.6183  1.3603
 4805SOL    HW226052   4.477   1.834   2.981  0.4955  0.9395 -0.6174
 4806SOL     OW26053   3.809   1.377  11.923  0.2519 -0.1885 -0.0281
 4806SOL    HW126054   3.832   1.425  11.843 -1.7091  1.1785  0.2083
 4806SOL    HW226055   3.887   1.324  11.941  1.1209  1.4965  1.1385
 4807SOL     OW26056   3.860   2.588   4.456 -0.6719  0.4591  0.0474
 4807SOL    HW126057   3.802   2.631   4.393  3.6490  1.6777 -3.1208
 4807SOL    HW226058   3.812   2.598   4.538  0.0826 -0.1937  0.5654
 4808SOL     OW26059   0.962   3.292   7.113  0.4246  0.1417  0.0702
 4808SOL    HW126060   0.940   3.332   7.197 -1.5454  0.7576 -0.7281
 4808SOL    HW226061   0.977   3.370   7.059  1.0475 -0.1016 -0.1029
 4809SOL     OW26062   4.339   3.319   4.220  0.8798  0.4464  0.2352
 4809SOL    HW126063   4.419   3.270   4.203  1.8378  1.4394  1.8757
 4809SOL    HW226064   4.374   3.407   4.209 -0.4381  0.8046 -0.9963
 4810SOL     OW26065   1.395   1.091   4.158  0.1123 -0.4172  0.4318
 4810SOL    HW126066   1.422   1.120   4.245 -1.4181 -1.2723  1.1985
 4810SOL    HW226067   1.301   1.082   4.174 -0.0108 -0.2576 -0.2148
 4811SOL     OW26068   4.495   0.947  15.255 -1.5810 -0.0720  0.0238
 4811SOL    HW126069   4.477   0.853  15.262 -0.9270 -0.2885 -1.2560
 4811SOL    HW226070   4.445   0.971  15.176  0.5116 -3.9659 -2.5163
 4812SOL     OW26071   3.922   1.710  16.502 -0.3290  0.7064  0.2297
 4812SOL    HW126072   3.915   1.731  16.409 -1.6651  0.2096  0.2171
 4812SOL    HW226073   3.829   1.712  16.526 -0.7401 -1.7626 -1.0719
 4813SOL     OW26074   2.378   4.302   4.469  0.2160 -0.0657 -0.1443
 4813SOL    HW126075   2.408   4.390   4.489  2.4257 -0.8375 -0.0259
 4813SOL    HW226076   2.456   4.270   4.423 -1.3803 -0.8086 -2.2965
 4814SOL     OW26077   3.639   1.330   2.344 -0.2531 -0.1394 -0.1919
 4814SOL    HW126078   3.635   1.262   2.412 -1.0784 -1.8730 -1.9815
 4814SOL    HW226079   3.668   1.402   2.400  2.4388 -0.3794 -1.2310
 4815SOL     OW26080   2.144   4.299   7.661 -0.2708  0.4914  0.2919
 4815SOL    HW126081   2.201   4.334   7.592 -1.1951 -0.7434 -1.0876
 4815SOL    HW226082   2.061   4.272   7.621 -1.2350  2.0466  1.2627
 4816SOL     OW26083   4.298   1.883  12.750  0.5536 -0.6343 -0.3798
 4816SOL    HW126084   4.376   1.923  12.790 -1.4701  1.0187  1.9175
 4816SOL    HW226085   4.291   1.798  12.792  0.4549 -0.6562 -0.4443
 4817SOL     OW26086   3.736   0.089   7.446 -0.0679 -0.2700  0.3595
 4817SOL    HW126087   3.697   0.139   7.374 -0.8785  0.5458  1.3559
 4817SOL    HW226088   3.659   0.056   7.492 -0.5756  0.4535  0.0442
 4818SOL     OW26089   2.095   4.092   5.419 -0.2751  0.0154  0.2557
 4818SOL    HW126090   2.053   4.019   5.465 -0.5272 -0.3941 -0.6249
 4818SOL    HW226091   2.032   4.163   5.434 -0.2990 -0.2913  1.6559
 4819SOL     OW26092   4.649   4.206  12.077  0.1088 -0.0445 -0.2578
 4819SOL    HW126093   4.722   4.256  12.040 -2.2077  1.8123 -2.2583
 4819SOL    HW226094   4.669   4.117  12.047 -2.2831 -1.3911  2.1589
 4820SOL     OW26095   1.171   1.865   0.545 -0.2087  0.4514  0.3918
 4820SOL    HW126096   1.175   1.805   0.620  0.0130  0.4946  0.4142
 4820SOL    HW226097   1.260   1.898   0.544  0.8082 -2.2941  0.3500
 4821SOL     OW26098   0.120   2.988  16.133  0.5048  0.1022  0.3507
 4821SOL    HW126099   0.187   3.010  16.197  0.1509  0.7916  0.4831
 4821SOL    HW226100   0.107   3.071  16.087  0.1793 -0.6083 -0.8302
 4822SOL     OW26101   3.617   4.035  15.099  0.0489 -0.4044  0.3440
 4822SOL    HW126102   3.528   4.065  15.117 -0.1424  1.1836 -3.2494
 4822SOL    HW226103   3.642   3.988  15.178  1.7297 -1.0674 -0.5673
 4823SOL     OW26104   3.042   0.871   2.966 -0.2668  0.6292 -0.8445
 4823SOL    HW126105   3.123   0.920   2.981 -1.2225  2.1883 -0.7457
 4823SOL    HW226106   3.023   0.855   3.058  0.5067  0.0677 -0.7861
 4824SOL     OW26107   2.936   2.623   9.933  0.1036 -0.0593 -0.5450
 4824SOL    HW126108   2.917   2.554   9.869 -0.6163  0.3408 -0.7726
 4824SOL    HW226109   3.025   2.646   9.905  0.4461 -0.1919  0.4498
 4825SOL     OW26110   3.048   2.970   9.254 -0.4537  0.0482 -0.0333
 4825SOL    HW126111   2.953   2.985   9.261 -0.0591  3.3478 -1.7471
 4825SOL    HW226112   3.063   3.045   9.196  0.6284 -0.3579 -0.2757
 4826SOL     OW26113   1.063   0.634  12.186 -0.0805 -0.0482  0.2491
 4826SOL    HW126114   1.086   0.579  12.260  0.0223  2.5701  2.1836
 4826SOL    HW226115   1.056   0.581  12.107 -0.8467 -2.8443  2.2091
 4827SOL     OW26116   4.306   3.983   7.582 -0.0479 -0.3646 -0.3015
 4827SOL    HW126117   4.366   3.909   7.594 -0.4937 -0.9019 -1.3591
 4827SOL    HW226118   4.370   4.047   7.613  0.8035 -1.3384 -0.0433
 4828SOL     OW26119   2.019   1.178   6.403  0.1960 -0.2753  0.0118
 4828SOL    HW126120   1.957   1.251   6.393  2.1374  1.7172  2.4541
 4828SOL    HW226121   1.958   1.105   6.390 -0.5235  0.6184 -1.6902
 4829SOL     OW26122   0.793   0.392   1.036 -0.7015  0.2681 -0.0684
 4829SOL    HW126123   0.835   0.425   0.957 -0.9955  1.4543  0.2796
 4829SOL    HW226124   0.802   0.297   1.027  2.8918  0.6075  0.2411
 4830SOL     OW26125   2.239   3.702  12.520  0.2002  0.4786 -0.2914
 4830SOL    HW126126   2.159   3.662  12.554  0.2486 -0.9236 -1.7539
 4830SOL    HW226127   2.254   3.765  12.590 -0.0351  1.0625 -0.7670
 4831SOL     OW26128   2.743   3.442  14.983  0.1850  0.2729 -0.1639
 4831SOL    HW126129   2.765   3.511  14.921  0.7542 -0.1605 -0.4481
 4831SOL    HW226130   2.808   3.458  15.052 -1.3568 -3.5070  2.1788
 4832SOL     OW26131   3.696   4.071  11.136 -0.6174 -0.1318  0.4869
 4832SOL    HW126132   3.603   4.092  11.147 -1.1017 -1.7329 -0.5180
 4832SOL    HW226133   3.696   3.987  11.091 -0.9556  0.7550 -1.1483
 4833SOL     OW26134   1.305   4.538   1.791 -0.8650  0.1721 -0.5796
 4833SOL    HW126135   1.321   4.618   1.841  0.7824  0.0973 -1.0004
 4833SOL    HW226136   1.390   4.523   1.749  0.0841  0.5175  1.2266
 4834SOL     OW26137   1.809   2.814   4.038  0.5904 -0.0444  0.3963
 4834SOL    HW126138   1.733   2.839   3.986  1.9822  3.2800 -0.0179
 4834SOL    HW226139   1.888   2.841   3.991 -0.9570  0.7760 -1.7578
 4835SOL     OW26140   3.471   3.178  17.518  0.4638 -0.0396  0.7152
 4835SOL    HW126141   3.426   3.251  17.476 -0.2162 -0.0594  1.4232
 4835SOL    HW226142   3.524   3.219  17.587 -1.9603  1.3545  1.7325
 4836SOL     OW26143   1.607   3.603   8.085 -0.0530 -0.5234  0.0741
 4836SOL    HW126144   1.609   3.558   8.001  0.6997  0.1839 -0.2897
 4836SOL    HW226145   1.680   3.562   8.132 -1.1723  0.2138  2.4752
 4837SOL     OW26146   2.414   2.981   2.618  0.5644  0.7276  0.5154
 4837SOL    HW126147   2.420   2.979   2.714  1.7950 -2.0840  0.3943
 4837SOL    HW226148   2.321   2.959   2.621  0.4373  1.6206  2.7014
 4838SOL     OW26149   3.775   0.065   4.137 -0.3359  0.0353 -0.0811
 4838SOL    HW126150   3.742   0.089   4.050  0.0054 -1.3994 -0.5985
 4838SOL    HW226151   3.831   4.726   4.118 -0.3726 -0.0053 -0.0289
 4839SOL     OW26152   1.537   2.485   8.158  0.3041  0.3631  0.0292
 4839SOL    HW126153   1.483   2.407   8.153 -0.6960  1.2635 -2.5723
 4839SOL    HW226154   1.627   2.455   8.144  0.4127  1.1010 -0.8330
 4840SOL     OW26155   1.254   2.119   7.232 -0.3544 -0.3759 -0.6094
 4840SOL    HW126156   1.207   2.049   7.278 -2.1928  0.0067 -1.9076
 4840SOL    HW226157   1.213   2.193   7.278 -1.7691 -1.1577 -0.6121
 4841SOL     OW26158   1.974   1.426   9.619  0.0615 -0.7462  0.5067
 4841SOL    HW126159   2.003   1.346   9.574 -0.7714 -0.8641  0.1931
 4841SOL    HW226160   2.056   1.470   9.643 -1.0304  0.9807  1.0119
 4842SOL     OW26161   1.229   0.197   9.204 -0.3671 -0.5371  0.0757
 4842SOL    HW126162   1.152   0.142   9.198 -0.6234 -0.1533 -0.1823
 4842SOL    HW226163   1.294   0.140   9.163  0.8082  1.4225 -0.7949
 4843SOL     OW26164   3.618   0.025   8.929 -0.0352  0.3892 -0.2279
 4843SOL    HW126165   3.550   0.024   8.997  0.1965 -0.5144 -0.0024
 4843SOL    HW226166   3.696   0.014   8.985 -0.6731 -0.3606  0.5186
 4844SOL     OW26167   3.071   4.585   7.147 -0.2709  0.0575 -0.5931
 4844SOL    HW126168   3.086   4.511   7.206 -2.5591 -0.4956 -0.7037
 4844SOL    HW226169   3.146   4.577   7.088  0.2690 -1.1590  0.2485
 4845SOL     OW26170   4.262   4.358   1.674  0.4659 -0.5130  0.6626
 4845SOL    HW126171   4.271   4.400   1.588 -1.3018 -0.4836  0.4930
 4845SOL    HW226172   4.349   4.363   1.712  0.7177 -2.4882  0.3127
 4846SOL     OW26173   3.514   1.562  11.810  0.0214 -0.2835 -0.2127
 4846SOL    HW126174   3.504   1.558  11.715  1.0876 -2.6310 -0.2212
 4846SOL    HW226175   3.508   1.470  11.833 -0.0181 -0.1183  0.4257
 4847SOL     OW26176   1.049   1.846   5.893  0.3424 -0.2745 -0.2020
 4847SOL    HW126177   1.089   1.930   5.919 -2.5315  1.2952 -0.8669
 4847SOL    HW226178   1.041   1.873   5.802 -2.3681 -1.3432 -0.2820
 4848SOL     OW26179   0.552   0.656  13.612  0.9258  0.5569  0.3743
 4848SOL    HW126180   0.629   0.712  13.611  1.2925  0.0629  1.6703
 4848SOL    HW226181   0.514   0.689  13.693  1.2851 -0.5031  0.9833
 4849SOL     OW26182   4.095   3.651  15.249  0.6934 -0.1502  0.6358
 4849SOL    HW126183   4.087   3.650  15.153 -0.8724  1.8441  0.7481
 4849SOL    HW226184   4.183   3.614  15.258  0.4861 -1.0192 -0.7652
 4850SOL     OW26185   1.497   1.572   7.262 -0.0075  0.2628 -0.0062
 4850SOL    HW126186   1.468   1.527   7.341  0.0276 -0.5571 -0.4707
 4850SOL    HW226187   1.440   1.543   7.192  0.1245  1.0880 -0.4583
 4851SOL     OW26188   1.189   1.260  15.820 -0.8098 -0.2729  0.2130
 4851SOL    HW126189   1.106   1.297  15.848 -0.6842 -0.0435  0.2818
 4851SOL    HW226190   1.185   1.174  15.863  0.5918 -0.8887 -0.8586
 4852SOL     OW26191   4.398   2.610   4.695  0.1410  0.0830 -0.0522
 4852SOL    HW126192   4.342   2.683   4.721  0.8951  0.7631 -0.3284
 4852SOL    HW226193   4.360   2.539   4.745  0.5781  0.0341  0.2107
 4853SOL     OW26194   1.744   4.182   8.000 -0.2512  0.0188  0.1131
 4853SOL    HW126195   1.726   4.099   8.045 -2.5166 -0.6315 -1.9890
 4853SOL    HW226196   1.691   4.240   8.054  0.2857  1.2508 -0.6948
 4854SOL     OW26197   2.332   3.514   2.316 -0.0327 -1.0353 -0.6430
 4854SOL    HW126198   2.279   3.577   2.267  2.4177 -0.0598 -2.0739
 4854SOL    HW226199   2.260   3.455   2.336  0.6276 -1.8435 -0.6506
 4855SOL     OW26200   2.815   3.677   8.915 -0.7511  0.4879  0.0175
 4855SOL    HW126201   2.872   3.623   8.969 -1.8666 -0.2008  0.4937
 4855SOL    HW226202   2.826   3.751   8.975 -0.2223  1.2023 -0.9390
 4856SOL     OW26203   2.837   2.525   3.435 -0.0972  0.6141 -0.1833
 4856SOL    HW126204   2.854   2.599   3.493  0.8617  1.1621 -1.1665
 4856SOL    HW226205   2.745   2.507   3.452 -0.2176  0.8177 -0.6157
 4857SOL     OW26206   0.223   4.115  12.628  0.2176  0.2830  0.1887
 4857SOL    HW126207   0.252   4.205  12.614  2.1901 -0.3795  0.0107
 4857SOL    HW226208   0.135   4.125  12.592 -0.2441  1.8501  1.7749
 4858SOL     OW26209   3.016   4.161  13.930  0.2268 -0.1631 -0.4469
 4858SOL    HW126210   3.092   4.169  13.988 -2.0303  0.5249  2.3686
 4858SOL    HW226211   3.040   4.080  13.884  1.1130 -0.6088  0.7994
 4859SOL     OW26212   1.874   0.279   8.830 -0.1547  0.2794  0.7127
 4859SOL    HW126213   1.871   0.293   8.924  1.7442 -0.0258  0.8067
 4859SOL    HW226214   1.842   0.365   8.801  2.3173 -0.2962 -3.7826
 4860SOL     OW26215   1.587   3.025   9.711  0.0488  0.0793 -0.1523
 4860SOL    HW126216   1.503   3.066   9.736 -1.2550 -2.6102 -0.1605
 4860SOL    HW226217   1.612   2.969   9.785  0.3529 -0.0921 -0.3874
 4861SOL     OW26218   3.144   1.809  15.674  0.7962 -0.0165 -0.1861
 4861SOL    HW126219   3.212   1.816  15.607 -0.8169  0.4411 -1.8001
 4861SOL    HW226220   3.152   1.897  15.711 -1.5265 -0.6936  1.9561
 4862SOL     OW26221   2.041   0.066  16.727 -0.0543 -0.2370 -0.0466
 4862SOL    HW126222   2.023   0.016  16.648  0.7929 -1.5315  0.5725
 4862SOL    HW226223   2.130   0.094  16.709 -0.5364  2.0321  1.0668
 4863SOL     OW26224   3.761   2.704  11.804 -0.4222 -0.0401  0.0396
 4863SOL    HW126225   3.757   2.701  11.899 -1.9239 -1.1849 -0.0576
 4863SOL    HW226226   3.785   2.796  11.794  0.1919 -0.2505 -0.4416
 4864SOL     OW26227   3.595   3.602   5.157 -0.5238  0.1309  0.1643
 4864SOL    HW126228   3.518   3.627   5.208 -0.3025  1.2158 -0.0284
 4864SOL    HW226229   3.642   3.564   5.231  0.0520 -2.0023 -1.3151
 4865SOL     OW26230   0.781   1.728   3.711 -0.2749  0.1498 -0.2455
 4865SOL    HW126231   0.727   1.653   3.735  0.8224 -0.0743  1.4942
 4865SOL    HW226232   0.730   1.806   3.730  0.0968  0.7618 -1.7137
 4866SOL     OW26233   2.423   3.957   4.831 -0.7736 -0.5199 -0.0445
 4866SOL    HW126234   2.420   3.924   4.921  0.8985  1.1833  0.6300
 4866SOL    HW226235   2.350   3.906   4.796 -1.7008 -0.4662  1.8053
 4867SOL     OW26236   1.683   4.294   6.365 -0.1979 -0.4837  0.3178
 4867SOL    HW126237   1.725   4.258   6.443  1.1736  0.4750  0.0274
 4867SOL    HW226238   1.656   4.374   6.410  0.7423 -0.1769  0.3346
 4868SOL     OW26239   3.890   0.968   8.596  0.1300  0.3619  0.0068
 4868SOL    HW126240   3.811   0.916   8.604 -0.1836  1.0269  1.1975
 4868SOL    HW226241   3.860   1.040   8.652 -1.5681 -0.9831  0.7983
 4869SOL     OW26242   0.682   1.357  16.512  0.8378 -0.3203  0.1048
 4869SOL    HW126243   0.660   1.264  16.521  1.2676 -0.4303  0.0104
 4869SOL    HW226244   0.774   1.344  16.491  0.0127 -0.9944 -3.0008
 4870SOL     OW26245   3.928   1.642   5.494  0.1931 -0.1826 -0.2623
 4870SOL    HW126246   3.957   1.555   5.469 -2.7729 -0.7549 -1.6851
 4870SOL    HW226247   3.833   1.637   5.499  0.2683 -0.8462  0.4611
 4871SOL     OW26248   1.521   3.841  12.499  0.0784 -0.9746  0.3922
 4871SOL    HW126249   1.605   3.859  12.542  0.3504 -0.2726 -0.4416
 4871SOL    HW226250   1.552   3.815  12.412  0.1075  1.2525 -0.2473
 4872SOL     OW26251   4.610   4.108   3.007 -0.9274  0.2545  0.4910
 4872SOL    HW126252   4.596   4.190   2.959  1.1155 -0.1212 -0.7444
 4872SOL    HW226253   4.519   4.090   3.031 -0.7451  0.1159  1.0609
 4873SOL     OW26254   1.085   0.317  10.660  0.1845  0.5796  0.0319
 4873SOL    HW126255   0.996   0.311  10.695  0.8377  0.4338  1.6633
 4873SOL    HW226256   1.136   0.328  10.741  1.8279 -1.8643 -0.6844
 4874SOL     OW26257   0.841   1.913  11.785 -0.4103 -0.1545  0.0652
 4874SOL    HW126258   0.770   1.849  11.791 -1.3103  0.8771  0.4097
 4874SOL    HW226259   0.925   1.870  11.769 -0.3062 -0.0854  0.4297
 4875SOL     OW26260   2.919   3.511   2.858  0.9728 -0.3361 -0.2454
 4875SOL    HW126261   2.841   3.544   2.815 -0.2334 -2.1610  0.5633
 4875SOL    HW226262   2.914   3.571   2.933  2.3593 -1.2015  0.5559
 4876SOL     OW26263   4.470   4.326  10.706  0.1748 -0.5533 -0.2553
 4876SOL    HW126264   4.465   4.335  10.610  1.2822  0.4565 -0.2199
 4876SOL    HW226265   4.560   4.298  10.721  1.0091  1.7314 -1.0585
 4877SOL     OW26266   4.348   2.284   6.344  0.0848  0.2160 -0.0498
 4877SOL    HW126267   4.427   2.326   6.311  1.7248 -1.8075  1.2784
 4877SOL    HW226268   4.322   2.334   6.422  1.0442 -1.4519  1.3512
 4878SOL     OW26269   1.898   0.962   3.463 -0.2755  0.4963  0.1185
 4878SOL    HW126270   1.877   0.965   3.369  0.5789  0.0863 -0.0858
 4878SOL    HW226271   1.927   1.052   3.480 -0.3344  0.6048 -0.3554
 4879SOL     OW26272   4.477   4.053   0.141  0.2616  0.2258  0.6007
 4879SOL    HW126273   4.490   3.959   0.146 -1.4259 -0.0161  0.6560
 4879SOL    HW226274   4.568   4.074   0.160  0.9179 -0.6369 -1.6902
 4880SOL     OW26275   0.365   3.844   7.723 -0.2436 -0.1423  0.1159
 4880SOL    HW126276   0.356   3.764   7.672 -0.1022  0.1726 -0.3984
 4880SOL    HW226277   0.460   3.848   7.732 -0.2114  3.0691 -1.7703
 4881SOL     OW26278   4.038   2.518   5.881  0.6850  0.5261 -0.2104
 4881SOL    HW126279   4.043   2.423   5.884  2.6528  0.5576 -3.2549
 4881SOL    HW226280   3.966   2.526   5.818  0.5928  0.6169 -0.0933
 4882SOL     OW26281   4.484   3.912  16.360 -0.0541 -0.7464  0.1000
 4882SOL    HW126282   4.543   3.837  16.365  0.8303  0.0000  1.0370
 4882SOL    HW226283   4.483   3.935  16.453 -2.1587  0.8529 -0.3110
 4883SOL     OW26284   3.496   3.046   9.280  0.1070 -0.0167  0.6550
 4883SOL    HW126285   3.426   2.983   9.264  2.2206 -2.3208  0.5451
 4883SOL    HW226286   3.500   3.089   9.194  1.2882 -1.7424 -0.1520
 4884SOL     OW26287   2.263   1.855   3.024  0.4234 -0.3424 -0.0131
 4884SOL    HW126288   2.295   1.798   3.095 -0.9055 -1.3444 -0.2259
 4884SOL    HW226289   2.172   1.825   3.024 -0.3507  2.0267  0.1662
 4885SOL     OW26290   3.892   0.491  16.293  0.4733  0.4240 -0.4373
 4885SOL    HW126291   3.911   0.444  16.375 -0.0298  3.6815  1.5279
 4885SOL    HW226292   3.980   0.483  16.257  0.6547  0.1111  0.0776
 4886SOL     OW26293   3.231   4.080   9.071 -0.0001  0.1989  0.2622
 4886SOL    HW126294   3.185   4.001   9.098  0.6401 -0.5655 -0.8461
 4886SOL    HW226295   3.229   4.131   9.152 -1.4197 -1.5596  1.3204
 4887SOL     OW26296   2.095   4.220  14.353 -0.2252  0.3880 -0.6294
 4887SOL    HW126297   2.075   4.206  14.445 -0.0672  1.3411 -0.4487
 4887SOL    HW226298   2.152   4.146  14.334 -0.5425  0.3460 -1.4064
 4888SOL     OW26299   2.908   2.169   8.459 -0.3311  0.0863  0.3221
 4888SOL    HW126300   2.968   2.243   8.451 -1.6469  0.9430 -1.7234
 4888SOL    HW226301   2.975   2.100   8.465 -1.3952 -0.9588  0.1861
 4889SOL     OW26302   4.344   2.937  13.508  0.4303  0.4540  0.2157
 4889SOL    HW126303   4.438   2.948  13.518  0.0225  3.1606  1.0525
 4889SOL    HW226304   4.328   2.999  13.437 -1.2829  1.0438  1.1019
 4890SOL     OW26305   1.313   3.190  17.707  0.6135  0.0246 -0.2987
 4890SOL    HW126306   1.314   3.117   0.029 -0.3790  0.3776  0.1325
 4890SOL    HW226307   1.368   3.252   0.015 -1.8328 -0.3463  2.9431
 4891SOL     OW26308   0.224   3.358  17.540 -0.4424  0.2418  0.0775
 4891SOL    HW126309   0.291   3.377  17.606  2.0367 -1.7505 -1.8917
 4891SOL    HW226310   0.211   3.266  17.564 -0.5752 -0.1166 -1.3632
 4892SOL     OW26311   0.575   0.164   8.969 -0.4017  0.5880  0.3088
 4892SOL    HW126312   0.618   0.249   8.974  0.0056  0.6368 -3.6245
 4892SOL    HW226313   0.489   0.197   8.942 -1.5940 -1.5015  1.5480
 4893SOL     OW26314   4.714   4.584   2.248  0.3274  0.7567  0.1043
 4893SOL    HW126315   0.030   4.664   2.261  2.8697 -0.8151 -0.2146
 4893SOL    HW226316   4.627   4.619   2.229  1.0818  2.2063 -0.6645
 4894SOL     OW26317   3.198   1.893  14.444  0.2195  0.2306 -0.2545
 4894SOL    HW126318   3.121   1.917  14.496  1.7095 -0.3062  2.2436
 4894SOL    HW226319   3.256   1.872  14.517  0.4510  0.7977 -0.2754
 4895SOL     OW26320   1.096   3.862   4.189  0.2224 -0.2004  0.3880
 4895SOL    HW126321   1.133   3.839   4.104 -0.3400  1.0546 -0.1964
 4895SOL    HW226322   1.174   3.899   4.231 -1.2713  1.6978  1.5106
 4896SOL     OW26323   1.392   1.779  15.597  0.5756 -0.1786 -0.0561
 4896SOL    HW126324   1.308   1.734  15.609  0.6525 -0.3407 -0.1213
 4896SOL    HW226325   1.429   1.710  15.542  0.5529 -0.5416  0.3824
 4897SOL     OW26326   0.871   4.546   2.499 -0.1661 -0.0496  0.1118
 4897SOL    HW126327   0.828   4.512   2.420  0.6733  1.7645 -1.1246
 4897SOL    HW226328   0.952   4.496   2.502  0.2420  0.5440 -0.9323
 4898SOL     OW26329   4.150   2.449   1.613  0.1892  0.2821  0.0283
 4898SOL    HW126330   4.113   2.530   1.649  2.0251  0.9880  0.3167
 4898SOL    HW226331   4.073   2.421   1.564  0.2900 -0.9369  0.5598
 4899SOL     OW26332   2.766   3.187  11.716  0.0513  0.3650  0.4959
 4899SOL    HW126333   2.803   3.132  11.785  1.0026 -0.7361 -0.9050
 4899SOL    HW226334   2.685   3.216  11.759 -1.0848 -0.4834 -1.0704
 4900SOL     OW26335   0.296   2.730   7.879 -0.4428 -0.3253  0.1420
 4900SOL    HW126336   0.341   2.808   7.847 -1.2485  1.0213  2.3543
 4900SOL    HW226337   0.236   2.770   7.942 -1.8165  1.0945 -2.0206
 4901SOL     OW26338   3.362   2.990   1.339 -0.1759 -0.2510 -0.1297
 4901SOL    HW126339   3.269   2.977   1.358 -0.1847 -2.9877 -2.0606
 4901SOL    HW226340   3.342   3.024   1.252  0.3624  0.8221  0.1717
 4902SOL     OW26341   3.306   0.905  17.455  0.4973 -0.0711 -0.1821
 4902SOL    HW126342   3.360   0.839  17.499 -0.8153 -0.6736  0.5130
 4902SOL    HW226343   3.260   0.943  17.530  0.3810  0.6566 -0.6264
 4903SOL     OW26344   0.428   1.722   1.922  0.1125  0.4742 -0.4866
 4903SOL    HW126345   0.367   1.655   1.892  1.1249 -0.6867  0.0426
 4903SOL    HW226346   0.462   1.767   1.845  1.4681  2.1209  1.0418
 4904SOL     OW26347   2.738   0.054   3.116 -0.7650  0.0238  0.4560
 4904SOL    HW126348   2.710   0.032   3.204  0.5229 -5.2504 -0.4934
 4904SOL    HW226349   2.661   0.029   3.065  0.0176  2.5968 -2.0483
 4905SOL     OW26350   3.087   3.018   2.935 -0.0611 -0.0513 -0.0961
 4905SOL    HW126351   3.082   2.962   3.013 -1.4455 -0.0201 -0.1625
 4905SOL    HW226352   2.992   3.021   2.922  0.3235  0.9129 -2.5625
 4906SOL     OW26353   3.330   2.894   8.470 -0.4038 -0.1282 -0.2687
 4906SOL    HW126354   3.370   2.965   8.521  1.5749  0.6968 -3.0000
 4906SOL    HW226355   3.367   2.925   8.388  1.9825  0.7471  1.1310
 4907SOL     OW26356   0.188   3.479   2.011 -0.3013 -0.0831  0.4141
 4907SOL    HW126357   0.197   3.384   2.005 -3.4046 -0.2785 -1.1235
 4907SOL    HW226358   0.092   3.474   2.013 -0.3730  1.0479 -0.1433
 4908SOL     OW26359   0.058   1.960   6.753 -0.4189 -0.9680 -0.7429
 4908SOL    HW126360   0.042   1.882   6.807 -1.9233 -1.2012 -1.5295
 4908SOL    HW226361   4.724   2.023   6.770  1.5664  1.1704 -0.4733
 4909SOL     OW26362   1.385   1.345   6.488 -0.2609 -0.2499 -0.3930
 4909SOL    HW126363   1.427   1.263   6.462  1.7950  0.9552 -0.8613
 4909SOL    HW226364   1.414   1.345   6.579  0.0800  0.2824 -0.5027
 4910SOL     OW26365   0.218   3.536   7.852 -0.3092 -0.7645 -0.2732
 4910SOL    HW126366   0.211   3.508   7.943 -1.4411 -0.4909 -0.2824
 4910SOL    HW226367   0.314   3.545   7.851 -0.2743 -1.1158 -0.2817
 4911SOL     OW26368   0.393   3.103   9.377  0.2181 -0.1202 -0.7678
 4911SOL    HW126369   0.384   3.020   9.423 -0.7499 -0.1266 -0.9602
 4911SOL    HW226370   0.457   3.144   9.436 -1.3473  0.2756  0.6655
 4912SOL     OW26371   4.123   2.946   8.736 -0.5544  0.5176  0.1034
 4912SOL    HW126372   4.042   2.905   8.768  0.8203  0.1559  3.0950
 4912SOL    HW226373   4.109   2.941   8.641  0.0720  0.7294  0.0057
 4913SOL     OW26374   4.541   2.668   3.927 -0.4042  0.2177  0.6668
 4913SOL    HW126375   4.489   2.589   3.944 -1.1978  0.5269 -0.3273
 4913SOL    HW226376   4.503   2.696   3.844 -0.4001 -1.5994  0.0356
 4914SOL     OW26377   1.096   1.949   3.041 -0.7015 -0.5876  0.3066
 4914SOL    HW126378   1.086   1.913   3.129  0.3979 -3.0712 -0.6025
 4914SOL    HW226379   1.056   1.877   2.994 -2.7743  0.4368  0.5101
 4915SOL     OW26380   2.529   3.190  11.790  0.0498 -0.6677 -0.3014
 4915SOL    HW126381   2.484   3.228  11.866 -1.0463 -0.5903 -0.9859
 4915SOL    HW226382   2.456   3.133  11.767 -3.3157  2.2080  3.2758
 4916SOL     OW26383   1.578   3.530   2.913 -0.4455  0.2066  0.3886
 4916SOL    HW126384   1.541   3.516   2.826  0.5135  1.6952 -0.2412
 4916SOL    HW226385   1.613   3.617   2.897 -1.4669  0.4476 -0.5729
 4917SOL     OW26386   0.409   3.183   8.550  0.0435 -0.3158 -0.0568
 4917SOL    HW126387   0.410   3.276   8.576  0.2224 -0.1279 -0.7418
 4917SOL    HW226388   0.316   3.176   8.529 -0.1027 -0.4315  0.6299
 4918SOL     OW26389   4.273   4.447   7.063  0.0766  0.1982 -0.5378
 4918SOL    HW126390   4.189   4.456   7.018 -0.0736 -2.1637 -0.7259
 4918SOL    HW226391   4.285   4.352   7.073 -1.8238  0.0446  0.1742
 4919SOL     OW26392   3.288   3.517   0.676 -0.4729  0.9125  0.1934
 4919SOL    HW126393   3.231   3.576   0.627 -0.2329  0.9728 -0.0176
 4919SOL    HW226394   3.368   3.565   0.694 -1.2856  2.0111  0.8441
 4920SOL     OW26395   3.901   1.838   0.622  0.4212  0.1722  0.2679
 4920SOL    HW126396   3.888   1.926   0.659 -1.1826 -0.0079  0.1511
 4920SOL    HW226397   3.891   1.848   0.527  1.4777 -1.3401  0.0048
 4921SOL     OW26398   0.918   4.139  15.774  0.0716 -0.1832 -0.0832
 4921SOL    HW126399   0.873   4.084  15.838 -0.7267 -0.7437 -1.1209
 4921SOL    HW226400   0.957   4.205  15.831  0.4487 -1.9250  1.6369
 4922SOL     OW26401   4.593   4.203   1.949 -0.8106 -0.0096 -0.1841
 4922SOL    HW126402   4.571   4.236   1.862 -1.6096  2.8451  1.0760
 4922SOL    HW226403   4.536   4.254   2.007 -0.9050  0.4406 -0.6773
 4923SOL     OW26404   3.974   4.292   0.278  0.1782 -0.4566  0.5496
 4923SOL    HW126405   3.948   4.368   0.226 -2.5796 -1.4561  0.4663
 4923SOL    HW226406   3.959   4.229   0.207 -1.0544  0.4012  0.0382
 4924SOL     OW26407   4.216   2.697  13.202  0.0583  0.1195 -0.1955
 4924SOL    HW126408   4.179   2.748  13.274 -0.2606  1.7746 -1.5360
 4924SOL    HW226409   4.303   2.681  13.241 -0.2969 -1.2968  0.0224
 4925SOL     OW26410   1.789   1.527   7.930  0.2903 -0.5144  0.3133
 4925SOL    HW126411   1.740   1.598   7.888  0.2103  0.7629  2.5950
 4925SOL    HW226412   1.747   1.454   7.883  0.1632 -1.8982  2.5728
 4926SOL     OW26413   2.413   4.499   7.110  0.1427 -0.2891  0.3411
 4926SOL    HW126414   2.454   4.521   7.026 -0.9118  0.7143  0.0764
 4926SOL    HW226415   2.374   4.421   7.072  1.0586 -0.4263 -0.2897
 4927SOL     OW26416   3.631   3.605   3.825 -0.0588  0.0580  0.4772
 4927SOL    HW126417   3.717   3.590   3.864  0.2118  1.5992  0.4883
 4927SOL    HW226418   3.591   3.649   3.900  1.5840 -2.4315  2.7908
 4928SOL     OW26419   3.881   1.994   2.203  0.0811 -0.8104 -0.2022
 4928SOL    HW126420   3.888   1.938   2.125 -1.4917 -1.2172 -0.0529
 4928SOL    HW226421   3.933   1.938   2.262  0.3542 -0.2583  0.0762
 4929SOL     OW26422   3.486   4.049  10.252 -0.1060  0.0809  0.4116
 4929SOL    HW126423   3.428   4.077  10.323  2.0637  0.5582  1.9744
 4929SOL    HW226424   3.571   4.069  10.290  0.0613 -0.6344  0.4152
 4930SOL     OW26425   0.827   2.328   7.298  0.1817  0.1018 -0.1326
 4930SOL    HW126426   0.823   2.287   7.385 -1.2501 -0.5473 -0.4955
 4930SOL    HW226427   0.744   2.375   7.286  0.3232 -0.2168 -2.3212
 4931SOL     OW26428   2.845   3.674   0.595 -0.3323  0.3565 -0.2886
 4931SOL    HW126429   2.898   3.673   0.675 -1.2580 -0.5556  0.3097
 4931SOL    HW226430   2.763   3.631   0.619  0.1407 -0.1471  0.4306
 4932SOL     OW26431   0.130   1.504   9.425  0.3593 -0.4282  0.2891
 4932SOL    HW126432   0.064   1.502   9.356  0.5325 -1.9331  0.1663
 4932SOL    HW226433   0.083   1.479   9.504 -1.2605  0.8909 -0.2699
 4933SOL     OW26434   2.961   3.998   4.735  0.1423  0.1207  0.5315
 4933SOL    HW126435   2.989   3.940   4.664 -1.5472 -0.2402  0.1467
 4933SOL    HW226436   2.942   4.077   4.686  0.6034 -0.1179 -0.0253
 4934SOL     OW26437   3.511   2.103   5.003  0.4695  0.4022 -0.1934
 4934SOL    HW126438   3.595   2.097   5.047 -0.6549  2.1527  2.1697
 4934SOL    HW226439   3.529   2.046   4.928  0.9996  0.8844 -0.4327
 4935SOL     OW26440   4.363   0.197  16.295 -0.7983  0.0306 -0.4503
 4935SOL    HW126441   4.454   0.228  16.294 -0.3902 -1.1580 -0.2607
 4935SOL    HW226442   4.370   0.113  16.340  0.5535 -0.3852 -1.4294
 4936SOL     OW26443   0.144   0.658   3.555 -0.0454  0.3356  0.4192
 4936SOL    HW126444   0.072   0.691   3.609 -1.2987  0.5129 -1.3673
 4936SOL    HW226445   0.125   0.564   3.557  1.0191  0.1082 -0.3768
 4937SOL     OW26446   3.369   0.583   5.306 -0.5845  0.0473  0.6911
 4937SOL    HW126447   3.377   0.511   5.244 -0.7684  0.8711 -0.2867
 4937SOL    HW226448   3.449   0.631   5.286  0.4484 -1.8095  0.3921
 4938SOL     OW26449   0.585   0.511   8.361 -0.0205  0.7332 -0.2682
 4938SOL    HW126450   0.666   0.561   8.376 -0.4298  2.1825 -2.7490
 4938SOL    HW226451   0.611   0.443   8.299  1.4363  0.8754  0.1945
 4939SOL     OW26452   1.519   3.901   7.028  0.1964  0.6519 -0.1752
 4939SOL    HW126453   1.527   3.806   7.034  2.2058  0.7614 -1.0589
 4939SOL    HW226454   1.551   3.923   7.115  0.5595  2.5488 -0.7655
 4940SOL     OW26455   1.998   1.782   5.050  0.1128 -0.0752  0.0092
 4940SOL    HW126456   1.991   1.819   4.962 -1.4253 -2.6042 -0.9347
 4940SOL    HW226457   2.057   1.707   5.040  1.6059  0.9341  1.3174
 4941SOL     OW26458   0.323   3.735  15.479 -0.1800 -0.0521  0.1492
 4941SOL    HW126459   0.285   3.802  15.421 -2.7046 -1.2098  0.4488
 4941SOL    HW226460   0.246   3.683  15.502  1.3683 -1.0267  3.0696
 4942SOL     OW26461   0.002   1.770   8.122 -0.2695 -0.2858  0.3545
 4942SOL    HW126462   0.001   1.732   8.210  1.1054 -2.0345 -0.3843
 4942SOL    HW226463   0.044   1.854   8.143 -1.9136  0.3322  1.1812
 4943SOL     OW26464   3.692   1.537   8.663  0.4012  0.0919 -0.3429
 4943SOL    HW126465   3.640   1.560   8.741  0.6385 -1.7985  0.3642
 4943SOL    HW226466   3.735   1.620   8.642  0.3608  0.1648 -0.1423
 4944SOL     OW26467   4.194   4.182   8.558  0.2684  0.0556 -0.0189
 4944SOL    HW126468   4.242   4.218   8.483  1.6342 -1.0968  0.3112
 4944SOL    HW226469   4.244   4.212   8.634  0.9525  4.6784 -2.2763
 4945SOL     OW26470   1.322   2.090  14.350  0.2807 -0.4109  1.1047
 4945SOL    HW126471   1.311   2.064  14.441 -1.7226 -1.2766  0.6117
 4945SOL    HW226472   1.338   2.007  14.306 -2.4835  0.5141 -1.6861
 4946SOL     OW26473   1.071   2.422  15.152 -0.0051  0.2072 -0.3932
 4946SOL    HW126474   1.055   2.328  15.147 -3.6069  0.9240 -2.5084
 4946SOL    HW226475   1.160   2.423  15.117 -0.4285  0.8681 -1.4468
 4947SOL     OW26476   3.770   3.943  17.203 -0.5721 -0.3603 -0.1699
 4947SOL    HW126477   3.858   3.969  17.173  0.2422 -2.5653  0.3247
 4947SOL    HW226478   3.800   3.915  17.289 -0.0243 -2.6410 -1.1076
 4948SOL     OW26479   0.293   3.666  15.210  0.0796 -0.1757 -0.2284
 4948SOL    HW126480   0.320   3.734  15.149  1.5370 -0.3976  0.1753
 4948SOL    HW226481   0.332   3.685  15.295  2.1598  2.7021 -1.8457
 4949SOL     OW26482   1.181   1.609   4.837 -0.0341 -0.5471 -0.4262
 4949SOL    HW126483   1.210   1.655   4.915  2.2453  1.2619 -2.3360
 4949SOL    HW226484   1.269   1.585   4.810  0.3783  0.6102 -0.0899
 4950SOL     OW26485   2.164   0.586  12.826  0.4810  0.3962  0.2413
 4950SOL    HW126486   2.251   0.600  12.865  0.5195  1.3347 -0.1875
 4950SOL    HW226487   2.166   0.674  12.788 -1.3621 -0.0212 -0.8269
 4951SOL     OW26488   4.700   2.315   3.958  0.3103 -0.0112  0.2817
 4951SOL    HW126489   4.670   2.367   4.032  0.0880  0.7180 -0.3229
 4951SOL    HW226490   4.643   2.346   3.888  1.3968  1.7770  0.1861
 4952SOL     OW26491   4.112   4.265  14.685 -0.3920  0.3390  0.0760
 4952SOL    HW126492   4.143   4.242  14.597  1.0293  2.0378  0.1259
 4952SOL    HW226493   4.173   4.333  14.714 -0.6622  0.9919 -0.8932
 4953SOL     OW26494   3.752   1.763  10.678  0.1990  0.4351  0.6006
 4953SOL    HW126495   3.704   1.789  10.599 -0.4601 -0.5071  0.6964
 4953SOL    HW226496   3.779   1.850  10.710  0.3959  0.6511 -0.1634
 4954SOL     OW26497   0.407   0.253   4.216 -0.3041  0.3314  0.3253
 4954SOL    HW126498   0.498   0.250   4.187 -0.5847  1.6388 -0.6948
 4954SOL    HW226499   0.409   0.290   4.304  1.7946 -1.7446  1.1580
 4955SOL     OW26500   3.549   2.685  10.310  0.0860 -0.3735  0.1351
 4955SOL    HW126501   3.601   2.745  10.365  1.0521 -0.8558 -0.2526
 4955SOL    HW226502   3.592   2.603  10.336  2.0265  1.0002  1.3250
 4956SOL     OW26503   4.292   1.988   8.812  0.6658 -0.3352  0.6207
 4956SOL    HW126504   4.324   2.010   8.899  0.7203  0.0167  0.5094
 4956SOL    HW226505   4.349   2.047   8.762  0.0077 -0.5744 -0.4045
 4957SOL     OW26506   2.598   0.710  13.180 -0.6710 -0.4348 -0.0289
 4957SOL    HW126507   2.507   0.698  13.206 -0.2887 -0.4835  1.3084
 4957SOL    HW226508   2.615   0.641  13.115  1.3114 -0.1650  0.1853
 4958SOL     OW26509   1.871   4.101  17.731  0.4736 -0.0034 -0.2002
 4958SOL    HW126510   1.939   4.117  17.666  0.5295  0.6559  0.0263
 4958SOL    HW226511   1.839   4.186   0.023 -1.4993  0.1252 -2.4902
 4959SOL     OW26512   3.576   4.445   4.611  0.4905  0.3326  0.6333
 4959SOL    HW126513   3.670   4.462   4.620  0.5515 -0.2338  1.1214
 4959SOL    HW226514   3.541   4.436   4.700  0.1852 -1.0901  0.3714
 4960SOL     OW26515   2.954   0.927   4.806 -0.1370 -0.3084 -0.4750
 4960SOL    HW126516   2.929   0.848   4.854  4.0190 -0.3935  1.4939
 4960SOL    HW226517   2.988   0.978   4.878  0.4122  0.1505 -1.0642
 4961SOL     OW26518   4.019   2.804   5.043  0.0247  0.1033 -0.6329
 4961SOL    HW126519   4.093   2.857   5.013  0.5146 -1.7247 -2.6584
 4961SOL    HW226520   4.062   2.718   5.046  0.3667  0.2515 -1.3090
 4962SOL     OW26521   1.954   4.131   6.147  0.5442 -0.7289  0.3568
 4962SOL    HW126522   1.990   4.139   6.059 -0.6467 -3.2722 -0.3705
 4962SOL    HW226523   1.877   4.187   6.136  2.5256  1.9299 -0.0143
 4963SOL     OW26524   0.112   1.061  13.469  0.1482  0.3365 -0.0384
 4963SOL    HW126525   0.178   0.992  13.466 -0.2963 -0.0441 -1.1533
 4963SOL    HW226526   0.156   1.127  13.415  0.0730  1.2992  1.0841
 4964SOL     OW26527   0.510   2.508   1.850 -0.5096  0.1384  0.0527
 4964SOL    HW126528   0.563   2.434   1.881  0.2943  1.5314  2.0436
 4964SOL    HW226529   0.531   2.563   1.926  1.1698 -1.0802  0.4592
 4965SOL     OW26530   2.149   2.705  15.098 -0.1459  0.0299 -0.2432
 4965SOL    HW126531   2.188   2.783  15.138  1.9726 -2.4507  2.5594
 4965SOL    HW226532   2.070   2.746  15.061 -0.6405  1.7700  2.6831
 4966SOL     OW26533   0.634   4.273   2.114 -0.2415 -0.2622  0.2869
 4966SOL    HW126534   0.617   4.234   2.028 -2.9873  3.2455 -0.7683
 4966SOL    HW226535   0.584   4.211   2.168 -0.9999 -0.4120 -0.5779
 4967SOL     OW26536   1.344   4.383   6.110 -0.1426  0.0128  0.4817
 4967SOL    HW126537   1.252   4.365   6.091 -0.7454  2.1997  1.3375
 4967SOL    HW226538   1.365   4.443   6.040 -3.1508 -0.4067 -0.7831
 4968SOL     OW26539   3.845   1.413   3.642  0.1590 -0.3400  0.5449
 4968SOL    HW126540   3.873   1.493   3.599 -4.2973  0.1163 -1.4110
 4968SOL    HW226541   3.927   1.363   3.636  1.1481  0.9227  3.7311
 4969SOL     OW26542   3.078   3.004   5.653 -0.1501 -0.4680  0.2441
 4969SOL    HW126543   3.021   3.041   5.585 -1.2726 -0.7846  1.0316
 4969SOL    HW226544   3.058   3.052   5.733 -1.3687 -0.5352 -0.0257
 4970SOL     OW26545   4.413   0.319  15.885  0.3970  0.5854  0.0462
 4970SOL    HW126546   4.335   0.369  15.907 -0.7762 -0.1572 -2.4205
 4970SOL    HW226547   4.404   0.237  15.934 -0.7732 -0.7560 -2.4156
 4971SOL     OW26548   2.946   4.299   4.400 -0.5174 -0.6039  0.1560
 4971SOL    HW126549   3.016   4.251   4.357 -0.5079  0.8140 -1.4062
 4971SOL    HW226550   2.974   4.297   4.492  0.1250 -1.6480 -0.0702
 4972SOL     OW26551   2.504   3.517   4.310 -0.2245  0.6589 -0.4480
 4972SOL    HW126552   2.479   3.563   4.230  0.3319 -0.6126 -1.3494
 4972SOL    HW226553   2.566   3.450   4.279 -0.2677  1.3113 -1.9598
 4973SOL     OW26554   0.606   1.904   3.897  0.2140  0.6718  0.3919
 4973SOL    HW126555   0.596   1.982   3.842  1.3013 -0.7559 -1.7795
 4973SOL    HW226556   0.666   1.930   3.968 -1.0078 -1.9347  2.3936
 4974SOL     OW26557   2.063   4.266  12.166  0.0885  0.1276  0.1220
 4974SOL    HW126558   2.098   4.348  12.131 -3.5457  1.5209 -0.2815
 4974SOL    HW226559   1.987   4.248  12.111 -0.2587 -1.8660  1.2537
 4975SOL     OW26560   0.273   3.874   9.671 -0.2366 -0.1193  0.6792
 4975SOL    HW126561   0.315   3.813   9.732  1.6656 -0.6464 -1.1790
 4975SOL    HW226562   0.182   3.852   9.693 -0.8365  1.0786 -0.6530
 4976SOL     OW26563   4.565   3.366   8.746 -0.1791  0.0803 -0.3228
 4976SOL    HW126564   4.483   3.353   8.793 -0.8983 -1.8363 -2.1603
 4976SOL    HW226565   4.551   3.330   8.659 -0.4613 -2.2530  0.6951
 4977SOL     OW26566   3.837   0.869  10.136  0.5099  0.2245  0.2606
 4977SOL    HW126567   3.890   0.800  10.177  0.9432  1.1782  1.3145
 4977SOL    HW226568   3.782   0.833  10.067  1.7511 -3.5605  1.2117
 4978SOL     OW26569   1.876   3.912   5.519  0.9393  0.4481  0.3844
 4978SOL    HW126570   1.874   3.967   5.598 -1.0001  0.0057  0.6400
 4978SOL    HW226571   1.907   3.832   5.560  0.7214  0.9512  1.5299
 4979SOL     OW26572   1.206   1.278   7.849 -0.6922 -0.0382 -0.1692
 4979SOL    HW126573   1.114   1.275   7.822 -0.8914 -4.0385  0.8807
 4979SOL    HW226574   1.254   1.253   7.770  0.3659 -0.7636  0.6999
 4980SOL     OW26575   4.420   0.961   5.280  0.6174  0.4442  0.2609
 4980SOL    HW126576   4.475   0.983   5.355  1.0669  0.2621 -0.0097
 4980SOL    HW226577   4.485   0.950   5.210 -1.4270  1.5470 -1.7780
 4981SOL     OW26578   2.054   3.246   3.239  0.4961 -0.3077 -0.0593
 4981SOL    HW126579   2.140   3.204   3.232  0.7737  0.1980  0.3213
 4981SOL    HW226580   1.994   3.186   3.195 -1.2543  1.0195  0.5255
 4982SOL     OW26581   2.305   0.032   2.219 -0.5001  0.3570  0.1799
 4982SOL    HW126582   2.378   0.029   2.156  1.0647  1.4747  1.9713
 4982SOL    HW226583   2.261   0.110   2.186  2.4191  0.7262 -2.8028
 4983SOL     OW26584   4.140   1.350   5.547 -0.0335 -0.2306 -0.1798
 4983SOL    HW126585   4.087   1.305   5.481  2.3890 -0.9179 -1.6756
 4983SOL    HW226586   4.146   1.280   5.612 -1.4967 -0.6102 -0.4501
 4984SOL     OW26587   4.077   2.356   7.160  0.0464  0.0849  0.4901
 4984SOL    HW126588   4.033   2.289   7.214  1.3317 -0.8507  0.3749
 4984SOL    HW226589   4.168   2.328   7.171 -0.2854 -1.7156 -1.2876
 4985SOL     OW26590   4.572   2.394   3.013 -0.0985  0.4823 -0.5667
 4985SOL    HW126591   4.581   2.474   3.064 -0.9467 -0.0567  0.4513
 4985SOL    HW226592   4.597   2.325   3.076 -0.2394  1.5069  0.6147
 4986SOL     OW26593   0.667   1.273   9.533 -0.1742 -0.3252  0.2049
 4986SOL    HW126594   0.599   1.213   9.561 -0.0375 -1.7003 -2.4073
 4986SOL    HW226595   0.633   1.350   9.579  0.7053  0.5792 -0.6298
 4987SOL     OW26596   0.758   3.675  13.647  0.4242 -0.0024  0.1512
 4987SOL    HW126597   0.838   3.631  13.678 -0.2845 -1.0565  0.4972
 4987SOL    HW226598   0.793   3.741  13.588  2.4292 -1.8138 -0.6837
 4988SOL     OW26599   4.270   3.141   5.472  0.2079  0.0137 -0.1523
 4988SOL    HW126600   4.308   3.157   5.386  1.5374 -0.2196  0.3922
 4988SOL    HW226601   4.350   3.113   5.516 -0.0558  0.2238  0.4600
 4989SOL     OW26602   2.102   1.291  13.467  0.0539 -0.0924  1.0682
 4989SOL    HW126603   2.127   1.203  13.441 -2.6642 -0.8832  1.1538
 4989SOL    HW226604   2.153   1.347  13.408  0.2211 -0.4953  0.8303
 4990SOL     OW26605   0.365   1.799   2.929  0.0907  0.3376 -0.0896
 4990SOL    HW126606   0.296   1.743   2.893  0.6685  1.0485 -2.2996
 4990SOL    HW226607   0.344   1.885   2.893 -0.2379 -0.2237 -1.2543
 4991SOL     OW26608   3.872   2.178   4.898 -0.4749 -0.3421 -0.1275
 4991SOL    HW126609   3.939   2.222   4.950 -0.8024 -0.1539  0.1385
 4991SOL    HW226610   3.836   2.125   4.969  2.2012 -0.0492  1.4456
 4992SOL     OW26611   0.380   2.244   2.238  0.0414  0.1860 -0.3121
 4992SOL    HW126612   0.433   2.295   2.298 -0.7127 -1.4485  1.7314
 4992SOL    HW226613   0.339   2.308   2.179  1.3218 -0.6932 -2.1515
 4993SOL     OW26614   1.555   0.655  16.617 -0.1660  0.7345 -0.0927
 4993SOL    HW126615   1.617   0.604  16.565 -0.3548 -0.1886  0.5835
 4993SOL    HW226616   1.473   0.635  16.572  0.7657 -3.3742 -0.0110
 4994SOL     OW26617   1.811   4.301   3.274 -0.2718  0.3805  0.0432
 4994SOL    HW126618   1.816   4.245   3.352  0.8491 -1.9664 -1.7415
 4994SOL    HW226619   1.880   4.364   3.297  0.2203 -0.1947  0.1389
 4995SOL     OW26620   2.848   1.947   8.931  0.2105 -0.1829  0.3458
 4995SOL    HW126621   2.849   1.995   8.848 -1.0507  0.9379  0.9735
 4995SOL    HW226622   2.917   1.991   8.980  0.5297  1.3449 -1.4745
 4996SOL     OW26623   0.497   3.762   3.595  0.1430  0.6307 -0.4575
 4996SOL    HW126624   0.505   3.857   3.581 -3.4558  0.9791 -0.1296
 4996SOL    HW226625   0.584   3.723   3.602 -1.1022 -2.0606  0.0477
 4997SOL     OW26626   0.105   1.243   3.965  0.5202  0.5514  0.4411
 4997SOL    HW126627   0.015   1.277   3.960  0.5824  0.4531 -1.3672
 4997SOL    HW226628   0.112   1.210   3.875 -1.4728  1.1615  0.0477
 4998SOL     OW26629   2.244   3.031  16.865  0.0947 -0.4744  0.0584
 4998SOL    HW126630   2.152   3.054  16.882 -0.1337 -1.3988  0.0768
 4998SOL    HW226631   2.289   3.091  16.924  0.2272 -0.5541  0.0389
 4999SOL     OW26632   0.416   3.623   2.376 -0.1245  0.1701 -0.1898
 4999SOL    HW126633   0.384   3.693   2.434  0.0480 -0.6251  0.8767
 4999SOL    HW226634   0.511   3.635   2.383  0.0226 -1.4069  0.4573
 5000SOL     OW26635   0.199   2.569   4.523 -0.3288  0.1808  0.5279
 5000SOL    HW126636   0.258   2.644   4.536  1.5448 -1.3965  1.2014
 5000SOL    HW226637   0.114   2.607   4.546 -0.1495  0.4309  0.7835
 5001SOL     OW26638   3.428   3.664  17.573 -0.2641 -0.3193 -0.7013
 5001SOL    HW126639   3.506   3.621  17.537 -0.5026 -1.0320 -0.3642
 5001SOL    HW226640   3.432   3.666  17.669  0.8028  1.6422 -0.7863
 5002SOL     OW26641   3.996   0.642  16.617  0.0302  0.8266 -0.2120
 5002SOL    HW126642   4.047   0.680  16.545  1.0749  0.9474  0.5853
 5002SOL    HW226643   3.981   0.558  16.574 -0.4478 -0.1932  1.9759
 5003SOL     OW26644   1.153   2.736   6.052 -0.0922 -0.3320 -0.2019
 5003SOL    HW126645   1.196   2.682   6.119 -0.0206  1.6761  1.4087
 5003SOL    HW226646   1.069   2.757   6.092 -0.9111 -0.4129 -1.9260
 5004SOL     OW26647   3.118   0.145   2.741 -0.2988 -0.2983 -0.2973
 5004SOL    HW126648   3.149   0.077   2.681  1.3685 -0.2595  0.5040
 5004SOL    HW226649   3.082   0.104   2.819 -0.0350  1.7885  0.9355
 5005SOL     OW26650   1.501   4.169  16.063  0.4979 -0.2450  0.0861
 5005SOL    HW126651   1.550   4.096  16.025  3.0249  1.3224  0.2578
 5005SOL    HW226652   1.421   4.174  16.010  0.6145  0.6251 -0.0108
 5006SOL     OW26653   3.156   3.412   3.415 -0.0397 -0.4938 -0.2894
 5006SOL    HW126654   3.079   3.358   3.435  0.7857 -0.7401  2.1790
 5006SOL    HW226655   3.160   3.399   3.321 -1.6396  1.7195 -0.6665
 5007SOL     OW26656   0.102   2.291  17.397 -0.2395 -0.2704  0.7517
 5007SOL    HW126657   0.047   2.368  17.410 -0.7304 -0.2804 -1.2182
 5007SOL    HW226658   0.051   2.222  17.440 -0.9995 -1.0173 -1.3429
 5008SOL     OW26659   0.289   1.395   2.896  0.0545  0.1858 -0.1147
 5008SOL    HW126660   0.267   1.356   2.981 -1.2361  0.6975 -0.2218
 5008SOL    HW226661   0.226   1.465   2.883 -0.3027 -0.1472 -0.1678
 5009SOL     OW26662   0.230   3.704   3.950 -0.4008 -0.2998  0.2170
 5009SOL    HW126663   0.285   3.768   3.904  0.1220 -0.2447  0.9196
 5009SOL    HW226664   0.238   3.622   3.900  1.8014  0.0139  0.0420
 5010SOL     OW26665   1.851   1.389   2.973 -0.4340  0.3770  0.2075
 5010SOL    HW126666   1.825   1.363   3.061 -1.2620  1.1831  0.2116
 5010SOL    HW226667   1.925   1.329   2.970 -0.1451  0.7769 -0.7012
 5011SOL     OW26668   3.507   2.802   3.582  0.3338 -0.0955  0.2718
 5011SOL    HW126669   3.513   2.850   3.500 -0.3440  0.7368  0.6992
 5011SOL    HW226670   3.556   2.724   3.554 -0.9611 -1.5543  2.0470
 5012SOL     OW26671   0.845   3.224   3.233  0.5720 -0.3535 -0.0898
 5012SOL    HW126672   0.846   3.200   3.140 -0.2807 -1.3555  0.1735
 5012SOL    HW226673   0.912   3.292   3.236  1.9416 -1.7587  1.2831
 5013SOL     OW26674   4.647   1.940   8.510 -0.1852  0.2860  0.1587
 5013SOL    HW126675   4.583   1.987   8.456  0.2729  3.1124  2.0387
 5013SOL    HW226676   4.603   1.860   8.537  2.1243 -0.9590  0.2896
 5014SOL     OW26677   1.827   4.319   4.887 -0.1296  0.0838 -0.1907
 5014SOL    HW126678   1.744   4.312   4.839 -0.0730  2.3506 -0.6220
 5014SOL    HW226679   1.807   4.258   4.958  0.0439 -2.0640 -1.9815
 5015SOL     OW26680   4.718   0.237  15.452  0.0664  0.2419  0.9523
 5015SOL    HW126681   0.057   0.272  15.502  0.8882  1.2168 -0.9373
 5015SOL    HW226682   0.011   0.146  15.454  1.5899  0.6239 -1.8503
 5016SOL     OW26683   2.310   1.603   4.182  0.2844  0.0319  0.5431
 5016SOL    HW126684   2.306   1.643   4.095 -0.1253  1.4752  1.2283
 5016SOL    HW226685   2.267   1.674   4.230 -0.7985  1.0740 -1.9701
 5017SOL     OW26686   3.739   2.571   4.699 -0.0784 -0.1837 -0.1684
 5017SOL    HW126687   3.694   2.486   4.701 -0.5070 -0.0090 -2.4488
 5017SOL    HW226688   3.749   2.601   4.790 -2.7786  0.2337 -0.0286
 5018SOL     OW26689   0.652   0.284   8.247 -0.4089  0.0084 -0.0360
 5018SOL    HW126690   0.713   0.242   8.187 -2.0515 -1.4667 -0.6759
 5018SOL    HW226691   0.680   0.247   8.330 -2.9442  0.6665  1.1291
 5019SOL     OW26692   2.903   3.147   5.316 -0.1648 -0.1340  0.5348
 5019SOL    HW126693   2.847   3.123   5.242  1.8186  0.6413 -1.2212
 5019SOL    HW226694   2.931   3.059   5.343 -2.9841 -0.9649  0.6889
 5020SOL     OW26695   1.423   1.155  10.211 -0.0910 -0.0197  0.0654
 5020SOL    HW126696   1.487   1.226  10.222  0.4460 -0.3457 -0.9411
 5020SOL    HW226697   1.484   1.087  10.238 -0.0705 -0.2512 -0.5611
 5021SOL     OW26698   1.217   1.741  11.379 -0.3085 -0.5580 -0.0186
 5021SOL    HW126699   1.166   1.693  11.313  0.5279 -1.5975  0.0780
 5021SOL    HW226700   1.146   1.790  11.419 -1.8338 -2.6712 -0.0889
 5022SOL     OW26701   3.202   3.840   3.175 -0.0992  0.1061 -0.4778
 5022SOL    HW126702   3.270   3.855   3.240 -0.8267  0.7788  0.1264
 5022SOL    HW226703   3.188   3.928   3.141 -0.5791 -0.5177 -1.9013
 5023SOL     OW26704   4.074   1.021   3.112  0.0179  0.5659 -0.5696
 5023SOL    HW126705   4.099   1.031   3.203  0.2369  0.0820 -0.5743
 5023SOL    HW226706   3.988   1.062   3.120 -0.7435 -1.3353  1.0209
 5024SOL     OW26707   3.733   3.423   3.454 -0.5934 -0.0855 -0.0465
 5024SOL    HW126708   3.769   3.451   3.370  0.7538  1.3002  1.0076
 5024SOL    HW226709   3.693   3.506   3.477 -0.2281 -0.5218  2.1798
 5025SOL     OW26710   2.470   0.428   7.583 -0.4217  0.5140 -0.4152
 5025SOL    HW126711   2.475   0.401   7.675  0.6805 -0.4411 -0.7530
 5025SOL    HW226712   2.539   0.494   7.579  0.3148 -0.1527  1.0732
 5026SOL     OW26713   2.277   2.655   1.644  0.1076 -0.2424  0.0722
 5026SOL    HW126714   2.199   2.609   1.613 -0.2592 -0.2919  1.0667
 5026SOL    HW226715   2.328   2.670   1.565 -1.1050  0.0862 -0.6537
 5027SOL     OW26716   0.249   0.737   4.794  0.3620 -0.4520 -0.1563
 5027SOL    HW126717   0.317   0.743   4.861 -0.3506 -0.3047  0.5530
 5027SOL    HW226718   0.224   0.644   4.789  0.0189 -0.4029  0.6643
 5028SOL     OW26719   2.827   2.602   0.304  0.1792  0.3052  0.0517
 5028SOL    HW126720   2.841   2.532   0.369 -0.8157  0.8458  0.8523
 5028SOL    HW226721   2.918   2.614   0.276 -0.2788  1.6255 -0.8790
 5029SOL     OW26722   1.959   4.006   2.070  0.3349  0.5950 -0.4306
 5029SOL    HW126723   2.048   3.974   2.086 -0.5249 -1.7448 -0.2579
 5029SOL    HW226724   1.936   4.032   2.159  0.1775  0.0930 -0.3257
 5030SOL     OW26725   3.234   2.593   4.995 -0.1561  0.3613  0.3528
 5030SOL    HW126726   3.311   2.648   5.006  0.5304 -0.4050 -0.6468
 5030SOL    HW226727   3.219   2.570   5.087 -0.8372  0.2255  0.2119
 5031SOL     OW26728   1.232   4.503  16.420 -0.2696 -0.2229 -0.2176
 5031SOL    HW126729   1.144   4.477  16.392 -1.2849  0.6078  2.1814
 5031SOL    HW226730   1.294   4.456  16.365 -0.2664 -0.3252 -0.1251
 5032SOL     OW26731   0.335   2.622   5.913  0.1341 -0.1804  0.2851
 5032SOL    HW126732   0.395   2.677   5.964 -0.7651  0.3973  0.7137
 5032SOL    HW226733   0.391   2.598   5.839 -0.4469 -0.4230 -0.0767
 5033SOL     OW26734   1.601   0.719   5.801 -0.4811  0.6451 -0.8942
 5033SOL    HW126735   1.676   0.767   5.836 -0.9655  0.7884 -0.0524
 5033SOL    HW226736   1.623   0.634   5.838  2.0820  1.5627 -0.2891
 5034SOL     OW26737   2.834   1.051  12.264 -0.0509  0.1853 -0.0097
 5034SOL    HW126738   2.747   1.070  12.300 -0.2971 -0.0126 -0.5068
 5034SOL    HW226739   2.812   1.042  12.171 -1.0913  1.4422  0.1155
 5035SOL     OW26740   2.933   0.146   1.652  0.2079  0.1121 -0.0585
 5035SOL    HW126741   2.933   0.111   1.742 -1.4363  1.0351  0.3072
 5035SOL    HW226742   2.902   0.229   1.688 -1.4850 -0.8071  0.6396
 5036SOL     OW26743   4.432   3.971   7.122  0.1108  0.0324  0.0900
 5036SOL    HW126744   4.509   4.010   7.164  0.2921  1.4639 -1.5723
 5036SOL    HW226745   4.470   3.920   7.050 -2.6266 -0.8783 -0.7210
 5037SOL     OW26746   2.987   4.503   1.318 -0.0903 -0.0059 -0.7340
 5037SOL    HW126747   3.003   4.445   1.393  0.4083 -0.5430 -1.2502
 5037SOL    HW226748   2.990   4.583   1.369 -0.2827  0.1957 -1.0400
 5038SOL     OW26749   1.777   1.035   6.615  0.1478 -0.2945 -0.0762
 5038SOL    HW126750   1.833   0.990   6.679  1.5157  0.0505 -1.0416
 5038SOL    HW226751   1.810   1.000   6.532 -0.1809 -2.0246  0.5040
 5039SOL     OW26752   2.006   2.796   2.234  0.3666  0.5478  0.6451
 5039SOL    HW126753   1.952   2.842   2.169 -1.7739 -2.7574  0.0633
 5039SOL    HW226754   2.062   2.866   2.267  1.3792 -0.1864  0.4787
 5040SOL     OW26755   2.290   4.269   3.220  0.0294 -0.0232 -0.5673
 5040SOL    HW126756   2.206   4.228   3.199 -0.6642  0.5566  1.1179
 5040SOL    HW226757   2.298   4.340   3.156  2.0400 -0.7899 -1.1638
 5041SOL     OW26758   0.881   3.110   9.672 -0.0146 -0.4638 -0.3731
 5041SOL    HW126759   0.902   3.031   9.723  1.6152  1.1774  1.4964
 5041SOL    HW226760   0.887   3.073   9.584 -1.5621 -1.1640 -0.1783
 5042SOL     OW26761   4.180   1.337   8.347  0.6182  0.4613 -0.3209
 5042SOL    HW126762   4.140   1.423   8.361  1.3144  0.6999  0.2327
 5042SOL    HW226763   4.119   1.274   8.385 -2.1165  0.6978 -4.3720
 5043SOL     OW26764   0.161   3.121   5.157 -0.1020 -0.1608 -0.3283
 5043SOL    HW126765   0.187   3.058   5.090 -0.1462  1.9260 -2.3197
 5043SOL    HW226766   0.171   3.064   5.233  0.6788 -0.8341 -0.9254
 5044SOL     OW26767   0.482   2.709  13.363 -0.1277 -0.0232  0.0320
 5044SOL    HW126768   0.506   2.618  13.377 -0.8467 -0.0073  1.3687
 5044SOL    HW226769   0.386   2.704  13.360 -0.1673  1.0142 -0.5399
 5045SOL     OW26770   4.405   1.663   3.991  0.0664  0.1257 -0.0065
 5045SOL    HW126771   4.325   1.611   3.982  0.9472 -1.3291  0.5442
 5045SOL    HW226772   4.397   1.711   3.909 -0.0665 -0.2074 -0.1903
 5046SOL     OW26773   4.064   4.015   7.998  0.4599 -0.2932 -0.4914
 5046SOL    HW126774   3.978   3.992   8.032  0.2834  0.0524 -0.7057
 5046SOL    HW226775   4.064   3.996   7.904 -3.0351  2.5895 -1.0631
 5047SOL     OW26776   3.110   3.310   5.820  0.1474 -0.7020 -0.6670
 5047SOL    HW126777   3.194   3.321   5.865 -0.8519 -0.9672  1.2869
 5047SOL    HW226778   3.069   3.241   5.872 -0.1684  0.5516  0.7384
 5048SOL     OW26779   1.457   0.060   6.187  0.0542  0.5232  0.1301
 5048SOL    HW126780   1.544   0.038   6.220  0.6360  0.5989 -1.3295
 5048SOL    HW226781   1.412   0.093   6.265  0.3872  0.0660  0.5175
 5049SOL     OW26782   3.827   4.111   8.879 -0.4696  0.1037 -0.1191
 5049SOL    HW126783   3.919   4.126   8.858 -0.2532  1.8410  2.0188
 5049SOL    HW226784   3.833   4.016   8.888 -2.9596 -0.1879 -1.3400
 5050SOL     OW26785   1.598   0.953   7.042  0.3703 -0.4211 -0.5720
 5050SOL    HW126786   1.603   0.991   6.955  0.0898 -1.0916 -0.8799
 5050SOL    HW226787   1.632   1.029   7.089  0.2608 -0.5111 -0.3450
 5051SOL     OW26788   4.176   3.946   4.800  0.1549  0.2497  0.2353
 5051SOL    HW126789   4.210   4.034   4.819  0.6651 -0.0376  0.6526
 5051SOL    HW226790   4.254   3.891   4.786 -0.4724 -0.5211 -0.2306
 5052SOL     OW26791   3.982   2.422   6.583 -0.5549 -0.7791 -0.2898
 5052SOL    HW126792   3.985   2.514   6.558 -0.3888 -0.8622 -0.5870
 5052SOL    HW226793   4.006   2.427   6.675 -1.3921 -1.8478 -0.0146
 5053SOL     OW26794   0.117   0.074  13.683  0.0414 -0.5568  0.1566
 5053SOL    HW126795   0.134   0.069  13.777 -0.4590  1.7274  0.3640
 5053SOL    HW226796   0.023   0.091  13.680  0.3280  0.9043 -1.0363
 5054SOL     OW26797   0.796   0.503   4.811  0.3627  0.7264  0.4150
 5054SOL    HW126798   0.880   0.479   4.849  0.4406  0.9114  0.3609
 5054SOL    HW226799   0.730   0.482   4.877 -0.5366 -1.2235 -1.0952
 5055SOL     OW26800   1.024   1.876  16.415 -0.2859 -0.1520  0.1041
 5055SOL    HW126801   0.946   1.923  16.443 -0.8102 -0.7978 -0.2771
 5055SOL    HW226802   1.053   1.922  16.337 -0.0725 -0.5487 -0.0545
 5056SOL     OW26803   3.838   0.934  10.810 -0.1388 -0.1115  0.1552
 5056SOL    HW126804   3.881   1.019  10.810  0.1278 -0.2525  2.2227
 5056SOL    HW226805   3.810   0.933  10.718  1.1458 -1.1116 -0.2192
 5057SOL     OW26806   4.266   3.598   8.562 -0.4827 -0.6561  0.4084
 5057SOL    HW126807   4.236   3.517   8.602  2.0633 -2.1927 -0.8174
 5057SOL    HW226808   4.180   3.632   8.536 -1.0476 -0.0573  3.0646
 5058SOL     OW26809   3.607   1.688   3.636 -0.3661 -0.1224  0.0886
 5058SOL    HW126810   3.649   1.720   3.716 -1.4873 -0.1005  0.6713
 5058SOL    HW226811   3.538   1.629   3.666 -0.1880 -1.7034 -2.6826
 5059SOL     OW26812   0.006   4.676  16.339  0.3758 -0.3372  0.4430
 5059SOL    HW126813   0.011   4.609  16.407 -0.5534 -0.7485  0.1176
 5059SOL    HW226814   0.071   0.005  16.365  2.1791 -1.4538 -1.3689
 5060SOL     OW26815   0.072   4.479   1.879  0.3563  0.1156 -0.7892
 5060SOL    HW126816   0.162   4.456   1.905  0.1782 -1.4265 -1.5429
 5060SOL    HW226817   0.040   4.389   1.876  1.6205 -0.4999  3.5164
 5061SOL     OW26818   2.889   2.411  13.786 -0.3931  0.3613 -0.2219
 5061SOL    HW126819   2.827   2.467  13.738 -0.9470 -1.2773 -1.4303
 5061SOL    HW226820   2.834   2.335  13.804  0.2778  0.2388  1.2904
 5062SOL     OW26821   1.185   0.801   5.378  0.1154 -0.1168  0.5021
 5062SOL    HW126822   1.223   0.871   5.325  0.6171  1.4622  2.9902
 5062SOL    HW226823   1.173   0.724   5.322  2.6110 -1.9909  2.5377
 5063SOL     OW26824   4.661   0.601  15.200 -0.0198 -0.1330  0.3436
 5063SOL    HW126825   4.635   0.510  15.188  0.1514 -0.2026  0.4952
 5063SOL    HW226826   4.583   0.646  15.232 -0.5617 -1.7701  1.2682
 5064SOL     OW26827   0.460   2.720  11.965  0.6304  0.2059  0.6519
 5064SOL    HW126828   0.502   2.708  11.879  0.4228 -0.2233  0.6062
 5064SOL    HW226829   0.475   2.631  11.997  0.7985 -0.2811 -0.7417
 5065SOL     OW26830   1.561   3.764   5.449 -0.0152  0.2268  0.0722
 5065SOL    HW126831   1.566   3.709   5.527 -1.9915 -1.9656 -1.3542
 5065SOL    HW226832   1.647   3.744   5.412  1.2067  1.7478  2.0483
 5066SOL     OW26833   2.327   0.158  13.277  0.3929 -0.4592 -0.2268
 5066SOL    HW126834   2.298   0.150  13.186  0.2623  0.9883 -0.3088
 5066SOL    HW226835   2.423   0.148  13.274  0.5683  0.9335  1.0832
 5067SOL     OW26836   3.136   0.358   0.552  0.1086 -0.2808  0.2901
 5067SOL    HW126837   3.041   0.363   0.560  0.1736  0.1796  0.7868
 5067SOL    HW226838   3.137   0.269   0.587  2.9642  0.9057  3.1976
 5068SOL     OW26839   2.073   1.764   2.053 -0.6618 -0.4283  0.1475
 5068SOL    HW126840   1.981   1.759   2.079 -0.5986 -2.1087  0.0324
 5068SOL    HW226841   2.071   1.730   1.963  0.7701  0.5539 -0.2569
 5069SOL     OW26842   2.655   4.730   2.274 -0.0755  0.5139 -0.0121
 5069SOL    HW126843   2.633   4.695   2.188  0.1834  1.2036 -0.3594
 5069SOL    HW226844   2.660   4.652   2.329  1.0977  0.5594 -0.0452
 5070SOL     OW26845   0.958   1.432   2.310  0.2945 -0.6256  0.2070
 5070SOL    HW126846   0.894   1.455   2.243 -0.3112 -1.4708  0.5014
 5070SOL    HW226847   1.009   1.366   2.263  0.3067 -0.4403 -0.0404
 5071SOL     OW26848   4.075   2.308  11.760  0.4419 -0.2146 -0.2048
 5071SOL    HW126849   4.123   2.366  11.701  2.4315 -1.2776  0.3751
 5071SOL    HW226850   3.999   2.363  11.779 -0.2224 -1.2722  0.2075
 5072SOL     OW26851   2.679   3.154  13.443 -0.6761 -0.8591  0.9343
 5072SOL    HW126852   2.736   3.174  13.368 -0.5573  1.0095  1.5294
 5072SOL    HW226853   2.590   3.160  13.408 -0.0119  0.5986 -0.5109
 5073SOL     OW26854   1.506   1.352   8.232 -0.5827  0.3529 -0.1508
 5073SOL    HW126855   1.567   1.309   8.292  0.7886  0.2684 -1.6298
 5073SOL    HW226856   1.442   1.280   8.234  0.3893 -0.5107  0.2872
 5074SOL     OW26857   0.420   3.169   3.550  0.1772 -0.1086 -1.0686
 5074SOL    HW126858   0.504   3.208   3.573 -0.5718  1.1377 -0.4365
 5074SOL    HW226859   0.387   3.215   3.473 -2.7034 -0.5995 -0.1417
 5075SOL     OW26860   1.167   1.011   4.498  0.1848  0.5151  0.7586
 5075SOL    HW126861   1.145   0.932   4.448  2.5248  0.0806  0.3738
 5075SOL    HW226862   1.189   0.968   4.581  0.0356  1.2782  1.1863
 5076SOL     OW26863   3.702   4.595   3.157 -0.0376  0.2021  0.4882
 5076SOL    HW126864   3.776   4.581   3.215 -1.3732  0.4136  2.2482
 5076SOL    HW226865   3.738   4.636   3.078  3.1489 -0.7954  1.4102
 5077SOL     OW26866   1.867   4.060  10.335 -0.0062  0.2510 -0.4433
 5077SOL    HW126867   1.952   4.022  10.355  0.9967  1.9697 -1.4198
 5077SOL    HW226868   1.819   4.026  10.411  2.0957  0.3347  0.9200
 5078SOL     OW26869   1.901   3.572   9.080 -0.1366 -0.5637 -0.0575
 5078SOL    HW126870   1.958   3.578   9.003 -0.4849 -0.7933 -0.3364
 5078SOL    HW226871   1.845   3.504   9.043 -0.2871 -0.9495  0.8859
 5079SOL     OW26872   3.796   3.429  14.060 -0.5258  0.2137 -0.0428
 5079SOL    HW126873   3.868   3.484  14.090 -0.6822  0.6488 -0.4686
 5079SOL    HW226874   3.717   3.483  14.069 -0.6115 -0.1424  1.3202
 5080SOL     OW26875   3.332   1.448   4.359  0.3302  0.1826 -0.1030
 5080SOL    HW126876   3.361   1.493   4.438  1.0629  2.9499 -1.9358
 5080SOL    HW226877   3.243   1.430   4.387 -0.2342  0.8192 -1.4714
 5081SOL     OW26878   1.682   1.863  15.585 -0.2078  0.0593  0.4655
 5081SOL    HW126879   1.647   1.951  15.598  0.9345  0.3044  1.8914
 5081SOL    HW226880   1.709   1.871  15.493 -2.0369 -0.6403 -0.1365
 5082SOL     OW26881   3.663   3.010  12.611 -0.9859 -0.6227 -0.4841
 5082SOL    HW126882   3.683   2.961  12.531 -0.2849  0.9883 -1.3094
 5082SOL    HW226883   3.736   3.072  12.621  0.1860 -1.7875 -1.7606
 5083SOL     OW26884   0.057   2.127   4.463 -0.3816 -0.1837 -0.0874
 5083SOL    HW126885   4.709   2.107   4.505  0.3432 -1.5061  0.6953
 5083SOL    HW226886   0.124   2.077   4.509 -0.2806 -1.2919 -1.4380
 5084SOL     OW26887   3.301   1.140   8.669 -0.0171 -0.1168 -0.1982
 5084SOL    HW126888   3.280   1.102   8.584  2.1503  1.4797 -1.4262
 5084SOL    HW226889   3.212   1.174   8.671 -0.3537 -0.9549 -0.8524
 5085SOL     OW26890   0.496   0.789   9.197  0.1541  0.4733  0.7631
 5085SOL    HW126891   0.408   0.799   9.160  0.2029 -1.3529  0.1943
 5085SOL    HW226892   0.506   0.697   9.174  1.9915  1.0263 -0.7432
 5086SOL     OW26893   2.352   2.920   1.903  0.4344  0.2016 -0.0566
 5086SOL    HW126894   2.438   2.912   1.861 -1.3154 -0.5192 -3.5694
 5086SOL    HW226895   2.381   2.910   1.993 -0.4309  0.0540  0.2032
 5087SOL     OW26896   0.779   2.790   3.471 -0.0293 -0.0085 -0.1348
 5087SOL    HW126897   0.763   2.830   3.556  0.5218  3.3473 -1.6034
 5087SOL    HW226898   0.783   2.870   3.418  1.9787 -0.3935 -0.5751
 5088SOL     OW26899   2.951   3.554   9.123 -0.3319 -0.4604 -0.1724
 5088SOL    HW126900   2.929   3.508   9.204 -2.8299  1.2369  0.1181
 5088SOL    HW226901   3.041   3.525   9.112  0.5102  2.0536 -0.0405
 5089SOL     OW26902   2.419   0.951   3.057 -0.1395  0.5996 -0.0382
 5089SOL    HW126903   2.341   0.917   3.101  1.3480  0.6003  2.6455
 5089SOL    HW226904   2.385   1.040   3.048  1.1070  0.8374 -2.4433
 5090SOL     OW26905   3.074   1.501   7.194  0.3200 -0.2524  0.0824
 5090SOL    HW126906   3.158   1.495   7.148 -1.1489  0.2051 -2.6672
 5090SOL    HW226907   3.032   1.580   7.160  2.3532  1.5199  1.7143
 5091SOL     OW26908   4.546   1.387   6.101 -0.5478 -0.0544 -0.3398
 5091SOL    HW126909   4.466   1.439   6.091  0.5228  1.4867 -0.9537
 5091SOL    HW226910   4.529   1.298   6.070  2.8743 -0.3779 -1.3204
 5092SOL     OW26911   2.080   1.799   6.224  0.5962 -0.4743 -0.3309
 5092SOL    HW126912   2.034   1.779   6.306  0.4450 -0.2949 -0.3726
 5092SOL    HW226913   2.038   1.733   6.168 -0.6605 -0.6330  0.7828
 5093SOL     OW26914   0.373   3.997   5.081 -0.2040 -0.5270 -0.4189
 5093SOL    HW126915   0.323   3.994   4.999 -0.1095 -2.4164 -0.4103
 5093SOL    HW226916   0.375   4.092   5.093  0.0468 -0.5615 -0.1931
 5094SOL     OW26917   2.697   3.928   2.230  0.2537  0.2483  0.3552
 5094SOL    HW126918   2.744   3.851   2.200 -0.4099  0.2486 -0.6669
 5094SOL    HW226919   2.694   3.919   2.326  0.3545 -0.5411  0.2835
 5095SOL     OW26920   0.166   2.461   7.447  0.0545  0.5083 -0.1881
 5095SOL    HW126921   0.184   2.500   7.533 -0.2645 -1.9325  0.9880
 5095SOL    HW226922   0.112   2.386   7.472 -0.0798  0.3273 -1.0124
 5096SOL     OW26923   0.100   2.416  10.505 -0.0800  0.4873 -0.3378
 5096SOL    HW126924   0.038   2.448  10.570  0.3517 -0.2904  0.4666
 5096SOL    HW226925   0.116   2.325  10.530  2.0173  0.7109 -0.8454
 5097SOL     OW26926   3.995   3.254   6.777  0.0828 -0.0755  0.3852
 5097SOL    HW126927   4.028   3.263   6.688  0.0912  1.7172  0.5742
 5097SOL    HW226928   4.067   3.304   6.815  0.6688 -1.8520  1.5964
 5098SOL     OW26929   1.593   0.166   8.675  0.1962 -0.1649  0.1815
 5098SOL    HW126930   1.688   0.179   8.683  0.2763 -0.8994  0.3862
 5098SOL    HW226931   1.570   0.253   8.642 -0.8459 -0.9992 -1.3218
 5099SOL     OW26932   2.157   3.352   6.060  0.0409  0.0815 -0.1097
 5099SOL    HW126933   2.141   3.331   6.152  0.5592  0.3541  0.0441
 5099SOL    HW226934   2.249   3.381   6.063 -0.1486  0.5439  1.2967
 5100SOL     OW26935   0.939   4.578   8.948  0.4885 -0.1726 -0.2166
 5100SOL    HW126936   0.887   4.641   8.998 -0.1454 -0.9271  0.0766
 5100SOL    HW226937   0.886   4.557   8.871  1.3638 -1.7215 -0.3902
 5101SOL     OW26938   0.481   3.014   0.661 -0.1214 -0.3943 -0.2297
 5101SOL    HW126939   0.392   2.979   0.665 -0.0235 -0.4490  1.7311
 5101SOL    HW226940   0.512   2.940   0.609  0.2121  0.7080 -1.5743
 5102SOL     OW26941   3.136   0.950  17.671  0.2659 -0.7451  0.2403
 5102SOL    HW126942   3.201   0.948   0.002 -0.8386  1.1108  1.3338
 5102SOL    HW226943   3.075   1.007  17.718 -0.2819 -0.0915 -1.2836
 5103SOL     OW26944   4.580   1.835  15.878  0.6899 -0.7698 -0.1899
 5103SOL    HW126945   4.594   1.918  15.832  2.1460 -1.3383 -0.7575
 5103SOL    HW226946   4.592   1.772  15.807 -0.1863  1.5424 -2.4119
 5104SOL     OW26947   2.610   1.905   9.452  0.2752  0.6608 -0.9647
 5104SOL    HW126948   2.592   1.932   9.362  0.5579  3.1886 -0.2894
 5104SOL    HW226949   2.545   1.957   9.500  3.3470  0.6712  3.2295
 5105SOL     OW26950   3.556   0.968  16.873  0.2343 -0.0473  0.2428
 5105SOL    HW126951   3.539   0.887  16.921 -0.1998 -0.3707 -0.4554
 5105SOL    HW226952   3.643   0.957  16.834 -0.5292  1.6124 -1.9580
 5106SOL     OW26953   0.320   2.951   3.702 -0.1671 -0.0672 -0.2096
 5106SOL    HW126954   0.378   3.006   3.649 -2.6267  1.0826 -1.6716
 5106SOL    HW226955   0.357   2.863   3.689  1.6464  0.6274  0.1669
 5107SOL     OW26956   2.919   0.459   2.404 -0.1908 -0.1411  0.4309
 5107SOL    HW126957   2.824   0.456   2.412  0.0100 -0.6610  2.5134
 5107SOL    HW226958   2.949   0.397   2.471  0.2217  0.5544  0.8917
 5108SOL     OW26959   4.456   3.643   4.395 -0.3104  0.0450 -0.1374
 5108SOL    HW126960   4.430   3.594   4.473  1.5884 -1.1874 -0.2706
 5108SOL    HW226961   4.386   3.708   4.392  0.4394  0.8901  0.5437
 5109SOL     OW26962   4.351   1.137  11.993 -0.0978  0.0086  0.2304
 5109SOL    HW126963   4.412   1.123  12.065 -0.1063  0.4573  0.3298
 5109SOL    HW226964   4.406   1.183  11.929  0.5736 -0.7916  0.2484
 5110SOL     OW26965   1.829   2.707  15.049  0.7600  0.1677  0.0405
 5110SOL    HW126966   1.793   2.791  15.022 -0.1593 -0.8447 -1.8319
 5110SOL    HW226967   1.767   2.645  15.011  1.0451  0.7787 -1.3940
 5111SOL     OW26968   3.536   3.683   1.449 -0.2186 -0.2555  0.2253
 5111SOL    HW126969   3.543   3.754   1.386  0.2168  0.5431  1.1811
 5111SOL    HW226970   3.624   3.649   1.464 -0.4777 -1.0246  0.0381
 5112SOL     OW26971   2.922   4.149   2.401 -0.2051 -0.6498 -0.0543
 5112SOL    HW126972   2.919   4.054   2.400  0.2727 -0.6737  0.4527
 5112SOL    HW226973   3.015   4.171   2.393 -0.9307  1.7427 -2.0756
 5113SOL     OW26974   3.253   2.439   5.274  0.2060 -0.2372  0.1907
 5113SOL    HW126975   3.213   2.407   5.355 -0.7644  1.0969  0.2451
 5113SOL    HW226976   3.342   2.408   5.291  0.2300  0.8462  2.1088
 5114SOL     OW26977   3.979   0.296   3.977  0.1398 -0.2571 -0.3513
 5114SOL    HW126978   3.928   0.234   4.030  0.4345 -1.8384 -1.9186
 5114SOL    HW226979   3.991   0.249   3.895  2.1311 -0.6007  0.1375
 5115SOL     OW26980   0.649   0.537   0.644 -0.6975  0.5371 -0.0604
 5115SOL    HW126981   0.666   0.492   0.561  0.4445  0.8167  0.0222
 5115SOL    HW226982   0.568   0.495   0.673 -0.1912  0.2243  0.9007
 5116SOL     OW26983   1.287   2.947   8.720 -0.5473  0.2136  0.3242
 5116SOL    HW126984   1.323   3.029   8.686  2.7910 -2.2392 -2.0146
 5116SOL    HW226985   1.295   2.966   8.814 -1.0172  4.6758 -0.5220
 5117SOL     OW26986   3.825   4.355   8.561 -0.8105 -0.0744  1.0909
 5117SOL    HW126987   3.766   4.404   8.504  0.3373  1.4191  1.1896
 5117SOL    HW226988   3.873   4.304   8.495 -1.1475  0.8180  0.1566
 5118SOL     OW26989   3.068   1.432   2.454  0.1025  0.1104 -0.0721
 5118SOL    HW126990   3.115   1.350   2.470 -0.3453 -0.1283  0.0008
 5118SOL    HW226991   3.026   1.447   2.539 -1.4851  0.7637 -0.9761
 5119SOL     OW26992   2.238   0.065  10.117 -0.4262 -0.1071 -0.9992
 5119SOL    HW126993   2.248   0.110  10.202 -1.2077  0.6739 -1.3318
 5119SOL    HW226994   2.324   0.033  10.089 -0.3961  0.1550 -1.2022
 5120SOL     OW26995   3.510   0.667  16.301  0.1494  0.3079  0.3771
 5120SOL    HW126996   3.583   0.672  16.362 -0.2252 -2.2344  1.0432
 5120SOL    HW226997   3.484   0.759  16.305 -2.4943 -0.3622 -1.2692
 5121SOL     OW26998   4.394   1.594  17.089 -0.2077 -0.1884 -0.0637
 5121SOL    HW126999   4.433   1.658  17.148  1.4425 -0.9992 -0.2713
 5121SOL    HW227000   4.384   1.655  17.016 -1.8413 -0.7791 -0.3369
 5122SOL     OW27001   1.933   4.211   7.498  0.3531  0.1337  0.0730
 5122SOL    HW127002   1.923   4.252   7.412  0.5476 -0.4914 -0.2549
 5122SOL    HW227003   1.847   4.241   7.527 -0.1108 -1.1949  0.0937
 5123SOL     OW27004   3.284   0.252  16.364 -0.4048  0.0476  0.5748
 5123SOL    HW127005   3.366   0.222  16.326  0.1199 -0.5621  2.1565
 5123SOL    HW227006   3.223   0.185  16.333 -0.1046 -0.2580  0.6460
 5124SOL     OW27007   3.229   2.332  17.377  0.1979  0.2390  0.0773
 5124SOL    HW127008   3.200   2.303  17.291 -1.4457 -0.1758  0.7812
 5124SOL    HW227009   3.320   2.358  17.359  0.3756 -0.8789 -0.6232
 5125SOL     OW27010   2.440   4.098   4.213  0.5560 -0.4193  0.0128
 5125SOL    HW127011   2.497   4.162   4.170 -0.5541  0.9145  0.5186
 5125SOL    HW227012   2.364   4.157   4.214  0.3161 -0.7284  0.3840
 5126SOL     OW27013   2.790   1.549  13.151 -0.4662 -0.6520 -0.2262
 5126SOL    HW127014   2.761   1.617  13.090  0.0019  1.7194  2.2062
 5126SOL    HW227015   2.839   1.593  13.221 -0.0306 -0.8158 -0.4283
 5127SOL     OW27016   1.811   1.138   3.990 -0.1361  0.4961  0.0946
 5127SOL    HW127017   1.797   1.050   3.956  1.9985  0.5983 -1.0325
 5127SOL    HW227018   1.821   1.127   4.085  2.2915  0.5168 -0.1542
 5128SOL     OW27019   3.013   4.115   7.349 -0.1328  0.0325 -0.5042
 5128SOL    HW127020   3.002   4.174   7.422 -1.3880  0.2630 -0.8828
 5128SOL    HW227021   3.080   4.065   7.396 -0.4285 -0.8863 -1.0537
 5129SOL     OW27022   0.962   0.403   1.294  0.5295  0.0924 -0.1259
 5129SOL    HW127023   0.902   0.373   1.225  0.4879  0.6949 -0.3488
 5129SOL    HW227024   1.048   0.379   1.260  0.3556  1.0405 -1.2053
 5130SOL     OW27025   1.106   4.520   5.203 -0.2718 -0.3939 -0.2270
 5130SOL    HW127026   1.129   4.459   5.273  0.1168  1.8936  1.6231
 5130SOL    HW227027   1.086   4.597   5.256  0.2631  0.5827 -1.4299
 5131SOL     OW27028   3.991   1.697  13.013 -0.0349 -0.4392  0.1695
 5131SOL    HW127029   3.919   1.686  12.951 -0.0760 -0.5588  0.2395
 5131SOL    HW227030   4.061   1.647  12.972 -0.0645 -0.9949  0.8049
 5132SOL     OW27031   1.921   1.685   0.935  0.3761 -0.4165 -0.6255
 5132SOL    HW127032   1.930   1.768   0.982  0.6726 -0.9311  0.2322
 5132SOL    HW227033   2.014   1.662   0.931  0.9783  2.1299 -1.0034
 5133SOL     OW27034   4.091   0.190   6.365  0.6327 -0.2394  0.4022
 5133SOL    HW127035   4.000   0.213   6.348  0.7444  0.7648  1.1387
 5133SOL    HW227036   4.097   0.186   6.460 -0.2790 -1.5780  0.4020
 5134SOL     OW27037   2.951   3.339  11.019  0.2238  0.1302  0.2155
 5134SOL    HW127038   2.911   3.390  11.090  0.9009  0.3256  0.4586
 5134SOL    HW227039   3.037   3.382  11.030  0.6937 -0.2825 -1.9430
 5135SOL     OW27040   0.547   4.214   7.831  0.0381  0.6941  0.5393
 5135SOL    HW127041   0.586   4.298   7.804  0.5734 -0.0465 -1.0094
 5135SOL    HW227042   0.478   4.210   7.764  0.0475 -0.1163  0.5834
 5136SOL     OW27043   2.848   2.526  12.660 -0.5771 -0.0183 -0.7887
 5136SOL    HW127044   2.942   2.535  12.641 -0.4756  0.8739  0.1621
 5136SOL    HW227045   2.823   2.618  12.660 -1.6485 -0.3342  3.0996
 5137SOL     OW27046   1.303   2.185   8.594  0.0338 -0.2255  0.0134
 5137SOL    HW127047   1.337   2.178   8.505  0.1880  1.1261 -0.0259
 5137SOL    HW227048   1.354   2.264   8.610  1.9985 -1.3421 -0.6528
 5138SOL     OW27049   2.656   4.620   4.197 -0.5250 -0.6783 -0.4404
 5138SOL    HW127050   2.619   4.661   4.275  0.2170 -0.0672 -0.4120
 5138SOL    HW227051   2.747   4.599   4.220  0.3265  0.7749 -2.5232
 5139SOL     OW27052   4.423   2.553   5.392 -0.4110 -0.2657 -0.1113
 5139SOL    HW127053   4.499   2.608   5.409 -0.5477 -0.1480  0.1294
 5139SOL    HW227054   4.379   2.537   5.476 -2.0864 -0.0369 -0.9429
 5140SOL     OW27055   0.865   1.394   9.838 -0.3736 -0.1010 -0.2154
 5140SOL    HW127056   0.945   1.431   9.802  0.4377 -0.1073  1.5966
 5140SOL    HW227057   0.799   1.412   9.771 -0.1741 -1.9713 -0.8992
 5141SOL     OW27058   1.966   4.506   6.473 -1.1440  0.4181 -0.1951
 5141SOL    HW127059   2.020   4.456   6.534 -0.3644 -0.2825 -1.4517
 5141SOL    HW227060   1.894   4.531   6.530 -0.2768  0.7600  0.7393
 5142SOL     OW27061   4.556   4.289   3.454 -0.4045  0.4599 -0.0157
 5142SOL    HW127062   4.468   4.251   3.448 -0.3915  0.5194 -0.5698
 5142SOL    HW227063   4.564   4.317   3.363 -1.0486  2.0101  0.4192
 5143SOL     OW27064   1.624   3.813   2.949  0.3442 -0.3445  0.7929
 5143SOL    HW127065   1.662   3.881   2.894  0.9483  0.6647  2.4612
 5143SOL    HW227066   1.630   3.865   3.029 -0.0792 -0.2065  0.7349
 5144SOL     OW27067   2.370   2.569   3.948 -0.0005 -0.1148 -0.7603
 5144SOL    HW127068   2.287   2.549   3.990 -0.4788  1.7760 -0.8412
 5144SOL    HW227069   2.383   2.661   3.969  0.4573  0.0506 -1.7459
 5145SOL     OW27070   1.929   0.422   8.255 -0.2584  0.9773  0.2613
 5145SOL    HW127071   2.020   0.400   8.235 -0.1014  1.2505  0.6745
 5145SOL    HW227072   1.890   0.409   8.169 -1.2231 -0.7449  0.9558
 5146SOL     OW27073   2.615   1.000   3.650  0.4350 -0.6038  0.0596
 5146SOL    HW127074   2.615   0.932   3.719  1.0589  0.7193  1.3619
 5146SOL    HW227075   2.584   0.950   3.575  2.6867  0.4952 -1.5820
 5147SOL     OW27076   1.123   1.069  16.940  0.2684 -0.0463  0.6186
 5147SOL    HW127077   1.190   1.137  16.951 -2.7454  3.2162 -1.2019
 5147SOL    HW227078   1.179   0.992  16.950  0.1801 -0.7161 -3.8120
 5148SOL     OW27079   2.085   3.800   8.279  0.5824  0.4822  0.5540
 5148SOL    HW127080   2.065   3.793   8.186  3.5118  3.7656 -0.3446
 5148SOL    HW227081   2.113   3.709   8.284  0.0509  0.3450  1.0943
 5149SOL     OW27082   1.138   2.830   4.329  0.4763  0.3546  0.3640
 5149SOL    HW127083   1.187   2.827   4.412 -1.3572 -3.2530  1.3404
 5149SOL    HW227084   1.189   2.898   4.287 -0.7820  1.1257  0.0841
 5150SOL     OW27085   1.794   1.394   4.737  0.4948  0.5951  0.0438
 5150SOL    HW127086   1.793   1.360   4.826  1.2260  0.7969  0.1210
 5150SOL    HW227087   1.707   1.371   4.702  0.3622 -1.3628  1.6681
 5151SOL     OW27088   2.967   0.018   2.456 -0.2934  0.3241  0.6605
 5151SOL    HW127089   2.957   4.662   2.427  2.1246  0.2916 -0.0353
 5151SOL    HW227090   2.903   0.011   2.526  0.5458 -0.1943  1.3755
 5152SOL     OW27091   3.479   3.731   8.122  0.1749  0.0424  0.2630
 5152SOL    HW127092   3.431   3.689   8.194  0.2437  0.7374  0.7178
 5152SOL    HW227093   3.464   3.825   8.134  1.8798  0.2601  0.6992
 5153SOL     OW27094   1.749   4.106   9.630  0.0689  0.2017 -0.0857
 5153SOL    HW127095   1.749   4.199   9.649  0.0461 -0.1503  1.6170
 5153SOL    HW227096   1.706   4.119   9.545  0.0316  2.5328  0.3122
 5154SOL     OW27097   4.079   3.294   8.212 -0.1799 -0.0356 -0.3673
 5154SOL    HW127098   3.985   3.303   8.219  0.0269  1.2185  0.7128
 5154SOL    HW227099   4.101   3.369   8.155 -1.4937 -0.3940 -1.3374
 5155SOL     OW27100   4.358   3.653   3.437  0.0608 -0.0974 -0.1864
 5155SOL    HW127101   4.326   3.648   3.527 -2.4575  1.1020 -1.0159
 5155SOL    HW227102   4.411   3.573   3.435 -0.7208 -0.6519  0.9755
 5156SOL     OW27103   1.975   2.914   5.420  0.3418 -0.1583  0.2276
 5156SOL    HW127104   1.962   2.937   5.512 -1.8634  2.0530 -0.6560
 5156SOL    HW227105   1.897   2.958   5.387  0.6392  0.1865 -0.0180
 5157SOL     OW27106   2.097   0.048  13.365  0.0012  0.2843  0.3588
 5157SOL    HW127107   2.131   0.041  13.276 -0.4621  2.4016  0.0240
 5157SOL    HW227108   2.131   0.130  13.402 -0.2176  0.7202 -0.4057
 5158SOL     OW27109   4.697   2.108   6.396 -0.1190  0.1847  0.7127
 5158SOL    HW127110   4.693   2.183   6.454 -0.0617  0.6790  0.0741
 5158SOL    HW227111   0.032   2.055   6.433  2.7024  2.6869 -1.0303
 5159SOL     OW27112   3.287   2.512   2.941 -1.0877 -0.1839 -0.3582
 5159SOL    HW127113   3.203   2.467   2.928 -0.7040 -1.1384  0.4947
 5159SOL    HW227114   3.341   2.434   2.953  0.7388  1.2728  0.9795
 5160SOL     OW27115   3.617   3.016  14.299 -0.2236  0.1627  0.2584
 5160SOL    HW127116   3.592   3.066  14.222 -2.3716 -1.9690 -0.3982
 5160SOL    HW227117   3.599   2.925  14.275 -1.6867  0.7034 -0.6877
 5161SOL     OW27118   4.734   3.559   8.826 -0.1138  0.2664  0.0472
 5161SOL    HW127119   0.011   3.608   8.744  0.8404  0.6170  0.3964
 5161SOL    HW227120   4.682   3.486   8.792  2.1579  0.2836 -3.4251
 5162SOL     OW27121   2.940   4.663   3.459  0.3021  0.1493  0.1002
 5162SOL    HW127122   3.013   4.725   3.457  0.2140  0.2170 -0.9230
 5162SOL    HW227123   2.947   4.628   3.548  3.3743  1.2267  0.2855
 5163SOL     OW27124   0.472   4.240  12.319 -0.2997 -0.1972 -0.5242
 5163SOL    HW127125   0.383   4.253  12.351 -1.2143 -0.7459 -2.8718
 5163SOL    HW227126   0.477   4.298  12.243 -1.8383 -1.3296 -1.4828
 5164SOL     OW27127   0.585   1.513   9.310 -0.3435 -0.4499 -0.3467
 5164SOL    HW127128   0.523   1.456   9.356  1.0189 -1.2783  0.4507
 5164SOL    HW227129   0.654   1.532   9.374 -1.1268  1.4090 -0.0548
 5165SOL     OW27130   4.181   2.583   6.830 -0.1919 -0.3760  0.3760
 5165SOL    HW127131   4.270   2.566   6.862 -0.6865  0.2166  2.0604
 5165SOL    HW227132   4.190   2.677   6.817 -0.0376 -0.3783  0.4680
 5166SOL     OW27133   2.810   3.130   3.921 -0.2791 -0.1097 -0.2290
 5166SOL    HW127134   2.850   3.197   3.976  0.9461 -0.5497 -0.5817
 5166SOL    HW227135   2.874   3.116   3.851  1.0343 -0.1979  0.9877
 5167SOL     OW27136   3.453   1.049   6.832 -0.0894 -0.2139 -0.2862
 5167SOL    HW127137   3.381   1.070   6.773 -1.1525 -1.3349  0.6165
 5167SOL    HW227138   3.440   0.959   6.863 -0.1282  1.0682  3.4163
 5168SOL     OW27139   0.867   2.511   6.824 -0.2756 -0.0192 -0.2019
 5168SOL    HW127140   0.887   2.601   6.848 -0.6778 -0.2198  0.8621
 5168SOL    HW227141   0.787   2.495   6.875  0.7140 -3.0674  0.4252
 5169SOL     OW27142   4.494   4.216   1.169 -0.4604  0.2248 -0.0382
 5169SOL    HW127143   4.538   4.278   1.110 -2.8598  0.7799 -1.2508
 5169SOL    HW227144   4.464   4.147   1.110  1.8731  0.4514 -1.4844
 5170SOL     OW27145   4.365   2.420  11.320  0.2646 -0.1904  0.0099
 5170SOL    HW127146   4.304   2.493  11.325 -1.3207 -1.4817 -0.5363
 5170SOL    HW227147   4.363   2.379  11.406  0.9954  0.3218  0.2699
 5171SOL     OW27148   1.216   3.183   4.835  0.2215 -0.1250  0.1881
 5171SOL    HW127149   1.243   3.128   4.909 -1.0963 -1.3957 -0.2781
 5171SOL    HW227150   1.297   3.176   4.784 -0.2703  2.5615 -0.9675
 5172SOL     OW27151   2.662   1.464   3.057  0.0248 -0.1663  0.3654
 5172SOL    HW127152   2.630   1.379   3.089  0.8243 -1.0076 -1.0624
 5172SOL    HW227153   2.605   1.519   3.111  1.1534 -1.1743  2.5912
 5173SOL     OW27154   1.551   4.067  13.763  0.4569 -0.8176 -0.2486
 5173SOL    HW127155   1.459   4.084  13.739 -0.3852 -0.9767  2.8313
 5173SOL    HW227156   1.569   4.157  13.791  0.3184 -0.0545 -2.6621
 5174SOL     OW27157   1.505   3.313   6.685 -0.0192  0.5101 -0.2204
 5174SOL    HW127158   1.551   3.239   6.725 -2.2248  0.3735  2.0896
 5174SOL    HW227159   1.500   3.283   6.594  0.3228  1.1803 -0.4590
 5175SOL     OW27160   3.611   3.339   4.423 -0.3420 -0.4908  0.3485
 5175SOL    HW127161   3.607   3.356   4.329 -1.8233 -2.3755  0.0531
 5175SOL    HW227162   3.531   3.386   4.444  0.6195  1.2336  0.0970
 5176SOL     OW27163   1.124   2.589   4.881 -0.2429 -0.2844 -0.1645
 5176SOL    HW127164   1.090   2.653   4.943 -1.9919  0.7739 -2.2116
 5176SOL    HW227165   1.084   2.618   4.799 -1.7171  1.1238  1.0462
 5177SOL     OW27166   0.814   0.744   5.327 -0.2614 -0.0463  0.4386
 5177SOL    HW127167   0.793   0.668   5.273 -1.3787  0.5878 -0.0248
 5177SOL    HW227168   0.850   0.700   5.404  0.4305  0.0697  0.1813
 5178SOL     OW27169   3.984   1.409  15.361  0.0462 -0.2614  0.1062
 5178SOL    HW127170   3.974   1.355  15.283  1.4716  1.2238 -1.0893
 5178SOL    HW227171   4.079   1.398  15.369 -0.1515 -0.2333  2.7363
 5179SOL     OW27172   3.713   3.801   0.179 -0.4117 -0.2064 -0.3909
 5179SOL    HW127173   3.626   3.775   0.147 -0.6938 -0.0033  0.2140
 5179SOL    HW227174   3.731   3.726   0.236  0.4121 -0.4268 -0.9455
 5180SOL     OW27175   0.104   4.254   4.905  0.0808  0.0348 -0.5898
 5180SOL    HW127176   0.063   4.209   4.831 -0.6713 -1.0950  0.4962
 5180SOL    HW227177   0.119   4.173   4.955 -1.1664  0.2901  0.2186
 5181SOL     OW27178   1.159   4.425   0.764  0.2759  0.1831 -0.1782
 5181SOL    HW127179   1.202   4.342   0.785  1.8982  1.2391  0.6606
 5181SOL    HW227180   1.067   4.411   0.790  1.5433 -0.7541  3.7782
 5182SOL     OW27181   2.880   1.808   8.476 -0.2331  0.4713  0.3322
 5182SOL    HW127182   2.851   1.723   8.442 -0.9965  0.3349  1.3373
 5182SOL    HW227183   2.810   1.865   8.445  0.0606  1.6913  1.9135
 5183SOL     OW27184   2.880   3.967   0.483  1.0373 -0.3026  0.0937
 5183SOL    HW127185   2.852   3.929   0.400 -1.4023 -0.1927  0.8677
 5183SOL    HW227186   2.820   3.927   0.546  0.1473  1.0132  0.0772
 5184SOL     OW27187   3.457   2.416   9.343 -0.1767  0.4207 -0.1282
 5184SOL    HW127188   3.515   2.482   9.306  0.1174  0.0357 -0.3533
 5184SOL    HW227189   3.465   2.443   9.435 -1.8864  0.3871  0.0211
 5185SOL     OW27190   0.845   3.328  16.303 -0.1859  0.4995 -0.7466
 5185SOL    HW127191   0.937   3.335  16.275  0.5605 -0.5503  1.4468
 5185SOL    HW227192   0.855   3.336  16.398  0.0970  0.0728 -0.7431
 5186SOL     OW27193   4.654   2.568   9.808 -0.3983  0.0088  0.0909
 5186SOL    HW127194   4.699   2.615   9.878  0.6474 -0.8531 -0.0085
 5186SOL    HW227195   4.569   2.547   9.845 -0.3265 -1.4311 -0.5925
 5187SOL     OW27196   0.409   0.909   0.791  0.2521 -0.4905 -0.1058
 5187SOL    HW127197   0.406   0.851   0.867  0.7967 -0.9909 -0.4633
 5187SOL    HW227198   0.367   0.841   0.739 -0.9474 -0.4720  0.8569
 5188SOL     OW27199   2.607   2.162  15.994  0.7818  0.7126 -0.1049
 5188SOL    HW127200   2.613   2.099  15.922 -0.6208 -0.5501  0.8831
 5188SOL    HW227201   2.546   2.222  15.952 -0.3097  0.2711  0.8585
 5189SOL     OW27202   2.638   3.100   7.304 -0.6182  0.6542 -0.1118
 5189SOL    HW127203   2.715   3.058   7.344 -1.0210  1.0026  1.0338
 5189SOL    HW227204   2.643   3.057   7.219 -1.0749 -1.1649  0.7609
 5190SOL     OW27205   4.659   4.245  14.806  0.1506 -0.0144 -0.2420
 5190SOL    HW127206   4.579   4.224  14.855  0.2257 -0.3536 -0.2610
 5190SOL    HW227207   4.658   4.199  14.722  1.6215 -1.7742  0.6903
 5191SOL     OW27208   1.644   1.366   9.093 -0.2635  0.6659 -0.2956
 5191SOL    HW127209   1.554   1.348   9.117 -0.1614  0.5536  0.0014
 5191SOL    HW227210   1.642   1.461   9.080  0.2718  0.7505  0.2291
 5192SOL     OW27211   1.106   3.806  15.646  0.1917 -0.0809 -0.1714
 5192SOL    HW127212   1.144   3.840  15.727 -1.3153  0.7970  0.1735
 5192SOL    HW227213   1.178   3.749  15.621 -0.3005 -0.2585 -1.1644
 5193SOL     OW27214   0.945   4.495   3.629  0.1492  0.1449 -0.3912
 5193SOL    HW127215   0.935   4.585   3.659 -0.5951 -0.5474  1.4392
 5193SOL    HW227216   0.999   4.505   3.550 -1.2713  1.6568 -1.1605
 5194SOL     OW27217   4.419   1.007   0.472 -0.2176 -0.1316  0.2701
 5194SOL    HW127218   4.353   0.996   0.404  2.0070 -1.0825 -1.7452
 5194SOL    HW227219   4.360   1.041   0.539  1.1369  0.1242  1.3262
 5195SOL     OW27220   2.228   1.975   1.966  0.1717  0.7274 -0.5169
 5195SOL    HW127221   2.288   1.926   1.909  2.3422  0.5591  1.8917
 5195SOL    HW227222   2.161   1.909   1.984  0.4365  0.7890  0.7278
 5196SOL     OW27223   3.738   4.506   8.361  0.0879  0.0299 -0.1727
 5196SOL    HW127224   3.797   4.464   8.298  0.2695  0.0738 -0.0330
 5196SOL    HW227225   3.775   4.594   8.370  1.1588 -0.4585  0.1823
 5197SOL     OW27226   3.998   3.971   8.596 -0.1709  0.2578  0.1184
 5197SOL    HW127227   4.023   3.925   8.677 -0.3479 -0.1954 -0.0889
 5197SOL    HW227228   4.053   4.049   8.586 -1.0281  0.8195 -0.2558
 5198SOL     OW27229   3.153   2.921   1.693  0.5096  0.2127  0.1177
 5198SOL    HW127230   3.240   2.960   1.688 -0.0553  1.2561 -1.5809
 5198SOL    HW227231   3.157   2.888   1.783  0.6483  1.2658  0.5035
 5199SOL     OW27232   2.484   0.426   6.286  0.2338  0.5465  0.3002
 5199SOL    HW127233   2.542   0.460   6.354  0.6655  2.9346 -1.2563
 5199SOL    HW227234   2.493   0.505   6.233 -2.1619 -0.5676 -1.7557
 5200SOL     OW27235   1.477   1.934   4.465  0.3393 -0.0871  0.4206
 5200SOL    HW127236   1.518   1.850   4.445 -1.2344 -0.0636 -3.0309
 5200SOL    HW227237   1.526   2.002   4.420  0.9927 -1.1418 -0.4582
 5201SOL     OW27238   3.543   3.289   3.868 -0.2882 -0.2554 -0.2664
 5201SOL    HW127239   3.543   3.341   3.949 -1.3224  0.1603 -0.5365
 5201SOL    HW227240   3.572   3.353   3.804  1.2206  0.8342  1.4886
 5202SOL     OW27241   1.471   3.802   6.060  0.1372 -0.1968 -0.0823
 5202SOL    HW127242   1.547   3.801   6.119 -1.4051 -2.0206  1.8502
 5202SOL    HW227243   1.405   3.842   6.117  0.0048 -1.2600  0.5092
 5203SOL     OW27244   1.695   2.272   3.707 -0.1190  0.2788 -0.1182
 5203SOL    HW127245   1.611   2.240   3.677  0.4793 -1.3669 -0.0201
 5203SOL    HW227246   1.721   2.205   3.770  2.0400 -0.7095 -2.0666
 5204SOL     OW27247   0.129   3.361   5.050  0.4102  0.3616 -0.1723
 5204SOL    HW127248   0.141   3.336   4.958 -0.5485 -2.1023  0.3787
 5204SOL    HW227249   0.156   3.278   5.089  0.9861  0.0731 -1.1685
 5205SOL     OW27250   3.296   3.157   2.975  0.0821 -0.1423 -0.1108
 5205SOL    HW127251   3.324   3.115   3.056  3.8175  1.2090 -0.6538
 5205SOL    HW227252   3.215   3.109   2.957  0.7776 -1.3704  0.0099
 5206SOL     OW27253   1.334   2.309   8.149 -0.5556 -0.0972 -0.2097
 5206SOL    HW127254   1.314   2.320   8.056 -3.0841  1.4807  0.5129
 5206SOL    HW227255   1.291   2.234   8.189  1.7176  0.4395  3.2325
 5207SOL     OW27256   4.145   1.487   6.995 -0.4135  0.4435  0.0585
 5207SOL    HW127257   4.091   1.486   7.074  0.4308  0.1289  0.6262
 5207SOL    HW227258   4.183   1.575   7.001 -2.8499  1.4195  1.5783
 5208SOL     OW27259   0.584   1.635  12.673  0.0903  0.0762 -0.1321
 5208SOL    HW127260   0.513   1.616  12.733  1.6327  2.5944  2.4653
 5208SOL    HW227261   0.534   1.659  12.595  2.4947 -1.0730 -2.0429
 5209SOL     OW27262   4.474   2.796   9.349  0.1155 -0.4304  0.1705
 5209SOL    HW127263   4.532   2.758   9.415 -0.3190 -1.0971  0.1638
 5209SOL    HW227264   4.500   2.745   9.273  0.3542 -2.4266  1.5855
 5210SOL     OW27265   1.903   2.906  14.217  0.0201 -0.6943  0.5523
 5210SOL    HW127266   1.931   2.815  14.233  3.1782  0.4805  1.7742
 5210SOL    HW227267   1.829   2.905  14.157  0.1413  0.7873  0.3995
 5211SOL     OW27268   2.741   4.643   5.874 -0.9122 -0.5422 -0.2826
 5211SOL    HW127269   2.827   4.684   5.870  0.3927 -3.2174  0.6015
 5211SOL    HW227270   2.747   4.565   5.820 -4.5142 -1.3079  0.3819
 5212SOL     OW27271   0.887   2.616   2.840  0.0592 -0.7804 -0.5803
 5212SOL    HW127272   0.897   2.711   2.843 -1.4353 -0.6449  0.0657
 5212SOL    HW227273   0.817   2.591   2.900  1.6171 -2.8176  0.3735
 5213SOL     OW27274   1.736   3.818  12.838 -0.1765 -0.1017 -0.2999
 5213SOL    HW127275   1.719   3.867  12.758 -2.3842  1.0653  0.8887
 5213SOL    HW227276   1.808   3.868  12.877 -1.3606  0.4455  1.1945
 5214SOL     OW27277   1.404   2.851   5.983 -0.1246  0.2392 -0.9266
 5214SOL    HW127278   1.338   2.784   6.002  2.3862 -2.4665 -1.7805
 5214SOL    HW227279   1.404   2.893   6.069  2.2638 -2.4622  0.3887
 5215SOL     OW27280   0.805   2.837   4.805  0.4141  0.2828  0.5219
 5215SOL    HW127281   0.844   2.888   4.876  0.9972  0.0142  0.3984
 5215SOL    HW227282   0.750   2.777   4.854 -2.2952  1.4066 -1.1376
 5216SOL     OW27283   2.262   2.369   2.314 -0.5439  0.1191 -0.0064
 5216SOL    HW127284   2.320   2.404   2.381 -1.5700  3.7794 -1.0312
 5216SOL    HW227285   2.258   2.440   2.250 -0.6096  0.2443  0.1390
 5217SOL     OW27286   4.647   0.629   5.410 -0.0389  0.0880 -0.6259
 5217SOL    HW127287   4.554   0.637   5.433  0.1965 -2.1631  1.1138
 5217SOL    HW227288   4.688   0.697   5.464  0.0719 -0.1540 -0.4054
 5218SOL     OW27289   2.146   0.668   8.723  0.0874 -0.0232  0.2063
 5218SOL    HW127290   2.124   0.760   8.708  1.0100  0.0825 -0.4872
 5218SOL    HW227291   2.222   0.658   8.667 -0.5764  3.5689 -1.3316
 5219SOL     OW27292   1.863   4.531  15.252 -0.7051  0.3341 -0.3914
 5219SOL    HW127293   1.830   4.616  15.223  0.4293  1.5599  1.9125
 5219SOL    HW227294   1.907   4.506  15.170  0.9259  0.5740  0.4012
 5220SOL     OW27295   0.331   0.066   6.591 -0.0484 -0.0810 -0.4177
 5220SOL    HW127296   0.362   0.001   6.654 -2.0230 -0.4845  0.1520
 5220SOL    HW227297   0.402   0.071   6.528  1.1981 -2.8756  0.7898
 5221SOL     OW27298   4.332   4.437  16.275  0.8247 -0.3145  0.0634
 5221SOL    HW127299   4.364   4.520  16.307 -0.0519  0.0139  0.1016
 5221SOL    HW227300   4.303   4.399  16.358 -1.3881  1.8250  0.2713
 5222SOL     OW27301   2.544   0.251  17.005 -0.0865 -0.1457 -0.5085
 5222SOL    HW127302   2.479   0.285  16.942 -0.3431  0.9431  0.3539
 5222SOL    HW227303   2.617   0.242  16.944  0.6656  1.0110  0.2331
 5223SOL     OW27304   4.120   1.499   7.936 -0.1984 -0.1375  0.1680
 5223SOL    HW127305   4.115   1.407   7.909  2.2950 -0.3090  0.2690
 5223SOL    HW227306   4.029   1.525   7.925 -0.8211 -0.8153  3.5612
 5224SOL     OW27307   3.676   4.287   5.334 -0.5162 -0.1875  0.2907
 5224SOL    HW127308   3.768   4.297   5.356 -0.8999 -0.4184  1.9912
 5224SOL    HW227309   3.656   4.206   5.381 -1.3254 -0.4069 -0.4310
 5225SOL     OW27310   1.188   3.305   8.808 -0.9352  1.3789  0.1499
 5225SOL    HW127311   1.128   3.253   8.860 -0.9007  1.6319  0.4424
 5225SOL    HW227312   1.263   3.302   8.868 -1.5950  1.3883  0.9716
 5226SOL     OW27313   3.159   3.934   0.548 -0.0017  0.3110 -0.4321
 5226SOL    HW127314   3.069   3.946   0.517 -0.6195  0.0915  1.2882
 5226SOL    HW227315   3.178   3.841   0.541  1.0013  0.3784  1.3930
 5227SOL     OW27316   4.129   4.420   6.034  0.2774  0.2697  0.0046
 5227SOL    HW127317   4.188   4.405   6.108 -2.6429  5.8604  3.4260
 5227SOL    HW227318   4.046   4.426   6.082  0.9932  0.6180  1.2067
 5228SOL     OW27319   4.410   3.375  11.164  0.1378  0.3657  0.3403
 5228SOL    HW127320   4.318   3.361  11.182  0.4027 -1.7927 -0.0107
 5228SOL    HW227321   4.431   3.427  11.242  0.9982  0.1761  0.2418
 5229SOL     OW27322   1.436   2.270   6.132 -0.2433  0.3263  0.0361
 5229SOL    HW127323   1.439   2.365   6.143  1.7222  0.0048  2.4012
 5229SOL    HW227324   1.464   2.255   6.042 -0.1885  0.9562 -0.0532
 5230SOL     OW27325   1.369   0.258   4.936  0.0907 -0.6995  0.7588
 5230SOL    HW127326   1.347   0.234   5.026  1.1641 -0.4459  1.0893
 5230SOL    HW227327   1.336   0.194   4.875  0.8773 -0.3574 -0.0288
 5231SOL     OW27328   1.809   3.420  15.173 -0.4338  0.4246 -0.1173
 5231SOL    HW127329   1.862   3.488  15.129 -1.4940  0.7406 -0.8912
 5231SOL    HW227330   1.885   3.381  15.216  1.5478  0.7819 -3.3224
 5232SOL     OW27331   0.755   3.922  17.139  0.5363 -0.3992 -0.0309
 5232SOL    HW127332   0.734   3.961  17.055 -0.8301 -0.7733  0.1298
 5232SOL    HW227333   0.836   3.876  17.118  1.8316  1.7393  0.2733
 5233SOL     OW27334   2.283   0.940   9.211 -0.1117 -0.0242 -0.3219
 5233SOL    HW127335   2.195   0.979   9.216  0.0220  0.2844 -0.3815
 5233SOL    HW227336   2.260   0.848   9.202 -1.2453  0.2851 -0.5485
 5234SOL     OW27337   4.673   4.520   3.554  0.5657 -0.2196  0.0799
 5234SOL    HW127338   4.617   4.450   3.521  0.6176 -0.0194 -0.4177
 5234SOL    HW227339   0.014   4.504   3.499  0.2056  0.3092 -0.5616
 5235SOL     OW27340   3.838   4.228   7.391  0.1110 -0.6294  0.1349
 5235SOL    HW127341   3.861   4.136   7.377  3.8901  0.2503  0.5890
 5235SOL    HW227342   3.913   4.265   7.345 -0.9660  0.0958 -1.0280
 5236SOL     OW27343   2.739   2.750   9.003  0.0804 -0.2681  0.5282
 5236SOL    HW127344   2.746   2.780   8.912  0.8660  2.6576  1.5684
 5236SOL    HW227345   2.646   2.728   9.007  0.4996 -2.1469  0.1701
 5237SOL     OW27346   2.088   0.577   1.549 -0.2291 -0.3197 -0.9072
 5237SOL    HW127347   2.156   0.611   1.492  1.2619 -1.9364 -0.1028
 5237SOL    HW227348   2.120   0.488   1.567  2.3604  0.7028 -0.4998
 5238SOL     OW27349   3.838   1.111   3.175  0.3391  0.4263  0.0776
 5238SOL    HW127350   3.860   1.134   3.265  0.9611 -1.0857  0.3127
 5238SOL    HW227351   3.810   1.198   3.145 -0.4808  0.0572 -0.2312
 5239SOL     OW27352   1.308   2.895   2.473 -0.6216 -0.2082  0.0863
 5239SOL    HW127353   1.337   2.839   2.545 -3.5349  2.3301  3.2445
 5239SOL    HW227354   1.349   2.853   2.397 -1.2696  1.1368 -0.9950
 5240SOL     OW27355   1.464   4.686   7.403  0.0528 -0.0684  0.4566
 5240SOL    HW127356   1.382   4.735   7.402  0.1001 -0.0228 -0.6747
 5240SOL    HW227357   1.526   0.003   7.453 -1.3250  0.2000  1.8673
 5241SOL     OW27358   3.346   1.102  16.999  0.1306  0.2007  0.2536
 5241SOL    HW127359   3.367   1.058  17.082 -0.7017 -0.5966  0.0417
 5241SOL    HW227360   3.391   1.047  16.936  0.4393 -1.2125  1.7091
 5242SOL     OW27361   0.305   3.311   9.659 -0.7892 -0.2716 -0.5466
 5242SOL    HW127362   0.368   3.312   9.731 -0.7423 -0.4028 -0.5853
 5242SOL    HW227363   0.354   3.339   9.581 -2.7987 -1.3408 -2.1866
 5243SOL     OW27364   4.504   2.436   4.503 -0.3672 -0.4294 -0.5487
 5243SOL    HW127365   4.574   2.421   4.567 -2.7245  1.4424  2.5434
 5243SOL    HW227366   4.461   2.511   4.545  3.0109  1.6600 -0.8601
 5244SOL     OW27367   3.694   2.896   7.618 -0.1789  0.6700  0.1220
 5244SOL    HW127368   3.695   2.843   7.538  0.2348  0.3077  0.3736
 5244SOL    HW227369   3.641   2.967   7.582  0.4926  1.2653  0.3173
 5245SOL     OW27370   2.416   1.460   6.634 -0.8295 -0.4631  0.1927
 5245SOL    HW127371   2.465   1.470   6.552 -0.3789 -1.7450  0.3185
 5245SOL    HW227372   2.480   1.457   6.705 -1.4549  2.8096  0.9108
 5246SOL     OW27373   4.211   3.503   4.955 -0.0126 -0.5703 -0.7172
 5246SOL    HW127374   4.191   3.455   4.874 -2.2750  0.6024 -0.8546
 5246SOL    HW227375   4.152   3.579   4.948 -0.9689 -0.9414  3.6219
 5247SOL     OW27376   0.998   0.112   5.699 -0.0425 -0.3443 -0.1860
 5247SOL    HW127377   0.971   0.203   5.710 -1.2294 -0.2815 -3.3997
 5247SOL    HW227378   1.088   0.123   5.728 -0.4015 -0.4033  0.9268
 5248SOL     OW27379   2.731   2.168  13.793  0.1351  0.1022 -0.1098
 5248SOL    HW127380   2.770   2.080  13.794 -0.1806 -0.0306  0.2369
 5248SOL    HW227381   2.644   2.156  13.757 -0.5093  0.2720  1.3908
 5249SOL     OW27382   3.649   1.748  16.539 -0.1493 -0.5502 -0.2978
 5249SOL    HW127383   3.633   1.841  16.521  1.0189 -0.2729  0.0841
 5249SOL    HW227384   3.578   1.708  16.489 -1.5570 -2.7513  3.4824
 5250SOL     OW27385   2.370   1.659   7.373  0.0221 -0.7081  0.2091
 5250SOL    HW127386   2.453   1.686   7.335 -0.5474 -0.3547 -0.7740
 5250SOL    HW227387   2.334   1.735   7.418  1.2290  0.4137 -0.7509
 5251SOL     OW27388   3.747   0.442   3.157 -0.4206  0.1823  0.0757
 5251SOL    HW127389   3.795   0.363   3.131  0.5767  0.6157  0.5830
 5251SOL    HW227390   3.797   0.521   3.134  0.5818 -0.2421  0.7716
 5252SOL     OW27391   4.323   0.227   2.430  0.4856 -0.2894  0.3976
 5252SOL    HW127392   4.321   0.323   2.438 -0.4482 -0.3696  1.0821
 5252SOL    HW227393   4.296   0.189   2.513 -1.3195 -1.6340 -0.8051
 5253SOL     OW27394   3.278   0.117   4.426 -0.0006  0.0111 -0.7802
 5253SOL    HW127395   3.217   0.185   4.452 -2.0678 -1.1645 -2.5425
 5253SOL    HW227396   3.355   0.157   4.466 -0.8847  0.1351  0.7867
 5254SOL     OW27397   2.747   4.226  11.308  0.5458  0.1220  0.0372
 5254SOL    HW127398   2.789   4.291  11.252  0.2231  0.2381 -0.0706
 5254SOL    HW227399   2.825   4.173  11.327  0.5936  0.0188 -0.4467
 5255SOL     OW27400   0.780   4.566  12.021  0.2149 -0.5613 -0.3779
 5255SOL    HW127401   0.843   4.498  11.998 -0.4211 -0.1669 -3.3169
 5255SOL    HW227402   0.786   4.574  12.116  1.2490 -0.0752 -0.4877
 5256SOL     OW27403   3.289   0.477  17.424  0.4050 -0.3102  0.1088
 5256SOL    HW127404   3.272   0.553  17.369 -1.8670 -1.4082 -0.7073
 5256SOL    HW227405   3.217   0.484  17.487  1.4353 -1.3313  1.4026
 5257SOL     OW27406   0.833   3.558   5.450  0.0357 -0.3949  0.1653
 5257SOL    HW127407   0.918   3.601   5.463  0.7383 -2.1483  1.3260
 5257SOL    HW227408   0.849   3.469   5.480  1.3750  0.4149  1.8947
 5258SOL     OW27409   4.188   3.351  14.418 -0.1485  0.6649  0.5105
 5258SOL    HW127410   4.257   3.347  14.352 -1.0701  1.0286 -0.4930
 5258SOL    HW227411   4.110   3.328  14.367  0.2273  2.8392 -1.0402
 5259SOL     OW27412   0.871   3.891   8.300 -0.0445 -0.3554  0.3140
 5259SOL    HW127413   0.914   3.923   8.379  0.3888  1.9050 -0.8432
 5259SOL    HW227414   0.786   3.870   8.339 -0.5763  1.7373  0.2816
 5260SOL     OW27415   1.945   3.227   5.072  0.8436  0.0223  0.0475
 5260SOL    HW127416   2.006   3.188   5.134  0.3207  1.0214  1.1770
 5260SOL    HW227417   1.871   3.242   5.129 -1.1581  0.3095 -2.6089
 5261SOL     OW27418   3.004   4.117   1.700  0.3191  0.0146  0.4864
 5261SOL    HW127419   3.099   4.105   1.708  0.2523  0.1564  1.4392
 5261SOL    HW227420   2.993   4.123   1.795 -1.1208  0.2930  0.2980
 5262SOL     OW27421   1.152   2.074  17.533 -0.5486 -0.0132 -0.1847
 5262SOL    HW127422   1.196   2.131  17.595  1.5494 -0.0643 -1.6148
 5262SOL    HW227423   1.216   2.014  17.495 -2.5505 -2.6422  0.6017
 5263SOL     OW27424   4.114   0.647   3.250 -0.4128 -0.0506  0.4077
 5263SOL    HW127425   4.141   0.709   3.182 -2.6766  1.2688  0.7275
 5263SOL    HW227426   4.040   0.691   3.292 -0.3564  1.2421 -0.8508
 5264SOL     OW27427   0.315   4.355   3.261 -0.3412  0.3208  0.1123
 5264SOL    HW127428   0.342   4.263   3.249  3.0806  1.3489 -0.2290
 5264SOL    HW227429   0.402   4.394   3.254 -0.8354  1.3618 -0.2353
 5265SOL     OW27430   2.514   1.008  17.066  0.9640 -0.0685 -0.0799
 5265SOL    HW127431   2.491   0.969  16.982  0.9261  1.3609 -0.7377
 5265SOL    HW227432   2.593   1.055  17.038  1.4800 -0.3147  0.9531
 5266SOL     OW27433   3.248   3.810   7.417 -0.2547 -0.2451 -0.3258
 5266SOL    HW127434   3.263   3.796   7.511  0.5422 -0.2171 -0.4518
 5266SOL    HW227435   3.316   3.752   7.382  0.5951  0.8281 -0.4407
 5267SOL     OW27436   4.546   3.464   9.059  0.4635 -0.2905 -0.0045
 5267SOL    HW127437   4.531   3.534   8.996  0.8079  0.4946  0.7898
 5267SOL    HW227438   4.622   3.500   9.104  0.6237  0.6526 -1.0441
 5268SOL     OW27439   3.638   1.170   1.566  0.0914  0.3239 -0.5934
 5268SOL    HW127440   3.702   1.211   1.508  2.0929 -2.4945 -0.3563
 5268SOL    HW227441   3.555   1.192   1.525  0.5437  1.3306 -0.9818
 5269SOL     OW27442   4.405   3.722   9.617 -0.1178  0.3845  0.2381
 5269SOL    HW127443   4.405   3.636   9.576 -2.1234 -0.2187  1.5411
 5269SOL    HW227444   4.449   3.703   9.700  0.7192  1.1568 -0.0166
 5270SOL     OW27445   2.651   0.667   2.323 -0.2813 -0.4089 -0.0901
 5270SOL    HW127446   2.621   0.663   2.414  0.4844 -2.1203  0.0770
 5270SOL    HW227447   2.582   0.627   2.271 -0.7016  0.8210 -0.4811
 5271SOL     OW27448   0.905   3.191   2.469 -0.9126  0.0044  0.0870
 5271SOL    HW127449   0.965   3.222   2.401  0.9220 -2.8271  0.4687
 5271SOL    HW227450   0.957   3.120   2.506  0.7942  0.0351 -2.2680
 5272SOL     OW27451   0.763   3.725   2.098 -0.2679  0.2096 -0.3503
 5272SOL    HW127452   0.688   3.695   2.047 -1.0176  1.0465  0.2430
 5272SOL    HW227453   0.742   3.692   2.186 -2.5921 -0.5108 -1.1628
 5273SOL     OW27454   4.382   1.498  15.157 -0.7362  0.1463  0.2724
 5273SOL    HW127455   4.383   1.421  15.101 -0.3665 -0.5665  1.2586
 5273SOL    HW227456   4.401   1.568  15.095  3.0182  0.5295  1.8718
 5274SOL     OW27457   1.826   0.624  16.922  0.1458  1.0631 -0.2508
 5274SOL    HW127458   1.893   0.646  16.986  0.7217  2.0051 -1.1678
 5274SOL    HW227459   1.797   0.713  16.903  0.3829  0.7896 -1.9179
 5275SOL     OW27460   3.969   2.889  11.188  0.0080  0.0650  0.3610
 5275SOL    HW127461   3.977   2.833  11.111  2.9130  1.4701 -0.3982
 5275SOL    HW227462   3.927   2.827  11.247  0.8899 -1.2180 -0.3449
 5276SOL     OW27463   1.433   1.298  14.344  0.3815 -0.3329 -0.1183
 5276SOL    HW127464   1.344   1.333  14.344  1.7695  3.1387  0.1667
 5276SOL    HW227465   1.418   1.228  14.280  0.2908  1.4883 -2.0914
 5277SOL     OW27466   1.832   3.383   8.709 -0.3470 -0.3512 -0.0288
 5277SOL    HW127467   1.864   3.326   8.779 -3.5002 -2.5996 -0.4349
 5277SOL    HW227468   1.872   3.464   8.742 -1.1826 -0.1791  0.5488
 5278SOL     OW27469   3.105   2.350   5.748  0.3965  0.1517 -0.3426
 5278SOL    HW127470   3.126   2.300   5.827  2.2619  1.5310  0.0250
 5278SOL    HW227471   3.035   2.405   5.782  1.5468 -1.0444  3.9038
 5279SOL     OW27472   2.303   2.263   9.187  0.1479 -0.3432  0.4521
 5279SOL    HW127473   2.395   2.256   9.213  0.6398  0.7932 -1.0361
 5279SOL    HW227474   2.276   2.171   9.178 -1.3682  0.1778 -0.2446
 5280SOL     OW27475   3.197   4.021  14.127 -0.3450  0.3040 -0.1508
 5280SOL    HW127476   3.124   4.070  14.164 -0.4758 -0.6875  0.9038
 5280SOL    HW227477   3.191   3.951  14.193  2.2876 -3.3289 -3.7896
 5281SOL     OW27478   3.919   3.533   3.898  0.2584 -0.3864 -0.3255
 5281SOL    HW127479   3.933   3.449   3.855 -3.0916 -0.3201 -1.5295
 5281SOL    HW227480   4.006   3.573   3.892 -0.0946  0.2266 -1.2465
 5282SOL     OW27481   4.221   2.932  11.662 -0.0790 -0.2288  0.2978
 5282SOL    HW127482   4.240   2.859  11.721 -0.6961 -0.8028 -0.2185
 5282SOL    HW227483   4.287   2.995  11.690 -0.0905 -0.4970  0.9336
 5283SOL     OW27484   0.288   2.241   3.901 -0.5029 -0.0543 -0.7916
 5283SOL    HW127485   0.227   2.296   3.950  0.4502  1.0883 -0.8682
 5283SOL    HW227486   0.268   2.154   3.935 -0.5992  0.7712  1.2816
 5284SOL     OW27487   4.620   2.371   4.253  0.1404 -0.3654  0.5261
 5284SOL    HW127488   4.540   2.354   4.202  0.4781 -0.1469 -0.0819
 5284SOL    HW227489   4.598   2.371   4.346  0.0776  1.1936  0.5051
 5285SOL     OW27490   2.022   2.527   2.015  0.1896  0.8414 -0.4724
 5285SOL    HW127491   1.981   2.489   2.093  0.7289 -0.7174 -0.9466
 5285SOL    HW227492   2.114   2.522   2.039  0.1055  0.8703 -0.1514
 5286SOL     OW27493   2.842   0.285  14.657 -0.1905  0.7177  0.3391
 5286SOL    HW127494   2.766   0.283  14.598  0.5212  0.8161 -0.5901
 5286SOL    HW227495   2.893   0.216  14.614 -0.2316 -0.4978  2.2648
 5287SOL     OW27496   3.071   2.882  13.290 -0.4498  0.1479 -0.2062
 5287SOL    HW127497   3.066   2.907  13.383 -1.3454 -0.5191 -0.0707
 5287SOL    HW227498   3.065   2.963  13.240 -0.9316  0.2086 -0.0521
 5288SOL     OW27499   0.547   2.584  10.358 -0.5609 -0.2373 -0.2610
 5288SOL    HW127500   0.588   2.605  10.442 -1.1766 -0.8752  0.1930
 5288SOL    HW227501   0.611   2.520  10.328  1.3120  2.4636 -2.0640
 5289SOL     OW27502   2.140   1.153  15.333  0.3297  0.0679 -0.6620
 5289SOL    HW127503   2.166   1.151  15.425 -2.2764 -1.1152  0.0751
 5289SOL    HW227504   2.223   1.184  15.296  0.4031  0.7703  0.1064
 5290SOL     OW27505   0.526   0.461   2.352 -0.6000 -0.1301  0.0567
 5290SOL    HW127506   0.593   0.427   2.293  0.8456  0.3610  1.4151
 5290SOL    HW227507   0.464   0.388   2.342 -0.0298 -1.3038  4.7809
 5291SOL     OW27508   1.921   2.721   6.809  0.3241 -0.4107 -0.3603
 5291SOL    HW127509   1.985   2.789   6.830  1.9188 -2.1079  0.3189
 5291SOL    HW227510   1.877   2.720   6.894 -1.7059 -1.8956 -1.4327
 5292SOL     OW27511   0.284   2.648  10.061 -0.4432  0.3840 -0.2065
 5292SOL    HW127512   0.189   2.657  10.051 -0.5940 -1.6166 -0.5097
 5292SOL    HW227513   0.296   2.604  10.145  1.8877 -2.3941 -2.0102
 5293SOL     OW27514   3.892   2.896   1.135 -0.1516  0.1337 -0.0630
 5293SOL    HW127515   3.802   2.874   1.111  0.2327  0.2333 -1.5901
 5293SOL    HW227516   3.897   2.991   1.129 -1.4163  0.2301  0.2719
 5294SOL     OW27517   3.663   1.351  16.505  0.1080 -0.2466  0.4091
 5294SOL    HW127518   3.621   1.389  16.427  0.5195 -0.4675  0.0791
 5294SOL    HW227519   3.683   1.259  16.485  0.8182 -0.0159  0.0561
 5295SOL     OW27520   3.420   1.433   3.681  0.2723 -0.4903 -0.0831
 5295SOL    HW127521   3.369   1.434   3.762 -0.1252 -1.4777 -0.3238
 5295SOL    HW227522   3.378   1.363   3.632  0.3322 -2.0654  2.1389
 5296SOL     OW27523   2.530   4.073  17.382  0.1386  0.0291 -0.0384
 5296SOL    HW127524   2.622   4.063  17.407  0.6314  1.8445 -1.1394
 5296SOL    HW227525   2.498   4.003  17.439  1.8868 -2.3921 -2.0206
 5297SOL     OW27526   1.333   3.470  10.432 -0.1032  0.1298  0.4413
 5297SOL    HW127527   1.294   3.528  10.498 -0.2587 -0.4190  0.8257
 5297SOL    HW227528   1.422   3.459  10.464  0.1404 -1.5125 -0.8130
 5298SOL     OW27529   3.433   0.794   2.942 -0.7212  0.2127  0.0869
 5298SOL    HW127530   3.442   0.746   2.860  2.4637  0.0458  0.5140
 5298SOL    HW227531   3.411   0.726   3.006 -0.0475  0.2248  0.3392
 5299SOL     OW27532   2.630   0.788   2.600  0.2405 -0.0059  0.2101
 5299SOL    HW127533   2.624   0.722   2.668 -0.3729  0.8266  0.9573
 5299SOL    HW227534   2.708   0.834   2.632 -1.1708  0.8980  2.3357
 5300SOL     OW27535   0.900   4.321   2.075 -0.0782 -0.0170  0.4316
 5300SOL    HW127536   0.919   4.230   2.053 -1.9990 -0.1506 -0.6389
 5300SOL    HW227537   0.809   4.313   2.104  0.4070 -1.9154  1.3956
 5301SOL     OW27538   1.259   2.474   6.213  0.2175 -0.4768 -0.1621
 5301SOL    HW127539   1.222   2.414   6.279  1.4775 -0.4255  0.5909
 5301SOL    HW227540   1.219   2.427   6.140 -2.8503  1.7878  0.0532
 5302SOL     OW27541   4.426   4.705   3.099 -0.0348 -0.2233 -0.4769
 5302SOL    HW127542   4.387   4.627   3.139  1.2717 -0.2424  0.7791
 5302SOL    HW227543   4.516   4.681   3.078  0.1834  0.5850 -0.4768
 5303SOL     OW27544   4.481   2.893   4.919 -0.3675  0.4283  0.0310
 5303SOL    HW127545   4.542   2.966   4.923  0.9608 -0.7777  1.5845
 5303SOL    HW227546   4.542   2.822   4.897 -0.0682  0.8177 -0.4141
 5304SOL     OW27547   2.414   1.737  13.586 -0.1463  0.7901 -0.1161
 5304SOL    HW127548   2.417   1.824  13.625 -1.7279  1.2917 -1.1055
 5304SOL    HW227549   2.332   1.747  13.537 -0.7893 -1.3882  0.4945
 5305SOL     OW27550   2.963   3.385   5.185 -0.2392  0.4928  0.1283
 5305SOL    HW127551   2.883   3.437   5.183  1.2634  2.7669 -1.7729
 5305SOL    HW227552   2.933   3.310   5.236 -2.2974  0.7385 -0.6941
 5306SOL     OW27553   2.553   1.698   6.196 -0.1449  0.0847  0.0999
 5306SOL    HW127554   2.495   1.757   6.245  0.1453 -0.5602  1.2269
 5306SOL    HW227555   2.625   1.757   6.172 -1.7539  1.8166 -0.4413
 5307SOL     OW27556   2.840   4.600   7.006 -0.1223 -0.6779  0.2362
 5307SOL    HW127557   2.879   4.585   7.092 -1.1559  3.1643  1.4023
 5307SOL    HW227558   2.898   4.662   6.962  1.0177 -1.0308  1.2433
 5308SOL     OW27559   4.700   0.867  12.779  0.8456  0.2391  0.1532
 5308SOL    HW127560   4.626   0.880  12.720  0.8255  0.2914  0.1898
 5308SOL    HW227561   4.666   0.818  12.854 -0.6266  1.6899  0.4364
 5309SOL     OW27562   3.453   2.809   4.946 -0.0134  0.0205 -0.5670
 5309SOL    HW127563   3.518   2.870   4.979  0.4270 -0.8725  0.2009
 5309SOL    HW227564   3.474   2.809   4.852 -0.3536  1.4892 -0.6507
 5310SOL     OW27565   1.377   3.275  13.109 -0.2992 -0.3159 -0.2798
 5310SOL    HW127566   1.335   3.205  13.160 -0.1418  1.2930  2.0568
 5310SOL    HW227567   1.386   3.227  13.027  1.0961 -1.8954  0.7954
 5311SOL     OW27568   1.238   4.167   3.571  0.1779  0.7703  0.2026
 5311SOL    HW127569   1.238   4.225   3.647 -1.3476  2.7152 -1.2933
 5311SOL    HW227570   1.330   4.142   3.567 -0.3667 -1.3301  0.8741
 5312SOL     OW27571   1.587   0.950   4.555 -0.3502 -0.5957 -0.5741
 5312SOL    HW127572   1.671   0.995   4.567 -0.8013  0.1895 -0.3469
 5312SOL    HW227573   1.618   0.863   4.530 -2.5852 -2.0637  1.7567
 5313SOL     OW27574   3.222   4.482   6.561 -0.5297  0.3314 -0.3744
 5313SOL    HW127575   3.250   4.569   6.589 -1.8124  0.1976  1.3682
 5313SOL    HW227576   3.201   4.438   6.644 -1.4549  0.6482 -0.4373
 5314SOL     OW27577   2.567   1.052  16.369 -0.3488  0.0323 -0.2289
 5314SOL    HW127578   2.558   0.984  16.302 -0.8380  1.9747 -2.1274
 5314SOL    HW227579   2.525   1.120  16.317 -1.3326  0.4649  1.1316
 5315SOL     OW27580   1.561   2.633  11.438 -0.0551  0.6261 -0.2172
 5315SOL    HW127581   1.522   2.684  11.509  0.7318  0.3658  0.4056
 5315SOL    HW227582   1.489   2.626  11.375  0.3001  0.1268 -0.5639
 5316SOL     OW27583   3.974   0.183  11.817  0.8866 -0.0569 -0.2037
 5316SOL    HW127584   4.026   0.182  11.737  0.6601  1.9643 -0.3586
 5316SOL    HW227585   4.032   0.241  11.866  1.7062 -1.3597  0.3776
 5317SOL     OW27586   1.771   1.142   4.521 -0.3260  0.5540 -0.3544
 5317SOL    HW127587   1.698   1.197   4.551 -0.9535 -0.3087 -0.2841
 5317SOL    HW227588   1.843   1.158   4.581  0.4046 -2.5909 -0.3606
 5318SOL     OW27589   3.475   3.257   2.737 -0.3492  0.2326  0.9842
 5318SOL    HW127590   3.530   3.315   2.789  2.0544 -0.6709 -0.5315
 5318SOL    HW227591   3.435   3.199   2.802  0.3085  0.4281  1.5518
 5319SOL     OW27592   2.079   1.718   9.512  0.5864  0.0960  0.0502
 5319SOL    HW127593   2.034   1.702   9.595 -2.8024  0.4109 -1.7186
 5319SOL    HW227594   2.057   1.646   9.453  2.5288 -0.3007 -0.1900
 5320SOL     OW27595   1.362   2.256   5.714 -0.6477  0.3717  1.0025
 5320SOL    HW127596   1.347   2.206   5.634 -1.7173  2.7147 -0.2377
 5320SOL    HW227597   1.269   2.276   5.729 -1.2027 -1.3340 -0.0994
 5321SOL     OW27598   3.973   0.563   3.994 -0.2417  0.4479  0.5927
 5321SOL    HW127599   3.881   0.554   4.019 -0.5502  0.8053 -0.4322
 5321SOL    HW227600   3.992   0.474   3.964 -0.3814  0.8839 -0.7786
 5322SOL     OW27601   4.606   3.736   0.935  0.1073  0.2410 -0.0167
 5322SOL    HW127602   4.623   3.799   1.005  1.7963 -0.8551  0.5552
 5322SOL    HW227603   4.638   3.789   0.862  1.7036 -0.3689  0.2572
 5323SOL     OW27604   3.384   3.058   2.546  0.2136 -0.8512 -0.4198
 5323SOL    HW127605   3.409   3.134   2.599  0.8529  0.1324 -2.1276
 5323SOL    HW227606   3.290   3.071   2.555  0.4231  0.7149 -0.5739
 5324SOL     OW27607   0.663   0.022   3.685 -1.1737  0.1372  0.5799
 5324SOL    HW127608   0.750   0.007   3.722 -1.6837  0.2245  1.8135
 5324SOL    HW227609   0.644   0.113   3.706  0.3725  0.3393  1.1285
 5325SOL     OW27610   2.791   2.714  15.813  0.5763  0.1155  0.2615
 5325SOL    HW127611   2.773   2.808  15.817  2.8446  0.4687  2.4078
 5325SOL    HW227612   2.832   2.717  15.727  1.8346  0.6349  0.8743
 5326SOL     OW27613   0.514   1.990  13.872  0.3078 -0.1033  0.1029
 5326SOL    HW127614   0.609   1.998  13.873  0.1252  2.2212 -2.2753
 5326SOL    HW227615   0.492   1.904  13.907 -0.9655 -0.5021 -1.7114
 5327SOL     OW27616   3.926   1.306   7.295 -0.2924  0.6449  0.3898
 5327SOL    HW127617   3.985   1.308   7.370 -0.8441  2.8855  0.7790
 5327SOL    HW227618   3.942   1.394   7.260 -0.7915 -0.0722 -1.6618
 5328SOL     OW27619   4.513   3.696   3.783  0.1796 -0.1018 -0.3524
 5328SOL    HW127620   4.524   3.616   3.731 -1.0165 -0.1745 -0.4908
 5328SOL    HW227621   4.586   3.699   3.845  0.3627 -2.3945 -0.4648
 5329SOL     OW27622   1.773   0.748   2.786 -0.2126  0.1536 -0.2370
 5329SOL    HW127623   1.787   0.841   2.768 -1.3199  0.2538 -0.6456
 5329SOL    HW227624   1.845   0.714   2.733  1.4741  1.8921  0.9430
 5330SOL     OW27625   2.256   4.606   7.873  0.4748 -0.0024  0.9806
 5330SOL    HW127626   2.325   4.644   7.928  1.1467  1.6651 -1.0004
 5330SOL    HW227627   2.317   4.575   7.806 -2.0921 -1.7344 -0.5679
 5331SOL     OW27628   0.848   4.212  11.694 -0.1368 -0.0063  0.0455
 5331SOL    HW127629   0.898   4.190  11.773 -3.0372  2.4469  2.5825
 5331SOL    HW227630   0.761   4.218  11.733  0.2012  0.6896  0.7061
 5332SOL     OW27631   3.433   4.476   3.186 -0.4410  0.2530  0.3631
 5332SOL    HW127632   3.407   4.492   3.276 -2.2482  3.2019 -0.6631
 5332SOL    HW227633   3.525   4.499   3.171 -0.6651  1.8636  1.4303
 5333SOL     OW27634   1.921   2.498   7.574 -0.2190  0.2708 -0.2044
 5333SOL    HW127635   1.876   2.432   7.521  0.3377 -1.4417  1.4824
 5333SOL    HW227636   2.005   2.454   7.577  0.1704  1.0885  0.7647
 5334SOL     OW27637   3.423   1.061  13.119  0.2331  0.2629 -0.2565
 5334SOL    HW127638   3.395   0.971  13.102  0.2072 -0.1942  2.1236
 5334SOL    HW227639   3.408   1.082  13.211 -1.1952  1.5435 -0.7733
 5335SOL     OW27640   0.250   1.116  14.763 -0.5403 -0.2284  0.3697
 5335SOL    HW127641   0.242   1.026  14.794 -1.9301 -0.9890 -2.1799
 5335SOL    HW227642   0.203   1.168  14.827  0.1946 -0.8492  1.4192
 5336SOL     OW27643   1.090   3.647   2.649  0.1796  0.5178  0.0864
 5336SOL    HW127644   1.052   3.590   2.716  4.3149 -0.8227  1.2715
 5336SOL    HW227645   1.023   3.625   2.583  0.4462 -1.0653  0.3375
 5337SOL     OW27646   2.405   0.565  12.557 -0.1449  0.2925 -0.6901
 5337SOL    HW127647   2.483   0.527  12.516 -0.7199 -0.8070 -0.7555
 5337SOL    HW227648   2.446   0.607  12.633  2.6812  2.2953 -3.3236
 5338SOL     OW27649   1.137   1.667   6.152 -0.5696 -0.1497  0.8058
 5338SOL    HW127650   1.075   1.698   6.085 -0.9997 -2.5108  0.1284
 5338SOL    HW227651   1.078   1.678   6.226  0.1183  1.2593  1.1488
 5339SOL     OW27652   3.683   2.235   8.565  0.4532  0.2963  0.3672
 5339SOL    HW127653   3.770   2.275   8.559  0.6569 -0.0282  1.1899
 5339SOL    HW227654   3.623   2.310   8.564 -0.4401 -0.4369 -2.4477
 5340SOL     OW27655   2.993   4.476   9.116 -0.3607  0.0178 -0.1867
 5340SOL    HW127656   2.934   4.549   9.138 -0.7040 -0.8704  1.8288
 5340SOL    HW227657   2.965   4.441   9.032  0.0630  0.6815 -0.5990
 5341SOL     OW27658   2.848   4.361   8.891  0.0076  0.0629  0.1489
 5341SOL    HW127659   2.768   4.331   8.848  1.1051 -1.7493 -0.6901
 5341SOL    HW227660   2.915   4.359   8.822 -0.6223 -1.6928 -0.4102
 5342SOL     OW27661   1.669   1.642  10.782  0.7258  0.0431  0.4431
 5342SOL    HW127662   1.737   1.687  10.832  0.8677 -1.3710  1.5251
 5342SOL    HW227663   1.632   1.583  10.849  0.2281 -0.3873 -0.2045
 5343SOL     OW27664   2.482   3.718  11.388 -0.2929 -0.0724  0.2016
 5343SOL    HW127665   2.548   3.652  11.368 -2.4727 -2.3114  0.3449
 5343SOL    HW227666   2.504   3.773  11.313 -2.8503  1.3054  0.4553
 5344SOL     OW27667   0.947   1.051   9.249 -0.3866  0.2305 -0.5223
 5344SOL    HW127668   0.905   0.965   9.243 -0.7296  0.3298  0.5705
 5344SOL    HW227669   0.877   1.115   9.237 -0.6532 -0.3334 -2.0520
 5345SOL     OW27670   4.331   3.694   9.100  0.4961  0.3019 -0.0858
 5345SOL    HW127671   4.263   3.670   9.037  0.8896  0.2069 -0.4707
 5345SOL    HW227672   4.335   3.605   9.135 -2.1028  0.5343  0.8062
 5346SOL     OW27673   0.528   3.804  12.875  0.0464  0.3676 -0.4579
 5346SOL    HW127674   0.500   3.851  12.797  0.6871  1.5138  0.0012
 5346SOL    HW227675   0.606   3.761  12.839 -1.6440 -3.0520 -0.0861
 5347SOL     OW27676   4.444   2.150   4.201  0.0946 -0.7318  0.5064
 5347SOL    HW127677   4.513   2.084   4.210  0.5654 -0.3202 -0.0911
 5347SOL    HW227678   4.436   2.181   4.291 -0.4718 -2.0956  0.9141
 5348SOL     OW27679   3.081   1.213  10.362 -0.0777  0.1208  0.0304
 5348SOL    HW127680   2.993   1.177  10.369  0.6066 -1.6244 -0.3396
 5348SOL    HW227681   3.103   1.235  10.452  1.5526  0.2411 -0.4028
 5349SOL     OW27682   2.047   0.200   2.761 -0.2533  0.4223 -0.6139
 5349SOL    HW127683   2.126   0.200   2.815  0.2943 -1.3698 -1.4339
 5349SOL    HW227684   2.070   0.139   2.691 -0.2645  0.5456 -0.7263
 5350SOL     OW27685   1.898   3.765   7.015 -0.0761  0.0501 -0.5592
 5350SOL    HW127686   1.944   3.730   7.092  0.9945  0.1320 -1.1697
 5350SOL    HW227687   1.834   3.697   6.994 -1.7541  1.2726  0.6502
 5351SOL     OW27688   1.613   2.421  10.038 -0.0611  0.5027 -0.8574
 5351SOL    HW127689   1.539   2.475  10.011  0.9822  1.2520 -2.1825
 5351SOL    HW227690   1.608   2.350   9.975 -0.9264 -0.8777  0.7675
 5352SOL     OW27691   0.065   3.660  16.962 -0.1611 -0.9907 -0.6080
 5352SOL    HW127692   4.721   3.647  17.015 -0.2774 -0.0914 -0.5615
 5352SOL    HW227693   0.106   3.576  16.980  2.3987  0.3419 -0.2251
 5353SOL     OW27694   4.188   0.953   2.576 -0.0365 -0.1127  0.6097
 5353SOL    HW127695   4.234   1.008   2.640 -0.6487 -2.1896  2.8052
 5353SOL    HW227696   4.251   0.935   2.506  0.4060  2.5554  0.3013
 5354SOL     OW27697   4.262   0.798  14.576 -0.1000  0.3350  0.6164
 5354SOL    HW127698   4.238   0.756  14.659  4.2052  0.1392  1.7755
 5354SOL    HW227699   4.173   0.817  14.548  0.3109  0.6680 -0.4657
 5355SOL     OW27700   4.150   0.344  15.286  0.1932  0.1197 -0.1687
 5355SOL    HW127701   4.117   0.434  15.279  0.9279  0.4082  0.0971
 5355SOL    HW227702   4.094   0.319  15.359 -2.0734  0.8635 -1.6315
 5356SOL     OW27703   0.040   2.994   7.553 -0.0006 -0.0905  0.5881
 5356SOL    HW127704   0.126   3.015   7.589  0.4319  1.8585 -1.5020
 5356SOL    HW227705   0.048   2.899   7.550 -1.6133 -0.2694  2.1684
 5357SOL     OW27706   0.318   1.490  13.232  0.0406 -0.0037  0.1300
 5357SOL    HW127707   0.266   1.448  13.164 -2.8488 -1.0026  2.9515
 5357SOL    HW227708   0.262   1.560  13.264 -1.0480 -1.3760  1.2386
 5358SOL     OW27709   3.327   2.617  11.736 -0.0790 -0.0314  0.4568
 5358SOL    HW127710   3.373   2.680  11.680  0.6662 -0.4571  0.5893
 5358SOL    HW227711   3.275   2.579  11.666 -1.1375 -0.4825  1.4782
 5359SOL     OW27712   0.502   4.479   5.132 -0.2021  0.0976 -0.4561
 5359SOL    HW127713   0.569   4.542   5.103  0.9810 -0.7865  0.3665
 5359SOL    HW227714   0.509   4.425   5.053 -0.5772  0.3672 -0.6737
 5360SOL     OW27715   4.469   1.472  12.831 -0.0841  0.1180 -0.0472
 5360SOL    HW127716   4.539   1.481  12.766 -2.0467 -3.5597 -2.6948
 5360SOL    HW227717   4.483   1.380  12.856 -1.6564 -0.2329 -0.5062
 5361SOL     OW27718   3.639   2.472   7.994  0.6773 -0.0877  0.0946
 5361SOL    HW127719   3.620   2.548   7.938  1.8648 -0.2418 -0.5143
 5361SOL    HW227720   3.601   2.397   7.948  1.0016 -1.5468  2.2262
 5362SOL     OW27721   1.006   3.883  17.672  0.0347  0.1815  0.1123
 5362SOL    HW127722   1.062   3.947  17.629 -1.9470  2.2903  0.7125
 5362SOL    HW227723   0.989   3.919   0.019 -1.1156  1.3180 -0.5952
 5363SOL     OW27724   4.676   2.717   4.808  0.0434  0.0768  0.0957
 5363SOL    HW127725   4.602   2.667   4.774  0.4501  0.1026 -0.8255
 5363SOL    HW227726   4.704   2.763   4.729  0.7463  1.4700  1.1550
 5364SOL     OW27727   0.744   2.663  17.425 -0.3608 -0.1753 -0.1033
 5364SOL    HW127728   0.761   2.569  17.433  3.3622  0.4849 -0.1810
 5364SOL    HW227729   0.664   2.679  17.473  0.3269 -0.6224  1.1925
 5365SOL     OW27730   2.450   2.531   5.456  0.1097  0.1671 -0.6307
 5365SOL    HW127731   2.426   2.620   5.479  0.4150 -0.0520  0.5150
 5365SOL    HW227732   2.365   2.497   5.428 -1.6749  0.0431  5.0271
 5366SOL     OW27733   3.433   1.087   6.142  0.2267 -0.0902 -0.2448
 5366SOL    HW127734   3.513   1.095   6.194 -0.3256  3.5139  0.0401
 5366SOL    HW227735   3.440   1.005   6.093  1.5280  0.0797 -0.3515
 5367SOL     OW27736   3.108   2.370   7.788 -0.3743 -0.1092  0.0320
 5367SOL    HW127737   3.021   2.399   7.761 -0.9657 -0.8645  1.1190
 5367SOL    HW227738   3.091   2.329   7.873  0.2399 -2.9300 -1.2094
 5368SOL     OW27739   3.539   0.268   2.147 -0.2057  0.1821 -0.4273
 5368SOL    HW127740   3.513   0.258   2.239 -0.1731 -1.7796 -0.6428
 5368SOL    HW227741   3.584   0.185   2.132 -1.9717 -0.9622  0.5899
 5369SOL     OW27742   1.046   2.896   1.627 -0.0446  0.3682  0.3733
 5369SOL    HW127743   1.090   2.976   1.597  0.8825 -0.6950 -1.1441
 5369SOL    HW227744   1.057   2.847   1.545 -0.0928 -0.0854  0.6430
 5370SOL     OW27745   1.955   0.567   4.581 -0.4624  0.2206 -0.5795
 5370SOL    HW127746   1.958   0.589   4.674  1.7378 -0.6623 -0.4286
 5370SOL    HW227747   1.930   0.651   4.545  0.4146  1.2271  1.1674
 5371SOL     OW27748   3.205   0.021   2.008  0.1468  0.4241 -0.5585
 5371SOL    HW127749   3.280   0.002   1.951  2.0572  0.5261  1.9286
 5371SOL    HW227750   3.207   4.681   2.067 -1.9974  0.2537 -0.6805
 5372SOL     OW27751   2.785   3.244   6.501 -0.2735 -0.2737  0.2028
 5372SOL    HW127752   2.762   3.293   6.580 -3.3839  1.0799 -1.5477
 5372SOL    HW227753   2.881   3.246   6.506 -0.3306  1.1023  0.5465
 5373SOL     OW27754   1.199   3.531   9.567 -0.1836 -0.1428  0.2511
 5373SOL    HW127755   1.233   3.498   9.650  0.0186  2.3853  1.1766
 5373SOL    HW227756   1.169   3.453   9.521 -2.1053  1.2884 -0.9477
 5374SOL     OW27757   2.169   3.078  15.494 -0.0471 -0.6260 -0.3608
 5374SOL    HW127758   2.257   3.077  15.456 -0.1123  0.3164 -0.5448
 5374SOL    HW227759   2.148   2.988  15.517  0.2735 -0.6589 -0.1941
 5375SOL     OW27760   4.011   3.998   6.493 -0.3040 -0.2407  0.7786
 5375SOL    HW127761   4.005   4.013   6.399 -0.7389 -0.5817  0.7503
 5375SOL    HW227762   4.104   3.981   6.504  0.2918  1.3099 -1.8975
 5376SOL     OW27763   0.630   1.035   5.349  0.1833  0.0329 -0.1781
 5376SOL    HW127764   0.635   1.129   5.335  0.4026  0.2721  1.4758
 5376SOL    HW227765   0.720   1.023   5.379 -0.4543  0.5637  1.9628
 5377SOL     OW27766   3.970   1.816  14.366 -0.8120  0.2463  0.5659
 5377SOL    HW127767   3.964   1.831  14.272 -0.0830 -0.7717  0.3569
 5377SOL    HW227768   3.944   1.724  14.369  0.6222 -0.2151 -1.4417
 5378SOL     OW27769   4.222   0.474   8.946  0.2403 -0.2633  0.0180
 5378SOL    HW127770   4.254   0.388   8.918  0.0457 -1.2956  2.9869
 5378SOL    HW227771   4.130   0.471   8.921 -0.2584 -1.6555  2.0776
 5379SOL     OW27772   1.285   1.110   4.862  0.3870  0.1654 -0.5766
 5379SOL    HW127773   1.202   1.062   4.854 -1.7230  3.4499  1.6444
 5379SOL    HW227774   1.348   1.039   4.851  0.4553  0.0283  0.6583
 5380SOL     OW27775   4.394   2.698   0.037 -0.3872  0.5569 -0.4403
 5380SOL    HW127776   4.395   2.693  17.681  2.0039 -1.4649 -0.3145
 5380SOL    HW227777   4.361   2.787   0.050 -0.3241  0.6098 -0.6397
 5381SOL     OW27778   2.433   0.143   9.263  0.6369 -0.2478 -0.2605
 5381SOL    HW127779   2.419   0.060   9.217  2.3993 -0.7065  0.0482
 5381SOL    HW227780   2.366   0.203   9.228  1.0105  0.0193 -0.5204
 5382SOL     OW27781   0.336   1.308   9.866  0.3226  0.0217  0.0113
 5382SOL    HW127782   0.394   1.304   9.942 -1.0799  0.4127  1.0962
 5382SOL    HW227783   0.398   1.336   9.799  1.5664 -0.3712  0.9886
 5383SOL     OW27784   3.124   2.660   3.444 -0.3698 -0.2415 -0.2162
 5383SOL    HW127785   3.155   2.588   3.389 -2.9694 -0.8392 -0.9172
 5383SOL    HW227786   3.087   2.619   3.522 -0.4982 -3.4664 -1.9899
 5384SOL     OW27787   2.613   0.026   6.391 -0.5667 -0.2876 -0.7587
 5384SOL    HW127788   2.529   0.068   6.408 -0.1667 -0.3056  1.2968
 5384SOL    HW227789   2.588   4.718   6.309  0.7674 -1.4593 -0.5414
 5385SOL     OW27790   1.342   1.507  16.876 -0.2086  0.3196 -0.0789
 5385SOL    HW127791   1.366   1.420  16.846  1.4298  1.3463 -1.6741
 5385SOL    HW227792   1.353   1.546  16.790 -1.3677  1.9309  0.4878
 5386SOL     OW27793   4.031   2.133  12.287  0.1774 -0.3855  0.0977
 5386SOL    HW127794   4.017   2.082  12.366 -0.4426  1.8127  1.4122
 5386SOL    HW227795   3.941   2.151  12.259  0.6319  1.8546  0.0913
 5387SOL     OW27796   1.262   3.835   5.109  0.2808  0.0063  0.6804
 5387SOL    HW127797   1.253   3.925   5.140  0.4328 -0.3651  1.7894
 5387SOL    HW227798   1.216   3.833   5.025 -0.9371  0.6814  1.3246
 5388SOL     OW27799   2.456   1.859   8.811  0.0331  0.3725  0.0491
 5388SOL    HW127800   2.372   1.857   8.765  0.9312  1.4969 -1.6966
 5388SOL    HW227801   2.454   1.954   8.828  3.1820  0.3959  0.2515
 5389SOL     OW27802   2.494   0.274   9.841  0.1670 -0.2547  0.1225
 5389SOL    HW127803   2.560   0.344   9.837 -0.5788  0.2857 -2.7738
 5389SOL    HW227804   2.420   0.306   9.789  0.9505  1.0500 -0.1807
 5390SOL     OW27805   4.446   2.101   7.341  0.2032  0.0430  0.1241
 5390SOL    HW127806   4.463   2.023   7.394  0.3970  0.2891  0.4235
 5390SOL    HW227807   4.356   2.127   7.363 -0.1365 -0.6636 -0.4302
 5391SOL     OW27808   0.121   3.652   9.949 -0.2097  0.3655  0.1841
 5391SOL    HW127809   0.110   3.693  10.036  1.5457  1.5856 -0.1757
 5391SOL    HW227810   0.188   3.588   9.971  0.2815 -0.0664 -2.5991
 5392SOL     OW27811   1.306   0.420   4.669 -1.1410  0.5722  0.1362
 5392SOL    HW127812   1.324   0.396   4.760 -0.7628  0.0240 -0.0830
 5392SOL    HW227813   1.211   0.409   4.659 -1.0918 -1.2597  1.6163
 5393SOL     OW27814   2.658   1.885   5.904  0.4788 -0.3776  0.2919
 5393SOL    HW127815   2.700   1.861   5.986  1.7298 -0.5098 -0.3972
 5393SOL    HW227816   2.573   1.922   5.928 -0.1261 -1.6362  0.1086
 5394SOL     OW27817   2.859   0.555  16.527  0.0142  0.4161 -0.5667
 5394SOL    HW127818   2.868   0.460  16.534 -0.1545  0.4886  0.5996
 5394SOL    HW227819   2.942   0.590  16.559 -0.3649 -1.3080  2.2175
 5395SOL     OW27820   4.013   3.758   7.428 -0.2990 -0.5393 -0.0743
 5395SOL    HW127821   4.030   3.689   7.363  0.0580  1.2359 -1.8408
 5395SOL    HW227822   4.102   3.766   7.461 -0.7135  1.8609  0.4553
 5396SOL     OW27823   3.223   1.384  11.702  0.6015 -0.1008  0.2108
 5396SOL    HW127824   3.296   1.428  11.658 -0.7667  2.7832  0.7811
 5396SOL    HW227825   3.268   1.349  11.779 -1.6909  0.5847  1.8578
 5397SOL     OW27826   2.302   0.629   3.185  0.3699  0.2426 -0.2737
 5397SOL    HW127827   2.268   0.552   3.230 -0.4468  1.0473  0.4680
 5397SOL    HW227828   2.373   0.598   3.128 -0.6683  1.2293 -2.1161
 5398SOL     OW27829   2.766   1.289   0.207  0.0265  0.4770  0.3989
 5398SOL    HW127830   2.711   1.360   0.239 -1.1626 -0.8430  1.2576
 5398SOL    HW227831   2.834   1.338   0.161  0.3453  0.6848  1.0950
 5399SOL     OW27832   1.202   4.633  12.924 -0.0309 -0.5613  0.1648
 5399SOL    HW127833   1.287   4.593  12.945 -0.1425  0.2837  2.2474
 5399SOL    HW227834   1.154   4.623  13.006 -0.7836 -2.1425 -0.4769
 5400SOL     OW27835   0.397   4.578   4.796 -0.0453 -0.0422  0.5826
 5400SOL    HW127836   0.408   4.673   4.798  0.2902 -0.0396 -0.9027
 5400SOL    HW227837   0.324   4.561   4.856  0.9653 -1.1870  1.4712
 5401SOL     OW27838   1.054   2.343   0.550 -0.8905 -0.3736 -0.8417
 5401SOL    HW127839   0.992   2.273   0.528 -1.0548 -0.1978 -0.9325
 5401SOL    HW227840   1.116   2.290   0.600  0.6471  1.8165 -0.4668
 5402SOL     OW27841   3.988   1.692   3.794  0.2128  0.0941 -0.5380
 5402SOL    HW127842   3.939   1.635   3.734  0.0446  2.3755 -2.5604
 5402SOL    HW227843   3.948   1.776   3.774 -0.3312 -0.0120  0.1059
 5403SOL     OW27844   4.350   2.586   4.252  0.0034 -0.0169  0.1904
 5403SOL    HW127845   4.302   2.559   4.330 -0.6505  0.5298 -0.0172
 5403SOL    HW227846   4.434   2.616   4.286 -0.0030 -1.2875  1.3552
 5404SOL     OW27847   3.711   0.028  17.071 -0.3294 -0.5841  0.3581
 5404SOL    HW127848   3.735   0.118  17.047  0.3268 -1.1474 -1.0537
 5404SOL    HW227849   3.655   0.045  17.147  0.2619  0.4564  0.5735
 5405SOL     OW27850   3.935   2.378  15.255  0.3354 -0.0225 -0.0679
 5405SOL    HW127851   3.936   2.305  15.318 -0.9787 -1.0449 -1.2537
 5405SOL    HW227852   4.024   2.413  15.257 -0.2000  1.2756  0.6450
 5406SOL     OW27853   0.254   0.790   9.081  0.6669 -0.6726 -0.9215
 5406SOL    HW127854   0.245   0.783   8.986  0.1469  1.3229 -1.0215
 5406SOL    HW227855   0.204   0.717   9.116  0.5292 -0.2712 -0.2680
 5407SOL     OW27856   3.446   1.939   2.052 -0.5439 -0.0323  0.6815
 5407SOL    HW127857   3.519   1.946   2.114 -0.1946 -2.6705  0.5536
 5407SOL    HW227858   3.376   1.937   2.117  0.8256 -0.1506  2.1603
 5408SOL     OW27859   0.445   3.082   4.383 -0.6135 -0.1556 -0.0318
 5408SOL    HW127860   0.485   3.169   4.376 -0.4518 -0.3856 -2.1412
 5408SOL    HW227861   0.516   3.028   4.345 -0.1650  1.3158 -1.2952
 5409SOL     OW27862   0.024   2.622   4.165  0.5334 -0.3960  0.0798
 5409SOL    HW127863   0.104   2.586   4.204  0.3199  1.3421  2.1759
 5409SOL    HW227864   4.695   2.554   4.183  0.1509 -0.4294 -1.3995
 5410SOL     OW27865   3.779   0.880   7.349 -0.0357 -0.0050  0.1184
 5410SOL    HW127866   3.796   0.860   7.441  1.9723 -3.2868 -0.9539
 5410SOL    HW227867   3.803   0.972   7.348 -0.0929  0.0269  1.3298
 5411SOL     OW27868   4.332   4.255   9.234 -0.9770 -0.2176  0.1360
 5411SOL    HW127869   4.367   4.216   9.315  1.4243 -0.2531 -0.9151
 5411SOL    HW227870   4.244   4.218   9.244 -0.9178 -0.4446 -0.1932
 5412SOL     OW27871   0.872   3.699   8.973  0.4017  0.3192  0.4003
 5412SOL    HW127872   0.778   3.700   8.958  0.8999  0.7398 -2.7169
 5412SOL    HW227873   0.872   3.621   9.028 -0.7236  0.5238  0.6911
 5413SOL     OW27874   0.318   0.258   4.769 -0.8133 -0.2110 -0.0589
 5413SOL    HW127875   0.402   0.251   4.722 -0.9238  0.8528 -0.4119
 5413SOL    HW227876   0.270   0.306   4.702  0.9361  1.2883 -0.2444
 5414SOL     OW27877   2.601   1.493   0.291 -0.3024 -0.3063 -0.0569
 5414SOL    HW127878   2.527   1.464   0.344 -1.8094  1.8680 -0.9830
 5414SOL    HW227879   2.567   1.576   0.258  0.7061 -1.2598 -3.5388
 5415SOL     OW27880   1.258   4.207   0.895 -0.1979 -0.3771 -0.7472
 5415SOL    HW127881   1.244   4.126   0.944 -0.5660  1.1152  1.6647
 5415SOL    HW227882   1.322   4.248   0.955 -0.4622 -0.5756 -0.3304
 5416SOL     OW27883   4.324   2.008  11.291 -0.2832 -0.4069 -0.0762
 5416SOL    HW127884   4.369   1.990  11.209  0.2726  0.0755  0.1208
 5416SOL    HW227885   4.265   1.933  11.299 -1.4114  0.4021 -0.7961
 5417SOL     OW27886   2.294   4.214  17.338 -0.3058  0.0377 -0.7674
 5417SOL    HW127887   2.368   4.155  17.353 -0.6561 -0.9813 -3.0567
 5417SOL    HW227888   2.320   4.257  17.257  2.0637  2.1039  1.0933
 5418SOL     OW27889   4.043   4.195   9.113 -0.5586 -0.2765 -1.0972
 5418SOL    HW127890   4.069   4.159   9.198 -0.0816  0.7190 -0.8262
 5418SOL    HW227891   3.974   4.250   9.151  0.7355 -0.5874  1.7262
 5419SOL     OW27892   3.439   2.863  10.848  0.1778 -0.4579 -0.1189
 5419SOL    HW127893   3.409   2.873  10.758 -1.3886 -1.0047  0.3531
 5419SOL    HW227894   3.389   2.788  10.879  0.2739 -0.7529 -0.6809
 5420SOL     OW27895   4.049   1.496   4.345  1.1787  0.3183  0.2900
 5420SOL    HW127896   3.991   1.435   4.390 -1.0171  1.0364 -1.5673
 5420SOL    HW227897   4.000   1.502   4.263  0.5513 -0.1856  0.6193
 5421SOL     OW27898   3.508   1.488   3.242 -0.4779 -0.4918 -0.1158
 5421SOL    HW127899   3.468   1.531   3.318  1.2560 -1.1592  1.1724
 5421SOL    HW227900   3.590   1.454   3.277 -1.3406 -2.4965 -0.0302
 5422SOL     OW27901   0.028   4.609   5.856 -0.8143  0.3154  0.6115
 5422SOL    HW127902   4.687   4.666   5.858  0.5014  1.9539  3.7119
 5422SOL    HW227903   0.034   4.588   5.762  0.9841  1.2197  0.5291
 5423SOL     OW27904   2.725   0.652  13.456 -0.1808  0.4987  0.0029
 5423SOL    HW127905   2.648   0.691  13.499  0.0573 -0.7663  1.5366
 5423SOL    HW227906   2.700   0.679  13.367  2.9275 -2.1373 -1.6594
 5424SOL     OW27907   2.639   1.388   5.677  0.3776  0.0814  0.3829
 5424SOL    HW127908   2.656   1.313   5.621  1.3595 -0.0426  0.8401
 5424SOL    HW227909   2.707   1.445   5.639  2.0160 -0.5079  2.4226
 5425SOL     OW27910   0.915   0.067  12.734  0.3578 -0.3351 -0.3261
 5425SOL    HW127911   0.949   0.033  12.651  1.7699 -0.6350  0.3941
 5425SOL    HW227912   0.922   4.725  12.790  1.0550  0.9427  1.3232
 5426SOL     OW27913   0.940   0.125  17.173 -1.3568  0.6749 -0.0563
 5426SOL    HW127914   0.935   0.151  17.081  2.0473 -2.5643 -1.1607
 5426SOL    HW227915   0.865   0.066  17.174 -0.5380 -0.3772 -1.5471
 5427SOL     OW27916   3.641   3.392  15.378 -0.5297 -0.7736  0.3244
 5427SOL    HW127917   3.624   3.484  15.399 -0.0289 -0.3189 -1.3026
 5427SOL    HW227918   3.581   3.347  15.439 -0.6939 -1.4008 -0.2934
 5428SOL     OW27919   3.562   4.577   5.383  1.0174 -0.2559 -0.2323
 5428SOL    HW127920   3.527   4.589   5.471  1.5113 -1.8410  0.1840
 5428SOL    HW227921   3.572   4.482   5.381  0.5918 -0.3271  1.3459
 5429SOL     OW27922   1.392   3.100   9.901  0.3961  0.5703  0.1454
 5429SOL    HW127923   1.300   3.113   9.876  0.4848 -0.3681 -0.6710
 5429SOL    HW227924   1.381   3.038   9.973  0.3699  0.7582  0.3022
 5430SOL     OW27925   4.407   2.883   0.726  0.3143 -0.7330 -0.0196
 5430SOL    HW127926   4.348   2.830   0.673  0.1252 -0.3441 -0.1939
 5430SOL    HW227927   4.492   2.875   0.682 -0.5844  1.2761 -2.0949
 5431SOL     OW27928   3.505   4.692   6.100  0.6468 -0.5214 -0.5971
 5431SOL    HW127929   3.530   4.609   6.141  0.3153 -0.4287 -0.2025
 5431SOL    HW227930   3.592   4.725   6.076  1.2964 -1.1987  0.7995
 5432SOL     OW27931   4.106   1.251   8.930  0.1789  0.6331 -0.5188
 5432SOL    HW127932   4.123   1.239   9.023  0.9552 -1.2428 -0.9094
 5432SOL    HW227933   4.064   1.337   8.923 -2.9788 -0.7275  1.7543
 5433SOL     OW27934   1.051   1.821  16.702  0.9613  0.1859  0.3989
 5433SOL    HW127935   1.083   1.843  16.615 -1.9578  3.1867  0.0956
 5433SOL    HW227936   0.994   1.896  16.717 -0.3419 -1.1117  2.0458
 5434SOL     OW27937   3.604   0.969   5.148  0.0840 -0.5125  1.1957
 5434SOL    HW127938   3.558   1.051   5.168  2.5396  1.1836 -0.1190
 5434SOL    HW227939   3.690   0.997   5.180  1.1120 -2.0171 -0.2855
 5435SOL     OW27940   2.281   3.450   0.538  0.2567 -0.3681 -0.5485
 5435SOL    HW127941   2.366   3.477   0.503 -0.8440  3.3184 -0.3207
 5435SOL    HW227942   2.238   3.435   0.454 -2.2252 -2.0414  1.0089
 5436SOL     OW27943   0.968   4.570   7.150  0.1253  0.0753  0.3528
 5436SOL    HW127944   0.925   4.646   7.189 -1.4336  0.1070 -1.3790
 5436SOL    HW227945   0.903   4.502   7.164 -1.9086  2.5228  2.8269
 5437SOL     OW27946   2.166   0.868   3.158 -0.7038  0.0888 -0.8437
 5437SOL    HW127947   2.191   0.777   3.176 -1.7607  0.0759  0.4610
 5437SOL    HW227948   2.075   0.859   3.129 -0.8408  0.1626 -0.4293
 5438SOL     OW27949   3.284   4.558   3.406  0.7690 -0.0662 -0.0288
 5438SOL    HW127950   3.192   4.533   3.395  0.3119  0.3008  3.1155
 5438SOL    HW227951   3.283   4.647   3.440 -0.2647  0.4293 -1.3449
 5439SOL     OW27952   2.862   0.315   4.981 -0.3084  0.5817 -0.4104
 5439SOL    HW127953   2.807   0.275   5.049  1.9115 -2.5670 -0.4867
 5439SOL    HW227954   2.853   0.408   5.003 -1.9968  0.4234 -0.4072
 5440SOL     OW27955   2.054   4.572   6.218 -0.0655 -0.1235 -0.3056
 5440SOL    HW127956   1.987   4.517   6.259 -0.3861 -0.5007 -1.3384
 5440SOL    HW227957   2.002   4.644   6.183  0.1825 -1.0165 -2.5394
 5441SOL     OW27958   0.904   3.517   5.139  0.3646  0.2582 -0.0258
 5441SOL    HW127959   0.886   3.423   5.132  3.1372 -0.3321  1.0054
 5441SOL    HW227960   0.851   3.538   5.216 -0.3153  1.7780 -0.8977
 5442SOL     OW27961   1.123   0.324   3.730 -0.2933 -0.2244 -0.1212
 5442SOL    HW127962   1.098   0.246   3.680  1.4033 -1.9363  1.6779
 5442SOL    HW227963   1.041   0.372   3.741 -1.9449 -3.2762  0.7954
 5443SOL     OW27964   4.217   3.910   9.534  0.5000 -0.2159  0.6467
 5443SOL    HW127965   4.228   3.900   9.440 -0.7570  4.4738 -0.0248
 5443SOL    HW227966   4.269   3.835   9.563 -0.8006 -1.8282 -1.2187
 5444SOL     OW27967   3.433   2.299   6.583  0.0269  0.0782 -0.2010
 5444SOL    HW127968   3.359   2.359   6.581  0.0385  0.0496 -1.7941
 5444SOL    HW227969   3.447   2.276   6.491  1.1817 -1.0957  0.2537
 5445SOL     OW27970   1.819   4.681   7.300 -0.4938 -0.8161 -0.2096
 5445SOL    HW127971   1.754   4.662   7.367 -0.4216  0.1845  0.1389
 5445SOL    HW227972   1.882   4.610   7.311 -1.5742 -1.9758 -1.5184
 5446SOL     OW27973   4.693   0.300   8.819 -0.0003 -0.0160 -0.2342
 5446SOL    HW127974   0.018   0.226   8.810  1.1592  0.7704  1.0339
 5446SOL    HW227975   4.606   0.259   8.818  0.7566 -1.6356 -0.2918
 5447SOL     OW27976   0.381   0.078   5.484  0.0669  0.6166 -0.0964
 5447SOL    HW127977   0.376   4.727   5.442  1.6433  0.6062 -0.2620
 5447SOL    HW227978   0.421   0.120   5.407  2.8338  0.7114  1.3975
 5448SOL     OW27979   1.792   3.655   7.291  0.1753 -0.1906  0.2153
 5448SOL    HW127980   1.863   3.594   7.272 -1.0048 -1.4981 -0.0327
 5448SOL    HW227981   1.718   3.596   7.273  0.4582 -0.6819  0.7066
 5449SOL     OW27982   1.370   3.847   5.821  0.6219 -0.2388  0.0345
 5449SOL    HW127983   1.439   3.911   5.804  0.2694 -0.1798 -1.2090
 5449SOL    HW227984   1.410   3.819   5.903 -0.2717  0.6180  0.7735
 5450SOL     OW27985   3.169   1.980   6.653  0.4233  0.3046  0.3072
 5450SOL    HW127986   3.156   1.890   6.623  1.6522  1.2315 -2.9732
 5450SOL    HW227987   3.100   2.013   6.596  2.6369  2.1484 -1.2830
 5451SOL     OW27988   2.148   1.448   8.563 -0.1042  0.2232  0.1748
 5451SOL    HW127989   2.115   1.410   8.481 -0.4190 -0.5326  0.6510
 5451SOL    HW227990   2.093   1.414   8.634  0.5655  0.7621  0.9493
 5452SOL     OW27991   1.432   1.400   8.508  0.5059  0.5619 -0.1319
 5452SOL    HW127992   1.464   1.418   8.420  0.3496 -1.0851 -0.5380
 5452SOL    HW227993   1.381   1.478   8.528 -2.4676 -1.1636 -0.9426
 5453SOL     OW27994   1.288   3.389   6.522  0.0170  0.0900 -0.0610
 5453SOL    HW127995   1.305   3.321   6.587  1.1653  2.1131  1.7444
 5453SOL    HW227996   1.316   3.350   6.439 -0.8241  0.3521 -0.4687
 5454SOL     OW27997   2.490   2.246   6.081 -0.0503 -0.2614  0.1152
 5454SOL    HW127998   2.501   2.334   6.045  0.9002 -0.2751  0.3640
 5454SOL    HW227999   2.411   2.265   6.131 -0.1739  3.8353 -1.6275
 5455SOL     OW28000   2.797   3.169   1.380 -0.8350  0.3766  0.1127
 5455SOL    HW128001   2.744   3.246   1.401  0.4175  1.7091 -1.6930
 5455SOL    HW228002   2.862   3.185   1.449 -1.0547 -0.9604  0.6250
 5456SOL     OW28003   3.087   0.192   6.615 -0.1167 -0.2937  0.0378
 5456SOL    HW128004   3.108   0.282   6.589  1.0369 -0.6605 -0.2819
 5456SOL    HW228005   3.016   0.172   6.554  1.4597 -1.3190 -1.4557
 5457SOL     OW28006   0.778   0.313   7.515  0.1586 -0.2679 -0.4978
 5457SOL    HW128007   0.816   0.330   7.429 -0.7908  3.7495 -0.0958
 5457SOL    HW228008   0.793   0.220   7.534 -3.7168 -0.8634 -0.2632
 5458SOL     OW28009   3.264   4.589   2.229 -0.3913 -0.6129 -0.3335
 5458SOL    HW128010   3.267   4.673   2.275  1.0624 -0.8131 -0.0787
 5458SOL    HW228011   3.357   4.581   2.212 -0.2569  0.6802 -0.2203
 5459SOL     OW28012   2.008   0.705   3.894 -0.0163 -0.0866 -0.1530
 5459SOL    HW128013   2.045   0.623   3.862 -1.2152 -0.4256 -0.6882
 5459SOL    HW228014   2.085   0.761   3.891  0.9786 -1.5051 -1.5980
 5460SOL     OW28015   3.525   3.701  15.956  0.1940 -0.9664  0.2865
 5460SOL    HW128016   3.541   3.792  15.981 -0.8468 -1.2128  1.8507
 5460SOL    HW228017   3.605   3.648  15.967  1.5546  1.3945  1.6235
 5461SOL     OW28018   0.597   0.626   1.634  0.1790 -0.0275 -0.9737
 5461SOL    HW128019   0.676   0.606   1.584  0.9473 -0.3802  0.3722
 5461SOL    HW228020   0.530   0.639   1.567  0.2256  0.0998 -0.9959
 5462SOL     OW28021   0.474   3.359  16.026  0.7170  0.4007  0.4665
 5462SOL    HW128022   0.547   3.405  16.066  1.6933  0.8706 -1.8408
 5462SOL    HW228023   0.401   3.421  16.026 -0.1488 -0.6111 -0.0350
 5463SOL     OW28024   0.408   0.343  15.012  0.2583  0.1239  0.4496
 5463SOL    HW128025   0.476   0.409  14.996  1.2725 -0.6765  1.4891
 5463SOL    HW228026   0.428   0.280  14.943  1.4889 -0.3599  1.2384
 5464SOL     OW28027   1.525   2.114   8.828 -0.1543  0.2557  0.7536
 5464SOL    HW128028   1.606   2.077   8.863 -0.6530 -1.3856  0.1642
 5464SOL    HW228029   1.538   2.208   8.837 -0.0890  0.2983  0.2191
 5465SOL     OW28030   4.693   4.462   8.543 -0.2830  0.2475 -0.3724
 5465SOL    HW128031   0.013   4.384   8.537 -2.9326 -1.7618  1.9249
 5465SOL    HW228032   4.728   4.505   8.621 -2.4838  0.3668  0.5291
 5466SOL     OW28033   0.335   3.825   7.055 -0.4906 -0.2434  0.5442
 5466SOL    HW128034   0.303   3.900   7.006 -0.4755  0.2863  1.3443
 5466SOL    HW228035   0.315   3.746   7.004 -1.6346 -0.6903  1.6534
 5467SOL     OW28036   3.876   3.319  15.060  0.0643 -0.0913 -0.3184
 5467SOL    HW128037   3.889   3.373  15.138 -1.7685  0.2961 -0.2795
 5467SOL    HW228038   3.936   3.245  15.074  1.5098  1.3919  1.3248
 5468SOL     OW28039   4.339   4.042   9.966 -0.3003  0.3812 -0.2138
 5468SOL    HW128040   4.376   4.042  10.054 -1.9808  0.5852  0.4987
 5468SOL    HW228041   4.320   3.948   9.958 -0.4866  0.2498  1.6914
 5469SOL     OW28042   2.925   4.567   7.794  0.1202 -0.3361  0.0121
 5469SOL    HW128043   2.916   4.608   7.708 -1.5895 -0.9211 -0.0790
 5469SOL    HW228044   2.846   4.598   7.838  0.6197 -1.7606  1.9245
 5470SOL     OW28045   1.337   3.166   9.615 -0.2735 -0.0680 -0.2730
 5470SOL    HW128046   1.244   3.185   9.612  0.0999  1.6532 -1.1192
 5470SOL    HW228047   1.356   3.213   9.697 -0.2467 -1.4039  0.4834
 5471SOL     OW28048   4.460   1.986   4.946  0.5986  0.4474 -0.1127
 5471SOL    HW128049   4.477   2.043   5.021  1.8461  1.2092 -0.9591
 5471SOL    HW228050   4.473   1.895   4.971 -0.6474  0.0873 -0.7690
 5472SOL     OW28051   3.560   2.155  12.884  0.0064  0.4320 -0.0479
 5472SOL    HW128052   3.503   2.211  12.937  1.0971  0.0891  1.4643
 5472SOL    HW228053   3.511   2.078  12.854  0.9936  0.3688 -1.4621
 5473SOL     OW28054   3.164   3.349   2.141 -0.1728  0.2567 -0.5332
 5473SOL    HW128055   3.143   3.258   2.119 -0.0811  0.5219 -1.7145
 5473SOL    HW228056   3.116   3.392   2.071 -2.4634  1.1591  1.5862
 5474SOL     OW28057   1.379   0.696   4.628  0.7201  0.9595 -0.9434
 5474SOL    HW128058   1.370   0.601   4.624  0.2016  0.9946 -0.6442
 5474SOL    HW228059   1.473   0.702   4.607  0.8730 -3.2168 -1.3655
 5475SOL     OW28060   4.148   2.593  14.914  0.4257 -0.2423  0.3666
 5475SOL    HW128061   4.173   2.505  14.941 -2.8433 -0.6118  2.0549
 5475SOL    HW228062   4.158   2.586  14.819  1.4998 -2.0861  0.6145
 5476SOL     OW28063   0.678   2.837   7.629 -0.8517 -0.5158 -0.1785
 5476SOL    HW128064   0.696   2.931   7.626  1.9122 -1.1189 -2.7748
 5476SOL    HW228065   0.668   2.815   7.722 -1.9785 -0.8902 -0.3892
 5477SOL     OW28066   1.055   2.528   9.479  0.1061 -0.1349 -0.2992
 5477SOL    HW128067   1.096   2.613   9.493  1.0095  0.3638 -5.7484
 5477SOL    HW228068   1.034   2.526   9.385  1.3309  0.0036 -0.5801
 5478SOL     OW28069   3.433   2.420  17.058 -0.4208 -0.0545  0.1671
 5478SOL    HW128070   3.371   2.367  17.009 -2.9584  1.5493  1.6961
 5478SOL    HW228071   3.476   2.490  17.008 -0.2621 -0.6743 -0.5681
 5479SOL     OW28072   3.982   0.945  14.884  0.0301  0.5717 -0.4794
 5479SOL    HW128073   4.046   0.890  14.839  1.0703  1.9731 -0.7318
 5479SOL    HW228074   4.020   1.032  14.871 -1.2135  1.0224 -1.1137
 5480SOL     OW28075   0.758   2.657   0.392  0.2120  0.9818  0.1039
 5480SOL    HW128076   0.726   2.670   0.302 -1.4118 -2.1208  0.2577
 5480SOL    HW228077   0.698   2.716   0.439 -1.3321 -1.5462  1.2872
 5481SOL     OW28078   4.450   3.311   7.249 -0.4542 -0.8397 -0.4711
 5481SOL    HW128079   4.538   3.341   7.270 -0.4566 -2.6627  2.1247
 5481SOL    HW228080   4.428   3.279   7.337 -1.2417 -1.0908 -0.7593
 5482SOL     OW28081   1.838   2.358  17.534 -0.3600 -0.1929 -0.5348
 5482SOL    HW128082   1.834   2.430  17.596 -0.7338  0.3342 -1.1725
 5482SOL    HW228083   1.907   2.385  17.474 -0.4512  1.3376  0.0723
 5483SOL     OW28084   3.386   4.466  15.512 -0.0855 -0.3886  0.3672
 5483SOL    HW128085   3.307   4.481  15.459  0.8127  0.8052 -0.6105
 5483SOL    HW228086   3.450   4.438  15.447  0.3241  1.7715 -0.1555
 5484SOL     OW28087   2.192   4.520  10.169 -0.3585 -0.0885 -0.0723
 5484SOL    HW128088   2.203   4.541  10.262  0.8442  1.5584 -0.5879
 5484SOL    HW228089   2.191   4.607  10.130  0.5821  0.6283  1.5296
 5485SOL     OW28090   2.129   0.222   5.737  0.0410  0.9081  0.7063
 5485SOL    HW128091   2.225   0.220   5.736 -0.0191 -2.1325  0.5200
 5485SOL    HW228092   2.110   0.253   5.648  1.6752 -0.1527 -0.0195
 5486SOL     OW28093   3.878   2.130   4.166 -0.6439 -1.3831 -0.4335
 5486SOL    HW128094   3.929   2.057   4.199  2.3539  1.2364  0.7267
 5486SOL    HW228095   3.798   2.116   4.216 -0.1105  0.7063  1.0209
 5487SOL     OW28096   1.142   0.037   9.477  0.8283  0.1152  0.0376
 5487SOL    HW128097   1.058   0.079   9.461  1.8056  1.3601 -1.7790
 5487SOL    HW228098   1.193   0.078   9.408  3.4715  0.7472  2.3644
 5488SOL     OW28099   4.477   0.105   5.266 -0.0940 -0.3166 -0.1737
 5488SOL    HW128100   4.554   0.130   5.213 -0.1720 -0.8109 -0.5244
 5488SOL    HW228101   4.450   0.020   5.231  0.3467 -0.8730  0.8345
 5489SOL     OW28102   0.384   3.278  14.029  0.2049 -0.6420 -0.3153
 5489SOL    HW128103   0.410   3.368  14.051  0.1603 -0.3524 -1.4821
 5489SOL    HW228104   0.409   3.273  13.937 -2.7411 -2.2010 -1.0142
 5490SOL     OW28105   4.720   3.458   8.427 -0.8442 -0.1455 -0.0613
 5490SOL    HW128106   4.714   3.532   8.488 -1.7346 -1.4170  1.4006
 5490SOL    HW228107   0.051   3.413   8.480 -0.1055  0.8049 -0.1767
 5491SOL     OW28108   2.272   2.352   3.792 -0.3817 -0.2549  0.4815
 5491SOL    HW128109   2.217   2.288   3.839  0.0465 -0.6638  0.4243
 5491SOL    HW228110   2.325   2.388   3.862  0.6269 -0.7614 -0.0265
 5492SOL     OW28111   2.792   2.419   7.495  0.6575 -0.0196  0.3601
 5492SOL    HW128112   2.720   2.379   7.446 -1.3864  2.1342  1.6128
 5492SOL    HW228113   2.839   2.471   7.430  0.9597  0.3285  0.8620
 5493SOL     OW28114   0.190   1.755   3.961 -0.4215  0.0203 -0.1329
 5493SOL    HW128115   0.276   1.719   3.941 -0.5334  0.1490 -0.8317
 5493SOL    HW228116   0.135   1.686   3.923 -0.5491  0.7583 -1.2608
 5494SOL     OW28117   3.199   3.095   4.750  0.2591  0.5072 -0.3188
 5494SOL    HW128118   3.293   3.079   4.761  0.3308  0.6155 -0.7640
 5494SOL    HW228119   3.145   3.027   4.790  1.2051  0.2047  0.4503
 5495SOL     OW28120   4.169   0.293  12.022  0.0364  0.0930 -0.2358
 5495SOL    HW128121   4.262   0.308  12.005  0.1289  0.0482  0.2289
 5495SOL    HW228122   4.179   0.235  12.098 -0.1608  0.1956 -0.1316
 5496SOL     OW28123   1.017   1.848  13.291  0.1088  0.6413 -0.5547
 5496SOL    HW128124   1.106   1.856  13.326 -0.4510  0.7752  0.8257
 5496SOL    HW228125   0.967   1.893  13.359 -1.4486  1.7178 -2.4075
 5497SOL     OW28126   2.565   3.650   0.665 -0.1015  0.1059  0.0301
 5497SOL    HW128127   2.560   3.730   0.717 -1.9447 -1.2465  1.9522
 5497SOL    HW228128   2.543   3.688   0.580 -1.4098 -2.4718 -0.7951
 5498SOL     OW28129   1.218   1.866   7.937 -0.0175 -0.3502 -0.2790
 5498SOL    HW128130   1.157   1.794   7.949 -0.0203 -0.6436 -2.0333
 5498SOL    HW228131   1.217   1.882   7.842  0.0990  2.1124  0.1480
 5499SOL     OW28132   2.166   0.797   4.651  0.5033  0.2796  0.0627
 5499SOL    HW128133   2.095   0.804   4.714  0.7018  0.6950  0.2424
 5499SOL    HW228134   2.150   0.881   4.608 -0.0884  0.6341  0.9660
 5500SOL     OW28135   2.171   0.249   9.945 -0.4125  0.2241  0.7773
 5500SOL    HW128136   2.186   0.197  10.024  2.1374 -0.0658  0.1282
 5500SOL    HW228137   2.100   0.201   9.903  0.7609 -0.6292 -0.2397
 5501SOL     OW28138   1.350   3.188   6.283 -0.0373  0.2586  0.1212
 5501SOL    HW128139   1.408   3.200   6.358 -0.4377  0.6119  0.3657
 5501SOL    HW228140   1.315   3.103   6.310 -0.9770  0.2904 -0.9876
 5502SOL     OW28141   3.167   2.620   3.911 -0.2030  0.1480  0.0491
 5502SOL    HW128142   3.125   2.654   3.990 -0.7072 -0.8715  0.2115
 5502SOL    HW228143   3.169   2.526   3.924 -2.3913 -0.0146 -0.6313
 5503SOL     OW28144   1.145   3.935   6.825  0.3397  0.0650 -0.4407
 5503SOL    HW128145   1.172   3.891   6.905  1.9896  1.8185 -0.0274
 5503SOL    HW228146   1.213   4.001   6.814  0.5842  0.2797  2.5508
 5504SOL     OW28147   0.341   0.374   0.365  0.4331 -0.6855  0.0187
 5504SOL    HW128148   0.295   0.458   0.367 -0.4331 -1.1924  1.4867
 5504SOL    HW228149   0.329   0.347   0.274  0.3067  1.7507 -0.7069
 5505SOL     OW28150   4.310   3.854   4.362 -0.0236 -0.3152  0.3964
 5505SOL    HW128151   4.233   3.910   4.353 -1.0290 -1.5490  1.2629
 5505SOL    HW228152   4.326   3.837   4.269  0.6446  0.8430  0.3034
 5506SOL     OW28153   3.033   4.470   4.001  0.3725 -0.0269  0.4987
 5506SOL    HW128154   2.962   4.406   4.005  0.2082  0.1630  0.6100
 5506SOL    HW228155   3.107   4.424   4.041 -0.6742 -0.1817  2.2480
 5507SOL     OW28156   3.475   2.191  11.953  0.2948  0.5097 -0.3381
 5507SOL    HW128157   3.485   2.284  11.971  1.8281  0.3831 -0.5127
 5507SOL    HW228158   3.477   2.156  12.043  2.3051 -2.2929 -1.4573
 5508SOL     OW28159   0.970   2.207   3.844  0.2936  0.4288  0.4673
 5508SOL    HW128160   0.884   2.228   3.882 -0.4806 -1.0231 -0.4609
 5508SOL    HW228161   0.934   2.152   3.774  1.2566  1.1618 -0.5920
 5509SOL     OW28162   3.548   2.877  12.353  0.1357 -0.6934  0.0660
 5509SOL    HW128163   3.603   2.802  12.375 -0.4962 -1.7995 -2.1151
 5509SOL    HW228164   3.492   2.836  12.287 -1.6722  1.2644  0.4055
 5510SOL     OW28165   4.703   3.653   3.480 -0.5962 -0.5941 -0.4010
 5510SOL    HW128166   4.645   3.590   3.438 -0.7200 -0.0070 -1.1078
 5510SOL    HW228167   4.683   3.626   3.569  2.7588  0.6286  0.7100
 5511SOL     OW28168   3.123   1.975   5.067 -0.0770  0.2958  0.5305
 5511SOL    HW128169   3.119   2.068   5.092 -2.0691  0.7692 -1.5904
 5511SOL    HW228170   3.100   1.987   4.975 -2.2680 -1.2020  0.8935
 5512SOL     OW28171   0.060   2.324  10.830 -0.7039  0.5634  0.5738
 5512SOL    HW128172   0.127   2.280  10.882  0.6237  0.9113 -0.8528
 5512SOL    HW228173   0.054   2.263  10.756 -0.7133 -0.2397  1.2278
 5513SOL     OW28174   3.327   3.058   8.702 -0.2164 -0.1324 -0.2291
 5513SOL    HW128175   3.369   3.143   8.708 -1.1998  0.4191 -1.1832
 5513SOL    HW228176   3.244   3.073   8.747  0.0375 -3.1996  1.2520
 5514SOL     OW28177   4.507   0.575   7.827 -0.1261  0.1316 -0.2727
 5514SOL    HW128178   4.513   0.634   7.903  1.7288  0.2849 -0.5480
 5514SOL    HW228179   4.429   0.526   7.854  1.4622 -1.8646  0.6571
 5515SOL     OW28180   3.343   4.474  13.253 -1.0707 -0.0088  0.2986
 5515SOL    HW128181   3.292   4.555  13.245  0.1482  1.0917  3.5529
 5515SOL    HW228182   3.271   4.412  13.258 -0.7661 -0.3514  0.4749
 5516SOL     OW28183   3.056   0.022   5.852  0.7811 -0.0775 -0.2286
 5516SOL    HW128184   3.013   0.107   5.848 -1.7728 -1.4236 -1.1559
 5516SOL    HW228185   3.143   0.042   5.886  0.6457  1.0349 -0.5366
 5517SOL     OW28186   1.683   4.447   4.571  0.5299  0.3991 -0.7727
 5517SOL    HW128187   1.591   4.471   4.581  0.7436  1.1226 -0.5825
 5517SOL    HW228188   1.724   4.490   4.646 -0.2428  0.4256 -0.3627
 5518SOL     OW28189   2.497   2.071   5.338 -0.6741  0.5201  0.4253
 5518SOL    HW128190   2.529   2.160   5.353 -0.5323  0.5494 -0.0627
 5518SOL    HW228191   2.454   2.076   5.253 -0.0924  3.4344  0.3059
 5519SOL     OW28192   0.360   3.883   2.229  0.2151  0.0881 -0.5756
 5519SOL    HW128193   0.412   3.808   2.202  0.3880  0.5274 -1.4645
 5519SOL    HW228194   0.278   3.867   2.183 -1.7394  0.3675  2.8198
 5520SOL     OW28195   3.255   4.692  11.014  0.4329  0.0763  0.3214
 5520SOL    HW128196   3.298   4.729  10.936 -0.2832 -1.8421 -0.9911
 5520SOL    HW228197   3.215   0.040  11.037  0.3561  0.3128 -0.6615
 5521SOL     OW28198   2.665   0.844   2.927  0.1034 -0.2148  0.6763
 5521SOL    HW128199   2.698   0.892   3.003  0.5339  1.9658 -0.8817
 5521SOL    HW228200   2.572   0.864   2.940  0.6414  2.3398  0.5592
 5522SOL     OW28201   0.779   3.654   3.598 -0.4681 -0.1316 -1.0638
 5522SOL    HW128202   0.771   3.650   3.693 -2.1282  0.8189 -1.1540
 5522SOL    HW228203   0.870   3.682   3.594 -0.8147  1.3012  1.9734
 5523SOL     OW28204   3.761   1.524  16.715  0.2086 -0.5499  0.1843
 5523SOL    HW128205   3.709   1.488  16.644 -0.7561  1.3185 -0.0709
 5523SOL    HW228206   3.852   1.507  16.693  0.0732  0.0687 -0.8580
 5524SOL     OW28207   1.384   0.169   5.434  0.0313 -0.8700 -0.2619
 5524SOL    HW128208   1.376   0.092   5.491  2.9259 -1.3465 -0.4892
 5524SOL    HW228209   1.378   0.244   5.493 -1.8431 -0.8659 -0.4385
 5525SOL     OW28210   4.457   1.592   2.931 -0.1726 -0.4514  0.0868
 5525SOL    HW128211   4.515   1.561   2.861  0.6422 -0.7349  0.8935
 5525SOL    HW228212   4.522   1.642   2.980 -0.8796 -2.7939  3.4383
 5526SOL     OW28213   2.056   2.319   9.342 -0.0467  0.0684  0.2796
 5526SOL    HW128214   2.047   2.337   9.435  0.5984 -1.5633  0.6583
 5526SOL    HW228215   1.990   2.378   9.307 -3.2010 -2.0152  2.6504
 5527SOL     OW28216   1.837   3.171  15.458  0.2172  0.0839 -0.5492
 5527SOL    HW128217   1.864   3.170  15.366  1.5803  0.4375 -0.1525
 5527SOL    HW228218   1.765   3.109  15.465 -0.7663  1.3994  1.0114
 5528SOL     OW28219   3.508   4.186   3.324  0.1290  1.0140 -0.3984
 5528SOL    HW128220   3.459   4.114   3.364  0.1813  1.4783  0.4980
 5528SOL    HW228221   3.536   4.244   3.395  0.8448  1.0240 -0.6897
 5529SOL     OW28222   1.484   1.526   5.483  0.2372  0.2018 -0.2923
 5529SOL    HW128223   1.470   1.433   5.464 -1.5298  0.5208 -0.5273
 5529SOL    HW228224   1.577   1.522   5.505  0.7591  1.9344 -2.2553
 5530SOL     OW28225   4.439   0.045   8.017  0.1413  0.4855 -0.1655
 5530SOL    HW128226   4.469   0.056   8.107  0.0639  2.3113 -0.3475
 5530SOL    HW228227   4.376   4.710   8.030 -0.8166  1.2837 -0.4693
 5531SOL     OW28228   2.323   2.527  15.257  0.4341  0.1289 -0.1613
 5531SOL    HW128229   2.394   2.591  15.249  1.3024 -0.8217 -0.2239
 5531SOL    HW228230   2.253   2.570  15.209  1.3022  2.0223  0.2797
 5532SOL     OW28231   3.766   2.514  15.535 -0.2193 -0.4877 -0.0940
 5532SOL    HW128232   3.746   2.425  15.506 -1.0216 -0.8470  1.5182
 5532SOL    HW228233   3.802   2.553  15.456 -0.2019  0.3327  0.3197
 5533SOL     OW28234   0.341   4.135   1.860  0.0889 -0.3835  0.1134
 5533SOL    HW128235   0.326   4.043   1.881 -0.3649 -0.4416 -0.4698
 5533SOL    HW228236   0.436   4.134   1.873 -0.1435  0.3560  1.8052
 5534SOL     OW28237   1.345   1.544   4.235 -0.4857 -0.2655  0.3563
 5534SOL    HW128238   1.295   1.623   4.212 -1.1753 -0.7463  0.1945
 5534SOL    HW228239   1.314   1.486   4.165  1.0200  0.7950 -1.2096
 5535SOL     OW28240   1.072   4.135   4.842  0.2149  0.0970  0.0717
 5535SOL    HW128241   1.108   4.186   4.769 -0.7037 -0.1576 -0.5631
 5535SOL    HW228242   0.997   4.192   4.853  0.7299  0.5584  1.1905
 5536SOL     OW28243   0.718   4.600  16.619 -0.2191  0.2794 -0.5206
 5536SOL    HW128244   0.761   4.548  16.687 -1.6182 -1.5082 -0.9951
 5536SOL    HW228245   0.715   4.687  16.659  0.7388  0.5513 -1.0675
 5537SOL     OW28246   0.787   0.845  10.863 -0.2903  0.5416  0.2211
 5537SOL    HW128247   0.777   0.845  10.958  1.7884 -0.9274  0.4313
 5537SOL    HW228248   0.712   0.888  10.821 -0.4399 -0.3600 -0.4389
 5538SOL     OW28249   3.401   1.071   5.615  0.2894  0.9189 -0.3490
 5538SOL    HW128250   3.380   1.153   5.569  0.7403  0.9382 -0.5239
 5538SOL    HW228251   3.401   1.007   5.544  2.9903 -0.4687  0.9218
 5539SOL     OW28252   3.103   4.518   6.846  0.2712  0.3495 -0.2923
 5539SOL    HW128253   3.180   4.542   6.898 -1.6895 -0.2488  2.8862
 5539SOL    HW228254   3.062   4.603   6.830  0.2200  0.1802 -1.0567
 5540SOL     OW28255   0.832   1.915   7.935  0.4720 -0.0377  0.2444
 5540SOL    HW128256   0.737   1.908   7.921  0.2598  1.9716  0.6919
 5540SOL    HW228257   0.854   1.825   7.909  3.2764  0.7734 -0.0738
 5541SOL     OW28258   3.111   3.631  16.809 -0.2577 -0.3069  0.1228
 5541SOL    HW128259   3.064   3.682  16.743 -0.0874  0.4190  0.5717
 5541SOL    HW228260   3.153   3.565  16.753 -2.8527 -0.9249 -1.1059
 5542SOL     OW28261   3.026   1.731   1.906  0.3679  0.5919  0.1306
 5542SOL    HW128262   3.071   1.657   1.948 -0.9606 -0.4439 -0.2514
 5542SOL    HW228263   3.067   1.745   1.821 -1.0922 -1.2764 -0.9010
 5543SOL     OW28264   1.933   3.779   2.388  0.0189  0.2513 -0.0824
 5543SOL    HW128265   1.920   3.693   2.348  1.2789 -0.4236  1.0033
 5543SOL    HW228266   2.009   3.808   2.338  1.2853  0.3290  1.9257
 5544SOL     OW28267   0.649   0.409   8.658 -0.2070 -0.0298  0.2768
 5544SOL    HW128268   0.587   0.365   8.716  0.2832 -1.3166 -0.1674
 5544SOL    HW228269   0.669   0.334   8.602  2.3847 -1.8555  3.6733
 5545SOL     OW28270   1.373   2.958  12.531  0.0620  0.3960  0.3525
 5545SOL    HW128271   1.378   2.869  12.497  4.7740 -0.3440  3.0630
 5545SOL    HW228272   1.351   2.934  12.621 -3.1965  1.1409 -0.2375
 5546SOL     OW28273   2.162   4.104   6.692  0.1991 -0.2367 -0.9196
 5546SOL    HW128274   2.243   4.084   6.645 -0.1668  1.8614 -2.4249
 5546SOL    HW228275   2.148   4.033   6.754 -0.3884  0.7560  0.0989
 5547SOL     OW28276   1.674   0.851   7.839  0.3401 -0.0351 -0.2267
 5547SOL    HW128277   1.716   0.791   7.778 -1.4696 -0.4213 -1.0995
 5547SOL    HW228278   1.726   0.929   7.820 -1.3035  0.5974 -2.1983
 5548SOL     OW28279   3.161   4.622  17.468 -0.1808  0.6015  0.0504
 5548SOL    HW128280   3.161   4.717  17.453  0.1309  0.6423  0.2979
 5548SOL    HW228281   3.198   4.630  17.556  0.2160 -1.6245  0.0749
 5549SOL     OW28282   2.783   4.161   2.156  0.1546  0.2466 -0.4997
 5549SOL    HW128283   2.757   4.071   2.174  0.0336  0.4945  0.5657
 5549SOL    HW228284   2.810   4.185   2.244  2.3810 -1.3578 -0.7323
 5550SOL     OW28285   4.611   3.580  11.640  0.2007  0.6038 -0.0316
 5550SOL    HW128286   4.706   3.581  11.650  0.1472  1.0519  0.4470
 5550SOL    HW228287   4.596   3.540  11.726  1.5394  1.2457  0.5028
 5551SOL     OW28288   0.104   3.742   1.820 -0.3961 -0.6406  0.0566
 5551SOL    HW128289   0.041   3.787   1.876 -0.2420  0.7882 -0.8996
 5551SOL    HW228290   0.083   3.649   1.821 -1.9351 -0.2658  1.5791
 5552SOL     OW28291   4.550   4.218   9.070  0.2937 -0.6499  0.5974
 5552SOL    HW128292   4.525   4.130   9.098  0.6690  0.5522  4.6358
 5552SOL    HW228293   4.476   4.273   9.096  0.1089 -0.3489 -0.5608
 5553SOL     OW28294   1.316   3.562   2.490 -0.5158  0.0460 -0.1087
 5553SOL    HW128295   1.264   3.615   2.550 -0.7524 -1.4065  0.9606
 5553SOL    HW228296   1.405   3.596   2.482 -1.0308  1.1633 -1.1218
 5554SOL     OW28297   1.319   4.649   5.047  0.2368 -0.0750 -0.2854
 5554SOL    HW128298   1.252   4.599   5.095  1.1486  1.4631  2.6112
 5554SOL    HW228299   1.351   4.701   5.121  0.6439 -0.6982 -0.0170
 5555SOL     OW28300   2.127   4.098   2.499  0.6356 -0.3058  0.1470
 5555SOL    HW128301   2.111   4.146   2.581 -1.0965 -2.0364  0.8232
 5555SOL    HW228302   2.139   4.172   2.439 -1.4229  0.9939  1.3043
 5556SOL     OW28303   0.618   1.945   4.664  0.0367  0.1519  0.0987
 5556SOL    HW128304   0.594   1.901   4.582 -1.8119  0.8764  0.2482
 5556SOL    HW228305   0.674   1.882   4.708  1.7909  0.7983 -1.2097
 5557SOL     OW28306   3.247   1.773   0.161 -0.0727 -0.5204 -0.0097
 5557SOL    HW128307   3.152   1.768   0.174  0.1925 -1.7888  1.5245
 5557SOL    HW228308   3.273   1.682   0.178  0.4342 -0.1257  1.3644
 5558SOL     OW28309   4.267   1.783   5.605  0.1710  0.0078  0.0690
 5558SOL    HW128310   4.306   1.695   5.599 -1.8090 -0.8558 -0.2881
 5558SOL    HW228311   4.290   1.822   5.521  2.1647 -0.2913  0.4741
 5559SOL     OW28312   2.301   1.578   2.120  0.2837 -0.0162  0.3063
 5559SOL    HW128313   2.225   1.634   2.106  1.2310  1.3942  0.7586
 5559SOL    HW228314   2.286   1.514   2.050  1.8692 -0.5603  0.4626
 5560SOL     OW28315   3.239   3.471   4.748 -0.1041 -0.3746 -0.5097
 5560SOL    HW128316   3.219   3.433   4.834  2.0137 -1.2502 -0.4274
 5560SOL    HW228317   3.330   3.444   4.741  0.5880  2.5812 -2.9232
 5561SOL     OW28318   0.083   0.641   9.290 -0.3175  0.0219 -0.2470
 5561SOL    HW128319   0.130   0.640   9.373  0.9862 -0.4602 -1.0038
 5561SOL    HW228320   4.732   0.616   9.324  0.2256 -1.1211  0.2618
 5562SOL     OW28321   3.562   1.399   6.638  0.0031 -0.0576  0.2049
 5562SOL    HW128322   3.619   1.325   6.660  1.4391  1.4745  1.7156
 5562SOL    HW228323   3.581   1.418   6.547  1.5734 -0.5376  0.4259
 5563SOL     OW28324   4.682   3.072   9.081  0.1808  0.1462  0.4306
 5563SOL    HW128325   4.637   3.099   9.161 -2.7528 -2.1705 -0.4335
 5563SOL    HW228326   0.022   3.034   9.125  1.8095  0.4845 -2.0260
 5564SOL     OW28327   0.174   2.201   0.606  0.2433 -0.1805  0.1042
 5564SOL    HW128328   0.164   2.207   0.701  0.0857  1.1560 -0.0074
 5564SOL    HW228329   0.102   2.139   0.593 -0.2228  0.2057  0.8658
 5565SOL     OW28330   3.664   4.304   8.031 -0.6802 -0.3134 -0.4473
 5565SOL    HW128331   3.605   4.379   8.032  2.5126  2.1766  0.7028
 5565SOL    HW228332   3.742   4.344   8.069  0.0750 -0.9245 -1.3742
 5566SOL     OW28333   1.466   1.007   0.877 -0.3880  0.1469 -1.1536
 5566SOL    HW128334   1.531   0.938   0.863 -1.2501 -0.2687 -3.0303
 5566SOL    HW228335   1.392   0.964   0.834 -1.1145  0.0293  0.2260
 5567SOL     OW28336   3.049   2.711   5.937  0.1520 -0.4646  0.3137
 5567SOL    HW128337   3.071   2.667   5.855  0.6143 -0.7541  0.5910
 5567SOL    HW228338   3.128   2.707   5.991 -0.8809 -1.9519  1.7165
 5568SOL     OW28339   2.813   2.228  16.161 -0.2301  0.3391  0.2329
 5568SOL    HW128340   2.743   2.230  16.096 -0.6141  0.3717  0.6489
 5568SOL    HW228341   2.886   2.239  16.100  0.1138 -0.4488  0.5053
 5569SOL     OW28342   3.176   2.303   8.085  0.0847 -0.2488  0.2196
 5569SOL    HW128343   3.244   2.365   8.111 -2.1142  1.4988  1.7444
 5569SOL    HW228344   3.103   2.322   8.144  0.9238  2.7820  0.2912
 5570SOL     OW28345   2.276   4.686  11.216 -0.2451  0.2047  0.0491
 5570SOL    HW128346   2.371   4.671  11.218  0.2634  3.3372 -0.9024
 5570SOL    HW228347   2.262   4.726  11.302 -0.4410 -1.1439  0.6531
 5571SOL     OW28348   0.206   4.139  14.014  0.3593  0.4580 -0.1325
 5571SOL    HW128349   0.278   4.091  14.054 -0.8448 -0.0720  1.3852
 5571SOL    HW228350   0.140   4.152  14.082 -0.2034 -3.3036  0.0010
 5572SOL     OW28351   0.797   3.236   5.946  0.0217  0.3541 -0.4964
 5572SOL    HW128352   0.765   3.278   6.026  0.4003  0.3185 -0.3272
 5572SOL    HW228353   0.792   3.312   5.888 -1.5065 -0.1002 -0.9424
 5573SOL     OW28354   0.723   4.095   0.077 -0.0406  0.8399  0.2534
 5573SOL    HW128355   0.691   4.172   0.030  4.0407  1.4471 -1.5283
 5573SOL    HW228356   0.816   4.097   0.054  0.1952 -0.6591  1.0880
 5574SOL     OW28357   2.564   2.781   1.293 -0.1700 -0.9587  0.0866
 5574SOL    HW128358   2.655   2.797   1.269 -0.0098 -1.2937  0.4852
 5574SOL    HW228359   2.576   2.766   1.387  0.3372  0.2602  0.2159
 5575SOL     OW28360   1.878   3.119   3.091 -0.5473 -0.0523  0.5281
 5575SOL    HW128361   1.854   3.195   3.039 -1.7516 -0.0238  1.1347
 5575SOL    HW228362   1.825   3.049   3.052  1.8574 -0.6772 -1.7027
 5576SOL     OW28363   4.654   1.196   5.522 -0.2020 -0.2741  0.2665
 5576SOL    HW128364   4.695   1.125   5.472  2.6225 -0.0087  2.1755
 5576SOL    HW228365   4.568   1.162   5.545 -0.3830 -0.5395 -0.8078
 5577SOL     OW28366   0.345   3.732  16.922 -0.3843 -0.2134 -0.1996
 5577SOL    HW128367   0.367   3.824  16.908  0.1976 -0.3045  0.1293
 5577SOL    HW228368   0.271   3.750  16.980 -1.2264 -1.3198 -0.9065
 5578SOL     OW28369   1.551   1.847   7.204 -0.1353  0.0010 -0.1153
 5578SOL    HW128370   1.505   1.853   7.120 -1.0734 -1.7529  0.2693
 5578SOL    HW228371   1.552   1.751   7.209 -1.4245 -0.0326 -0.4231
 5579SOL     OW28372   3.618   0.954   2.800 -0.2888  0.1519 -0.0876
 5579SOL    HW128373   3.576   0.903   2.869 -0.8268  0.8779  0.1286
 5579SOL    HW228374   3.695   0.996   2.836  0.3560 -0.5923 -0.6071
 5580SOL     OW28375   1.094   2.989  12.378 -0.3141 -0.1632 -0.5597
 5580SOL    HW128376   1.177   2.944  12.368 -0.8827 -1.1200 -0.9556
 5580SOL    HW228377   1.057   2.956  12.460  2.2903 -1.1515  0.2055
 5581SOL     OW28378   2.259   1.467  11.086 -0.3140  0.0539  0.1807
 5581SOL    HW128379   2.341   1.421  11.101 -1.9885 -2.6112  1.3497
 5581SOL    HW228380   2.196   1.401  11.056 -1.2399  0.9189  0.2228
 5582SOL     OW28381   2.350   3.706   9.513  0.3161  0.0582 -0.2955
 5582SOL    HW128382   2.386   3.792   9.492 -0.1686  0.4144  0.3346
 5582SOL    HW228383   2.393   3.657   9.443  0.4900 -0.1863 -0.0211
 5583SOL     OW28384   2.259   0.751  12.065  0.1554  0.3425 -0.2319
 5583SOL    HW128385   2.334   0.696  12.085  1.0994  1.7417  0.1161
 5583SOL    HW228386   2.258   0.813  12.138 -0.0021 -0.7022  0.6367
 5584SOL     OW28387   0.189   3.120  12.098 -0.1644 -0.2949  0.0243
 5584SOL    HW128388   0.252   3.049  12.102  1.1074  0.9058  1.2028
 5584SOL    HW228389   0.228   3.169  12.025 -0.6226 -0.2120 -0.1659
 5585SOL     OW28390   2.136   2.945   2.690 -0.9602  0.2125  0.6453
 5585SOL    HW128391   2.108   2.974   2.777  1.2079  2.7527  0.5062
 5585SOL    HW228392   2.098   3.017   2.639 -2.1196 -1.0834 -0.3033
 5586SOL     OW28393   0.012   2.494   3.307 -0.7250 -0.5119 -0.2702
 5586SOL    HW128394   4.704   2.559   3.363  0.5965  0.2505 -0.1335
 5586SOL    HW228395   0.091   2.486   3.361 -0.3105  0.7276 -0.6994
 5587SOL     OW28396   2.618   2.706   7.860 -0.7283 -0.6621 -0.0418
 5587SOL    HW128397   2.708   2.703   7.893 -1.5516  1.3042  2.3597
 5587SOL    HW228398   2.610   2.802   7.866 -1.0563 -0.5964 -1.6149
 5588SOL     OW28399   4.261   3.558   6.346 -0.1918  0.0967 -0.4881
 5588SOL    HW128400   4.194   3.627   6.341 -0.6180 -0.2704  0.1563
 5588SOL    HW228401   4.188   3.498   6.363  0.3603 -0.7454 -1.1529
 5589SOL     OW28402   3.335   1.396   5.873  0.2970 -0.6607  0.2789
 5589SOL    HW128403   3.395   1.470   5.882 -1.6031  1.2557 -2.8350
 5589SOL    HW228404   3.287   1.399   5.955 -1.3578  0.7762 -0.7471
 5590SOL     OW28405   0.471   2.675  12.757  0.3211 -0.1825  0.1516
 5590SOL    HW128406   0.502   2.749  12.809  1.2362  0.7372 -1.6865
 5590SOL    HW228407   0.527   2.685  12.680 -1.3096 -1.5144 -1.2042
 5591SOL     OW28408   1.562   3.744   0.396 -0.4094 -0.5789  0.3235
 5591SOL    HW128409   1.653   3.767   0.377 -1.1671  1.2619 -1.0680
 5591SOL    HW228410   1.519   3.740   0.310  1.2769 -1.2532 -0.4957
 5592SOL     OW28411   1.864   0.874   1.668  0.4105  0.4375  0.2455
 5592SOL    HW128412   1.877   0.927   1.747  0.7906  1.4589 -0.4909
 5592SOL    HW228413   1.865   0.944   1.602  0.5214  0.1746 -0.0279
 5593SOL     OW28414   4.130   0.939   6.911  0.1846  0.6561 -0.0415
 5593SOL    HW128415   4.064   1.008   6.901  1.2661  1.3056 -2.6124
 5593SOL    HW228416   4.187   0.971   6.980 -0.2947 -0.5458  0.9200
 5594SOL     OW28417   4.679   0.687   4.320 -0.0428 -0.0779 -0.0021
 5594SOL    HW128418   4.616   0.629   4.278 -0.5105 -0.2031  0.8728
 5594SOL    HW228419   4.641   0.680   4.408  1.2553 -1.3776  0.4635
 5595SOL     OW28420   2.984   2.305   6.605  0.1751  0.3128  0.1654
 5595SOL    HW128421   3.010   2.397   6.600 -1.9592  0.9004  0.0721
 5595SOL    HW228422   2.905   2.306   6.551  0.6693 -1.3257 -0.5796
 5596SOL     OW28423   3.685   0.567   4.077  0.3616  0.2291  0.2704
 5596SOL    HW128424   3.673   0.511   4.001  1.3229  2.6074 -1.6340
 5596SOL    HW228425   3.616   0.634   4.076 -0.9581 -1.1303  0.9450
 5597SOL     OW28426   3.325   2.042   2.904  0.0004  0.1766  0.0215
 5597SOL    HW128427   3.360   2.017   2.818 -0.6387 -1.2324  0.1556
 5597SOL    HW228428   3.378   2.006   2.975 -1.0614 -0.0149  0.7212
 5598SOL     OW28429   0.337   1.076   2.363  0.2258 -0.5765 -0.5982
 5598SOL    HW128430   0.399   1.128   2.311 -1.0353  2.3740  0.8223
 5598SOL    HW228431   0.393   1.007   2.399  2.5940  0.2400 -2.6520
 5599SOL     OW28432   1.746   4.267   1.811 -0.5220  0.0511 -0.6342
 5599SOL    HW128433   1.770   4.177   1.792  0.7379  0.1759  0.4010
 5599SOL    HW228434   1.823   4.308   1.850  0.3075  0.8155 -3.0914
 5600SOL     OW28435   2.026   3.024   8.743  0.6801  0.8875  0.3728
 5600SOL    HW128436   1.940   3.004   8.779  0.9359  0.3089  0.6505
 5600SOL    HW228437   2.043   2.964   8.671  0.9171 -0.0188  1.1762
 5601SOL     OW28438   1.104   1.815   8.914 -0.0866  0.1680  0.2684
 5601SOL    HW128439   1.018   1.772   8.918  0.1644 -0.5388 -2.3422
 5601SOL    HW228440   1.106   1.863   8.997  0.2873  0.0535  0.3242
 5602SOL     OW28441   0.168   2.099   2.347 -0.0559 -0.6936  0.0749
 5602SOL    HW128442   0.143   2.160   2.416  3.0480  1.5533 -0.8029
 5602SOL    HW228443   0.249   2.142   2.318 -0.1322 -0.3327  0.3960
 5603SOL     OW28444   2.654   2.909   5.470  0.3858  0.2460 -0.0604
 5603SOL    HW128445   2.573   2.925   5.422 -0.6112 -2.2451  0.7889
 5603SOL    HW228446   2.660   2.991   5.519  0.4172 -0.6332  1.4111
 5604SOL     OW28447   1.024   2.662   3.235  0.2689 -0.3403  0.1807
 5604SOL    HW128448   1.113   2.686   3.263  0.2519  0.3948 -0.3770
 5604SOL    HW228449   0.968   2.722   3.285 -1.8477 -2.5750  0.4595
 5605SOL     OW28450   3.336   4.603  10.078  0.1229  0.6622  0.1042
 5605SOL    HW128451   3.332   4.690  10.117 -2.8808  0.8221 -0.5906
 5605SOL    HW228452   3.365   4.621   9.989 -3.1065 -0.9837 -1.2732
 5606SOL     OW28453   3.881   2.146   1.954 -0.0948 -0.5246  0.0556
 5606SOL    HW128454   3.910   2.142   2.046  1.1910  0.1758 -0.3266
 5606SOL    HW228455   3.950   2.207   1.929 -0.4664  0.0690  0.4735
 5607SOL     OW28456   0.556   3.580   8.145  0.2180  0.8066 -0.1886
 5607SOL    HW128457   0.614   3.610   8.214 -1.3409 -2.6453  2.6191
 5607SOL    HW228458   0.481   3.557   8.201 -0.8160  0.0349 -1.8757
 5608SOL     OW28459   3.070   2.925   6.520 -0.2986  0.3692  0.3653
 5608SOL    HW128460   3.129   2.864   6.477  0.7473  0.3963  1.7535
 5608SOL    HW228461   3.112   2.917   6.606  1.5542 -0.3282 -0.5995
 5609SOL     OW28462   4.216   1.299   6.245 -0.1706  0.0471  0.5066
 5609SOL    HW128463   4.130   1.332   6.272 -0.2109 -0.7857  1.4296
 5609SOL    HW228464   4.228   1.352   6.167 -1.7033  2.0604  1.6416
 5610SOL     OW28465   3.958   2.985  10.690 -0.5344  0.0141 -0.4039
 5610SOL    HW128466   4.050   2.999  10.667 -0.5816  0.0312 -0.5855
 5610SOL    HW228467   3.949   2.892  10.667 -0.5249  0.0779 -0.6760
 5611SOL     OW28468   3.359   4.271   5.669 -0.5041  0.7911 -0.1664
 5611SOL    HW128469   3.317   4.225   5.742  2.6094 -0.0137  1.1405
 5611SOL    HW228470   3.388   4.353   5.710 -0.3887  1.1880 -1.0504
 5612SOL     OW28471   1.484   0.797   2.566  0.0435  0.1983 -0.0745
 5612SOL    HW128472   1.572   0.800   2.527  0.9292  0.7737  1.9596
 5612SOL    HW228473   1.430   0.863   2.524 -0.5483 -0.6278 -0.6005
 5613SOL     OW28474   0.935   1.249   6.601 -0.3013  0.3593  0.1231
 5613SOL    HW128475   0.891   1.319   6.651  0.6089 -0.0697  1.5333
 5613SOL    HW228476   0.966   1.286   6.519  2.3925 -0.8779  0.5634
 5614SOL     OW28477   1.305   2.277   2.657  0.2371  0.3442  0.5210
 5614SOL    HW128478   1.277   2.198   2.704 -0.3480  0.8973  1.0985
 5614SOL    HW228479   1.370   2.224   2.609  0.7262 -0.8535  2.5158
 5615SOL     OW28480   4.384   2.622   6.520 -0.5056  0.0126  0.5610
 5615SOL    HW128481   4.326   2.640   6.447 -2.0607 -1.4175  1.4247
 5615SOL    HW228482   4.361   2.532   6.547 -1.9786  0.3381  0.4161
 5616SOL     OW28483   0.486   4.723   2.854  0.6592 -0.2569  0.3165
 5616SOL    HW128484   0.432   4.654   2.817  0.6776 -0.2390  0.2567
 5616SOL    HW228485   0.548   0.011   2.785  0.5961  1.6609  0.9146
 5617SOL     OW28486   4.063   1.561   8.619 -0.5468  0.5109 -0.1654
 5617SOL    HW128487   3.998   1.494   8.640 -1.3421  1.1285 -0.6500
 5617SOL    HW228488   4.077   1.600   8.705 -1.6817  1.3980 -0.3821
 5618SOL     OW28489   1.937   0.163   7.035 -0.3752  0.1585 -0.2186
 5618SOL    HW128490   2.005   0.187   7.097  1.4277 -0.8768 -1.7624
 5618SOL    HW228491   1.914   0.249   7.000 -0.5314  1.0100  2.0163
 5619SOL     OW28492   3.606   1.684   6.708  0.5252 -0.5761 -0.1514
 5619SOL    HW128493   3.696   1.666   6.681  0.8601  1.4709 -0.4716
 5619SOL    HW228494   3.569   1.600   6.684 -0.5595 -0.0140 -0.4336
 5620SOL     OW28495   2.501   2.066   2.150  0.0243 -1.0646  0.1907
 5620SOL    HW128496   2.496   1.971   2.157  2.8880 -1.2029  0.1192
 5620SOL    HW228497   2.431   2.080   2.086 -1.5077  1.5543  2.4279
 5621SOL     OW28498   1.615   4.175  10.337  0.3552 -0.3064  0.5342
 5621SOL    HW128499   1.619   4.264  10.303 -0.9799 -0.4208  0.0833
 5621SOL    HW228500   1.707   4.149  10.331  0.3337 -0.6083  1.5180
 5622SOL     OW28501   3.784   2.100   5.150 -0.1278  0.2091  0.0176
 5622SOL    HW128502   3.844   2.151   5.204  0.1447  0.1094 -0.1959
 5622SOL    HW228503   3.748   2.035   5.211  1.5887 -0.1509  0.6266
 5623SOL     OW28504   3.841   1.174  13.402 -0.3099  0.2161  0.2516
 5623SOL    HW128505   3.911   1.110  13.399  2.1439  2.9385 -0.6286
 5623SOL    HW228506   3.792   1.135  13.329  0.5585  0.4693 -0.4700
 5624SOL     OW28507   1.087   1.658   0.756 -0.4450 -0.0494  0.2814
 5624SOL    HW128508   1.037   1.650   0.838  0.5816 -4.0387  0.5101
 5624SOL    HW228509   1.026   1.676   0.684 -0.4678  1.9278  0.7892
 5625SOL     OW28510   4.652   1.722   3.043  1.0153  0.1190 -0.4125
 5625SOL    HW128511   4.718   1.788   3.062  1.1716 -0.9327  2.7338
 5625SOL    HW228512   4.675   1.663   3.115  3.3299 -0.0015 -1.2725
 5626SOL     OW28513   2.871   3.478   2.466 -0.2507 -0.1593  0.3601
 5626SOL    HW128514   2.797   3.526   2.505 -0.1575 -0.2996  0.7121
 5626SOL    HW228515   2.879   3.406   2.529 -0.9371 -0.0142  0.6255
 5627SOL     OW28516   0.447   1.643  11.177  0.5487 -0.4291 -0.0675
 5627SOL    HW128517   0.444   1.555  11.214  0.5918 -0.5371 -0.3242
 5627SOL    HW228518   0.372   1.657  11.119 -0.8321  0.5024  1.9172
 5628SOL     OW28519   1.083   1.995   4.749  0.1155  0.0614 -0.2714
 5628SOL    HW128520   1.059   1.918   4.698 -0.4629  0.5810 -0.7655
 5628SOL    HW228521   1.014   2.057   4.727 -0.4581 -0.9452 -1.3078
 5629SOL     OW28522   0.917   3.434  11.976  0.1821  0.4383  0.3535
 5629SOL    HW128523   0.918   3.503  11.909  0.5939 -0.4045 -0.5016
 5629SOL    HW228524   0.999   3.388  11.955  1.1487  1.3911  1.9616
 5630SOL     OW28525   0.428   1.130   3.511  1.2211 -0.0136  0.3897
 5630SOL    HW128526   0.519   1.156   3.524  0.7814  0.3067  2.8687
 5630SOL    HW228527   0.433   1.036   3.532  0.5659 -0.1625 -0.1109
 5631SOL     OW28528   0.935   2.886   2.828  0.2395  1.0145  0.1916
 5631SOL    HW128529   1.017   2.838   2.817  0.4634  1.0065  1.8263
 5631SOL    HW228530   0.900   2.890   2.739  1.0715 -0.1850 -0.1977
 5632SOL     OW28531   1.753   0.747   2.416  0.4307 -0.3332 -0.1811
 5632SOL    HW128532   1.707   0.740   2.333  0.0606 -0.0004 -0.0036
 5632SOL    HW228533   1.810   0.670   2.410  1.0572  0.0498  0.6696
 5633SOL     OW28534   3.926   4.676   6.439 -0.6377  0.0216 -0.1263
 5633SOL    HW128535   3.886   4.610   6.496 -2.0696  0.3608 -0.7522
 5633SOL    HW228536   4.014   4.676   6.477  0.1459 -1.6348 -2.0020
 5634SOL     OW28537   0.025   0.825   2.948  0.0754 -0.9278  0.0697
 5634SOL    HW128538   4.694   0.756   2.947  1.1287 -1.9553  0.7266
 5634SOL    HW228539   4.731   0.885   3.016 -1.3595  0.3167 -1.6467
 5635SOL     OW28540   4.606   0.410  17.333  0.0072  0.3694  0.2085
 5635SOL    HW128541   4.531   0.469  17.337 -0.7391 -0.6464  1.2467
 5635SOL    HW228542   4.565   0.323  17.331 -0.9873  0.8097  1.3835
 5636SOL     OW28543   1.175   3.837   4.610  0.2343  0.6017  0.2860
 5636SOL    HW128544   1.158   3.821   4.703 -1.9606 -1.8786 -0.5305
 5636SOL    HW228545   1.116   3.768   4.581  0.4131 -0.2418  1.9359
 5637SOL     OW28546   1.499   1.980  15.797 -0.0187  0.1948 -0.2930
 5637SOL    HW128547   1.450   1.949  15.721  2.2143 -0.9837 -1.2361
 5637SOL    HW228548   1.504   1.901  15.852  1.5082 -0.5211 -1.4833
 5638SOL     OW28549   3.265   1.284   6.135  0.1362 -0.6070 -0.2914
 5638SOL    HW128550   3.334   1.219   6.121 -0.7065 -1.2088 -1.6106
 5638SOL    HW228551   3.265   1.283   6.231  0.1033 -1.4037 -0.3073
 5639SOL     OW28552   1.211   0.095   3.185  0.0349 -0.2884 -0.1465
 5639SOL    HW128553   1.146   0.165   3.174  2.3403  1.4424 -2.6676
 5639SOL    HW228554   1.293   0.133   3.215 -0.1552 -0.7160  0.9286
 5640SOL     OW28555   3.934   4.720   2.111 -0.2078 -0.1614  0.6490
 5640SOL    HW128556   3.977   4.644   2.148 -1.0422 -1.0955 -0.3037
 5640SOL    HW228557   3.929   0.049   2.182  0.4491 -1.1099  1.5305
 5641SOL     OW28558   4.017   3.825   3.207 -0.0119  0.0926  0.2010
 5641SOL    HW128559   3.973   3.776   3.138  1.8740  1.4984 -2.0161
 5641SOL    HW228560   4.107   3.805   3.183  0.3058  0.6223  0.9629
 5642SOL     OW28561   2.619   4.705  10.221 -0.5370  0.9500 -0.3225
 5642SOL    HW128562   2.581   4.727  10.136  2.3049  1.7712 -1.3721
 5642SOL    HW228563   2.550   4.661  10.270  0.3874  0.0611  0.1779
 5643SOL     OW28564   3.550   4.149  11.469  0.3208  0.5783  0.1709
 5643SOL    HW128565   3.619   4.151  11.535 -1.1533 -1.6371  1.7774
 5643SOL    HW228566   3.567   4.231  11.422 -1.8001  2.0287  1.8991
 5644SOL     OW28567   4.391   4.324  12.050  0.3045  0.4105  0.0603
 5644SOL    HW128568   4.473   4.275  12.046 -0.4345 -1.0505  2.5896
 5644SOL    HW228569   4.393   4.345  12.143 -0.6719 -0.6813  0.3259
 5645SOL     OW28570   4.427   3.924   4.941  0.1398  0.1005 -0.3819
 5645SOL    HW128571   4.379   3.926   5.024 -0.4250 -1.5706 -0.6665
 5645SOL    HW228572   4.483   4.001   4.950 -0.4341  0.4578  0.1302
 5646SOL     OW28573   3.559   4.537   1.743 -0.0004  0.4746 -0.0600
 5646SOL    HW128574   3.519   4.486   1.673 -0.3284  1.1206 -0.3439
 5646SOL    HW228575   3.644   4.493   1.747 -0.0036  0.5841  1.3016
 5647SOL     OW28576   4.523   0.071   5.852 -0.1786 -0.4284  0.5435
 5647SOL    HW128577   4.469   0.087   5.774 -1.3812  0.9155  1.6490
 5647SOL    HW228578   4.468   0.005   5.895  0.6763 -0.8761  0.9495
 5648SOL     OW28579   3.036   4.283   6.938  0.1142 -0.0670 -0.0807
 5648SOL    HW128580   3.039   4.227   6.860  1.1627 -1.7297  1.1539
 5648SOL    HW228581   3.060   4.367   6.899 -1.4530  0.0588 -0.8033
 5649SOL     OW28582   0.489   1.337   2.543  0.0887  0.0535  0.2217
 5649SOL    HW128583   0.554   1.310   2.478 -1.2763 -0.5664 -0.9037
 5649SOL    HW228584   0.497   1.262   2.602 -0.7568  1.0550  1.6098
 5650SOL     OW28585   4.249   3.143   8.348 -0.3141  1.3602  0.4175
 5650SOL    HW128586   4.191   3.198   8.295 -1.6600 -1.1576 -0.6772
 5650SOL    HW228587   4.243   3.066   8.292 -0.5358 -0.1328  2.4954
 5651SOL     OW28588   1.383   1.245  11.155  0.7573  0.3666 -0.9825
 5651SOL    HW128589   1.392   1.209  11.067 -2.2577  1.5880 -1.7693
 5651SOL    HW228590   1.438   1.324  11.157  0.7279  0.3617 -0.0979
 5652SOL     OW28591   4.100   2.677   7.645 -0.3710 -0.6748 -0.3162
 5652SOL    HW128592   4.162   2.733   7.598 -1.0007  0.2571 -0.0516
 5652SOL    HW228593   4.165   2.634   7.700  0.8520  0.7654 -0.6157
 5653SOL     OW28594   4.189   0.611  13.722  0.3741  0.1059  0.0440
 5653SOL    HW128595   4.131   0.654  13.658  0.9914 -0.3361 -0.8067
 5653SOL    HW228596   4.166   0.518  13.714 -2.2540  0.6905  0.5849
 5654SOL     OW28597   3.519   3.701   6.607  0.4089 -0.8414  0.2744
 5654SOL    HW128598   3.527   3.631   6.541  1.6740 -1.2506  0.8679
 5654SOL    HW228599   3.574   3.672   6.680 -0.0122 -3.5465 -0.4629
 5655SOL     OW28600   0.385   0.086   3.979 -0.3603 -0.0005 -0.2725
 5655SOL    HW128601   0.469   0.045   3.959  0.5747  0.7556  2.1108
 5655SOL    HW228602   0.404   0.179   3.988 -0.9530  0.0149  0.9054
 5656SOL     OW28603   3.222   0.506   4.907  0.1398 -0.3231  0.0208
 5656SOL    HW128604   3.133   0.533   4.930 -0.7992 -1.6409 -2.0966
 5656SOL    HW228605   3.258   0.587   4.869 -0.0370 -0.1626  0.1960
 5657SOL     OW28606   0.356   3.702   4.826  0.3077  0.3304  0.5490
 5657SOL    HW128607   0.314   3.688   4.910 -1.2289 -0.9299 -0.4345
 5657SOL    HW228608   0.287   3.689   4.761  1.1857 -0.3633 -0.2460
 5658SOL     OW28609   3.784   2.787   3.287  0.1741  0.1899  0.4785
 5658SOL    HW128610   3.695   2.821   3.297 -0.1200 -0.1740 -0.8809
 5658SOL    HW228611   3.831   2.865   3.259  1.4246 -1.1612 -1.2491
 5659SOL     OW28612   2.510   1.822  13.234  0.6856  0.6930 -0.3252
 5659SOL    HW128613   2.519   1.823  13.139  0.7185 -1.7912 -0.3572
 5659SOL    HW228614   2.512   1.729  13.255 -1.1319  0.7960  0.3358
 5660SOL     OW28615   4.132   4.497   0.533  0.2628 -0.3721 -0.3047
 5660SOL    HW128616   4.121   4.589   0.509  1.3556 -0.4041 -0.9024
 5660SOL    HW228617   4.037   4.486   0.546  0.3878 -1.6273 -0.4361
 5661SOL     OW28618   3.949   2.738  12.443  0.7190 -0.5528 -0.2935
 5661SOL    HW128619   4.026   2.700  12.485  1.2845  1.3894  0.4348
 5661SOL    HW228620   3.971   2.831  12.438 -1.4177  0.0395  1.0772
 5662SOL     OW28621   0.671   2.076   8.319 -0.2093  0.5631  0.0748
 5662SOL    HW128622   0.674   2.168   8.347  2.5714  0.8154 -1.0308
 5662SOL    HW228623   0.580   2.055   8.340  0.1374 -0.3722  0.6297
 5663SOL     OW28624   0.765   0.377   1.528 -0.3435  0.3984 -0.2106
 5663SOL    HW128625   0.819   0.395   1.451 -2.4542 -0.3402 -1.8649
 5663SOL    HW228626   0.743   0.286   1.508  1.3173 -0.4809  2.1169
 5664SOL     OW28627   4.029   0.622   8.731  0.1483  0.1197 -0.0299
 5664SOL    HW128628   3.944   0.652   8.699 -0.0745 -1.1665 -0.6753
 5664SOL    HW228629   4.060   0.689   8.792  1.9358  0.3779 -1.2341
 5665SOL     OW28630   2.668   0.187   7.115 -0.1836 -0.1406  0.7634
 5665SOL    HW128631   2.720   0.182   7.195 -0.6164  2.3695  1.2079
 5665SOL    HW228632   2.742   0.183   7.054 -1.1991  0.7252 -0.5396
 5666SOL     OW28633   1.990   4.004   7.816  0.2529  0.6415  0.3907
 5666SOL    HW128634   2.013   3.984   7.726  2.8398  1.9557  0.7457
 5666SOL    HW228635   1.903   3.965   7.819  1.1102 -1.3967 -1.6687
 5667SOL     OW28636   2.340   3.957   6.073 -0.4298  0.2941  0.0166
 5667SOL    HW128637   2.311   3.908   5.995  0.1015 -1.2359  0.7868
 5667SOL    HW228638   2.350   4.048   6.046  0.6322 -0.6000 -2.6220
 5668SOL     OW28639   3.882   4.419   8.144 -0.0859 -0.1211 -0.2372
 5668SOL    HW128640   3.921   4.472   8.074  1.7230  0.3144  1.1089
 5668SOL    HW228641   3.959   4.371   8.174  0.5796  0.6850 -0.6581
 5669SOL     OW28642   3.959   1.895  13.392  0.5960  0.5829  0.2910
 5669SOL    HW128643   3.866   1.896  13.414  0.2091  0.9021 -1.3951
 5669SOL    HW228644   3.987   1.981  13.422 -0.0504  0.1328  2.1852
 5670SOL     OW28645   0.761   3.196  15.583 -0.0180 -0.1237  0.4382
 5670SOL    HW128646   0.754   3.221  15.675  0.2385 -2.5595  1.1275
 5670SOL    HW228647   0.689   3.136  15.567 -1.3742  1.8967 -0.9482
 5671SOL     OW28648   3.231   2.048  14.093  0.2780 -0.3722  0.5250
 5671SOL    HW128649   3.285   2.078  14.167 -0.8720  1.5920  0.5404
 5671SOL    HW228650   3.148   2.091  14.109  0.6094  0.5036 -0.1207
 5672SOL     OW28651   3.628   3.604  14.282 -0.1338 -0.1995  0.1231
 5672SOL    HW128652   3.572   3.575  14.211 -1.9390  2.2700  0.5343
 5672SOL    HW228653   3.590   3.553  14.353  0.8573 -2.0358 -0.6557
 5673SOL     OW28654   0.775   0.743   8.406 -0.4636 -0.3717  0.2151
 5673SOL    HW128655   0.754   0.798   8.482 -1.3863 -1.7027  0.9309
 5673SOL    HW228656   0.862   0.778   8.386 -0.8329 -0.5929 -1.6921
 5674SOL     OW28657   2.870   1.360  15.567  0.3706 -0.6741  0.0227
 5674SOL    HW128658   2.777   1.357  15.545  0.5661  0.3886 -0.9621
 5674SOL    HW228659   2.876   1.429  15.633  2.2513 -0.6449 -0.1678
 5675SOL     OW28660   3.352   0.255   0.017  0.4712 -0.1948 -0.0155
 5675SOL    HW128661   3.340   0.215   0.103  2.0897  0.2513  0.4278
 5675SOL    HW228662   3.443   0.284   0.025 -0.5020  3.2510 -1.1624
 5676SOL     OW28663   0.081   0.264   0.461  0.4057  0.0057 -0.1731
 5676SOL    HW128664   0.161   0.287   0.509  0.7819 -1.1882 -0.2177
 5676SOL    HW228665   0.111   0.261   0.371 -0.7101 -0.4722 -0.5307
 5677SOL     OW28666   2.400   3.972  11.625  0.0114 -0.0234  0.4543
 5677SOL    HW128667   2.459   3.996  11.554 -0.5197  1.6086  0.5547
 5677SOL    HW228668   2.458   3.944  11.696 -1.0432  2.7184  2.4051
 5678SOL     OW28669   4.099   4.021  15.489 -0.3436 -0.1136 -0.5428
 5678SOL    HW128670   4.013   3.981  15.504  0.6717 -0.9398  3.2445
 5678SOL    HW228671   4.103   4.093  15.553  0.3350 -0.4789 -0.1781
 5679SOL     OW28672   4.150   1.043   4.602 -0.2550  0.0211  0.2182
 5679SOL    HW128673   4.231   1.078   4.566 -0.6099  2.7928  2.1273
 5679SOL    HW228674   4.110   0.993   4.531 -0.6121  0.7426 -0.0919
 5680SOL     OW28675   1.437   2.441   2.101  0.0380  0.1030  0.0783
 5680SOL    HW128676   1.363   2.483   2.145 -0.3775 -1.3120  0.7464
 5680SOL    HW228677   1.399   2.424   2.015 -0.7435  0.3944  0.3684
 5681SOL     OW28678   3.319   3.850  15.020 -0.0245 -0.8099 -0.2424
 5681SOL    HW128679   3.304   3.835  15.114 -0.2450  0.3721 -0.0871
 5681SOL    HW228680   3.239   3.814  14.982  1.7862 -0.9536 -3.8629
 5682SOL     OW28681   2.030   1.148   9.858 -0.4264  0.3218 -0.0149
 5682SOL    HW128682   2.046   1.220   9.920 -1.0113 -0.9217  1.5558
 5682SOL    HW228683   2.107   1.096   9.881 -1.0962  0.0775  1.7133
 5683SOL     OW28684   0.024   0.460   7.874  0.0883  0.0191 -0.3052
 5683SOL    HW128685   4.696   0.532   7.867  1.3052  1.1741  0.5113
 5683SOL    HW228686   4.716   0.413   7.945  0.7421  1.0313  0.7882
 5684SOL     OW28687   2.527   1.716   1.054  0.4279 -0.4773 -0.3022
 5684SOL    HW128688   2.585   1.791   1.040 -0.3025  0.0821 -0.3326
 5684SOL    HW228689   2.492   1.703   0.966 -2.7556 -0.4392  0.9204
 5685SOL     OW28690   0.178   0.907   0.952  0.0483  0.3266  0.7358
 5685SOL    HW128691   0.163   0.903   0.858  0.7487  2.3381  0.5185
 5685SOL    HW228692   0.229   0.988   0.958  0.6242 -0.1478  2.2423
 5686SOL     OW28693   1.295   3.365  16.115 -0.4323  0.1696  0.0230
 5686SOL    HW128694   1.316   3.305  16.044  0.6713  1.6334 -0.8974
 5686SOL    HW228695   1.383   3.363  16.154 -0.6150 -1.8754  0.3556
 5687SOL     OW28696   1.058   3.604  16.431  0.0266  0.1608  0.1585
 5687SOL    HW128697   1.051   3.514  16.400 -1.5323 -0.2214  1.6195
 5687SOL    HW228698   1.141   3.593  16.478  0.7666 -1.8939 -1.6225
 5688SOL     OW28699   2.250   0.361   6.143  0.4272  0.0221  0.0242
 5688SOL    HW128700   2.341   0.385   6.155  0.3160  1.2394 -1.5393
 5688SOL    HW228701   2.262   0.266   6.148 -1.2390 -0.1419  1.0374
 5689SOL     OW28702   4.051   3.709   4.903  0.2162 -0.2197 -0.1050
 5689SOL    HW128703   3.956   3.711   4.916  0.1229  0.3105 -0.8453
 5689SOL    HW228704   4.065   3.798   4.870  0.4219  0.0157  0.6409
 5690SOL     OW28705   0.961   3.466  11.501 -0.5045  0.4397 -0.5909
 5690SOL    HW128706   0.949   3.417  11.583  0.4669  1.5692  0.2104
 5690SOL    HW228707   1.054   3.482  11.490  0.5107 -4.5135  0.4755
 5691SOL     OW28708   0.738   3.689   9.321 -0.7124  0.0095  1.0511
 5691SOL    HW128709   0.797   3.760   9.295 -0.3000 -0.1164  1.6503
 5691SOL    HW228710   0.658   3.737   9.340 -0.7686  0.0873  0.6162
 5692SOL     OW28711   0.758   4.042   6.625 -0.0454 -0.2907  0.1952
 5692SOL    HW128712   0.831   4.097   6.655 -1.7142  1.8231  0.3822
 5692SOL    HW228713   0.689   4.108   6.620 -0.6364 -0.9509 -0.2566
 5693SOL     OW28714   1.673   4.482   8.558 -0.1031  0.3545  0.1408
 5693SOL    HW128715   1.684   4.517   8.469  0.3787  1.9019  0.8080
 5693SOL    HW228716   1.714   4.553   8.608 -0.2362  0.3611  0.2392
 5694SOL     OW28717   4.123   3.441   4.677  0.0217  0.5106 -0.6272
 5694SOL    HW128718   4.045   3.406   4.719  0.0473 -0.1455 -1.1207
 5694SOL    HW228719   4.100   3.451   4.585 -4.9735 -1.1852  0.4513
 5695SOL     OW28720   3.306   0.672   4.260 -0.6753 -0.2836  0.0340
 5695SOL    HW128721   3.335   0.589   4.223 -1.4896 -0.8092  0.5703
 5695SOL    HW228722   3.355   0.735   4.207 -1.2524  1.0426  1.0753
 5696SOL     OW28723   2.640   0.888   7.423 -0.1251 -0.0866  0.3140
 5696SOL    HW128724   2.692   0.968   7.434 -1.1285  0.5311  0.5912
 5696SOL    HW228725   2.617   0.878   7.516  2.7539  0.5525  1.0941
 5697SOL     OW28726   4.301   2.628  10.873 -0.3578 -0.0564 -0.4876
 5697SOL    HW128727   4.321   2.718  10.849  0.2748  0.7423  3.0727
 5697SOL    HW228728   4.383   2.583  10.894  0.9281  0.5232 -4.3035
 5698SOL     OW28729   2.958   2.980  17.326 -0.2202  0.1140  0.3639
 5698SOL    HW128730   3.014   3.048  17.363  0.6390 -0.0783 -0.5653
 5698SOL    HW228731   2.917   3.021  17.250  1.0379 -0.4508 -0.6216
 5699SOL     OW28732   2.303   4.180  10.298  0.2495 -0.0070  0.2641
 5699SOL    HW128733   2.326   4.141  10.383  0.7115 -1.5852 -0.5837
 5699SOL    HW228734   2.342   4.263  10.323 -2.6538  1.6495 -0.7425
 5700SOL     OW28735   3.921   0.152   3.198  0.0097 -0.1495 -0.1073
 5700SOL    HW128736   3.946   0.157   3.106 -2.8695  1.5467 -0.8101
 5700SOL    HW228737   3.979   0.085   3.233  0.6753 -0.0806 -1.0943
 5701SOL     OW28738   2.850   0.593   8.539 -0.0716 -0.1221 -0.3272
 5701SOL    HW128739   2.792   0.518   8.526  0.3092 -0.8808  2.2156
 5701SOL    HW228740   2.906   0.591   8.461  0.3897  1.1232 -0.0321
 5702SOL     OW28741   3.860   3.781  13.947  0.8721  0.1750 -0.8288
 5702SOL    HW128742   3.767   3.775  13.971  1.6476 -0.7876  2.0150
 5702SOL    HW228743   3.868   3.705  13.890 -0.4090 -1.8350  1.6216
 5703SOL     OW28744   0.040   2.204  11.556 -0.1184 -0.0240 -0.0302
 5703SOL    HW128745   0.046   2.299  11.540 -3.8390  0.2806  0.3968
 5703SOL    HW228746   0.016   2.174  11.469 -0.3676  2.7245 -0.9324
 5704SOL     OW28747   1.965   0.276  16.879 -0.8842  0.4817 -0.0404
 5704SOL    HW128748   1.972   0.210  16.809  0.6611 -1.3412  1.8146
 5704SOL    HW228749   2.017   0.349  16.846  1.4932 -1.3449 -0.3663
 5705SOL     OW28750   1.200   4.133  11.607  0.0948  0.8871  0.1901
 5705SOL    HW128751   1.194   4.047  11.648 -1.9042  1.4545  1.0621
 5705SOL    HW228752   1.171   4.117  11.517  1.0827 -1.5691  0.3158
 5706SOL     OW28753   4.466   0.252  10.637 -0.5347  0.0992  0.3425
 5706SOL    HW128754   4.441   0.344  10.629 -2.2053 -0.2379  1.7825
 5706SOL    HW228755   4.449   0.229  10.728 -1.1727 -0.8069 -0.0078
 5707SOL     OW28756   1.933   0.834   8.016 -0.1522  0.2179  0.2578
 5707SOL    HW128757   1.917   0.740   8.005  1.2134 -0.4033  3.4290
 5707SOL    HW228758   1.977   0.832   8.101 -0.6521 -2.1703  0.4495
 5708SOL     OW28759   4.672   3.270   5.810  0.3599  0.3334 -0.4448
 5708SOL    HW128760   4.660   3.347   5.754 -1.1606 -1.3749 -2.5175
 5708SOL    HW228761   4.734   3.313   5.869  0.4939 -0.6230  0.1120
 5709SOL     OW28762   2.678   1.202  12.969 -0.1071  0.2940 -0.3567
 5709SOL    HW128763   2.597   1.232  12.928 -1.1839  0.6283  2.0021
 5709SOL    HW228764   2.643   1.160  13.048  1.4759  1.4454  0.9612
 5710SOL     OW28765   2.029   2.758   8.855  0.1552  0.2541  0.3466
 5710SOL    HW128766   2.032   2.821   8.782 -2.5100 -0.6500 -0.4983
 5710SOL    HW228767   2.117   2.779   8.888  0.3186 -0.2146  0.2060
 5711SOL     OW28768   4.597   0.296  15.206  0.3500 -0.3217  0.1300
 5711SOL    HW128769   4.667   0.257  15.154 -1.7641 -1.3328 -1.9312
 5711SOL    HW228770   4.641   0.267  15.287 -1.9222 -1.0045  1.1280
 5712SOL     OW28771   2.484   2.143  13.661 -0.1454 -0.8748  0.1715
 5712SOL    HW128772   2.427   2.067  13.672 -1.3585 -0.2659 -1.8664
 5712SOL    HW228773   2.413   2.208  13.665 -1.0354 -1.8498 -0.0277
 5713SOL     OW28774   1.333   2.093   4.662  0.7908  0.5079 -0.0676
 5713SOL    HW128775   1.383   2.020   4.624 -1.4968 -0.7376 -0.7277
 5713SOL    HW228776   1.246   2.064   4.689 -0.2450  1.4534 -2.3995
 5714SOL     OW28777   2.399   1.927   7.421 -0.0319 -0.1309 -0.0903
 5714SOL    HW128778   2.351   1.984   7.482 -0.5548 -0.6842  0.0175
 5714SOL    HW228779   2.343   1.944   7.345  0.8674  1.8583 -0.2889
 5715SOL     OW28780   0.229   3.099  10.996 -0.4708  0.0277 -0.2700
 5715SOL    HW128781   0.290   3.039  11.040  1.5594  1.8093 -0.6229
 5715SOL    HW228782   0.245   3.079  10.904 -2.6591 -1.0511 -0.4113
 5716SOL     OW28783   2.130   0.943  11.905 -0.3366  0.0858 -0.3329
 5716SOL    HW128784   2.183   0.872  11.943 -0.5916 -0.8657 -1.7625
 5716SOL    HW228785   2.074   0.960  11.981 -0.1569 -2.5755  0.4197
 5717SOL     OW28786   4.155   2.580  11.294  0.0506  0.0606  0.2626
 5717SOL    HW128787   4.075   2.618  11.329 -1.4556  0.4638 -3.5695
 5717SOL    HW228788   4.199   2.664  11.282  0.6829 -0.5272 -1.6489
 5718SOL     OW28789   2.256   3.785   3.262  0.9292 -0.1267  0.1043
 5718SOL    HW128790   2.287   3.875   3.269 -2.2631  0.8889  1.2698
 5718SOL    HW228791   2.336   3.733   3.256  1.8271  1.5022 -2.1105
 5719SOL     OW28792   4.442   4.125   9.451  0.2318 -0.3768  0.1062
 5719SOL    HW128793   4.404   4.120   9.539 -0.1795  0.3532 -0.0241
 5719SOL    HW228794   4.518   4.067   9.457  0.2773 -0.0491  2.6989
 5720SOL     OW28795   0.352   3.621   6.820 -0.5961 -0.5349  0.1350
 5720SOL    HW128796   0.371   3.550   6.882  0.4077  0.0901  0.5353
 5720SOL    HW228797   0.438   3.641   6.784 -0.7072 -0.1380  0.0952
 5721SOL     OW28798   0.070   0.425   7.416  0.5895  0.1502 -0.0196
 5721SOL    HW128799   0.035   0.445   7.329 -1.8689 -1.7754  0.5279
 5721SOL    HW228800   0.012   0.463   7.481 -0.2763  0.9349 -1.2591
 5722SOL     OW28801   3.611   3.337  13.641  0.0832  0.6616  0.0123
 5722SOL    HW128802   3.695   3.323  13.683 -0.0051  2.3255  0.7417
 5722SOL    HW228803   3.572   3.366  13.723 -1.0595  3.2620 -1.4324
 5723SOL     OW28804   2.767   3.522   3.348  0.0692  0.2321  0.6399
 5723SOL    HW128805   2.740   3.536   3.438 -0.1261  1.1971  0.4293
 5723SOL    HW228806   2.712   3.447   3.327  0.1177  0.2781  0.3382
 5724SOL     OW28807   3.141   3.277   4.574 -1.0755  0.4919  0.1459
 5724SOL    HW128808   3.162   3.359   4.620 -1.3893  0.1412  0.9073
 5724SOL    HW228809   3.167   3.207   4.634 -0.2383 -2.9686 -4.2900
 5725SOL     OW28810   4.681   3.331  12.119  0.4489 -0.2153  0.4535
 5725SOL    HW128811   4.700   3.241  12.093  0.1166 -0.8834  2.5199
 5725SOL    HW228812   4.670   3.312  12.212  2.3100 -2.3083  0.2486
 5726SOL     OW28813   0.951   0.491   2.873 -0.3497  0.2715 -0.5533
 5726SOL    HW128814   1.029   0.469   2.822  1.7508  0.2249  2.6764
 5726SOL    HW228815   0.914   0.404   2.889  0.4692 -0.1192 -0.8074
 5727SOL     OW28816   4.671   4.426   7.446 -0.2064  0.5812  0.0872
 5727SOL    HW128817   4.597   4.475   7.481  0.2162  0.7010  0.8161
 5727SOL    HW228818   4.629   4.411   7.361  2.8669 -3.2587 -0.7038
 5728SOL     OW28819   4.684   3.683  16.699 -0.0643  0.5226  0.3839
 5728SOL    HW128820   4.676   3.775  16.677  1.5195 -0.1656 -2.9846
 5728SOL    HW228821   0.024   3.688  16.758 -0.2151 -0.9196  0.7102
 5729SOL     OW28822   2.771   3.108   8.943  0.4113 -0.2354  0.6946
 5729SOL    HW128823   2.769   3.055   9.023 -0.0454 -0.9725  0.1958
 5729SOL    HW228824   2.851   3.161   8.947 -0.0557  0.4692  0.7154
 5730SOL     OW28825   2.157   0.488   3.770  0.1014 -0.4571  0.5452
 5730SOL    HW128826   2.141   0.431   3.845 -1.3163 -1.4906 -0.5360
 5730SOL    HW228827   2.246   0.458   3.752  0.6034 -0.0214  2.3037
 5731SOL     OW28828   0.360   2.044  11.712 -0.5664 -0.3652  0.0354
 5731SOL    HW128829   0.432   2.082  11.762  0.8639  0.8676 -2.9469
 5731SOL    HW228830   0.308   1.999  11.779 -1.6241 -0.4663 -0.8589
 5732SOL     OW28831   2.494   3.078  14.449  0.4869 -0.1309 -0.4639
 5732SOL    HW128832   2.441   3.051  14.375 -3.7213  2.6694  1.5591
 5732SOL    HW228833   2.519   3.163  14.413 -0.1397 -0.4799 -1.7234
 5733SOL     OW28834   0.460   0.333   4.466 -0.2206 -0.7737  0.2227
 5733SOL    HW128835   0.537   0.388   4.480  0.3716 -1.4224 -0.4788
 5733SOL    HW228836   0.393   0.375   4.519  0.8477  0.0835  0.8897
 5734SOL     OW28837   2.972   2.870   6.890  0.1633  0.1578 -0.6751
 5734SOL    HW128838   2.922   2.912   6.819  0.3914 -0.8841 -1.4529
 5734SOL    HW228839   3.063   2.869   6.860  0.6469 -1.6408  0.9255
 5735SOL     OW28840   1.300   0.516   4.302 -0.5948 -0.2207  0.1267
 5735SOL    HW128841   1.390   0.487   4.316 -0.7508 -1.5451 -1.6170
 5735SOL    HW228842   1.298   0.511   4.206  1.4410  0.9891  0.0149
 5736SOL     OW28843   4.348   0.956   2.021  0.0793  0.5621  0.4218
 5736SOL    HW128844   4.366   0.888   2.086 -1.4252 -1.1612 -0.9607
 5736SOL    HW228845   4.395   0.918   1.947 -0.5807  0.2184  0.1770
 5737SOL     OW28846   3.330   4.155   3.575 -0.0230 -0.0518 -0.0493
 5737SOL    HW128847   3.307   4.219   3.642  2.0643  0.7806 -0.1096
 5737SOL    HW228848   3.420   4.133   3.599  0.1563  2.3048  1.4387
 5738SOL     OW28849   0.663   0.114   2.367  0.3260 -0.0788  0.2615
 5738SOL    HW128850   0.582   0.079   2.329  1.1202 -1.1382 -0.4565
 5738SOL    HW228851   0.707   0.147   2.288  1.4145 -1.3174  0.3494
 5739SOL     OW28852   1.727   3.557   6.029 -0.9403  0.1524  0.1349
 5739SOL    HW128853   1.701   3.590   6.115 -0.1025  0.7093  0.1684
 5739SOL    HW228854   1.639   3.547   5.992  0.3153 -1.6632 -2.4245
 5740SOL     OW28855   0.271   3.551   7.332 -0.2686  0.7336  0.0578
 5740SOL    HW128856   0.276   3.457   7.347 -2.8538  0.5590 -0.2979
 5740SOL    HW228857   0.188   3.552   7.285 -0.4970 -0.8316  0.4448
 5741SOL     OW28858   3.797   1.343   4.501  0.2728  0.1185 -0.2990
 5741SOL    HW128859   3.745   1.299   4.569  1.6448  1.9197  1.8885
 5741SOL    HW228860   3.789   1.280   4.430  0.9833 -2.2564  1.7114
 5742SOL     OW28861   1.016   1.781   9.832 -0.3566  0.0573 -0.2357
 5742SOL    HW128862   1.057   1.711   9.882  1.0111  1.0472  0.0418
 5742SOL    HW228863   0.942   1.798   9.889 -0.6263  2.6335 -1.3485
 5743SOL     OW28864   4.008   1.545   0.599 -0.4046  0.2108  0.6197
 5743SOL    HW128865   3.960   1.463   0.613  2.1699 -0.9181  2.9941
 5743SOL    HW228866   3.939   1.610   0.586  2.3493  2.7345 -1.2812
 5744SOL     OW28867   1.658   3.598   5.144  1.0718  0.0581  0.2659
 5744SOL    HW128868   1.728   3.639   5.195 -0.6597  0.7245  2.1247
 5744SOL    HW228869   1.586   3.577   5.204  1.0142  0.1229  0.2195
 5745SOL     OW28870   1.066   0.758   7.038  0.1913  0.1833 -0.3216
 5745SOL    HW128871   1.117   0.724   7.112 -3.1887  0.2979  2.0482
 5745SOL    HW228872   1.047   0.844   7.075 -0.2964 -0.0832  0.0405
 5746SOL     OW28873   4.685   3.753   4.003  0.2254  0.3805 -0.7273
 5746SOL    HW128874   0.032   3.735   3.957  1.5407  2.1822  0.9575
 5746SOL    HW228875   4.719   3.790   4.084 -1.1108  0.6134 -0.2781
 5747SOL     OW28876   3.442   4.632  15.185 -0.3416 -0.0034  0.5621
 5747SOL    HW128877   3.516   4.680  15.146 -0.8328 -1.2064 -1.8427
 5747SOL    HW228878   3.490   4.610  15.265 -2.4185  1.0675  2.0794
 5748SOL     OW28879   1.703   0.944   9.376  0.2221  0.2856 -0.3139
 5748SOL    HW128880   1.630   0.911   9.430  1.1955 -1.2898  0.0350
 5748SOL    HW228881   1.705   1.039   9.388 -3.1383  0.0193  2.5389
 5749SOL     OW28882   0.009   1.837   3.565 -0.0422  0.0717 -0.7740
 5749SOL    HW128883   0.036   1.920   3.603  2.8064 -1.1732 -0.0916
 5749SOL    HW228884   0.071   1.774   3.603  1.5989  1.0331 -1.8665
 5750SOL     OW28885   4.219   4.098   1.681  0.6952 -0.1466  0.2311
 5750SOL    HW128886   4.245   4.190   1.680  0.9861 -0.2211  1.1263
 5750SOL    HW228887   4.185   4.082   1.769 -2.5050  2.0752 -0.6016
 5751SOL     OW28888   1.353   1.799   0.972 -0.1040 -0.7095 -0.0429
 5751SOL    HW128889   1.261   1.820   0.983  0.2775  1.2541 -0.6413
 5751SOL    HW228890   1.370   1.752   1.053  1.1080  0.1100  0.1739
 5752SOL     OW28891   4.283   3.459   0.203 -0.4623  0.1867 -0.2023
 5752SOL    HW128892   4.239   3.482   0.285 -2.0092 -0.7832 -0.7500
 5752SOL    HW228893   4.288   3.544   0.160 -1.5522  0.1582 -0.3944
 5753SOL     OW28894   2.840   1.470   9.409 -0.2977  0.4520 -0.7079
 5753SOL    HW128895   2.850   1.565   9.406  0.0845  0.3974 -1.1421
 5753SOL    HW228896   2.745   1.480   9.412 -0.5163 -2.1495  2.3966
 5754SOL     OW28897   1.471   3.292   2.070 -0.3489  0.3884 -0.3396
 5754SOL    HW128898   1.522   3.212   2.057 -1.2625 -0.4820  1.4788
 5754SOL    HW228899   1.480   3.296   2.165 -1.2903 -4.9338 -0.0142
 5755SOL     OW28900   4.093   3.906   3.814  0.3762 -0.2288 -0.2531
 5755SOL    HW128901   4.067   3.897   3.905  2.5632  0.2632  0.4232
 5755SOL    HW228902   4.162   3.840   3.807  1.8056  1.1034  1.1828
 5756SOL     OW28903   3.927   0.719  16.859  0.4384 -0.1772  0.2806
 5756SOL    HW128904   3.840   0.682  16.870  0.0406  0.8232  0.5638
 5756SOL    HW228905   3.955   0.678  16.777  1.0687 -0.9621  0.8894
 5757SOL     OW28906   4.565   3.289   4.558 -0.2111  0.3323  0.0085
 5757SOL    HW128907   4.538   3.373   4.521 -1.7277  1.0976  2.8754
 5757SOL    HW228908   4.597   3.315   4.644  1.3496 -0.4983 -0.3128
 5758SOL     OW28909   4.468   1.341  16.920  0.4591 -0.8332  1.0237
 5758SOL    HW128910   4.489   1.279  16.990  0.0600 -0.6254  1.3228
 5758SOL    HW228911   4.463   1.417  16.978 -1.8434 -0.8956  0.8991
 5759SOL     OW28912   4.017   2.782  11.567  0.2157 -0.4503 -0.2396
 5759SOL    HW128913   3.988   2.733  11.644  1.5025  1.8342  1.6812
 5759SOL    HW228914   4.070   2.850  11.607 -1.6426  0.7746  0.1274
 5760SOL     OW28915   2.393   3.918   3.928  0.2677 -0.0506 -0.1138
 5760SOL    HW128916   2.377   4.011   3.948  2.0289  0.4554 -1.0063
 5760SOL    HW228917   2.469   3.906   3.985 -0.0477 -0.5887  0.1850
 5761SOL     OW28918   1.394   1.980   2.996  0.5250  0.2311  0.1699
 5761SOL    HW128919   1.458   2.016   2.934 -1.3270  1.9853 -0.7352
 5761SOL    HW228920   1.312   2.003   2.951 -1.2121 -1.4062  2.5115
 5762SOL     OW28921   4.021   1.487  11.195 -0.1932  0.4024 -0.2101
 5762SOL    HW128922   4.072   1.493  11.114  1.0286  2.0264  0.6695
 5762SOL    HW228923   4.057   1.561  11.244  0.0313  0.9108 -1.1327
 5763SOL     OW28924   2.629   4.472   6.370  0.2122 -0.0708 -0.0850
 5763SOL    HW128925   2.542   4.446   6.401 -0.4483  0.4867 -1.4713
 5763SOL    HW228926   2.631   4.561   6.407  1.7430 -0.4158  0.6441
 5764SOL     OW28927   3.658   0.393  14.206 -0.3794 -0.0385  0.2293
 5764SOL    HW128928   3.702   0.308  14.214 -0.3340 -0.2589 -2.2490
 5764SOL    HW228929   3.705   0.437  14.135 -3.0058  0.8127 -0.9708
 5765SOL     OW28930   2.625   1.956   4.630  0.1478 -0.4581 -0.1810
 5765SOL    HW128931   2.559   1.901   4.672 -0.0554 -1.0332 -1.2591
 5765SOL    HW228932   2.573   2.029   4.597 -0.6107 -0.6222  0.6444
 5766SOL     OW28933   1.659   2.644   8.573 -0.1510  0.6015  0.1913
 5766SOL    HW128934   1.642   2.738   8.561  1.5650  0.5753 -2.6258
 5766SOL    HW228935   1.718   2.623   8.501 -1.2134  0.6069 -0.6790
 5767SOL     OW28936   0.421   4.583   2.323 -0.4426 -0.2653  0.1286
 5767SOL    HW128937   0.381   4.497   2.307  1.8485 -1.3703  0.4375
 5767SOL    HW228938   0.397   4.638   2.248 -2.1457 -1.0504  0.1028
 5768SOL     OW28939   1.712   2.628   7.350  0.3437  0.4229  0.0653
 5768SOL    HW128940   1.658   2.611   7.427 -0.3290 -1.3387 -0.7971
 5768SOL    HW228941   1.795   2.642   7.395  0.2618 -0.8707  0.6122
 5769SOL     OW28942   3.262   1.010   3.037  0.2843 -0.5774 -0.4690
 5769SOL    HW128943   3.320   1.086   3.032 -1.5717  0.8570 -0.1918
 5769SOL    HW228944   3.327   0.944   3.011  0.8667 -0.0953 -0.2433
 5770SOL     OW28945   4.140   3.150   9.484  0.5004 -0.6466  0.2036
 5770SOL    HW128946   4.142   3.243   9.461 -1.2861 -0.4731  0.7541
 5770SOL    HW228947   4.210   3.149   9.549 -1.4567  2.5816  2.3797
 5771SOL     OW28948   4.079   2.763   9.349 -0.3218  0.3629  0.7336
 5771SOL    HW128949   4.154   2.773   9.407 -0.1213 -0.4718  0.6070
 5771SOL    HW228950   4.007   2.777   9.411 -2.3893 -2.6547 -0.9853
 5772SOL     OW28951   3.285   0.427  12.923  0.0820  0.2345  0.3593
 5772SOL    HW128952   3.294   0.365  12.851 -1.2566  1.2625 -0.6815
 5772SOL    HW228953   3.238   0.499  12.881 -0.0923 -2.6051 -4.2882
 5773SOL     OW28954   2.874   4.717  10.150 -0.5562 -0.1259  0.4152
 5773SOL    HW128955   2.786   0.003  10.181  0.1364  3.0673  0.1821
 5773SOL    HW228956   2.882   4.628  10.184  0.9919 -0.7036 -1.4004
 5774SOL     OW28957   2.296   3.795   9.867  0.3043 -0.0888 -0.1781
 5774SOL    HW128958   2.320   3.864   9.929  2.0550 -1.1613  0.3231
 5774SOL    HW228959   2.349   3.808   9.789 -0.8088  0.5657 -0.8280
 5775SOL     OW28960   1.408   2.299  11.293 -0.2451 -0.4814 -0.2166
 5775SOL    HW128961   1.357   2.235  11.343  0.2026 -0.2896  0.4986
 5775SOL    HW228962   1.496   2.264  11.307 -0.3080 -0.0435  1.2965
 5776SOL     OW28963   2.001   4.097   8.913  0.1954  0.0077 -0.3173
 5776SOL    HW128964   2.053   4.049   8.849  0.7119  0.4224 -0.2087
 5776SOL    HW228965   2.012   4.044   8.991 -1.0693 -0.8221 -0.6916
 5777SOL     OW28966   3.713   3.921   5.450  0.4765 -0.5532 -0.2674
 5777SOL    HW128967   3.707   3.953   5.540 -2.1945 -2.0741  0.1236
 5777SOL    HW228968   3.619   3.918   5.429  0.4806 -0.2730 -0.3278
 5778SOL     OW28969   2.855   2.964   7.379 -0.6204  0.1687  0.0552
 5778SOL    HW128970   2.802   2.896   7.419  0.0097 -0.4714 -0.2129
 5778SOL    HW228971   2.886   2.918   7.301 -4.3128  1.2158 -2.0714
 5779SOL     OW28972   3.922   3.358   1.495  0.0816  0.7149 -0.0071
 5779SOL    HW128973   3.975   3.438   1.497  0.6850  0.3227 -0.1621
 5779SOL    HW228974   3.977   3.293   1.539 -0.0223 -0.2246 -1.2546
 5780SOL     OW28975   4.523   1.255   4.046 -0.9142  0.1833 -0.0673
 5780SOL    HW128976   4.451   1.193   4.059 -0.7889  0.1702  0.5582
 5780SOL    HW228977   4.552   1.268   4.136 -0.6621 -0.5827 -0.0410
 5781SOL     OW28978   1.042   1.199   2.140 -0.4262 -0.6080  0.1875
 5781SOL    HW128979   1.109   1.139   2.108 -0.5003 -0.8042  0.3974
 5781SOL    HW228980   0.963   1.147   2.154 -1.9942  2.1702  1.6429
 5782SOL     OW28981   4.286   0.292   5.183  0.2236 -0.1755  0.0734
 5782SOL    HW128982   4.228   0.348   5.235  0.0535  1.0581 -1.4469
 5782SOL    HW228983   4.353   0.256   5.241  0.0488  0.4672  0.6698
 5783SOL     OW28984   3.245   1.291   1.876 -0.1480 -0.2169  0.1387
 5783SOL    HW128985   3.216   1.283   1.785  0.4095 -0.2897 -0.0330
 5783SOL    HW228986   3.268   1.384   1.870  2.4261 -0.8429  0.7352
 5784SOL     OW28987   3.360   3.307   6.022  0.6682 -0.0860  0.5285
 5784SOL    HW128988   3.366   3.230   5.964  0.0919  0.4136 -0.2060
 5784SOL    HW228989   3.356   3.272   6.111 -2.6877 -2.0190 -0.3513
 5785SOL     OW28990   1.165   4.299   8.266 -0.3609  0.0221  0.6878
 5785SOL    HW128991   1.176   4.205   8.254  1.8827  0.2096  1.2249
 5785SOL    HW228992   1.255   4.315   8.293  0.3989 -2.8682 -0.0984
 5786SOL     OW28993   4.296   2.600   7.829 -0.5922  0.0956  0.0999
 5786SOL    HW128994   4.330   2.559   7.749  0.7086  3.2896 -0.9575
 5786SOL    HW228995   4.370   2.582   7.887 -0.4862  0.1938 -0.0073
 5787SOL     OW28996   3.742   3.137   1.764  0.0247  0.1152 -0.1859
 5787SOL    HW128997   3.703   3.054   1.739 -0.0182  0.5244 -1.4843
 5787SOL    HW228998   3.715   3.141   1.856  1.1049  1.6543  0.0762
 5788SOL     OW28999   2.155   0.962   8.686 -0.3988 -0.2660 -0.1202
 5788SOL    HW129000   2.228   0.939   8.630 -3.3402 -2.9248 -2.8935
 5788SOL    HW229001   2.177   1.042   8.733  1.4503 -1.6358  1.3022
 5789SOL     OW29002   1.706   1.352   1.642  0.3685 -0.1547 -0.8134
 5789SOL    HW129003   1.739   1.404   1.715  0.0890  1.0225 -1.5164
 5789SOL    HW229004   1.762   1.372   1.567 -1.1016  2.3599 -1.2525
 5790SOL     OW29005   3.297   3.718  12.474 -0.2520  0.6112  0.5589
 5790SOL    HW129006   3.334   3.701  12.387 -0.2389  2.2854  0.2318
 5790SOL    HW229007   3.347   3.799  12.484 -1.7119  1.2346  2.6197
 5791SOL     OW29008   3.006   1.388  14.969 -0.2088  0.4297  0.1028
 5791SOL    HW129009   3.091   1.412  15.005  0.8725 -1.6681 -1.0937
 5791SOL    HW229010   2.954   1.459  15.007 -2.6066 -0.4852 -1.4313
 5792SOL     OW29011   2.780   3.734   5.839  0.3147 -0.2410  0.0207
 5792SOL    HW129012   2.759   3.667   5.774 -0.1913 -0.3815  0.3350
 5792SOL    HW229013   2.872   3.707   5.846  0.2790 -0.8255 -1.7213
 5793SOL     OW29014   3.140   1.705   2.978  0.6982  0.1511  0.5604
 5793SOL    HW129015   3.202   1.761   3.024  0.8936  0.0221  0.4525
 5793SOL    HW229016   3.059   1.747   3.007  0.4101  0.6502 -0.9701
 5794SOL     OW29017   1.581   0.613   4.082  0.6099  0.0288  0.5247
 5794SOL    HW129018   1.546   0.700   4.062  0.2241 -0.3764 -0.5598
 5794SOL    HW229019   1.675   0.630   4.088  1.0876 -2.0398 -1.2559
 5795SOL     OW29020   2.075   1.014   4.528  0.1926 -0.7561  0.4399
 5795SOL    HW129021   2.056   1.099   4.568  1.6797  0.5053 -1.5291
 5795SOL    HW229022   2.147   1.040   4.471 -0.5925  0.2339 -0.1050
 5796SOL     OW29023   1.766   3.599   3.446  0.1252 -0.1216 -0.7141
 5796SOL    HW129024   1.711   3.621   3.371  2.3187 -0.7696 -2.5220
 5796SOL    HW229025   1.843   3.576   3.394  1.4681 -1.5645  1.8978
 5797SOL     OW29026   0.969   4.511   1.900  0.0644 -0.3203  0.0747
 5797SOL    HW129027   0.969   4.573   1.973  1.2272  1.8900 -1.8145
 5797SOL    HW229028   0.949   4.429   1.946 -0.0647 -1.5264 -2.0935
 5798SOL     OW29029   0.370   4.668  12.492  0.3531 -0.0393  0.8037
 5798SOL    HW129030   0.314   0.010  12.492 -1.1338 -1.0709 -2.8313
 5798SOL    HW229031   0.327   4.621  12.563  1.0809  0.1438  1.3515
 5799SOL     OW29032   0.077   4.011   7.741 -0.1812 -0.2520  0.0321
 5799SOL    HW129033   0.060   3.917   7.732  0.2838 -0.4930  1.5705
 5799SOL    HW229034   0.049   4.044   7.656 -0.2325 -1.0834 -0.2710
 5800SOL     OW29035   2.669   1.917   7.441 -0.0622 -0.6188  0.2264
 5800SOL    HW129036   2.575   1.920   7.424 -0.4499  1.0815  2.7097
 5800SOL    HW229037   2.675   1.822   7.429  1.2873 -0.5134  0.0407
 5801SOL     OW29038   3.145   0.886   7.696  0.6643 -0.4088  0.3412
 5801SOL    HW129039   3.148   0.930   7.612  0.3738  1.6777  1.4245
 5801SOL    HW229040   3.235   0.874   7.726  1.0621 -1.1631 -1.1511
 5802SOL     OW29041   3.299   2.081  16.106  0.4936  0.5201 -0.3784
 5802SOL    HW129042   3.330   1.994  16.080  1.4533  1.0160 -0.8967
 5802SOL    HW229043   3.381   2.119  16.138  0.9466 -1.0777  0.3756
 5803SOL     OW29044   1.747   1.504   7.216  0.0159  0.4136 -0.9617
 5803SOL    HW129045   1.724   1.432   7.158  1.8829 -1.0552  0.1123
 5803SOL    HW229046   1.662   1.532   7.252 -0.6066 -0.7155 -1.5438
 5804SOL     OW29047   1.934   3.797   4.786  0.1856 -0.3702 -0.0511
 5804SOL    HW129048   1.879   3.820   4.860  2.3095  0.1525  1.3572
 5804SOL    HW229049   1.877   3.753   4.722  0.6171 -0.2026 -0.5529
 5805SOL     OW29050   1.939   2.068   6.521  0.4025 -0.1062 -0.2761
 5805SOL    HW129051   2.035   2.058   6.521  0.6180  2.0979 -0.8034
 5805SOL    HW229052   1.934   2.151   6.568  1.4215 -0.1052 -0.1495
 5806SOL     OW29053   4.070   1.793  10.830  0.6162  0.2651  0.0896
 5806SOL    HW129054   4.120   1.842  10.895 -0.7920 -0.8868  2.0438
 5806SOL    HW229055   3.981   1.827  10.829  0.6896  0.4652  0.4572
 5807SOL     OW29056   1.166   1.041   5.984 -0.2110 -0.6340  0.2560
 5807SOL    HW129057   1.182   1.025   6.077  2.5563  0.3434 -0.0609
 5807SOL    HW229058   1.083   0.993   5.982 -0.1874 -0.7894  2.5841
 5808SOL     OW29059   0.428   1.389   3.689 -0.1294 -0.2766 -0.6690
 5808SOL    HW129060   0.351   1.403   3.634 -1.7664 -1.3427  1.3572
 5808SOL    HW229061   0.473   1.326   3.633  0.2921  0.0816 -0.7333
 5809SOL     OW29062   1.717   3.641  11.170 -0.5428 -0.1771  0.5918
 5809SOL    HW129063   1.766   3.600  11.098 -2.9007 -2.0342  0.0473
 5809SOL    HW229064   1.795   3.663  11.221 -0.9507 -0.6760  1.4315
 5810SOL     OW29065   3.223   2.506   6.596 -0.2519 -0.5012 -0.4869
 5810SOL    HW129066   3.252   2.598   6.591  0.4116 -0.7300 -0.9448
 5810SOL    HW229067   3.195   2.501   6.687  0.5570 -0.7509 -0.2458
 5811SOL     OW29068   0.526   0.967   1.888 -0.6502 -0.2809  0.4354
 5811SOL    HW129069   0.604   0.918   1.865 -0.6885 -0.0796 -0.1185
 5811SOL    HW229070   0.568   1.049   1.914 -0.9930 -0.0524  0.2757
 5812SOL     OW29071   2.757   3.885   3.708 -0.0506 -0.5862 -0.2168
 5812SOL    HW129072   2.807   3.805   3.724 -0.4984 -0.2227  2.9719
 5812SOL    HW229073   2.790   3.909   3.621  2.4260  1.7200  1.3666
 5813SOL     OW29074   0.813   4.140  11.956  0.1084 -0.5164  0.0343
 5813SOL    HW129075   0.734   4.108  12.000  0.2075 -1.0679 -0.1958
 5813SOL    HW229076   0.861   4.057  11.955 -2.3506 -1.9339  0.5053
 5814SOL     OW29077   4.666   0.347   2.389 -0.1597  0.4639 -0.4886
 5814SOL    HW129078   4.638   0.314   2.474  1.7772  1.6934  0.6277
 5814SOL    HW229079   4.647   0.441   2.391  2.1092  0.9440 -2.1013
 5815SOL     OW29080   1.660   2.452   6.991 -0.0244 -0.1223 -0.6163
 5815SOL    HW129081   1.706   2.536   6.999  0.8694 -0.6318 -0.3495
 5815SOL    HW229082   1.662   2.415   7.080 -0.4074  0.6253 -0.2949
 5816SOL     OW29083   3.788   3.486   7.278 -0.0275  0.8860 -0.0573
 5816SOL    HW129084   3.765   3.419   7.342 -1.0587 -1.4512 -2.8990
 5816SOL    HW229085   3.704   3.515   7.243 -0.6526  0.7785  1.3503
 5817SOL     OW29086   3.945   3.013   7.782 -0.1811  0.1874 -0.4311
 5817SOL    HW129087   3.882   2.993   7.712  0.6708 -0.1814 -1.0945
 5817SOL    HW229088   4.023   3.043   7.736 -1.5752  1.8729 -1.6753
 5818SOL     OW29089   1.305   4.437   9.144  0.4405 -0.0241 -0.1117
 5818SOL    HW129090   1.294   4.382   9.221  1.0085  0.1922  0.1253
 5818SOL    HW229091   1.370   4.377   9.107  2.4894  1.3458  1.2320
 5819SOL     OW29092   2.951   0.020   6.784  0.4414 -0.2903  0.4882
 5819SOL    HW129093   3.000   0.078   6.725 -2.4633  2.3139  0.6394
 5819SOL    HW229094   2.881   4.725   6.726  2.3993  0.4839 -2.2511
 5820SOL     OW29095   1.471   0.155   3.621 -0.7180  0.1237  1.4025
 5820SOL    HW129096   1.530   0.174   3.694 -0.2999  0.3235  1.0093
 5820SOL    HW229097   1.398   0.120   3.672 -0.9812 -1.5037 -0.0914
 5821SOL     OW29098   4.334   0.984   7.371  0.1747  0.0312 -0.0908
 5821SOL    HW129099   4.244   0.991   7.402 -0.8615 -0.6238 -2.9799
 5821SOL    HW229100   4.346   0.889   7.370 -1.0358 -0.1367  0.4984
 5822SOL     OW29101   1.538   0.049   9.405 -0.1133 -0.6213  0.2770
 5822SOL    HW129102   1.543   0.039   9.310  0.7547  0.4639  0.2082
 5822SOL    HW229103   1.519   0.141   9.422  0.7638 -0.3335 -0.3140
 5823SOL     OW29104   0.943   2.065   0.559  0.1944  0.0129 -0.1593
 5823SOL    HW129105   0.880   1.994   0.549 -1.6145  1.6507 -0.4887
 5823SOL    HW229106   1.020   2.022   0.523  0.8591  1.1204 -0.0733
 5824SOL     OW29107   1.929   4.347   8.928  0.3477  0.3093 -0.4602
 5824SOL    HW129108   1.845   4.334   8.883 -0.5197 -0.4393  1.4012
 5824SOL    HW229109   1.968   4.260   8.932 -1.3805 -0.3407  2.6359
 5825SOL     OW29110   3.937   2.802   0.759  0.0968 -0.3562  0.5519
 5825SOL    HW129111   3.866   2.746   0.790 -1.6704  0.8694 -1.2067
 5825SOL    HW229112   3.888   2.884   0.766 -2.0973 -1.5557 -0.6140
 5826SOL     OW29113   1.358   2.117   1.382  0.2327 -0.0217  0.2361
 5826SOL    HW129114   1.438   2.136   1.333  0.1407  0.0423  0.1111
 5826SOL    HW229115   1.306   2.197   1.387 -0.5251 -0.4802 -0.4083
 5827SOL     OW29116   3.194   4.486  12.684  0.4874  0.8004 -0.3061
 5827SOL    HW129117   3.193   4.394  12.657  0.5796  0.9412 -0.7773
 5827SOL    HW229118   3.204   4.526  12.598  3.0495 -0.3566 -0.5488
 5828SOL     OW29119   3.363   2.971   9.563  0.0445 -0.1920  0.3092
 5828SOL    HW129120   3.365   2.880   9.532  1.1212  0.1531 -0.6330
 5828SOL    HW229121   3.269   2.986   9.575 -0.4224 -0.5978 -2.6905
 5829SOL     OW29122   2.741   2.519  14.351  0.7286 -0.0015 -0.0124
 5829SOL    HW129123   2.760   2.480  14.265 -2.6403  0.0403 -0.7798
 5829SOL    HW229124   2.772   2.610  14.352 -2.3973  1.0653 -1.4093
 5830SOL     OW29125   1.807   1.390   9.304  0.7688  0.1498 -0.1808
 5830SOL    HW129126   1.756   1.390   9.223  2.0983  0.2049 -1.0166
 5830SOL    HW229127   1.739   1.443   9.345  1.2548  0.4780  0.2097
 5831SOL     OW29128   0.134   1.669   6.510 -0.0243  0.5796  0.3398
 5831SOL    HW129129   0.060   1.623   6.471 -1.2214  3.1275 -0.3667
 5831SOL    HW229130   0.162   1.726   6.439 -0.1640  2.0624  1.4704
 5832SOL     OW29131   3.943   0.396   6.843 -0.8268  0.3792  0.0179
 5832SOL    HW129132   3.907   0.473   6.889 -0.1058 -1.3222  3.4404
 5832SOL    HW229133   3.921   0.416   6.752 -2.6389 -0.7960  0.2045
 5833SOL     OW29134   2.056   4.025   9.173 -0.9261 -0.4523 -0.7935
 5833SOL    HW129135   2.108   3.945   9.170  1.0933  0.7487  2.5656
 5833SOL    HW229136   2.078   4.059   9.260 -4.7643 -0.3895  0.1591
 5834SOL     OW29137   0.399   4.678  13.019  0.5508 -0.3642 -0.0487
 5834SOL    HW129138   0.451   4.730  12.958  1.7681 -1.6315 -0.0794
 5834SOL    HW229139   0.460   4.665  13.092  0.2972  1.8020  0.5620
 5835SOL     OW29140   0.153   4.115   0.913 -0.1049 -0.6890 -0.5077
 5835SOL    HW129141   0.205   4.035   0.904 -1.5049 -1.7763  1.0191
 5835SOL    HW229142   0.065   4.081   0.897 -0.5120  0.0256  0.2328
 5836SOL     OW29143   2.646   1.698   7.296  0.4936 -0.3935  0.3049
 5836SOL    HW129144   2.714   1.634   7.277 -0.4007 -1.2542  0.0062
 5836SOL    HW229145   2.617   1.727   7.210  1.2050  0.3427  0.3161
 5837SOL     OW29146   4.377   0.449   2.793 -0.1156  0.7457  0.2188
 5837SOL    HW129147   4.394   0.454   2.887  0.2601 -0.8056  0.2288
 5837SOL    HW229148   4.462   0.408   2.778  0.0358  1.6817 -1.5379
 5838SOL     OW29149   2.849   3.918   8.354  0.2343  0.3303 -0.1938
 5838SOL    HW129150   2.819   3.978   8.423 -0.8294  0.1343 -0.5046
 5838SOL    HW229151   2.811   3.971   8.285 -1.4181  1.0920  1.2963
 5839SOL     OW29152   3.946   3.868   9.181  0.3526  0.4324  1.2440
 5839SOL    HW129153   3.866   3.837   9.140  1.4939 -1.0974  0.1947
 5839SOL    HW229154   3.978   3.928   9.113 -0.6494  1.7613  1.9322
 5840SOL     OW29155   2.523   0.593   1.441 -0.3219 -0.2355 -0.5578
 5840SOL    HW129156   2.502   0.584   1.534  1.1354 -0.3571 -0.2249
 5840SOL    HW229157   2.590   0.662   1.446  0.9963 -1.4725 -1.2008
 5841SOL     OW29158   1.587   3.558   6.503 -0.3956 -0.3128  0.7390
 5841SOL    HW129159   1.560   3.648   6.525  1.1171  0.7095 -1.6006
 5841SOL    HW229160   1.542   3.508   6.571  0.7192 -0.4129  1.3926
 5842SOL     OW29161   4.051   1.595   8.361 -0.1865 -0.1451  0.1390
 5842SOL    HW129162   4.049   1.609   8.455  3.7569 -0.9078  0.3240
 5842SOL    HW229163   4.074   1.682   8.330  0.7289 -0.6184 -0.5179
 5843SOL     OW29164   4.227   1.091  17.650  0.4391 -0.0267  0.3809
 5843SOL    HW129165   4.281   1.119  17.724 -0.7992  0.0049  1.2718
 5843SOL    HW229166   4.164   1.161  17.632 -2.3672 -2.6055  0.2260
 5844SOL     OW29167   0.383   3.060   3.191  0.2374 -0.3395 -0.0937
 5844SOL    HW129168   0.361   3.141   3.237  2.0207 -0.9969  1.8801
 5844SOL    HW229169   0.347   3.079   3.104  3.5510  0.7797 -1.2342
 5845SOL     OW29170   1.284   2.356  12.128  0.0390 -0.0355 -0.2032
 5845SOL    HW129171   1.234   2.410  12.188 -0.1003  1.9404 -2.0997
 5845SOL    HW229172   1.375   2.379  12.146  0.2509  0.0716 -1.3879
 5846SOL     OW29173   1.117   3.187  10.136  0.9345  0.1496 -0.1234
 5846SOL    HW129174   1.069   3.130  10.196  0.0358  0.4363 -0.5685
 5846SOL    HW229175   1.207   3.177  10.165  1.9760  1.7527 -2.8408
 5847SOL     OW29176   3.940   4.370  17.301 -0.1769 -0.5176  0.4721
 5847SOL    HW129177   3.869   4.307  17.310 -0.7430  0.2614  1.4583
 5847SOL    HW229178   3.956   4.364  17.206 -0.3770 -1.8392  0.5301
 5848SOL     OW29179   4.557   2.245  12.363  0.0089  0.0285 -0.7502
 5848SOL    HW129180   4.501   2.219  12.436 -0.5685 -1.0416 -1.5782
 5848SOL    HW229181   4.636   2.194  12.380  0.0929  0.4181 -0.0063
 5849SOL     OW29182   4.186   2.227  11.218 -0.6029  0.3563 -0.3158
 5849SOL    HW129183   4.241   2.303  11.240  1.6272 -0.4824 -2.9208
 5849SOL    HW229184   4.222   2.152  11.266 -1.1736 -1.3715 -2.6294
 5850SOL     OW29185   0.698   4.642   5.081 -0.3548  0.0002 -0.3265
 5850SOL    HW129186   0.785   4.611   5.055 -0.6645  0.7072 -2.2497
 5850SOL    HW229187   0.697   4.717   5.021 -1.5228 -0.9759 -1.5389
 5851SOL     OW29188   3.502   4.684  12.212 -0.0340 -0.2789  0.4082
 5851SOL    HW129189   3.427   4.730  12.252  0.0801  0.0322  0.2641
 5851SOL    HW229190   3.524   4.604  12.260 -2.7432 -0.5838  1.1618
 5852SOL     OW29191   0.703   3.074   8.570  0.1626 -0.0353 -0.1883
 5852SOL    HW129192   0.704   3.110   8.659  2.0063 -0.2701 -0.1120
 5852SOL    HW229193   0.609   3.076   8.557  0.4252 -1.5066 -2.3573
 5853SOL     OW29194   4.339   0.516   2.469 -0.1021 -0.5372  0.0810
 5853SOL    HW129195   4.406   0.559   2.522  2.4385 -0.0947 -3.4840
 5853SOL    HW229196   4.317   0.568   2.391 -2.5316  0.5837  1.5208
 5854SOL     OW29197   0.609   0.069  12.555  0.0400  0.0747 -0.1212
 5854SOL    HW129198   0.659   4.726  12.534 -0.6613 -0.1835 -0.8229
 5854SOL    HW229199   0.518   0.041  12.544 -0.3675  1.0664  0.6840
 5855SOL     OW29200   1.864   4.233   0.319  0.2788 -0.1160  0.1912
 5855SOL    HW129201   1.809   4.218   0.396  0.0378  0.8971  0.2191
 5855SOL    HW229202   1.949   4.237   0.362  0.0002  0.0865  0.7323
 5856SOL     OW29203   1.468   0.192   2.989 -0.8551  0.7413  0.3734
 5856SOL    HW129204   1.420   0.121   2.946 -0.8320  1.0292 -0.1171
 5856SOL    HW229205   1.461   0.253   2.916 -2.4091  1.0369  0.7634
 5857SOL     OW29206   1.527   2.202   8.367 -0.4477  0.0430  0.1761
 5857SOL    HW129207   1.529   2.294   8.340 -0.3831 -0.6224 -2.1497
 5857SOL    HW229208   1.580   2.195   8.447 -0.5592 -1.2222  0.1370
 5858SOL     OW29209   0.355   1.148   7.424 -0.1557 -0.5045 -0.6673
 5858SOL    HW129210   0.339   1.054   7.431  0.5089 -0.4749  1.0698
 5858SOL    HW229211   0.266   1.181   7.428  0.5417  1.7382 -3.0206
 5859SOL     OW29212   3.416   2.802   8.750  0.4258  0.2866 -0.0455
 5859SOL    HW129213   3.480   2.804   8.679  0.4951 -1.4651 -0.0229
 5859SOL    HW229214   3.382   2.890   8.732  0.3413  0.3957  0.6501
 5860SOL     OW29215   0.660   0.417   8.958 -0.0091  0.1984  0.0684
 5860SOL    HW129216   0.748   0.429   8.993  1.0887 -2.1878 -1.8809
 5860SOL    HW229217   0.649   0.504   8.919  1.5093  0.7705  0.9317
 5861SOL     OW29218   0.271   2.412   5.487  0.4358  0.7464  0.2019
 5861SOL    HW129219   0.248   2.320   5.478  0.5240  0.8367 -0.9300
 5861SOL    HW229220   0.276   2.434   5.394  3.7758 -0.4452  0.1165
 5862SOL     OW29221   0.976   2.146   3.375 -0.6371 -0.2101  0.4083
 5862SOL    HW129222   0.955   2.228   3.330 -1.2588  1.0038  2.9273
 5862SOL    HW229223   0.997   2.087   3.302  0.3938 -0.6162  1.0444
 5863SOL     OW29224   2.762   3.287   7.810  0.2613 -0.4485  0.2696
 5863SOL    HW129225   2.738   3.373   7.844 -0.5521 -0.5301 -0.0856
 5863SOL    HW229226   2.785   3.315   7.721  0.6617 -2.9309 -0.4038
 5864SOL     OW29227   2.343   4.683   9.064  0.4535  0.6262 -0.1090
 5864SOL    HW129228   2.309   0.002   8.993 -0.1329  0.7132  0.2428
 5864SOL    HW229229   2.274   4.618   9.055 -0.0878  1.3639 -1.2339
 5865SOL     OW29230   4.418   4.175   9.722  1.6074  0.5799  0.3376
 5865SOL    HW129231   4.513   4.179   9.730  1.4614 -0.3178  2.4633
 5865SOL    HW229232   4.399   4.156   9.814  0.2435  3.0453  0.5666
 5866SOL     OW29233   1.475   3.418   2.668  0.3255 -0.2026 -0.1891
 5866SOL    HW129234   1.453   3.326   2.653  1.1840 -0.4994  0.3352
 5866SOL    HW229235   1.424   3.454   2.596  0.5106  1.1249  0.3481
 5867SOL     OW29236   2.115   3.093   5.229  0.3068  0.1370  0.1327
 5867SOL    HW129237   2.078   3.014   5.270  1.2127  0.8357  2.2904
 5867SOL    HW229238   2.176   3.117   5.298 -1.9366  3.8599  0.7968
 5868SOL     OW29239   0.010   1.711  13.690 -0.3254 -0.3158 -0.1943
 5868SOL    HW129240   0.013   1.688  13.782 -0.5276 -1.4622 -0.4720
 5868SOL    HW229241   4.665   1.764  13.691  0.3436  0.6142  3.2182
 5869SOL     OW29242   3.234   1.955   9.275  0.3963 -0.0330 -0.2199
 5869SOL    HW129243   3.224   1.963   9.370 -0.3141 -0.3859 -0.2591
 5869SOL    HW229244   3.312   2.006   9.255  0.5861  0.2644  1.3565
 5870SOL     OW29245   2.907   2.195   7.178  0.1494  0.1560  0.4599
 5870SOL    HW129246   2.890   2.144   7.099 -1.7689  1.5209 -0.0188
 5870SOL    HW229247   2.821   2.181   7.218 -0.4559 -0.2120 -0.9686
 5871SOL     OW29248   2.040   1.860   4.773 -0.3796  0.1641  0.5342
 5871SOL    HW129249   1.947   1.871   4.749 -0.3031 -1.4864 -0.4901
 5871SOL    HW229250   2.072   1.805   4.701  0.4002  1.5310 -0.1596
 5872SOL     OW29251   0.032   2.334   8.881 -0.0395 -0.0447  0.4058
 5872SOL    HW129252   4.705   2.395   8.841  0.2834 -0.0313 -0.0750
 5872SOL    HW229253   4.702   2.297   8.940 -1.5108 -0.4264 -1.4743
 5873SOL     OW29254   3.662   2.315   3.135  0.0069  0.1308  0.8921
 5873SOL    HW129255   3.695   2.387   3.188 -1.2979 -0.5388  2.5968
 5873SOL    HW229256   3.578   2.329   3.179 -1.5456 -2.2441 -1.2798
 5874SOL     OW29257   2.210   2.754   4.148 -0.3503 -0.6096 -0.3340
 5874SOL    HW129258   2.266   2.805   4.089  1.6448 -2.2208  0.1623
 5874SOL    HW229259   2.278   2.732   4.211 -1.6966 -1.3345  0.8614
 5875SOL     OW29260   0.661   4.208   5.579 -0.5310 -0.5162  0.2407
 5875SOL    HW129261   0.688   4.265   5.651  3.4354  0.5055 -2.0150
 5875SOL    HW229262   0.646   4.131   5.633  1.9894 -0.5018  0.9796
 5876SOL     OW29263   2.141   0.002   8.456 -0.1116  0.0976 -0.0428
 5876SOL    HW129264   2.083   0.040   8.522 -1.2922 -2.7697  0.5578
 5876SOL    HW229265   2.116   4.645   8.457  0.3201  0.0145  1.7883
 5877SOL     OW29266   2.033   4.165   2.747 -0.3159 -0.2378  0.0101
 5877SOL    HW129267   2.099   4.141   2.812 -0.5073 -1.8578 -0.3987
 5877SOL    HW229268   1.994   4.240   2.792  1.3466 -1.3382  3.3327
 5878SOL     OW29269   0.025   4.566   2.984  0.0263  0.3549  0.0407
 5878SOL    HW129270   0.026   4.474   3.009  0.1646  0.8465  1.8887
 5878SOL    HW229271   0.117   4.591   2.997  0.1344  0.6267 -1.2553
 5879SOL     OW29272   3.444   1.585  16.726 -0.6427  0.2023  0.3504
 5879SOL    HW129273   3.425   1.602  16.818 -1.4605 -0.8144  0.3691
 5879SOL    HW229274   3.395   1.506  16.703 -2.3887  1.4280 -0.1294
 5880SOL     OW29275   2.374   0.144   6.461  0.5257  0.4117 -0.1394
 5880SOL    HW129276   2.373   0.207   6.388 -0.9514  1.3305  0.6593
 5880SOL    HW229277   2.280   0.123   6.466  0.7178 -0.1521  1.2065
 5881SOL     OW29278   3.886   2.686  11.351  0.0897  0.7196  0.0438
 5881SOL    HW129279   3.801   2.657  11.382 -0.1783  1.0118 -0.4321
 5881SOL    HW229280   3.908   2.738  11.429 -0.1942  1.0572 -0.1030
 5882SOL     OW29281   2.268   2.568   7.252 -0.0174 -0.1003  0.0999
 5882SOL    HW129282   2.281   2.518   7.333 -0.4774  0.0647  0.2752
 5882SOL    HW229283   2.355   2.602   7.231 -0.7508  1.5251 -0.3147
 5883SOL     OW29284   2.175   0.483   7.036  0.6109  0.5077 -0.2138
 5883SOL    HW129285   2.258   0.516   7.001  0.9070 -1.0610 -1.0264
 5883SOL    HW229286   2.146   0.432   6.960  2.2721 -0.5206 -0.1744
 5884SOL     OW29287   3.335   3.332   6.803  0.0784  0.1949  0.0742
 5884SOL    HW129288   3.291   3.411   6.771 -3.4442 -0.9941  1.9234
 5884SOL    HW229289   3.369   3.362   6.887 -1.0282 -0.9260  0.9262
 5885SOL     OW29290   3.035   0.697   2.267  0.0732 -0.1728 -0.0762
 5885SOL    HW129291   3.036   0.789   2.295 -2.3223 -0.2910  0.4210
 5885SOL    HW229292   2.957   0.653   2.302  0.3554  0.6097  1.5254
 5886SOL     OW29293   3.193   1.441  15.132 -0.2621  0.1160 -0.2269
 5886SOL    HW129294   3.280   1.429  15.171 -1.1457 -2.2796  1.0857
 5886SOL    HW229295   3.129   1.399  15.191 -0.5805  1.2426  0.2422
 5887SOL     OW29296   1.441   0.884   4.828  0.3501 -0.1168 -0.1112
 5887SOL    HW129297   1.440   0.788   4.821  0.1203 -0.1631  0.5427
 5887SOL    HW229298   1.505   0.895   4.758  0.5548 -1.4700 -0.1477
 5888SOL     OW29299   3.021   1.665   1.092 -0.1090 -0.2333 -0.5466
 5888SOL    HW129300   2.949   1.663   1.155 -0.2266 -1.9159 -0.7159
 5888SOL    HW229301   3.100   1.701   1.133 -1.9243  2.8125  0.2519
 5889SOL     OW29302   2.947   1.542   4.259 -0.2697 -0.1855 -0.0336
 5889SOL    HW129303   3.025   1.520   4.207 -2.8834 -1.1238 -3.5630
 5889SOL    HW229304   2.994   1.531   4.342  0.3470  0.9447 -0.2217
 5890SOL     OW29305   1.126   0.745   4.380 -0.0770  0.4210  0.3665
 5890SOL    HW129306   1.077   0.724   4.459 -1.0545 -0.0400 -0.3702
 5890SOL    HW229307   1.175   0.664   4.390  1.8044  1.1112 -3.3322
 5891SOL     OW29308   0.289   2.144   6.171  0.0281  0.3954 -0.2970
 5891SOL    HW129309   0.206   2.099   6.152 -0.1668  0.8144 -0.4265
 5891SOL    HW229310   0.276   2.235   6.145 -0.1127  1.1328  2.3333
 5892SOL     OW29311   0.528   1.923   5.409  0.2303 -0.3385 -0.6356
 5892SOL    HW129312   0.573   1.844   5.438  2.5026  2.6262  3.9760
 5892SOL    HW229313   0.545   1.921   5.315 -0.1422 -1.2729 -0.6848
 5893SOL     OW29314   3.048   1.069   4.325  0.4131  0.0004 -0.6988
 5893SOL    HW129315   3.057   1.011   4.401 -2.4313  0.1531 -0.2491
 5893SOL    HW229316   2.955   1.057   4.306  0.5420 -1.1664 -0.5566
 5894SOL     OW29317   1.294   1.808  12.673 -0.0025 -0.3042 -1.0657
 5894SOL    HW129318   1.362   1.851  12.725 -0.2721 -1.5215  0.2799
 5894SOL    HW229319   1.354   1.749  12.626 -0.1077 -0.7569 -0.6254
 5895SOL     OW29320   3.634   2.825   6.141 -0.4134 -0.6382 -0.2106
 5895SOL    HW129321   3.671   2.820   6.229 -0.4328  2.1199 -0.0283
 5895SOL    HW229322   3.669   2.745   6.103 -1.9916 -1.5580  0.2455
 5896SOL     OW29323   2.417   3.544   7.753  0.7493  0.0126 -0.2210
 5896SOL    HW129324   2.477   3.535   7.680  0.2002  1.0096 -0.7886
 5896SOL    HW229325   2.413   3.455   7.787 -0.9654 -0.3679 -1.4391
 5897SOL     OW29326   4.272   0.213   3.236 -0.0578 -1.1721  0.1800
 5897SOL    HW129327   4.343   0.160   3.200  0.5779 -0.2941  0.1291
 5897SOL    HW229328   4.274   0.283   3.170 -0.8025 -0.6501  0.7109
 5898SOL     OW29329   0.759   1.514   8.479  0.0510 -0.2470  0.6114
 5898SOL    HW129330   0.699   1.576   8.438  3.0162  2.6320  0.6292
 5898SOL    HW229331   0.837   1.562   8.451 -0.6344 -0.4538 -1.5991
 5899SOL     OW29332   4.240   0.462  12.559 -0.0356 -0.1928  0.4733
 5899SOL    HW129333   4.218   0.371  12.539  1.6646 -0.5521  0.2690
 5899SOL    HW229334   4.222   0.493  12.470 -0.4639 -4.3250 -0.8652
 5900SOL     OW29335   0.305   4.154   5.586  0.5931 -0.4351 -0.0472
 5900SOL    HW129336   0.362   4.121   5.516  2.4176  0.5871  0.9754
 5900SOL    HW229337   0.348   4.224   5.634  1.5075 -1.7928  1.0893
 5901SOL     OW29338   0.585   1.046   6.296 -1.1011  0.1866  0.1092
 5901SOL    HW129339   0.540   1.085   6.371  0.0965  1.3104  0.2482
 5901SOL    HW229340   0.512   1.033   6.236 -0.6116  0.8819 -0.6409
 5902SOL     OW29341   0.144   3.898   1.299  0.0673  0.3806  0.2255
 5902SOL    HW129342   0.137   3.879   1.393 -1.2799 -1.8405 -0.3363
 5902SOL    HW229343   0.177   3.987   1.311 -0.1662  0.2755  1.6187
 5903SOL     OW29344   0.314   0.280   0.615 -0.0748 -0.2471  0.0302
 5903SOL    HW129345   0.348   0.193   0.635  0.4633 -0.2601 -0.9585
 5903SOL    HW229346   0.334   0.296   0.524  4.0415  3.3060  1.6100
 5904SOL     OW29347   4.332   1.684  16.855  0.0078 -0.4509  0.3510
 5904SOL    HW129348   4.374   1.770  16.851 -0.7762 -0.1011 -0.3099
 5904SOL    HW229349   4.286   1.687  16.771  1.0241 -1.0805 -0.2311
 5905SOL     OW29350   2.736   3.039  14.854  0.2718 -0.5443  0.3885
 5905SOL    HW129351   2.792   3.077  14.786  0.4865 -3.2343 -0.9482
 5905SOL    HW229352   2.740   2.946  14.833  0.6819 -0.3014 -0.6382
 5906SOL     OW29353   2.739   2.753   7.467  0.1529  0.8913  0.0714
 5906SOL    HW129354   2.803   2.708   7.522 -1.3759 -0.3581  0.8650
 5906SOL    HW229355   2.665   2.756   7.528  1.0391  0.0733  1.1890
 5907SOL     OW29356   4.624   1.546   2.714 -0.0667 -0.4466 -0.4810
 5907SOL    HW129357   4.581   1.598   2.646  1.8515  0.3445 -1.0969
 5907SOL    HW229358   4.631   1.462   2.668 -0.8595 -1.3189  0.9998
 5908SOL     OW29359   4.683   2.318   6.561  0.6476 -0.2729  0.4742
 5908SOL    HW129360   4.632   2.359   6.492 -1.2116 -1.8104  0.9219
 5908SOL    HW229361   4.708   2.398   6.608  0.5351  0.0364  0.0042
 5909SOL     OW29362   4.055   3.051  15.088 -0.4450 -0.4204 -0.4720
 5909SOL    HW129363   4.032   2.960  15.070  1.4496 -1.0825  0.4517
 5909SOL    HW229364   4.102   3.067  15.005 -1.7126  2.1106 -0.7195
 5910SOL     OW29365   4.260   3.421   1.800  0.6905  0.0497  0.5039
 5910SOL    HW129366   4.251   3.472   1.720 -1.1432 -2.1818 -0.6910
 5910SOL    HW229367   4.171   3.399   1.829  0.5489  0.9528  0.7456
 5911SOL     OW29368   4.541   3.475   4.997  0.0413  0.1959  1.1338
 5911SOL    HW129369   4.527   3.542   4.931  0.2535  0.6777  1.5723
 5911SOL    HW229370   4.479   3.513   5.059 -0.4844  0.6792  0.3023
 5912SOL     OW29371   1.927   3.869   6.649 -0.1064  0.2768  0.5739
 5912SOL    HW129372   1.900   3.934   6.585  2.0733  2.6905  2.0696
 5912SOL    HW229373   1.844   3.840   6.686  0.4427 -0.8906  0.9034
 5913SOL     OW29374   2.288   2.370  15.469 -0.0282  0.4649  0.2275
 5913SOL    HW129375   2.275   2.316  15.392  0.0529  0.3242  0.3120
 5913SOL    HW229376   2.314   2.438  15.408 -0.2579  1.6751  1.4772
 5914SOL     OW29377   1.733   0.854   9.108  0.1634  0.1109  0.2794
 5914SOL    HW129378   1.730   0.759   9.120  0.8451  0.1718  0.9094
 5914SOL    HW229379   1.745   0.890   9.196 -0.9463  0.6107  0.2308
 5915SOL     OW29380   2.875   4.316   5.312  0.2715  0.2249 -0.0510
 5915SOL    HW129381   2.896   4.289   5.402 -1.7935  1.3996  0.7917
 5915SOL    HW229382   2.780   4.312   5.305  0.1656 -0.0518  1.5215
 5916SOL     OW29383   2.036   2.703  14.496 -0.1856  0.2842  0.1188
 5916SOL    HW129384   2.028   2.637  14.566 -0.7639 -1.3956 -1.5225
 5916SOL    HW229385   2.030   2.780  14.553  2.3252  0.5958 -0.0563
 5917SOL     OW29386   1.080   1.456   2.565  0.5453  0.2847 -0.2307
 5917SOL    HW129387   1.040   1.441   2.479 -0.6689 -0.2691  0.4241
 5917SOL    HW229388   1.029   1.397   2.620  2.9486 -2.0287 -0.5144
 5918SOL     OW29389   2.197   3.654  14.949  0.1086 -0.0313  0.4100
 5918SOL    HW129390   2.133   3.706  14.998 -0.4995  1.3963 -1.9488
 5918SOL    HW229391   2.148   3.572  14.942  0.9175 -0.3434 -1.3887
 5919SOL     OW29392   4.347   3.870  16.137  0.3018 -0.0238  0.5212
 5919SOL    HW129393   4.389   3.864  16.223  1.4567  1.6014  0.0808
 5919SOL    HW229394   4.298   3.788  16.135 -0.6257  0.4987  1.8194
 5920SOL     OW29395   4.513   3.850   6.304  0.3468 -0.6026  0.4080
 5920SOL    HW129396   4.597   3.890   6.280 -0.4715  2.0988  1.9976
 5920SOL    HW229397   4.550   3.793   6.372  1.4855  0.2004  0.4467
 5921SOL     OW29398   0.036   3.878   4.235  0.3606 -0.6391 -0.0615
 5921SOL    HW129399   0.076   3.943   4.293  0.4307 -0.6049 -0.1483
 5921SOL    HW229400   4.721   3.943   4.186  0.7367 -0.3599 -0.0785
 5922SOL     OW29401   0.106   3.478  15.108  0.3850  0.0198  0.2193
 5922SOL    HW129402   0.071   3.417  15.172  1.9959 -0.1685  0.9009
 5922SOL    HW229403   0.173   3.533  15.149 -0.1031  0.8081 -0.0270
 5923SOL     OW29404   3.786   3.828   1.527  0.1877 -0.5192  0.4600
 5923SOL    HW129405   3.842   3.848   1.602  0.4038 -1.6702  0.6055
 5923SOL    HW229406   3.828   3.748   1.494  1.1608 -0.1283  0.7497
 5924SOL     OW29407   2.365   1.833   3.594 -0.4149  0.3919  0.4163
 5924SOL    HW129408   2.446   1.840   3.544 -0.2466 -0.6855  0.5413
 5924SOL    HW229409   2.311   1.902   3.556  0.7838  0.8692 -0.4363
 5925SOL     OW29410   1.577   1.133   1.536 -0.2637 -0.1360  0.8005
 5925SOL    HW129411   1.489   1.142   1.570  0.7414  1.6462  2.8909
 5925SOL    HW229412   1.633   1.193   1.584 -0.7265 -0.1648  1.3708
 5926SOL     OW29413   0.252   0.367   5.955 -0.4487 -0.6704 -0.6546
 5926SOL    HW129414   0.248   0.272   5.944  0.4608 -0.5244 -2.2239
 5926SOL    HW229415   0.250   0.382   6.050 -2.7515 -2.1217 -0.4748
 5927SOL     OW29416   3.127   1.622   4.726 -0.5804 -0.4582 -0.3787
 5927SOL    HW129417   3.076   1.627   4.807 -0.7555  0.2441 -0.5278
 5927SOL    HW229418   3.179   1.702   4.714 -1.1038 -0.1688 -0.7134
 5928SOL     OW29419   1.670   4.223   8.840  0.1685 -0.2290  0.4947
 5928SOL    HW129420   1.581   4.250   8.817  1.0694 -1.2612 -4.2448
 5928SOL    HW229421   1.647   4.135   8.871  2.0692 -0.9824 -0.2269
 5929SOL     OW29422   0.751   2.884   8.036  0.3751  0.0035 -0.0939
 5929SOL    HW129423   0.768   2.870   8.129 -1.7543  1.6459  0.5272
 5929SOL    HW229424   0.669   2.836   8.022  0.0686  0.2524  0.8593
 5930SOL     OW29425   0.512   1.748  11.518  0.7613 -0.0440  0.1606
 5930SOL    HW129426   0.593   1.697  11.524  0.3531 -0.8653 -1.2811
 5930SOL    HW229427   0.517   1.797  11.600  2.6977  1.3343 -0.7732
 5931SOL     OW29428   0.531   3.371   9.078  0.3675  0.8380  0.7975
 5931SOL    HW129429   0.479   3.451   9.085 -1.1029  0.0711 -1.5060
 5931SOL    HW229430   0.464   3.316   9.037  0.0145  1.7334  0.1769
 5932SOL     OW29431   3.503   1.365  16.995 -0.4244 -0.1155  0.1539
 5932SOL    HW129432   3.585   1.332  16.958 -1.2480 -1.2724 -0.6445
 5932SOL    HW229433   3.455   1.282  16.996  0.1198 -0.4090  1.4560
 5933SOL     OW29434   3.647   0.027   2.124 -0.0967 -0.2686 -0.0836
 5933SOL    HW129435   3.647   4.703   2.199 -0.4595  1.5029  1.3081
 5933SOL    HW229436   3.738   0.026   2.094  0.0587 -0.9585  0.4031
 5934SOL     OW29437   1.635   4.411   5.425 -0.3570 -0.6532  0.2425
 5934SOL    HW129438   1.637   4.449   5.337  1.8091  1.9240  1.4021
 5934SOL    HW229439   1.557   4.356   5.430  1.4088 -3.1936 -0.2442
 5935SOL     OW29440   4.251   2.636   6.037  0.1077  0.1164  0.3126
 5935SOL    HW129441   4.177   2.608   5.983 -0.2905  0.2552  0.7860
 5935SOL    HW229442   4.312   2.576   5.995 -1.6635 -1.7295  0.3761
 5936SOL     OW29443   4.704   0.385   5.738 -0.2287  0.4089  0.2899
 5936SOL    HW129444   0.016   0.321   5.684 -0.2568  0.5567  0.0916
 5936SOL    HW229445   0.039   0.373   5.803 -0.7427  2.7560  1.2579
 5937SOL     OW29446   2.670   0.476   6.459 -0.1546  0.1204 -0.0335
 5937SOL    HW129447   2.715   0.543   6.510 -2.1594  1.3217  0.1487
 5937SOL    HW229448   2.651   0.405   6.520 -2.6530 -0.3483 -1.3533
 5938SOL     OW29449   1.495   3.901   1.918 -0.2696 -0.0148 -0.4105
 5938SOL    HW129450   1.443   3.923   1.841 -0.8529  1.6061  0.4532
 5938SOL    HW229451   1.454   3.960   1.981  0.7753  1.7502 -1.3771
 5939SOL     OW29452   1.157   3.728   8.307  1.0159  0.0962 -0.6144
 5939SOL    HW129453   1.114   3.748   8.223  0.2508  0.6943 -0.0792
 5939SOL    HW229454   1.104   3.654   8.334  2.3173 -0.1563  1.2218
 5940SOL     OW29455   1.756   1.938   0.434 -0.2876 -0.1784 -0.3267
 5940SOL    HW129456   1.691   1.884   0.390  0.4692  1.3458 -3.3207
 5940SOL    HW229457   1.705   2.016   0.457 -0.4683 -0.4211  0.0823
 5941SOL     OW29458   2.525   3.386   0.102  0.4490  0.2095 -0.0177
 5941SOL    HW129459   2.547   3.394   0.194 -2.3811 -0.5431  0.7163
 5941SOL    HW229460   2.488   3.298   0.088  1.5092 -0.4654  1.4526
 5942SOL     OW29461   3.471   1.203  12.852 -0.0079 -0.1921  0.6697
 5942SOL    HW129462   3.463   1.189  12.947 -0.6789  0.9570  0.7838
 5942SOL    HW229463   3.463   1.111  12.828 -1.5315 -0.1071  0.8346
 5943SOL     OW29464   4.493   4.175   7.661  0.1454 -0.0624 -0.0267
 5943SOL    HW129465   4.511   4.223   7.581  1.7952 -0.3685  0.1458
 5943SOL    HW229466   4.576   4.162   7.708  1.4490  2.6788 -1.5859
 5944SOL     OW29467   1.606   0.387   4.828  0.4511 -0.1190  0.2748
 5944SOL    HW129468   1.524   0.349   4.857 -0.4510  0.6429 -1.2806
 5944SOL    HW229469   1.623   0.336   4.749 -4.2682  1.1615 -1.5466
 5945SOL     OW29470   2.337   1.642   5.258 -0.1621 -0.2843  0.3426
 5945SOL    HW129471   2.413   1.642   5.315  0.3274  0.0553 -0.3138
 5945SOL    HW229472   2.299   1.726   5.285 -1.7786 -0.9718  0.1951
 5946SOL     OW29473   1.219   0.041   7.907 -0.0169  0.5630 -0.5070
 5946SOL    HW129474   1.179   0.069   7.989  0.7454 -2.6596  0.9632
 5946SOL    HW229475   1.181   0.105   7.847 -2.8498  0.1074  0.7968
 5947SOL     OW29476   3.211   0.432   3.315 -0.1045  1.0849  0.3255
 5947SOL    HW129477   3.135   0.489   3.303 -0.4278  0.3537 -1.1095
 5947SOL    HW229478   3.168   0.359   3.271  1.1744  0.4752  0.0800
 5948SOL     OW29479   4.520   4.581  17.661  0.0397  0.4904  0.3945
 5948SOL    HW129480   4.455   4.596  17.592 -0.0498 -1.1916  0.1109
 5948SOL    HW229481   4.498   4.659  17.712 -0.8657  0.4391  0.0761
 5949SOL     OW29482   0.663   1.939   0.269 -0.4185 -0.0671 -0.0398
 5949SOL    HW129483   0.707   2.000   0.210 -1.2648  0.8111  0.2520
 5949SOL    HW229484   0.679   1.976   0.356  0.8788 -0.5471 -0.0630
 5950SOL     OW29485   0.606   2.601   2.105  0.1698 -0.3181  0.0833
 5950SOL    HW129486   0.578   2.557   2.186 -0.6918 -0.7091 -0.4193
 5950SOL    HW229487   0.701   2.601   2.119  0.3798 -2.2062 -1.3318
 5951SOL     OW29488   4.214   3.899   9.255  0.7406  0.3867  0.2313
 5951SOL    HW129489   4.254   3.829   9.203 -0.3206  1.5972 -2.2112
 5951SOL    HW229490   4.121   3.878   9.263  0.5043  1.4264  0.1684
 5952SOL     OW29491   0.691   2.347   5.392 -0.1368  0.1509 -0.0681
 5952SOL    HW129492   0.609   2.305   5.417 -0.2156  1.2857  1.5347
 5952SOL    HW229493   0.689   2.420   5.454 -0.1229  1.5665 -1.7256
 5953SOL     OW29494   2.228   3.556   9.709  0.1750 -0.1810  0.1010
 5953SOL    HW129495   2.255   3.609   9.635 -1.5192  0.6290  0.0521
 5953SOL    HW229496   2.234   3.617   9.783 -0.1213  2.7036 -2.2592
 5954SOL     OW29497   0.396   3.960   4.771 -0.1218 -0.1884  0.1910
 5954SOL    HW129498   0.380   3.868   4.792 -0.6269 -0.4533 -1.3081
 5954SOL    HW229499   0.487   3.981   4.790 -0.5207  0.6181  1.1590
 5955SOL     OW29500   2.552   1.640   1.880  0.4892 -0.3788  0.0248
 5955SOL    HW129501   2.621   1.598   1.829  0.5494 -0.2784  0.0240
 5955SOL    HW229502   2.481   1.577   1.865  0.6993 -0.5982 -0.0486
 5956SOL     OW29503   4.423   2.256   0.535  0.0415  0.5791  0.1196
 5956SOL    HW129504   4.416   2.180   0.476  0.1140 -0.5888  1.6038
 5956SOL    HW229505   4.329   2.272   0.546  0.7679  3.6096  1.7066
 5957SOL     OW29506   2.791   2.446   5.266  0.0739 -0.8704 -0.6173
 5957SOL    HW129507   2.811   2.375   5.326 -0.0777  0.6199  1.1856
 5957SOL    HW229508   2.818   2.519   5.321  0.0396 -0.3653 -1.2685
 5958SOL     OW29509   3.906   2.988   9.763  0.2026  0.1365 -0.2920
 5958SOL    HW129510   3.820   2.981   9.804 -0.3697 -1.2215 -1.6982
 5958SOL    HW229511   3.908   3.081   9.743  0.3376  0.4550  1.2182
 5959SOL     OW29512   2.605   0.064  17.438  0.0204  0.7304 -0.0420
 5959SOL    HW129513   2.678   0.114  17.401  1.0818 -0.9960 -0.2754
 5959SOL    HW229514   2.577   0.020  17.357 -0.6186 -0.2114  0.6925
 5960SOL     OW29515   0.975   2.795  10.025 -0.3814  0.4059 -0.3214
 5960SOL    HW129516   0.987   2.700  10.021  1.1136  0.3997  3.6881
 5960SOL    HW229517   0.890   2.813  10.065  1.8261  1.3033  3.9896
 5961SOL     OW29518   1.376   3.582   4.985  0.5479 -0.4494  0.1568
 5961SOL    HW129519   1.366   3.673   5.015 -0.2715 -0.8023  0.9503
 5961SOL    HW229520   1.352   3.534   5.064 -2.3436  2.5772  1.1312
 5962SOL     OW29521   2.253   1.410   9.464 -0.6485 -0.1210 -0.3816
 5962SOL    HW129522   2.200   1.459   9.402  0.1966  1.9130  0.4987
 5962SOL    HW229523   2.258   1.326   9.418 -3.7079 -0.7315  0.3873
 5963SOL     OW29524   1.041   0.380   4.906 -0.4920  0.3983 -0.5057
 5963SOL    HW129525   1.122   0.331   4.915 -1.6339 -1.2667  0.8161
 5963SOL    HW229526   0.980   0.325   4.955  1.8582  1.2082  3.3411
 5964SOL     OW29527   4.019   4.261   2.455  0.4391  0.8368  0.1733
 5964SOL    HW129528   4.014   4.248   2.550 -3.0099  0.4132 -0.0704
 5964SOL    HW229529   4.110   4.292   2.446  0.0140  1.8734 -0.5247
 5965SOL     OW29530   3.739   0.100   8.669 -0.4724 -0.4511  0.0920
 5965SOL    HW129531   3.806   0.159   8.704  2.9856 -3.5441 -1.2325
 5965SOL    HW229532   3.707   0.060   8.750  0.3061  0.4683  0.8426
 5966SOL     OW29533   2.726   0.505   0.406 -0.3663 -0.3908 -0.1266
 5966SOL    HW129534   2.711   0.581   0.350 -0.0075 -0.4717 -0.3371
 5966SOL    HW229535   2.655   0.446   0.381  1.6894 -1.7343 -2.8557
 5967SOL     OW29536   4.565   2.829   6.987  0.1237 -0.3569  0.3063
 5967SOL    HW129537   4.588   2.769   6.916 -1.8377 -1.1770  0.3691
 5967SOL    HW229538   4.592   2.915   6.956 -0.1094 -0.3003  0.2589
 5968SOL     OW29539   4.521   2.896   4.067  0.3650 -0.0192  0.3805
 5968SOL    HW129540   4.535   2.849   4.150  0.6029  0.8414  0.8277
 5968SOL    HW229541   4.500   2.819   4.015 -0.8912 -1.0951  2.4680
 5969SOL     OW29542   2.810   2.554  14.052 -0.2869 -0.0002 -0.3200
 5969SOL    HW129543   2.747   2.614  14.092  2.2167  0.8429  2.3698
 5969SOL    HW229544   2.788   2.570  13.960  1.7500 -0.0215 -0.8185
 5970SOL     OW29545   1.856   4.596   8.726  0.3044  0.3513 -0.2138
 5970SOL    HW129546   1.827   4.615   8.816  1.5341  0.1562  0.2130
 5970SOL    HW229547   1.929   4.540   8.750  0.2958  0.3815 -0.1162
 5971SOL     OW29548   3.972   1.838   6.884  0.0847  0.5199  0.2235
 5971SOL    HW129549   3.936   1.791   6.960 -0.1924 -0.0909 -0.2861
 5971SOL    HW229550   4.029   1.900   6.929  0.2598  1.3878 -1.2246
 5972SOL     OW29551   4.458   1.695   0.338 -0.3305  0.4552  0.4717
 5972SOL    HW129552   4.383   1.650   0.377  0.8733 -0.2234  1.9785
 5972SOL    HW229553   4.453   1.662   0.248 -0.1511  1.2065  0.1940
 5973SOL     OW29554   3.872   2.543   7.661 -0.1326 -0.0462  0.0310
 5973SOL    HW129555   3.850   2.592   7.741  1.3736  1.8395 -0.7217
 5973SOL    HW229556   3.943   2.601   7.633  1.5179 -1.8864  0.3692
 5974SOL     OW29557   2.241   1.091  15.578  0.1223  0.0516 -0.1640
 5974SOL    HW129558   2.331   1.121  15.565 -0.6669  1.1082 -3.1763
 5974SOL    HW229559   2.245   0.995  15.584  1.3230  0.1905  1.2514
 5975SOL     OW29560   2.997   1.958   5.890 -0.0283 -0.5601 -0.2912
 5975SOL    HW129561   3.036   1.961   5.978  0.3035 -2.5900 -0.3759
 5975SOL    HW229562   2.922   2.014   5.910  0.9702  0.7882 -0.3042
 5976SOL     OW29563   2.327   2.545   3.136 -0.6606  0.7334 -0.5330
 5976SOL    HW129564   2.306   2.459   3.173 -0.7509  1.5840  1.3924
 5976SOL    HW229565   2.386   2.518   3.066 -0.9355 -0.4063 -0.3265
 5977SOL     OW29566   0.090   2.561   5.641  0.3064 -0.3510  0.1166
 5977SOL    HW129567   0.028   2.489   5.654  1.3709 -1.4015 -0.6169
 5977SOL    HW229568   0.162   2.526   5.587 -0.0047  0.5313 -0.8615
 5978SOL     OW29569   2.585   1.076   6.401  0.4960  0.2823  0.2933
 5978SOL    HW129570   2.633   1.046   6.324 -0.1480  2.5314 -0.9589
 5978SOL    HW229571   2.586   1.001   6.461  1.3601  1.1690  1.4223
 5979SOL     OW29572   1.716   1.485   9.667 -0.3921  0.2760  0.0146
 5979SOL    HW129573   1.702   1.402   9.713  0.7167  0.2002  0.2271
 5979SOL    HW229574   1.810   1.472   9.653 -0.4292  0.4679 -0.4163
 5980SOL     OW29575   2.674   0.138   9.074 -0.7791  0.5593 -0.1704
 5980SOL    HW129576   2.603   0.134   9.137  0.2024  0.1406  0.9252
 5980SOL    HW229577   2.671   0.229   9.045 -1.1696 -0.1925 -2.5172
 5981SOL     OW29578   1.698   3.768   4.556 -0.3172  0.1561  0.1257
 5981SOL    HW129579   1.648   3.824   4.616  1.6391 -0.3329  2.2260
 5981SOL    HW229580   1.643   3.690   4.567  1.7955 -1.6873 -2.6950
 5982SOL     OW29581   3.204   4.232   2.376 -0.1977  0.5171  0.9174
 5982SOL    HW129582   3.291   4.236   2.418  0.0800  2.1864  0.1959
 5982SOL    HW229583   3.219   4.207   2.285  0.0584  0.6498  0.9225
 5983SOL     OW29584   2.467   4.556   7.714  0.1984 -0.1338 -0.4551
 5983SOL    HW129585   2.426   4.616   7.652  2.6096  1.6072 -0.3570
 5983SOL    HW229586   2.540   4.522   7.662 -0.5059 -0.4231 -1.2421
 5984SOL     OW29587   1.521   0.002   2.365  0.2268  0.0712  0.0575
 5984SOL    HW129588   1.447   0.016   2.305  2.9431 -0.3156 -3.4033
 5984SOL    HW229589   1.563   4.659   2.328 -0.6838  0.4209 -1.7509
 5985SOL     OW29590   1.730   0.103   9.861  0.3162  0.0954  0.0358
 5985SOL    HW129591   1.753   0.189   9.826 -2.3172  0.6582 -0.3253
 5985SOL    HW229592   1.805   0.095   9.919  0.6738 -1.6336 -0.6813
 5986SOL     OW29593   0.075   4.341   9.097 -0.4189 -0.2227 -0.4061
 5986SOL    HW129594   0.045   4.427   9.069  1.7469  0.5373 -0.4204
 5986SOL    HW229595   4.727   4.294   9.090  1.3666 -3.1924 -1.4368
 5987SOL     OW29596   0.966   1.034   4.211  0.3154 -0.5620  0.0116
 5987SOL    HW129597   1.023   0.966   4.174  1.5233 -0.2625  1.3449
 5987SOL    HW229598   0.880   0.993   4.198 -0.9543  2.4146 -0.8080
 5988SOL     OW29599   2.699   3.837  13.009  0.1817 -0.2352  1.0152
 5988SOL    HW129600   2.659   3.845  13.096 -2.0115 -0.7640  0.0576
 5988SOL    HW229601   2.657   3.908  12.960 -1.8918 -1.4543  1.0205
 5989SOL     OW29602   1.017   4.327  15.935  0.1489 -0.0022  0.3061
 5989SOL    HW129603   1.060   4.411  15.950 -0.0894  0.0588  0.6578
 5989SOL    HW229604   0.933   4.343  15.979 -1.0082  1.2262 -2.3906
 5990SOL     OW29605   4.181   4.328  16.773  0.3468  0.3221  0.5475
 5990SOL    HW129606   4.088   4.351  16.782 -0.3679 -1.4127 -2.1697
 5990SOL    HW229607   4.215   4.404  16.727  0.9693 -1.2118 -1.5100
 5991SOL     OW29608   1.870   0.931   6.374 -0.6214 -0.2092  0.1493
 5991SOL    HW129609   1.810   0.905   6.304 -0.4684 -2.8598  1.0057
 5991SOL    HW229610   1.928   0.855   6.375  0.5123  0.6547 -0.1926
 5992SOL     OW29611   2.647   1.069  15.086  0.2772  0.0757 -0.2314
 5992SOL    HW129612   2.674   1.001  15.025 -1.0052 -0.8132  0.1790
 5992SOL    HW229613   2.558   1.086  15.056  0.8010  1.0127 -1.2310
 5993SOL     OW29614   3.716   3.445   2.658  0.1301 -0.1701  0.4267
 5993SOL    HW129615   3.692   3.458   2.566  0.0395  1.7324  0.7225
 5993SOL    HW229616   3.718   3.349   2.650 -1.2410 -0.1385 -0.2638
 5994SOL     OW29617   2.020   3.915   8.511  0.1698  0.3215 -0.5231
 5994SOL    HW129618   2.040   3.865   8.432 -1.4321 -0.6221 -0.3156
 5994SOL    HW229619   1.931   3.944   8.492 -0.9418 -1.8353  1.3503
 5995SOL     OW29620   3.794   3.318   8.436 -0.3182  0.0749 -0.2074
 5995SOL    HW129621   3.794   3.331   8.341  0.9040 -0.1721 -0.2420
 5995SOL    HW229622   3.799   3.223   8.448  1.5238  0.2844  0.7095
 5996SOL     OW29623   0.941   0.088   2.335 -0.4222 -0.3216 -0.4407
 5996SOL    HW129624   0.975   0.003   2.364  4.2258  1.5700 -0.3312
 5996SOL    HW229625   0.869   0.101   2.396 -0.0375 -0.0408 -0.0422
 5997SOL     OW29626   2.110   0.729   1.784 -0.2718 -0.0070 -0.1170
 5997SOL    HW129627   2.064   0.730   1.701 -0.0933  0.6277 -0.2078
 5997SOL    HW229628   2.064   0.802   1.826 -2.7167 -1.7648  0.2277
 5998SOL     OW29629   1.609   4.078   2.558 -0.5034 -0.1440 -0.0127
 5998SOL    HW129630   1.662   4.038   2.628 -0.1651  0.9132  0.3279
 5998SOL    HW229631   1.523   4.062   2.596 -1.0934 -0.1229 -1.3534
 5999SOL     OW29632   1.387   0.652   5.113 -0.0202 -0.1358 -0.2914
 5999SOL    HW129633   1.385   0.721   5.180  0.3821  0.0476 -0.4701
 5999SOL    HW229634   1.294   0.644   5.093  0.2022 -0.4622 -1.2095
 6000SOL     OW29635   1.276   0.205  13.518 -0.4104  0.2168  0.1641
 6000SOL    HW129636   1.271   0.295  13.486 -0.1231  0.1725 -0.0105
 6000SOL    HW229637   1.205   0.174  13.463 -0.9613 -0.1687  1.0880
 6001SOL     OW29638   3.256   0.251   6.236  0.3302 -0.8407  0.3084
 6001SOL    HW129639   3.187   0.317   6.246  0.8610 -0.2785  0.2390
 6001SOL    HW229640   3.262   0.250   6.140  1.4876  2.2204  0.3636
 6002SOL     OW29641   0.010   1.950   7.824 -0.0974  0.4321 -0.4175
 6002SOL    HW129642   0.003   2.019   7.890 -1.4272 -0.4491  0.3539
 6002SOL    HW229643   4.668   1.900   7.851  0.4540 -0.3689 -0.3436
 6003SOL     OW29644   2.570   1.636   4.239 -0.8005  0.6516 -0.1711
 6003SOL    HW129645   2.569   1.637   4.335 -2.8279  0.5054 -0.1853
 6003SOL    HW229646   2.478   1.623   4.214 -0.9168  0.6110  0.2696
 6004SOL     OW29647   2.413   2.831  16.755 -0.0594 -0.0377 -0.1888
 6004SOL    HW129648   2.378   2.912  16.792  0.4213  0.6428 -1.2329
 6004SOL    HW229649   2.364   2.770  16.810 -0.1633  2.6803  2.7164
 6005SOL     OW29650   3.415   4.322   6.401  0.2230  0.0888 -0.5375
 6005SOL    HW129651   3.411   4.251   6.466  1.8383 -0.5150 -1.0970
 6005SOL    HW229652   3.365   4.394   6.438  0.5919  0.3730 -0.5854
 6006SOL     OW29653   1.828   1.111   7.679  0.2772 -0.1893  0.1806
 6006SOL    HW129654   1.869   1.186   7.721 -2.7199  0.7681  1.4316
 6006SOL    HW229655   1.902   1.055   7.655 -0.2258  0.0275 -1.8539
 6007SOL     OW29656   3.826   2.569  16.154 -0.1905  0.2220 -0.5891
 6007SOL    HW129657   3.909   2.568  16.201  0.3179 -0.1536 -1.5081
 6007SOL    HW229658   3.812   2.475  16.140  2.7387 -0.6544  2.3130
 6008SOL     OW29659   0.159   3.314   7.677 -0.4313  0.1456 -0.1572
 6008SOL    HW129660   0.211   3.366   7.738 -1.0729 -0.6941  1.0917
 6008SOL    HW229661   0.220   3.303   7.603 -0.1625 -0.9381  0.2261
 6009SOL     OW29662   0.674   4.411   6.762  0.1133 -0.3705 -0.2772
 6009SOL    HW129663   0.743   4.413   6.829 -2.1910  0.6557  2.0757
 6009SOL    HW229664   0.691   4.500   6.731  0.0203 -1.3416 -3.0900
 6010SOL     OW29665   2.084   2.206   1.664 -0.0132  0.0790  0.3990
 6010SOL    HW129666   2.169   2.245   1.684  0.9425 -0.1307 -3.2433
 6010SOL    HW229667   2.105   2.133   1.605 -1.0924 -0.0648  0.1920
 6011SOL     OW29668   2.942   2.110  12.232 -0.2949  1.0653  0.5938
 6011SOL    HW129669   2.865   2.098  12.288 -1.2414 -0.8049 -1.1016
 6011SOL    HW229670   2.907   2.172  12.169  0.3718  1.0642  0.2235
 6012SOL     OW29671   0.488   3.734   9.501 -0.0607 -0.0553  0.4641
 6012SOL    HW129672   0.478   3.825   9.528  0.3633  0.0314  0.3301
 6012SOL    HW229673   0.395   3.715   9.499 -0.3632  1.0994  3.2075
 6013SOL     OW29674   0.887   0.841   0.669  0.0690  0.1814 -0.2355
 6013SOL    HW129675   0.798   0.845   0.634  0.1743 -0.6576 -0.6114
 6013SOL    HW229676   0.913   0.929   0.642 -0.0785  0.0102 -0.9503
 6014SOL     OW29677   3.591   1.551  15.083 -0.8095  0.1144 -0.4604
 6014SOL    HW129678   3.608   1.522  14.993 -0.2379  0.7075 -0.5418
 6014SOL    HW229679   3.525   1.483  15.100 -1.4079  0.0339 -2.9617
 6015SOL     OW29680   4.588   2.371   8.556  0.0871  0.1447  0.9291
 6015SOL    HW129681   4.669   2.383   8.505  0.2981 -0.3988  1.1325
 6015SOL    HW229682   4.532   2.438   8.516 -0.3731 -0.5656  0.3820
 6016SOL     OW29683   3.502   0.874   1.929 -0.3274 -1.1268 -0.2917
 6016SOL    HW129684   3.487   0.968   1.923 -0.4128 -1.1249 -0.0660
 6016SOL    HW229685   3.570   0.868   1.862 -0.0200  0.2722 -0.1014
 6017SOL     OW29686   0.720   1.157   1.947 -0.0343 -0.1152 -0.4005
 6017SOL    HW129687   0.748   1.182   1.859 -0.1622 -1.2755 -0.7735
 6017SOL    HW229688   0.788   1.090   1.958  0.9831  0.9764 -0.0829
 6018SOL     OW29689   3.523   1.812   7.641  0.3288  0.1826  0.2428
 6018SOL    HW129690   3.570   1.886   7.602  1.4943 -0.2843  0.7694
 6018SOL    HW229691   3.456   1.803   7.572 -0.8000  0.7624  1.2620
 6019SOL     OW29692   1.096   3.147  13.587 -0.3775 -0.1800  0.3686
 6019SOL    HW129693   1.117   3.235  13.555  2.7501 -1.4958 -1.2264
 6019SOL    HW229694   1.142   3.139  13.671  0.9791 -0.8467 -0.4251
 6020SOL     OW29695   4.138   1.582  14.092  0.4515  0.0964  0.7019
 6020SOL    HW129696   4.080   1.543  14.157 -0.0567 -3.2204 -1.7737
 6020SOL    HW229697   4.106   1.672  14.095 -2.1994 -0.7857 -1.5651
 6021SOL     OW29698   2.449   3.559   2.883  0.1170 -0.2425 -0.1468
 6021SOL    HW129699   2.365   3.539   2.926 -0.4457 -0.8172 -1.5262
 6021SOL    HW229700   2.423   3.569   2.792 -0.4492 -1.3792 -0.1157
 6022SOL     OW29701   1.689   1.467  16.898 -0.1152 -0.0610 -0.2803
 6022SOL    HW129702   1.626   1.538  16.889 -1.0773 -0.8924 -0.1242
 6022SOL    HW229703   1.647   1.397  16.847  0.2817 -1.7988  1.7889
 6023SOL     OW29704   3.683   3.835   3.278  0.3346  0.4235  0.2736
 6023SOL    HW129705   3.689   3.758   3.221  1.4917  0.5883  0.1684
 6023SOL    HW229706   3.739   3.894   3.227 -0.5804  2.3885  1.5690
 6024SOL     OW29707   3.700   0.457  12.584  0.6263  0.2287 -0.1040
 6024SOL    HW129708   3.614   0.461  12.541  0.6528  0.3388 -0.1460
 6024SOL    HW229709   3.683   0.434  12.676 -0.2706 -0.3766 -0.4256
 6025SOL     OW29710   2.597   3.001   1.560 -0.0454  1.1017 -0.4091
 6025SOL    HW129711   2.671   3.001   1.501  1.4726 -0.2941  1.4695
 6025SOL    HW229712   2.633   2.951   1.633 -0.5051  2.5018  0.7746
 6026SOL     OW29713   3.285   0.964   8.460 -0.0021  0.1247  0.3637
 6026SOL    HW129714   3.282   0.877   8.500 -1.3234  1.0824  2.3286
 6026SOL    HW229715   3.380   0.970   8.446 -0.0176 -0.0154  0.1873
 6027SOL     OW29716   2.603   1.355   2.799  0.5432 -0.3032  0.3871
 6027SOL    HW129717   2.629   1.396   2.881 -0.0081  0.7801  0.0113
 6027SOL    HW229718   2.685   1.366   2.751  1.4545 -1.7186  1.5969
 6028SOL     OW29719   3.147   2.975   7.751  0.5520 -0.4175 -0.2276
 6028SOL    HW129720   3.081   2.942   7.689 -1.9850  1.1340  1.6288
 6028SOL    HW229721   3.100   2.975   7.834  2.5789  2.2159  0.9099
 6029SOL     OW29722   4.181   0.294   4.244 -0.3278  0.3090 -0.0625
 6029SOL    HW129723   4.137   0.370   4.282 -1.0648  0.8849 -2.0740
 6029SOL    HW229724   4.139   0.285   4.159  1.3243 -1.4354 -0.6912
 6030SOL     OW29725   1.664   0.286  11.667 -0.1272 -0.5759 -0.0257
 6030SOL    HW129726   1.721   0.346  11.619 -1.1023  0.5243  0.2146
 6030SOL    HW229727   1.726   0.224  11.706 -0.5121 -1.6212 -1.0347
 6031SOL     OW29728   2.840   2.690   1.357  0.4710  0.0690  0.0465
 6031SOL    HW129729   2.898   2.758   1.390  1.7693 -1.1982  0.4024
 6031SOL    HW229730   2.870   2.698   1.266  0.6006 -1.2782 -0.0293
 6032SOL     OW29731   1.315   0.284   3.945 -0.3803 -0.2009  0.1986
 6032SOL    HW129732   1.243   0.281   3.882 -0.6121 -4.6322  0.6767
 6032SOL    HW229733   1.370   0.351   3.904 -0.0992  0.0005  0.9079
 6033SOL     OW29734   0.303   0.132  16.728 -0.8943  0.3008  0.0579
 6033SOL    HW129735   0.348   0.214  16.709  2.8223 -1.4448  1.4031
 6033SOL    HW229736   0.340   0.118  16.815 -1.0393  0.4577  0.1441
 6034SOL     OW29737   4.591   3.801   0.176 -0.2202 -0.6398  0.1285
 6034SOL    HW129738   4.567   3.794   0.269 -0.6028 -0.3563  0.0501
 6034SOL    HW229739   4.634   3.717   0.163  1.5489  0.6558 -2.3693
 6035SOL     OW29740   0.040   2.067  13.088  0.1819 -0.6133  0.5354
 6035SOL    HW129741   0.067   2.022  13.168 -0.7728  1.8678  2.2548
 6035SOL    HW229742   4.707   2.121  13.127 -1.2430 -2.1113  0.1004
 6036SOL     OW29743   1.707   2.117   8.577 -0.3208 -0.3108 -0.8356
 6036SOL    HW129744   1.654   2.151   8.649  2.8571 -0.2453  1.4664
 6036SOL    HW229745   1.793   2.121   8.618 -0.8137 -0.9441  0.2537
 6037SOL     OW29746   4.528   1.213   1.747 -0.4227 -0.1625 -0.2104
 6037SOL    HW129747   4.464   1.169   1.691  0.3059 -0.6883 -0.6190
 6037SOL    HW229748   4.480   1.221   1.830 -0.2886 -1.9278  0.0477
 6038SOL     OW29749   0.153   3.522   3.768 -0.0145 -0.2484  0.2193
 6038SOL    HW129750   0.157   3.428   3.786 -0.6749 -0.4800 -0.8515
 6038SOL    HW229751   0.208   3.534   3.690 -0.9871  0.4224 -0.3576
 6039SOL     OW29752   1.102   1.624  16.339  0.0848 -0.3350 -0.4480
 6039SOL    HW129753   1.156   1.678  16.396  0.2852  0.0582 -1.0102
 6039SOL    HW229754   1.048   1.684  16.288 -1.2555 -1.3562 -0.2453
 6040SOL     OW29755   1.119   2.090   5.980 -0.0920  0.2037 -0.4784
 6040SOL    HW129756   1.132   2.111   6.072 -0.1913 -0.2229 -0.3667
 6040SOL    HW229757   1.033   2.127   5.960  0.5202  0.2480 -3.1086
 6041SOL     OW29758   3.284   1.668   2.180  0.2187  0.0505  0.0731
 6041SOL    HW129759   3.366   1.641   2.220 -1.9026 -2.0328  3.0176
 6041SOL    HW229760   3.277   1.748   2.232 -1.4809 -1.0023  1.4761
 6042SOL     OW29761   3.269   4.125   1.701 -0.0087 -0.3058 -0.7502
 6042SOL    HW129762   3.348   4.080   1.671  0.3707 -0.9291  1.1519
 6042SOL    HW229763   3.297   4.164   1.784 -2.3378 -1.0185  0.3831
 6043SOL     OW29764   3.906   2.932   3.553  0.1891 -0.4037 -1.0082
 6043SOL    HW129765   3.891   2.971   3.467 -0.7504  0.8041 -0.3067
 6043SOL    HW229766   3.986   2.972   3.588 -0.1071  0.1986 -1.0063
 6044SOL     OW29767   1.678   3.290   0.469  0.0846 -0.1668  0.2390
 6044SOL    HW129768   1.646   3.229   0.403 -0.1162 -0.4636  0.6089
 6044SOL    HW229769   1.670   3.375   0.427  0.1735 -0.0960  0.3655
 6045SOL     OW29770   3.129   0.727   5.113  0.0752  0.2436 -0.1011
 6045SOL    HW129771   3.198   0.776   5.068 -0.5788  1.1500 -0.1191
 6045SOL    HW229772   3.183   0.671   5.168  0.1318 -2.8096 -3.2231
 6046SOL     OW29773   3.974   0.754   3.779 -0.0793  0.1595 -0.0893
 6046SOL    HW129774   3.984   0.708   3.862  1.4342 -2.1388 -1.5579
 6046SOL    HW229775   4.044   0.715   3.726 -1.1973 -1.2324 -0.5672
 6047SOL     OW29776   0.631   1.870   9.105 -0.0992 -0.0428  0.2927
 6047SOL    HW129777   0.726   1.882   9.116  0.1261 -1.1385 -0.5394
 6047SOL    HW229778   0.614   1.910   9.191  0.3790  0.0219  0.3605
 6048SOL     OW29779   3.854   0.824   6.102  0.7233 -0.0340 -0.0855
 6048SOL    HW129780   3.760   0.817   6.084  0.7388  0.1368 -0.2360
 6048SOL    HW229781   3.870   0.737   6.139 -1.7745  0.0630  1.2186
 6049SOL     OW29782   0.520   1.840   4.960  0.1383  0.3887  0.2374
 6049SOL    HW129783   0.520   1.747   4.937 -0.3104  0.7785 -1.3151
 6049SOL    HW229784   0.611   1.859   4.983  0.2172  0.5947 -0.2484
 6050SOL     OW29785   1.350   0.944   5.143  0.2228 -0.4277  0.3959
 6050SOL    HW129786   1.346   1.038   5.160 -2.1967 -0.1791 -1.5436
 6050SOL    HW229787   1.362   0.945   5.048 -3.9641  0.2490 -0.1277
 6051SOL     OW29788   4.664   1.964   2.341  0.2733 -0.4556  0.2056
 6051SOL    HW129789   0.009   2.012   2.362 -1.8543  3.6088 -0.8818
 6051SOL    HW229790   4.635   2.008   2.261  2.7895  0.2341 -0.3322
 6052SOL     OW29791   0.491   4.555   3.779  0.0508  0.2614  0.1851
 6052SOL    HW129792   0.410   4.578   3.733 -0.0370  1.1166  0.7770
 6052SOL    HW229793   0.553   4.622   3.750 -0.3838 -0.5501 -2.6724
 6053SOL     OW29794   2.511   2.680   7.002  0.2076 -0.2733 -0.4441
 6053SOL    HW129795   2.583   2.644   6.950  0.5466  1.1606 -0.9745
 6053SOL    HW229796   2.514   2.614   7.072 -1.3811 -1.6317 -1.6697
 6054SOL     OW29797   3.124   0.201   5.238  0.7272 -0.8820 -0.4771
 6054SOL    HW129798   3.121   0.179   5.145  1.1682 -0.4319 -0.5947
 6054SOL    HW229799   3.161   0.122   5.277  1.6274 -1.1425 -1.8641
 6055SOL     OW29800   0.832   0.296   6.970  0.0671  0.0070 -0.1957
 6055SOL    HW129801   0.845   0.374   6.917 -3.2196  0.6716 -0.0164
 6055SOL    HW229802   0.758   0.257   6.925  1.0398 -2.2346  0.1447
 6056SOL     OW29803   2.279   0.511  15.094 -0.3174  0.0116  0.0843
 6056SOL    HW129804   2.323   0.456  15.157 -0.4312  0.6337  0.7122
 6056SOL    HW229805   2.338   0.496  15.021 -1.8291  0.8868 -1.3352
 6057SOL     OW29806   3.599   0.571   6.268  0.2377 -0.4769  0.0383
 6057SOL    HW129807   3.650   0.523   6.203 -0.0558  0.7278 -1.0775
 6057SOL    HW229808   3.519   0.599   6.223  0.9482  2.1092  0.3798
 6058SOL     OW29809   0.312   3.782   6.235  0.1911  0.6574 -0.0857
 6058SOL    HW129810   0.320   3.878   6.240 -1.0194  0.7883 -0.6715
 6058SOL    HW229811   0.333   3.768   6.143  1.4695  0.6178  0.2116
 6059SOL     OW29812   0.658   4.673  17.107  0.4115 -0.5039  0.0859
 6059SOL    HW129813   0.639   4.587  17.071  0.1087  0.1956 -1.4673
 6059SOL    HW229814   0.672   4.646  17.197 -0.3600 -0.6132  0.1768
 6060SOL     OW29815   2.512   3.642   9.296  0.2587 -0.1897 -0.7079
 6060SOL    HW129816   2.549   3.556   9.279  0.4880 -0.3409  0.5694
 6060SOL    HW229817   2.569   3.702   9.247 -1.2663  0.8669 -1.2200
 6061SOL     OW29818   2.025   0.555  16.726  0.6736  0.6842  0.6671
 6061SOL    HW129819   1.972   0.578  16.802 -0.4281 -0.8485  0.3480
 6061SOL    HW229820   1.960   0.562  16.656  0.6439 -0.0092  0.6229
 6062SOL     OW29821   2.674   2.228   5.666  0.0278  0.0488  0.6044
 6062SOL    HW129822   2.725   2.197   5.741  1.4944  0.6811 -0.1230
 6062SOL    HW229823   2.596   2.181   5.693  0.5849 -1.3319 -0.2205
 6063SOL     OW29824   4.338   0.052  15.440  0.2170 -0.7004 -0.0650
 6063SOL    HW129825   4.389   4.731  15.498  0.1282 -0.1463  0.5419
 6063SOL    HW229826   4.406   0.077  15.377  0.7863  3.1720  2.1197
 6064SOL     OW29827   1.817   4.148   3.507 -0.5544 -0.6546  0.1434
 6064SOL    HW129828   1.806   4.096   3.586  1.5549 -3.2337 -1.2214
 6064SOL    HW229829   1.795   4.090   3.434  0.7722  0.3799 -1.0868
 6065SOL     OW29830   1.859   1.209   6.995 -0.1010  0.1330 -0.4674
 6065SOL    HW129831   1.924   1.183   6.929  0.9969  0.3950  0.5092
 6065SOL    HW229832   1.902   1.157   7.063 -1.4997 -0.1693  0.1843
 6066SOL     OW29833   4.292   4.706   4.510  0.1152 -0.2869  0.5036
 6066SOL    HW129834   4.344   4.646   4.455 -0.5610 -1.9112  1.6397
 6066SOL    HW229835   4.227   4.731   4.445 -0.3347 -1.4266  0.5117
 6067SOL     OW29836   2.567   2.512   3.753  0.5113  0.4462 -0.0307
 6067SOL    HW129837   2.529   2.562   3.825  0.7941  0.9587 -0.2433
 6067SOL    HW229838   2.547   2.567   3.677  2.0077 -0.7952 -1.3239
 6068SOL     OW29839   2.870   3.784   1.467 -0.1894 -0.0193 -0.9891
 6068SOL    HW129840   2.954   3.826   1.449 -0.8049  1.4655 -0.3866
 6068SOL    HW229841   2.897   3.693   1.476  0.1205 -0.0022 -1.8052
 6069SOL     OW29842   3.427   3.430   3.575 -0.1288  0.3786  0.2252
 6069SOL    HW129843   3.480   3.510   3.580 -0.0401  0.2517  1.3708
 6069SOL    HW229844   3.366   3.451   3.504 -1.2359 -0.1431  1.0294
 6070SOL     OW29845   1.859   4.593  11.134  0.3247 -0.3294  0.2105
 6070SOL    HW129846   1.938   4.537  11.131  0.1322 -0.7065  1.9286
 6070SOL    HW229847   1.850   4.604  11.229  1.0415 -1.5108  0.4302
 6071SOL     OW29848   3.290   2.447   2.081  0.3257 -0.2347 -0.6456
 6071SOL    HW129849   3.305   2.513   2.149  0.5945 -0.2162 -0.7254
 6071SOL    HW229850   3.326   2.374   2.131 -3.1745 -0.5579  1.4646
 6072SOL     OW29851   0.502   2.485  15.375  0.3558 -0.3000 -0.5457
 6072SOL    HW129852   0.438   2.533  15.427 -0.3153 -0.5970 -1.1045
 6072SOL    HW229853   0.581   2.535  15.394  2.0328 -3.3873  0.7167
 6073SOL     OW29854   2.486   1.725  15.437  0.5612  0.2041 -0.1330
 6073SOL    HW129855   2.461   1.636  15.462 -0.3870  0.2952 -0.7472
 6073SOL    HW229856   2.567   1.716  15.388  1.5204  0.6774  1.3613
 6074SOL     OW29857   4.449   3.435   8.262  0.2632 -0.7176 -0.1258
 6074SOL    HW129858   4.390   3.395   8.326 -0.9748  0.0068 -0.8241
 6074SOL    HW229859   4.472   3.521   8.298  1.9861 -0.8745 -0.8237
 6075SOL     OW29860   3.396   3.147   1.908 -0.2368 -0.1850  0.3404
 6075SOL    HW129861   3.478   3.119   1.948 -0.3550 -0.1483  0.6085
 6075SOL    HW229862   3.393   3.099   1.825 -2.8606  2.3248 -1.0269
 6076SOL     OW29863   0.345   1.023   4.589  0.2450 -0.3279  0.5094
 6076SOL    HW129864   0.365   1.114   4.612 -1.3883 -0.6560  3.1753
 6076SOL    HW229865   0.408   1.009   4.518 -0.4215 -1.1760  0.0907
 6077SOL     OW29866   0.775   0.536   9.399 -0.4459 -0.4719  0.2396
 6077SOL    HW129867   0.748   0.624   9.426 -0.5543 -0.2904 -0.4700
 6077SOL    HW229868   0.842   0.548   9.332 -1.1990  0.4242 -0.3414
 6078SOL     OW29869   3.857   3.679   5.456  0.2074 -0.0952  0.1478
 6078SOL    HW129870   3.822   3.644   5.539  1.0623 -2.4855 -0.4950
 6078SOL    HW229871   3.808   3.760   5.441 -3.1832 -1.7810  2.1372
 6079SOL     OW29872   2.526   3.614   8.991  0.5577 -0.7657 -0.1793
 6079SOL    HW129873   2.618   3.588   8.981  0.5868 -0.0132 -1.8687
 6079SOL    HW229874   2.512   3.687   8.931 -0.3746 -1.6259 -1.0133
 6080SOL     OW29875   3.827   0.879  16.390  0.3468 -0.1843  0.6056
 6080SOL    HW129876   3.849   0.959  16.342 -1.1270  0.8679  1.7214
 6080SOL    HW229877   3.915   0.850  16.415  1.4413  1.7081 -1.0586
 6081SOL     OW29878   0.191   2.316   2.033 -0.0889  0.4792  0.1737
 6081SOL    HW129879   0.232   2.233   2.007  1.4755  1.5165 -0.6807
 6081SOL    HW229880   0.228   2.384   1.976 -1.0361  1.7242  1.0639
 6082SOL     OW29881   2.696   2.671  13.833  0.2221  0.3448  0.2683
 6082SOL    HW129882   2.692   2.645  13.741 -1.2479  1.0603  0.1306
 6082SOL    HW229883   2.671   2.763  13.832 -0.1624  0.2336 -0.7539
 6083SOL     OW29884   0.374   2.778   3.928  0.5274  0.7065 -0.5913
 6083SOL    HW129885   0.398   2.724   4.003 -1.6911  2.1087  1.1437
 6083SOL    HW229886   0.282   2.752   3.934  1.3826 -2.1723  0.1242
 6084SOL     OW29887   3.189   1.543   6.586  0.3445 -0.4758  0.0644
 6084SOL    HW129888   3.244   1.556   6.663  0.3632 -1.4675  0.2100
 6084SOL    HW229889   3.120   1.597   6.625  1.2728  1.6367 -1.2137
 6085SOL     OW29890   4.212   3.874   5.449  0.8202 -0.2185  0.4865
 6085SOL    HW129891   4.134   3.918   5.483  0.4921  1.0183 -1.8854
 6085SOL    HW229892   4.193   3.785   5.480  0.2645 -0.1024  0.4872
 6086SOL     OW29893   4.497   0.948  13.101 -0.0642  0.1937  0.2897
 6086SOL    HW129894   4.527   0.925  13.014 -0.5282 -2.8081  0.9372
 6086SOL    HW229895   4.480   1.042  13.093 -1.7225 -0.2100 -0.9892
 6087SOL     OW29896   1.431   1.991   0.569  0.3480 -0.0444 -0.0506
 6087SOL    HW129897   1.495   2.042   0.521 -1.5285  1.5369 -0.8959
 6087SOL    HW229898   1.478   1.977   0.651  1.7868  2.0701 -0.5206
 6088SOL     OW29899   2.390   4.051   0.141  0.0662 -0.0321  0.8988
 6088SOL    HW129900   2.341   4.130   0.165  0.9688  0.5794  0.7047
 6088SOL    HW229901   2.429   4.094   0.065 -0.5438 -2.1070 -0.5733
 6089SOL     OW29902   0.821   2.445   3.525 -0.1572  0.3482 -0.2539
 6089SOL    HW129903   0.788   2.493   3.449  0.9619  1.0264 -0.3165
 6089SOL    HW229904   0.853   2.521   3.574 -1.0726  0.0357  0.8128
 6090SOL     OW29905   4.597   2.158  11.321 -0.5010  0.1103  0.4304
 6090SOL    HW129906   4.527   2.165  11.386 -0.3822 -1.6539  0.7719
 6090SOL    HW229907   4.552   2.107  11.254  1.1006 -1.7415  0.7603
 6091SOL     OW29908   3.976   1.370  12.551  0.0093  0.4098 -0.0478
 6091SOL    HW129909   3.985   1.326  12.467  0.6911 -0.4108  0.4574
 6091SOL    HW229910   3.971   1.291  12.605 -0.0383  1.4883  1.5110
 6092SOL     OW29911   3.197   3.919   2.201  0.0044 -0.3355 -0.2087
 6092SOL    HW129912   3.238   3.877   2.126  3.4442 -0.9863  1.9941
 6092SOL    HW229913   3.208   4.011   2.175  0.8849 -0.9642 -2.0608
 6093SOL     OW29914   1.359   2.895   3.978  0.4036  0.1734 -0.4756
 6093SOL    HW129915   1.320   2.815   3.943 -0.9705  1.5375 -2.0824
 6093SOL    HW229916   1.290   2.923   4.038  0.1379 -1.1682 -0.1567
 6094SOL     OW29917   1.538   1.127   2.144 -0.7727  0.3506 -0.4872
 6094SOL    HW129918   1.480   1.074   2.090 -0.6553 -0.1383 -0.1307
 6094SOL    HW229919   1.613   1.139   2.085 -0.5609 -5.1220 -1.2852
 6095SOL     OW29920   3.076   1.302   7.641 -0.3917 -0.3016  0.0012
 6095SOL    HW129921   3.090   1.386   7.686 -1.2632  0.5518 -1.3122
 6095SOL    HW229922   2.989   1.275   7.672 -1.1357  2.8153  0.7242
 6096SOL     OW29923   3.935   3.856   5.753  0.1195 -0.4434  0.6878
 6096SOL    HW129924   3.847   3.891   5.739 -0.7720 -2.3358  1.5650
 6096SOL    HW229925   3.993   3.919   5.711 -1.6575  1.1958  0.7077
 6097SOL     OW29926   4.640   2.202   9.089 -0.0848 -0.4830  0.0623
 6097SOL    HW129927   4.562   2.148   9.076 -0.2016  0.0424 -1.4398
 6097SOL    HW229928   4.608   2.258   9.160 -1.8243  0.1735 -1.2553
 6098SOL     OW29929   3.195   0.262   2.122 -0.8507 -0.5077 -0.2206
 6098SOL    HW129930   3.196   0.194   2.054  0.5210  0.5218 -1.2524
 6098SOL    HW229931   3.214   0.208   2.198 -0.2399  0.8136  0.5636
 6099SOL     OW29932   2.207   1.160   2.827 -0.4002  0.0673  0.5893
 6099SOL    HW129933   2.136   1.114   2.872 -3.6372  3.4740 -0.9721
 6099SOL    HW229934   2.267   1.168   2.901 -0.3418 -1.3376  0.6965
 6100SOL     OW29935   4.381   4.208   6.152  0.5600 -0.9120  0.3505
 6100SOL    HW129936   4.358   4.230   6.062  2.7636 -0.4684 -0.1099
 6100SOL    HW229937   4.318   4.257   6.203  0.1409 -0.0232 -1.0267
 6101SOL     OW29938   1.415   0.736  14.246  0.0300  0.3889 -1.2083
 6101SOL    HW129939   1.457   0.653  14.268 -0.9737  0.1194 -0.3014
 6101SOL    HW229940   1.491   0.790  14.225  2.3939 -2.8293 -0.7306
 6102SOL     OW29941   1.732   1.075  10.012 -0.2648 -0.2270  0.0193
 6102SOL    HW129942   1.783   1.075  10.093  2.4287 -0.1808 -1.6751
 6102SOL    HW229943   1.766   0.994   9.974 -2.0470 -1.7151  1.5551
 6103SOL     OW29944   0.297   1.852   4.293 -0.0787 -0.0633  0.3575
 6103SOL    HW129945   0.272   1.899   4.214  0.8328  2.9511  1.8325
 6103SOL    HW229946   0.226   1.791   4.314  0.2123 -0.1280  1.1797
 6104SOL     OW29947   3.333   0.032   4.121  0.1593  0.6572  0.3763
 6104SOL    HW129948   3.353   0.063   4.209 -0.3836  0.4956  0.5581
 6104SOL    HW229949   3.283   4.688   4.143  0.2254  0.5531  0.1534
 6105SOL     OW29950   3.822   0.166  14.243  0.2444  0.0437  0.1554
 6105SOL    HW129951   3.857   0.131  14.161 -0.0170 -1.1524  0.5573
 6105SOL    HW229952   3.882   0.237  14.268 -0.3198  1.3974 -2.2559
 6106SOL     OW29953   1.641   0.533   9.465 -0.1882  0.3545 -0.1708
 6106SOL    HW129954   1.583   0.602   9.497 -0.7553  0.1150 -0.6665
 6106SOL    HW229955   1.634   0.530   9.369  0.0342 -0.9814 -0.1381
 6107SOL     OW29956   1.360   0.514   1.880 -0.4853 -0.0331  0.4114
 6107SOL    HW129957   1.454   0.511   1.861 -0.6702 -0.3183 -0.4324
 6107SOL    HW229958   1.323   0.492   1.795  0.0743 -0.0771  0.1749
 6108SOL     OW29959   1.760   0.678   2.072  0.1799 -0.1318 -0.0584
 6108SOL    HW129960   1.761   0.605   2.134 -0.2198  1.0830  1.3596
 6108SOL    HW229961   1.832   0.735   2.099  0.9976 -1.4145  0.5217
 6109SOL     OW29962   4.008   1.409   6.660  0.2668  0.1316 -0.0824
 6109SOL    HW129963   4.006   1.346   6.588 -0.9977 -0.6457  0.6360
 6109SOL    HW229964   4.100   1.398   6.683 -0.1994  1.4045  2.3014
 6110SOL     OW29965   1.777   0.887   3.865 -0.1763  0.6798  0.2266
 6110SOL    HW129966   1.685   0.863   3.854 -0.2142  1.5555 -1.2618
 6110SOL    HW229967   1.823   0.803   3.871 -0.4485  0.5179  0.0303
 6111SOL     OW29968   4.164   0.540   5.636 -0.4399 -0.1245  0.0133
 6111SOL    HW129969   4.091   0.505   5.586  0.0281  0.1115 -0.8399
 6111SOL    HW229970   4.211   0.456   5.644  1.2876  0.7741 -0.7747
 6112SOL     OW29971   3.663   4.335   3.521  0.4057  0.0333 -0.1992
 6112SOL    HW129972   3.614   4.411   3.551 -0.3301 -0.9229  1.0257
 6112SOL    HW229973   3.747   4.380   3.507  1.0073 -0.6643  1.2344
 6113SOL     OW29974   3.882   4.506   7.163 -0.5262 -0.4538  0.5392
 6113SOL    HW129975   3.885   4.420   7.121  0.4152  0.6015 -1.5245
 6113SOL    HW229976   3.798   4.502   7.208 -0.4897  2.5103  0.8606
 6114SOL     OW29977   1.603   1.962   3.769  0.4173 -0.3632  0.7393
 6114SOL    HW129978   1.554   1.907   3.830 -2.3631  2.2779  0.8993
 6114SOL    HW229979   1.533   2.001   3.716 -0.2569 -0.6308  1.4278
 6115SOL     OW29980   2.055   0.664   2.689 -0.1582  0.1184 -0.4399
 6115SOL    HW129981   2.086   0.579   2.659  1.0386  0.3872  0.0468
 6115SOL    HW229982   2.071   0.719   2.612  0.7198 -0.1868 -0.4703
 6116SOL     OW29983   2.026   0.083  15.995 -0.1068  0.1317  0.0541
 6116SOL    HW129984   2.013   0.088  15.900 -0.0279  0.2738  0.0518
 6116SOL    HW229985   2.034   0.177  16.012  0.0581 -0.0001  0.6985
 6117SOL     OW29986   3.624   3.363   6.054  0.1603 -0.2664  0.1999
 6117SOL    HW129987   3.638   3.268   6.065  1.2229  0.1210  2.1459
 6117SOL    HW229988   3.528   3.366   6.049  0.1956  0.4827  0.0523
 6118SOL     OW29989   3.592   2.408   2.623 -0.2969  0.2711 -0.6801
 6118SOL    HW129990   3.656   2.338   2.614 -1.5670 -0.7519 -1.8645
 6118SOL    HW229991   3.514   2.360   2.595 -1.3138  0.8674  1.1156
 6119SOL     OW29992   3.961   2.318  12.624 -0.2914 -0.2895  0.1588
 6119SOL    HW129993   3.901   2.323  12.698  0.3822 -1.7191  0.7972
 6119SOL    HW229994   4.027   2.253  12.649 -1.4295 -1.7506 -0.5967
 6120SOL     OW29995   4.230   2.218   4.055  0.0390  0.9222  0.3026
 6120SOL    HW129996   4.299   2.187   4.114 -2.4317 -1.4375  1.9336
 6120SOL    HW229997   4.171   2.260   4.117  0.0525  2.3282 -0.6303
 6121SOL     OW29998   2.324   1.777   1.760  0.1373 -0.0935 -0.0679
 6121SOL    HW129999   2.250   1.747   1.707  1.7039 -1.3115 -1.5567
 6121SOL    HW230000   2.347   1.691   1.794  0.9860 -0.6096 -1.9674
 6122SOL     OW30001   4.145   2.857   0.944  0.4721  1.0479  0.0000
 6122SOL    HW130002   4.206   2.794   0.906 -0.0907  1.0826 -0.9764
 6122SOL    HW230003   4.063   2.840   0.898  1.3855  0.0193 -1.2206
 6123SOL     OW30004   1.454   1.003   3.489 -0.3483 -0.2228 -0.2152
 6123SOL    HW130005   1.444   0.977   3.397  1.7942 -1.3834 -0.1374
 6123SOL    HW230006   1.452   0.915   3.526 -0.8818  0.5422  1.5442
 6124SOL     OW30007   0.910   2.723   4.367 -0.3558 -0.3081  0.2656
 6124SOL    HW130008   0.996   2.764   4.358 -1.2065  0.8015 -2.8362
 6124SOL    HW230009   0.871   2.774   4.438 -0.2950 -1.1375  0.8848
 6125SOL     OW30010   0.844   3.848  15.897  0.2348 -0.1875  0.1128
 6125SOL    HW130011   0.814   3.788  15.829 -0.3525 -1.5052  1.5267
 6125SOL    HW230012   0.766   3.872  15.947 -1.1609  0.8442 -2.5971
 6126SOL     OW30013   4.556   4.472  12.821 -0.2404 -0.2553 -0.0679
 6126SOL    HW130014   4.462   4.470  12.838 -0.0236  0.7564  1.2632
 6126SOL    HW230015   4.575   4.379  12.810  0.2671 -0.1420 -0.1561
 6127SOL     OW30016   3.421   1.045   7.365  0.1653  0.5248  0.2133
 6127SOL    HW130017   3.451   1.106   7.297 -1.9143 -0.5345 -1.6444
 6127SOL    HW230018   3.398   0.965   7.318 -0.3650  0.5598  0.4139
 6128SOL     OW30019   4.535   3.517   6.689  0.0462  0.7213  0.0016
 6128SOL    HW130020   4.597   3.565   6.635  0.9171 -1.3251 -0.8521
 6128SOL    HW230021   4.500   3.447   6.633  1.2288 -1.0212  1.4611
 6129SOL     OW30022   3.414   2.614   6.984  0.1592  0.3762  0.3229
 6129SOL    HW130023   3.484   2.664   6.943  1.0072  0.1541  1.5020
 6129SOL    HW230024   3.457   2.529   6.985  0.5447  0.5595 -1.1085
 6130SOL     OW30025   1.387   3.174   3.450 -0.3557  0.7296 -0.5654
 6130SOL    HW130026   1.385   3.142   3.540 -0.9793 -1.5101 -1.3834
 6130SOL    HW230027   1.420   3.104   3.393 -0.5584 -0.4744  0.8048
 6131SOL     OW30028   3.166   3.216   8.038  0.9302  0.2224 -0.2330
 6131SOL    HW130029   3.118   3.298   8.040  1.0679  0.2574  1.3554
 6131SOL    HW230030   3.242   3.233   8.095  0.5500 -1.0545  0.6488
 6132SOL     OW30031   1.434   0.164  11.630 -0.3848  0.3628 -0.0977
 6132SOL    HW130032   1.498   0.228  11.659 -0.7941  0.5319  0.4255
 6132SOL    HW230033   1.448   0.169  11.535  1.0461  1.5513  0.1961
 6133SOL     OW30034   2.632   2.427   7.102 -0.5452 -0.2872 -0.1039
 6133SOL    HW130035   2.713   2.472   7.127  0.9100 -2.1983 -1.3991
 6133SOL    HW230036   2.619   2.389   7.189  3.2372 -1.3920 -0.0297
 6134SOL     OW30037   0.726   0.788   5.660 -0.7498 -0.2270  0.1565
 6134SOL    HW130038   0.749   0.876   5.689 -2.5985  1.1164 -2.4433
 6134SOL    HW230039   0.805   0.757   5.616 -0.5437  1.1716 -0.4628
 6135SOL     OW30040   2.447   0.956   2.427  0.3832  0.2529  0.9748
 6135SOL    HW130041   2.511   0.923   2.490  2.5140  1.8409 -0.3919
 6135SOL    HW230042   2.394   1.013   2.483 -1.8353 -0.6785 -0.1763
 6136SOL     OW30043   1.485   2.290   4.564  0.7931 -0.1660  0.1867
 6136SOL    HW130044   1.558   2.282   4.626 -0.0523 -0.5744  1.1312
 6136SOL    HW230045   1.429   2.227   4.609 -2.0040  0.3030 -2.6503
 6137SOL     OW30046   4.659   3.950   2.005  0.4941  0.1076  0.0570
 6137SOL    HW130047   4.615   4.025   1.965 -0.6499  0.5880  2.2489
 6137SOL    HW230048   4.602   3.931   2.079  0.8820  1.0698  0.5943
 6138SOL     OW30049   1.358   0.915  17.340  0.5350  0.1388 -0.1269
 6138SOL    HW130050   1.400   1.000  17.326 -0.1994  0.5464  0.1046
 6138SOL    HW230051   1.420   0.846  17.365  1.7049 -0.1248 -3.8724
 6139SOL     OW30052   3.822   3.591  15.947 -0.1023 -0.0377 -0.3813
 6139SOL    HW130053   3.802   3.565  15.857  2.7975 -1.1020 -0.6928
 6139SOL    HW230054   3.897   3.649  15.931  0.7567 -0.5704  1.7964
 6140SOL     OW30055   3.649   4.076  14.017 -0.0552  0.0715  0.2236
 6140SOL    HW130056   3.574   4.134  14.030 -0.2637 -0.2845  0.6185
 6140SOL    HW230057   3.606   3.991  14.029  0.9235 -0.7210 -1.8789
 6141SOL     OW30058   0.577   4.446   2.926 -0.2200  0.2698  0.3258
 6141SOL    HW130059   0.559   4.479   3.014  0.4156  0.9276  0.2001
 6141SOL    HW230060   0.635   4.372   2.945 -0.5329 -0.0469  0.0604
 6142SOL     OW30061   2.683   4.317   6.128  0.1680  0.2293 -0.7512
 6142SOL    HW130062   2.702   4.230   6.162  0.1991  0.6442  0.3017
 6142SOL    HW230063   2.684   4.353   6.217 -1.7062  2.8108 -1.7636
 6143SOL     OW30064   1.472   2.828   7.378  0.3417 -0.1062  0.1340
 6143SOL    HW130065   1.555   2.785   7.357  0.9839  2.0149 -1.6039
 6143SOL    HW230066   1.418   2.749   7.367  1.3448 -0.7120 -0.5127
 6144SOL     OW30067   0.315   1.472   9.065 -0.5449  0.0679  0.0532
 6144SOL    HW130068   0.287   1.544   9.121 -0.6348  1.1390 -1.3515
 6144SOL    HW230069   0.409   1.489   9.068 -0.7945  1.5418 -0.3406
 6145SOL     OW30070   0.830   4.255   4.946 -0.0400  0.2061  0.4715
 6145SOL    HW130071   0.818   4.214   5.031 -1.7581 -1.0895 -0.4026
 6145SOL    HW230072   0.746   4.297   4.928 -0.6220 -1.7576 -1.3768
 6146SOL     OW30073   2.449   3.657   4.081  0.3368  0.2556 -0.5556
 6146SOL    HW130074   2.368   3.613   4.054 -1.0999  1.6436  1.5007
 6146SOL    HW230075   2.419   3.744   4.108 -1.1931 -0.2579 -0.5722
 6147SOL     OW30076   2.989   1.376   8.826 -0.1863 -0.3084  0.5701
 6147SOL    HW130077   2.925   1.380   8.897  0.3918  0.9684  1.0095
 6147SOL    HW230078   2.964   1.452   8.773  2.0629 -1.5155 -2.2549
 6148SOL     OW30079   2.679   1.709   8.835 -1.0478 -0.2582  0.1845
 6148SOL    HW130080   2.593   1.746   8.814 -0.3416  0.1541 -2.0226
 6148SOL    HW230081   2.725   1.788   8.861 -1.5154 -0.1048  0.5519
 6149SOL     OW30082   3.890   3.938  16.669  0.2451 -0.0891 -0.2955
 6149SOL    HW130083   3.809   3.937  16.719  1.1032 -2.4258  1.0225
 6149SOL    HW230084   3.955   3.943  16.740  0.7169 -1.2858 -0.6424
 6150SOL     OW30085   3.688   2.186   2.856  0.3987  0.4675  0.0772
 6150SOL    HW130086   3.738   2.148   2.784 -2.4426 -1.6478 -0.7803
 6150SOL    HW230087   3.756   2.220   2.914  0.2980  0.6973  0.0584
 6151SOL     OW30088   4.063   4.041   0.637 -0.1568 -0.0843  0.8427
 6151SOL    HW130089   4.114   4.093   0.576  0.1036  0.3052  1.3892
 6151SOL    HW230090   3.984   4.041   0.585 -0.8125  0.9400  1.8435
 6152SOL     OW30091   2.907   1.719   3.892  0.1240 -0.0817  0.2357
 6152SOL    HW130092   2.948   1.754   3.971  1.7846 -2.1705  0.3040
 6152SOL    HW230093   2.840   1.665   3.932 -0.2192 -1.6131 -2.3592
 6153SOL     OW30094   1.574   2.433   4.165  0.1175  0.0272  0.2870
 6153SOL    HW130095   1.626   2.426   4.085  0.6769  0.4822  0.6083
 6153SOL    HW230096   1.573   2.529   4.164 -1.2041 -0.0006 -0.4033
 6154SOL     OW30097   1.529   0.706   2.223  0.0852  0.5441  0.0433
 6154SOL    HW130098   1.596   0.678   2.162  0.9622  1.8540  0.4085
 6154SOL    HW230099   1.451   0.676   2.177  0.6079  1.2014 -1.2584
 6155SOL     OW30100   1.282   2.691   9.402  0.4437 -0.4169 -0.3207
 6155SOL    HW130101   1.270   2.731   9.316 -0.6813 -2.4799 -1.1167
 6155SOL    HW230102   1.261   2.765   9.459  1.4030 -1.3572  1.2601
 6156SOL     OW30103   1.249   1.444   7.162 -0.2824 -0.3641  0.1419
 6156SOL    HW130104   1.184   1.376   7.148  0.1096 -0.8921  0.8625
 6156SOL    HW230105   1.209   1.494   7.233 -0.5671 -1.2979  0.6348
 6157SOL     OW30106   4.137   2.370   0.455 -0.2487  0.7631 -0.3414
 6157SOL    HW130107   4.100   2.445   0.500  1.7394  1.8649 -0.5325
 6157SOL    HW230108   4.160   2.407   0.370  2.0694  0.0308 -0.0295
 6158SOL     OW30109   1.893   0.720  17.707 -0.5354  0.0898  0.1926
 6158SOL    HW130110   1.965   0.712   0.030  0.6400  3.3776 -0.7654
 6158SOL    HW230111   1.894   0.810  17.676  0.0699  0.6890  1.9647
 6159SOL     OW30112   3.619   4.219   5.607 -0.4640  0.1431  0.8295
 6159SOL    HW130113   3.623   4.228   5.702  0.9384 -1.5886  0.9176
 6159SOL    HW230114   3.530   4.254   5.602 -0.4777 -0.1193 -1.0608
 6160SOL     OW30115   0.911   3.257   6.249 -0.3087  0.4612  0.3405
 6160SOL    HW130116   0.856   3.333   6.228  2.0309  1.2220 -2.9525
 6160SOL    HW230117   0.881   3.228   6.335 -1.5214 -1.5215 -0.7102
 6161SOL     OW30118   4.426   3.853   0.705 -0.0746  0.4343 -0.2392
 6161SOL    HW130119   4.347   3.856   0.759 -0.8743 -1.1131 -1.3150
 6161SOL    HW230120   4.424   3.935   0.655 -1.8437  0.6207  0.1426
 6162SOL     OW30121   3.841   3.942   7.293  0.2641 -0.0435  0.8756
 6162SOL    HW130122   3.904   3.977   7.230  0.6214  0.1308  1.3305
 6162SOL    HW230123   3.901   3.887   7.342 -2.0215 -1.7803  1.7406
 6163SOL     OW30124   0.061   2.824   4.560 -0.4718 -0.1606  0.1001
 6163SOL    HW130125   0.154   2.843   4.550 -0.5696  0.5848  0.6014
 6163SOL    HW230126   0.032   2.915   4.550 -1.6841 -0.3551  1.8583
 6164SOL     OW30127   1.808   0.939   8.342 -0.2329  0.4296 -0.4977
 6164SOL    HW130128   1.835   0.955   8.432 -1.0733 -0.1197 -0.1554
 6164SOL    HW230129   1.888   0.903   8.303  0.2956 -0.5081  1.4595
 6165SOL     OW30130   0.717   3.534   7.026  0.0618 -0.7353  0.3322
 6165SOL    HW130131   0.660   3.589   7.079  2.2425  1.9480 -0.0794
 6165SOL    HW230132   0.653   3.472   6.992 -0.1258  0.0403 -0.7344
 6166SOL     OW30133   0.894   2.369   8.943 -0.1374 -0.0115  0.2313
 6166SOL    HW130134   0.821   2.308   8.959  1.2794 -1.8854 -0.4077
 6166SOL    HW230135   0.936   2.324   8.869 -0.2710 -0.3127  0.3365
 6167SOL     OW30136   0.245   2.942   4.899 -0.7238  0.1053 -0.2914
 6167SOL    HW130137   0.256   2.849   4.917 -2.8524 -0.1729 -0.3297
 6167SOL    HW230138   0.309   2.932   4.828 -0.5270  0.3186 -0.1435
 6168SOL     OW30139   1.192   4.114   3.953  0.2904  0.3821 -0.4165
 6168SOL    HW130140   1.189   4.190   4.011  0.3847  1.0975 -1.3485
 6168SOL    HW230141   1.167   4.161   3.873  0.1959  0.1285 -0.5385
 6169SOL     OW30142   1.347   2.715  12.466  0.5062  0.8675 -0.0582
 6169SOL    HW130143   1.384   2.630  12.493  1.0048  0.4023 -2.1946
 6169SOL    HW230144   1.281   2.677  12.409  1.5044  1.5427 -1.6585
 6170SOL     OW30145   4.047   1.622   2.157  0.1187  0.5282 -0.1250
 6170SOL    HW130146   4.073   1.652   2.069  1.0740  0.4594  0.1263
 6170SOL    HW230147   3.960   1.588   2.137  0.8737 -1.1172 -0.6206
 6171SOL     OW30148   0.292   0.643  11.545 -0.4021  0.5130 -0.1171
 6171SOL    HW130149   0.376   0.661  11.502  0.4151  0.4018  1.4084
 6171SOL    HW230150   0.305   0.554  11.577 -3.7784  0.1994  0.3956
 6172SOL     OW30151   0.669   1.574   6.043  0.2540 -0.3497 -0.3968
 6172SOL    HW130152   0.740   1.605   5.987 -0.4907  1.6329 -0.2641
 6172SOL    HW230153   0.675   1.637   6.115 -0.7474  0.7300 -1.2640
 6173SOL     OW30154   0.237   1.338   6.326  0.1580 -0.0685  0.2317
 6173SOL    HW130155   0.259   1.419   6.281  0.4040 -1.3605 -1.9988
 6173SOL    HW230156   0.142   1.346   6.332  0.2596 -0.2523  2.1003
 6174SOL     OW30157   4.330   1.604  14.315  0.2538  0.0910 -0.2312
 6174SOL    HW130158   4.398   1.665  14.288 -1.8931  0.8950 -3.7690
 6174SOL    HW230159   4.277   1.598  14.236  0.7558  1.1265 -0.6383
 6175SOL     OW30160   1.278   0.978   3.829  0.1191  0.1722 -0.4799
 6175SOL    HW130161   1.184   0.970   3.845  0.2040  1.0751  0.4702
 6175SOL    HW230162   1.289   1.073   3.834  0.8122 -0.0595  2.7630
 6176SOL     OW30163   4.309   1.775   4.235  0.1020  0.7588 -0.0283
 6176SOL    HW130164   4.348   1.757   4.150  1.1778 -0.2115  0.6676
 6176SOL    HW230165   4.224   1.810   4.209 -0.5633 -0.0919  0.9792
 6177SOL     OW30166   3.137   4.233  15.357 -0.5214  0.2539 -0.8775
 6177SOL    HW130167   3.149   4.327  15.346  2.4346 -0.1040 -0.7146
 6177SOL    HW230168   3.168   4.214  15.268  0.8629 -1.5145 -0.0157
 6178SOL     OW30169   1.296   2.175  17.736  1.2070 -0.5317 -0.5977
 6178SOL    HW130170   1.314   2.263   0.030 -0.8505 -0.1345 -0.5838
 6178SOL    HW230171   1.370   2.127   0.034  0.2492 -0.5670  1.2398
 6179SOL     OW30172   0.537   2.304   0.057 -0.0722  0.0974  0.5917
 6179SOL    HW130173   0.563   2.352  17.719  2.2247 -1.5257  0.3541
 6179SOL    HW230174   0.612   2.245   0.066 -0.1079 -0.1929 -1.1176
 6180SOL     OW30175   3.644   1.235  15.465 -0.2479 -0.4551  0.2174
 6180SOL    HW130176   3.730   1.195  15.483  0.6226  1.2726 -0.1176
 6180SOL    HW230177   3.674   1.315  15.421 -2.7343  0.3848  0.0712
 6181SOL     OW30178   1.772   1.187  15.849  0.0953 -0.7039 -0.0093
 6181SOL    HW130179   1.867   1.196  15.854  0.1186 -0.6145 -0.6695
 6181SOL    HW230180   1.743   1.269  15.810  1.4288  1.2489  3.1408
 6182SOL     OW30181   2.182   3.285   8.502 -0.4681  0.0425 -0.0958
 6182SOL    HW130182   2.087   3.277   8.506 -0.6766  2.7996  0.5747
 6182SOL    HW230183   2.206   3.288   8.595 -0.2487  0.6430 -0.1744
 6183SOL     OW30184   0.674   3.887   7.802  1.2390  0.1588  0.0637
 6183SOL    HW130185   0.687   3.981   7.789  0.5399  0.0584 -1.4033
 6183SOL    HW230186   0.712   3.870   7.888 -2.4748 -0.9635  1.4958
 6184SOL     OW30187   3.869   4.400   2.957  0.2266 -0.3747  0.9451
 6184SOL    HW130188   3.832   4.365   3.038 -1.7217 -1.7501 -0.5335
 6184SOL    HW230189   3.846   4.493   2.965  1.0909  0.0061 -0.8569
 6185SOL     OW30190   1.791   3.655   3.989  0.1488  0.3189  0.1040
 6185SOL    HW130191   1.819   3.577   4.037 -1.5773 -0.5116 -0.2477
 6185SOL    HW230192   1.834   3.727   4.036  0.6869  0.7399 -1.0379
 6186SOL     OW30193   3.277   1.979   9.663 -0.5858 -0.5769 -0.0359
 6186SOL    HW130194   3.243   1.890   9.655  1.4355 -1.3257 -0.2395
 6186SOL    HW230195   3.361   1.971   9.709  0.6341  0.5426 -2.0663
 6187SOL     OW30196   2.133   2.047   3.382  0.0221 -0.4011 -1.0346
 6187SOL    HW130197   2.054   1.994   3.392  1.0994 -1.5215  1.4919
 6187SOL    HW230198   2.168   2.022   3.296  0.8355  0.8004 -1.0573
 6188SOL     OW30199   3.833   1.556   8.211 -0.4268 -0.4690 -0.6082
 6188SOL    HW130200   3.919   1.560   8.252  0.4981 -0.7612 -2.5425
 6188SOL    HW230201   3.803   1.647   8.208  0.1147 -0.2143  1.7358
 6189SOL     OW30202   0.273   3.691  11.216  0.3278  0.1123  0.0580
 6189SOL    HW130203   0.284   3.596  11.215  1.9304  0.2983  0.3879
 6189SOL    HW230204   0.283   3.700  11.121  0.7412  1.9557  0.2737
 6190SOL     OW30205   2.012   3.755   3.183  0.1275  0.4685 -0.4809
 6190SOL    HW130206   2.106   3.765   3.198 -0.2299  1.5844  1.0467
 6190SOL    HW230207   1.989   3.670   3.219  0.4862  0.8802  0.7056
 6191SOL     OW30208   3.553   1.242   5.847 -0.0346 -0.1637 -0.7111
 6191SOL    HW130209   3.467   1.279   5.823  0.1472  1.0205  0.4768
 6191SOL    HW230210   3.575   1.189   5.771  0.0582 -0.8571 -0.1972
 6192SOL     OW30211   2.243   3.220  13.591 -0.4032 -0.0302 -0.2680
 6192SOL    HW130212   2.157   3.180  13.575 -0.9549  1.3073 -0.6596
 6192SOL    HW230213   2.254   3.281  13.518  0.7708  0.6145  0.4615
 6193SOL     OW30214   3.852   0.265   5.906 -0.5437 -0.0332 -0.0496
 6193SOL    HW130215   3.831   0.270   5.812  1.7493  2.0952 -0.4670
 6193SOL    HW230216   3.825   0.177   5.932  1.2479  0.3289  3.0602
 6194SOL     OW30217   0.225   2.382   0.419  0.2202  0.5633 -0.3309
 6194SOL    HW130218   0.301   2.345   0.376 -1.2569 -0.9935 -1.6128
 6194SOL    HW230219   0.216   2.316   0.488  0.9268 -0.8695 -1.6342
 6195SOL     OW30220   3.865   3.001  13.156 -0.3163  0.5384 -0.3022
 6195SOL    HW130221   3.838   2.956  13.236 -1.3937  1.8273  0.0731
 6195SOL    HW230222   3.901   2.923  13.115  0.7837 -0.2498  2.1931
 6196SOL     OW30223   1.545   3.010  16.637  0.5443  0.0934 -0.2049
 6196SOL    HW130224   1.511   2.934  16.683 -3.8503  1.9277 -0.3769
 6196SOL    HW230225   1.627   2.978  16.599  1.5281  0.9798  1.1771
 6197SOL     OW30226   3.468   3.994   8.958 -0.3342 -0.2611 -0.4466
 6197SOL    HW130227   3.389   4.034   8.995  1.0633  1.8372  0.2806
 6197SOL    HW230228   3.508   4.070   8.916 -0.3588 -1.9505 -3.5583
 6198SOL     OW30229   4.561   0.837   8.318 -0.0753 -0.2466 -0.3810
 6198SOL    HW130230   4.577   0.903   8.251  1.0485  0.1926  0.3080
 6198SOL    HW230231   4.577   0.877   8.404  2.7698 -3.2306  0.4725
 6199SOL     OW30232   2.580   4.546   8.155 -0.3910  0.0899  0.0343
 6199SOL    HW130233   2.538   4.460   8.155 -0.9232  0.3500  0.2515
 6199SOL    HW230234   2.570   4.563   8.249  0.8408  1.5383 -0.0938
 6200SOL     OW30235   1.389   0.402   2.837 -0.1561 -0.2986 -0.2802
 6200SOL    HW130236   1.329   0.462   2.881  1.3109  1.9202 -1.3232
 6200SOL    HW230237   1.452   0.465   2.803 -0.1465  0.3645  0.9599
 6201SOL     OW30238   4.389   0.698   5.565 -0.2136  0.2425 -0.1334
 6201SOL    HW130239   4.306   0.663   5.597 -0.1624 -0.3125 -0.5998
 6201SOL    HW230240   4.399   0.769   5.628 -1.2448 -0.7334  1.1100
 6202SOL     OW30241   4.477   3.870   2.195  0.2922  0.1507 -0.2107
 6202SOL    HW130242   4.419   3.869   2.271  1.1446 -1.0353  0.4067
 6202SOL    HW230243   4.412   3.881   2.125  0.5264 -2.1906 -0.7866
 6203SOL     OW30244   3.758   4.202   6.281  0.5896  0.4758 -0.7666
 6203SOL    HW130245   3.676   4.153   6.278  1.1358 -0.4254 -0.6618
 6203SOL    HW230246   3.743   4.265   6.351 -0.1462 -0.5606 -0.0010
 6204SOL     OW30247   3.860   1.973  10.845  0.1411 -0.1292  0.1871
 6204SOL    HW130248   3.892   2.062  10.830  0.6301  0.1297  2.8097
 6204SOL    HW230249   3.768   1.990  10.863 -0.0095 -2.0032  1.2342
 6205SOL     OW30250   0.676   0.988  15.468 -1.0883 -0.5436  0.3749
 6205SOL    HW130251   0.700   0.997  15.561 -1.7914  1.8811  0.3320
 6205SOL    HW230252   0.594   1.036  15.477  0.0670  1.4687  0.4093
 6206SOL     OW30253   3.982   2.974   4.615  0.4388  0.1530  0.0627
 6206SOL    HW130254   3.918   3.040   4.588 -1.9852 -2.6948 -1.1090
 6206SOL    HW230255   3.953   2.956   4.704 -1.1450  1.5092 -0.1811
 6207SOL     OW30256   3.590   4.465   7.523 -0.1254 -0.0373  0.0928
 6207SOL    HW130257   3.608   4.380   7.563  1.5579  1.0924  1.7321
 6207SOL    HW230258   3.584   4.432   7.433  1.4296  2.6152 -0.9618
 6208SOL     OW30259   1.858   0.342   3.420  0.5637 -0.3559 -0.0584
 6208SOL    HW130260   1.896   0.405   3.480  0.2868  0.4464 -0.7345
 6208SOL    HW230261   1.923   0.342   3.349 -1.1410  0.7405 -1.6197
 6209SOL     OW30262   3.242   0.230   0.302  0.2840 -0.0849 -0.6576
 6209SOL    HW130263   3.214   0.148   0.342 -0.2887  0.5552  0.2395
 6209SOL    HW230264   3.326   0.242   0.346 -1.3383  1.1841  2.1238
 6210SOL     OW30265   2.412   4.180   7.287 -0.0321  0.2086 -0.3776
 6210SOL    HW130266   2.401   4.203   7.194  4.5518 -0.1554 -0.9745
 6210SOL    HW230267   2.454   4.095   7.275  3.7931  1.7215  2.6286
 6211SOL     OW30268   1.658   4.127   9.387 -0.7599 -0.5079 -0.9442
 6211SOL    HW130269   1.585   4.189   9.386 -0.1524  0.2125 -1.0494
 6211SOL    HW230270   1.714   4.160   9.316 -0.2066  0.2202 -0.1631
 6212SOL     OW30271   3.508   4.553   3.599 -0.4922  0.5383 -0.1097
 6212SOL    HW130272   3.428   4.501   3.597 -0.9572  1.2272  0.8536
 6212SOL    HW230273   3.505   4.616   3.526 -1.0612 -0.7449 -1.2030
 6213SOL     OW30274   0.932   1.143   8.978 -0.6712  0.4669  0.1805
 6213SOL    HW130275   1.004   1.082   8.992  0.3758  1.8117  0.5858
 6213SOL    HW230276   0.852   1.090   8.978 -0.8113  0.6819  0.3079
 6214SOL     OW30277   3.752   2.169   8.900 -0.2509  0.1613 -0.0710
 6214SOL    HW130278   3.671   2.212   8.929  0.2387  0.4910  0.7837
 6214SOL    HW230279   3.818   2.231   8.929 -0.7801  1.3859 -1.4463
 6215SOL     OW30280   0.973   1.253  16.779 -0.3899 -0.0572  0.3628
 6215SOL    HW130281   0.908   1.192  16.744 -2.9231  2.7174  0.1794
 6215SOL    HW230282   1.020   1.190  16.833 -0.5496 -0.4989 -0.0152
 6216SOL     OW30283   2.385   2.666   4.314 -0.1589  0.0492  0.3005
 6216SOL    HW130284   2.412   2.705   4.397  1.5016 -0.0858 -0.1816
 6216SOL    HW230285   2.448   2.593   4.312  0.1362  0.3382 -0.8367
 6217SOL     OW30286   2.316   2.067  17.179  0.1465  0.2240 -0.3726
 6217SOL    HW130287   2.360   2.119  17.247  0.8717 -0.7139 -0.1279
 6217SOL    HW230288   2.228   2.051  17.213 -0.1985  2.2892 -0.2964
 6218SOL     OW30289   4.507   1.406   8.173 -0.0630  0.2583 -0.3660
 6218SOL    HW130290   4.487   1.325   8.221 -0.0580 -0.2937 -1.2881
 6218SOL    HW230291   4.602   1.409   8.165 -0.2789  1.1979 -2.8019
 6219SOL     OW30292   4.623   2.107   8.147 -0.2481 -0.7491  0.0296
 6219SOL    HW130293   4.598   2.173   8.211 -1.1851 -0.9306 -0.1592
 6219SOL    HW230294   4.567   2.032   8.163 -1.1236  0.2453  1.6099
 6220SOL     OW30295   4.049   0.794   5.577 -0.0444  0.1460  0.0114
 6220SOL    HW130296   4.008   0.828   5.656 -2.7553  1.2089 -1.8562
 6220SOL    HW230297   4.090   0.710   5.599  1.6108  0.8438 -0.4715
 6221SOL     OW30298   0.397   0.930  10.979 -0.6282  0.2195  0.0340
 6221SOL    HW130299   0.411   0.942  10.885 -2.4544 -0.9986 -0.3876
 6221SOL    HW230300   0.440   0.846  10.995 -0.8513  0.2936  1.0122
 6222SOL     OW30301   1.994   0.240  13.050 -0.2140  0.6742  0.2377
 6222SOL    HW130302   1.953   0.155  13.061 -0.5358  0.6217 -1.4172
 6222SOL    HW230303   2.085   0.210  13.045 -2.1591 -4.9904 -1.0162
 6223SOL     OW30304   1.137   1.241   8.512  0.2010  0.3575  0.1255
 6223SOL    HW130305   1.219   1.234   8.463 -0.4781  0.4718 -1.0191
 6223SOL    HW230306   1.175   1.299   8.578 -0.2489 -0.2440  0.9142
 6224SOL     OW30307   0.601   2.755   5.746  0.1490 -0.1521 -0.4757
 6224SOL    HW130308   0.577   2.668   5.713 -3.3563  0.4765  0.4215
 6224SOL    HW230309   0.513   2.792   5.756 -0.0047 -0.7677  0.4757
 6225SOL     OW30310   2.481   2.349  15.865  0.4611  0.1158 -0.0227
 6225SOL    HW130311   2.440   2.433  15.885  1.1286  0.6797 -1.0270
 6225SOL    HW230312   2.562   2.382  15.826  0.8076 -0.1287  0.4916
 6226SOL     OW30313   4.665   0.613   2.140  0.6023  0.5960  0.5770
 6226SOL    HW130314   0.003   0.578   2.089  0.1217  0.4551 -0.0204
 6226SOL    HW230315   4.707   0.658   2.214  0.4429  2.5181 -0.4992
 6227SOL     OW30316   4.078   3.501   6.047 -0.2636 -0.5324  0.5283
 6227SOL    HW130317   4.108   3.554   6.121 -0.5791  0.5780 -0.1479
 6227SOL    HW230318   4.083   3.558   5.970  2.1557 -1.0617  0.2865
 6228SOL     OW30319   4.498   0.130   1.860  0.1166 -0.0377 -0.2381
 6228SOL    HW130320   4.479   0.154   1.950 -2.0339 -0.4869 -0.5746
 6228SOL    HW230321   4.467   0.202   1.805  0.1378  1.3878  1.6183
 6229SOL     OW30322   1.619   0.502   1.827  0.2137 -0.0996 -0.2788
 6229SOL    HW130323   1.675   0.556   1.882 -1.4215  1.5273 -0.1945
 6229SOL    HW230324   1.683   0.451   1.777  0.3739  0.5201 -0.7055
 6230SOL     OW30325   3.665   4.667   6.898 -0.0088  0.9655  0.4624
 6230SOL    HW130326   3.696   4.606   6.964  0.4901 -0.4236 -1.0497
 6230SOL    HW230327   3.710   0.014   6.919  1.5772 -0.0846  1.1787
 6231SOL     OW30328   0.523   2.368   4.132  0.3258  0.2616 -0.2347
 6231SOL    HW130329   0.442   2.407   4.102  0.6698  0.8899 -0.3302
 6231SOL    HW230330   0.499   2.343   4.222  1.2084  0.1114 -0.0424
 6232SOL     OW30331   1.940   0.574   5.161 -0.2024  0.4792  0.2277
 6232SOL    HW130332   2.027   0.553   5.127  0.0746  1.9832  0.0191
 6232SOL    HW230333   1.889   0.522   5.099  2.3066 -0.0364 -1.4081
 6233SOL     OW30334   2.230   1.971  13.219 -0.1525 -0.1904  0.1659
 6233SOL    HW130335   2.291   1.989  13.290  0.4387  1.6685 -0.8168
 6233SOL    HW230336   2.188   1.891  13.251 -0.7163 -0.3222 -0.9158
 6234SOL     OW30337   2.316   3.805   0.255  0.2785  0.4003 -0.1087
 6234SOL    HW130338   2.328   3.892   0.216  0.5449 -0.2959 -1.5872
 6234SOL    HW230339   2.386   3.763   0.204 -2.0805 -0.9239 -2.2068
 6235SOL     OW30340   4.202   1.126  11.470  0.1980 -0.1382 -0.1564
 6235SOL    HW130341   4.168   1.085  11.550  0.6150  0.1456  0.1614
 6235SOL    HW230342   4.152   1.207  11.469 -0.6902 -0.6961 -1.3082
 6236SOL     OW30343   0.876   2.304   1.660 -0.0530  0.0369 -0.0325
 6236SOL    HW130344   0.826   2.222   1.661  0.1392 -0.0769  0.5158
 6236SOL    HW230345   0.828   2.356   1.597  0.3555 -0.3747 -0.6801
 6237SOL     OW30346   3.879   1.450   5.946  0.2503 -0.0073  0.2314
 6237SOL    HW130347   3.874   1.502   6.026  0.3563  0.1576  0.1317
 6237SOL    HW230348   3.964   1.472   5.907  1.0632  0.6990  2.4004
 6238SOL     OW30349   4.329   4.631   5.905  0.0619  0.3862  0.3378
 6238SOL    HW130350   4.324   4.536   5.911  1.0295  0.2292 -1.5464
 6238SOL    HW230351   4.281   4.658   5.984  1.6009  0.9792  1.0860
 6239SOL     OW30352   2.006   3.399   9.717  0.2174 -0.3263 -0.4238
 6239SOL    HW130353   2.100   3.412   9.706  0.6354 -1.0973  2.0871
 6239SOL    HW230354   1.970   3.487   9.709  0.4551 -0.1121  0.8134
 6240SOL     OW30355   1.370   4.586  17.496  0.4532  0.0267 -0.1107
 6240SOL    HW130356   1.456   4.552  17.521  0.3872 -0.0263  0.0529
 6240SOL    HW230357   1.386   4.666  17.545 -2.3138  1.2180 -1.1476
 6241SOL     OW30358   2.535   4.609  11.309  0.1341  0.1463 -0.6899
 6241SOL    HW130359   2.515   4.527  11.264 -1.2733  0.0995  0.0172
 6241SOL    HW230360   2.623   4.590  11.342 -0.4874 -0.9407  0.3582
 6242SOL     OW30361   2.165   1.046   4.049  0.1066  0.0120  0.6417
 6242SOL    HW130362   2.238   0.997   4.012  0.1090 -0.7249  1.6299
 6242SOL    HW230363   2.101   1.019   3.982  0.0030  0.5338  0.5300
 6243SOL     OW30364   4.139   2.125   3.831  0.5179  0.1293 -0.0450
 6243SOL    HW130365   4.179   2.177   3.900  2.3824 -0.4950 -0.6378
 6243SOL    HW230366   4.131   2.197   3.768  0.2435  0.4839  0.3959
 6244SOL     OW30367   3.064   1.337   6.823  0.2906  0.4452  0.5765
 6244SOL    HW130368   3.070   1.246   6.854 -0.4332  0.1275 -0.1925
 6244SOL    HW230369   2.973   1.359   6.842 -0.2791 -1.1628 -0.2607
 6245SOL     OW30370   0.228   0.541   7.727 -0.2286  0.1007  0.2897
 6245SOL    HW130371   0.162   0.497   7.780  0.6396  0.4974  1.6822
 6245SOL    HW230372   0.177   0.535   7.646  0.0161  3.2509 -0.0938
 6246SOL     OW30373   3.391   3.844  13.426  0.3916 -0.0282  0.6829
 6246SOL    HW130374   3.344   3.838  13.343  0.4970 -2.9996  0.8505
 6246SOL    HW230375   3.368   3.753  13.447  0.8511 -0.8695 -2.4577
 6247SOL     OW30376   2.999   1.466  10.215  0.2860 -0.2998 -0.5450
 6247SOL    HW130377   3.005   1.373  10.239 -0.5212 -0.1441  0.2549
 6247SOL    HW230378   2.966   1.447  10.127 -0.7902  1.8272 -0.5925
 6248SOL     OW30379   0.507   3.661  13.482 -0.1748 -0.7073  0.3578
 6248SOL    HW130380   0.424   3.649  13.528 -0.5105  1.6764  0.3870
 6248SOL    HW230381   0.561   3.676  13.560 -0.7093  0.3644  0.5197
 6249SOL     OW30382   2.270   0.694  16.971  0.1262  0.0684 -0.0411
 6249SOL    HW130383   2.261   0.755  17.045 -3.1328  1.2503 -1.4108
 6249SOL    HW230384   2.299   0.745  16.896 -0.6236  1.7225  0.7780
 6250SOL     OW30385   3.687   3.091   7.350  0.1056 -0.1231  0.0261
 6250SOL    HW130386   3.780   3.075   7.338 -0.0972 -0.0471 -1.7102
 6250SOL    HW230387   3.691   3.169   7.405  2.3286  2.4586 -3.7508
 6251SOL     OW30388   0.375   0.929   5.277 -0.1685  0.2613 -0.6379
 6251SOL    HW130389   0.344   0.983   5.205  0.8508  2.5482  0.6557
 6251SOL    HW230390   0.444   0.991   5.302 -1.5958  1.4067  0.4529
 6252SOL     OW30391   4.711   1.982   5.976 -0.6120 -0.0958  0.3760
 6252SOL    HW130392   4.725   1.917   5.907  1.3888  0.1441  0.5666
 6252SOL    HW230393   4.642   1.941   6.028 -2.7509  1.4780 -1.1979
 6253SOL     OW30394   3.420   0.856   9.827 -0.7496  0.0511 -0.6212
 6253SOL    HW130395   3.418   0.809   9.743  2.0833  1.3119 -1.4143
 6253SOL    HW230396   3.461   0.787   9.879 -1.2025 -1.6025 -2.4292
 6254SOL     OW30397   1.622   0.340   5.174  0.7191  0.0901 -0.5876
 6254SOL    HW130398   1.620   0.351   5.269 -2.3093  0.7450 -0.7382
 6254SOL    HW230399   1.596   0.421   5.131 -1.0707 -0.0830  0.1347
 6255SOL     OW30400   3.623   2.466   6.472 -0.6030 -0.8313 -0.5477
 6255SOL    HW130401   3.680   2.400   6.433  1.7127  1.0352 -0.3806
 6255SOL    HW230402   3.577   2.411   6.535  1.5113 -0.3524  1.4527
 6256SOL     OW30403   1.848   2.082   3.866  0.0424  0.3586  0.1854
 6256SOL    HW130404   1.770   2.030   3.851 -0.0550 -0.3225  3.1776
 6256SOL    HW230405   1.912   2.020   3.831 -0.0278 -0.0354  0.7638
 6257SOL     OW30406   4.034   2.988  15.880 -1.2188 -0.3852  0.2835
 6257SOL    HW130407   4.049   3.068  15.830  0.0084 -0.1003  1.1239
 6257SOL    HW230408   3.949   2.949  15.858 -1.4852  0.1651  0.3273
 6258SOL     OW30409   1.783   3.908   9.818 -0.6918 -0.2826  0.0582
 6258SOL    HW130410   1.756   3.977   9.757 -0.1373 -0.2907 -0.1951
 6258SOL    HW230411   1.813   3.954   9.897 -1.1150 -0.0416  0.0796
 6259SOL     OW30412   4.350   0.512   4.570 -0.0795 -0.3215  0.0176
 6259SOL    HW130413   4.284   0.463   4.619 -0.5343 -0.0260 -0.2936
 6259SOL    HW230414   4.421   0.448   4.568  1.2348  1.1325  0.4101
 6260SOL     OW30415   2.269   3.600   7.987 -0.3029 -0.2524 -0.4959
 6260SOL    HW130416   2.332   3.605   7.915 -0.3064  1.6100 -0.3802
 6260SOL    HW230417   2.235   3.689   7.995 -1.2405 -0.5988 -0.5894
 6261SOL     OW30418   0.647   4.073  13.614 -0.0541  0.6017  1.0407
 6261SOL    HW130419   0.704   4.001  13.642 -3.5272 -2.1353  0.9932
 6261SOL    HW230420   0.643   4.059  13.519  1.3692 -0.1280  1.0900
 6262SOL     OW30421   2.457   3.645  17.138  0.1761 -0.3831 -0.5157
 6262SOL    HW130422   2.407   3.648  17.220  2.6688  0.5219  0.9853
 6262SOL    HW230423   2.467   3.737  17.113 -0.5934 -0.4077 -0.8992
 6263SOL     OW30424   1.527   2.599  15.074  0.1581 -0.4532 -0.0301
 6263SOL    HW130425   1.548   2.692  15.066 -0.3666 -0.3537 -0.2048
 6263SOL    HW230426   1.562   2.578  15.161 -3.3335  1.8775  1.9502
 6264SOL     OW30427   4.251   0.196   8.857 -0.8120  0.5354  0.2642
 6264SOL    HW130428   4.265   0.115   8.906 -0.7531 -1.1557 -2.5326
 6264SOL    HW230429   4.318   0.191   8.788 -1.0153 -0.7269  0.1630
 6265SOL     OW30430   0.925   1.614  10.910 -0.0089 -0.2309 -0.1430
 6265SOL    HW130431   0.971   1.583  10.832  0.7789 -1.1351  0.6817
 6265SOL    HW230432   0.841   1.629  10.866  0.6984  0.3233 -1.2935
 6266SOL     OW30433   1.769   1.882   8.420  0.1341  0.1230  0.2015
 6266SOL    HW130434   1.724   1.934   8.487 -0.5868 -0.9545  0.5526
 6266SOL    HW230435   1.718   1.801   8.426  1.0517 -0.5434 -0.9120
 6267SOL     OW30436   2.005   1.548   6.674  0.1742  0.9628 -0.1114
 6267SOL    HW130437   2.056   1.477   6.633 -0.1094 -0.9710  2.8529
 6267SOL    HW230438   1.956   1.495   6.737  0.4093  0.2790 -0.5089
 6268SOL     OW30439   0.287   0.221   8.991  0.5182  0.1426  0.4970
 6268SOL    HW130440   0.224   0.277   9.035  0.5518  1.1363 -0.7269
 6268SOL    HW230441   0.239   0.151   8.947  0.3580  1.0983 -0.8379
 6269SOL     OW30442   1.853   0.073   4.222 -0.1983 -0.2019  0.2613
 6269SOL    HW130443   1.793   0.126   4.170 -0.8187 -1.5734 -0.4249
 6269SOL    HW230444   1.909   0.142   4.259 -1.4619  0.7706  0.3457
 6270SOL     OW30445   1.812   3.121   9.247  0.1742  0.2033  0.3853
 6270SOL    HW130446   1.873   3.183   9.285  1.8225 -0.2980 -1.4547
 6270SOL    HW230447   1.771   3.079   9.323 -1.2334  1.2672  0.2175
 6271SOL     OW30448   2.233   1.317   7.310  0.0264 -0.2797 -0.0675
 6271SOL    HW130449   2.302   1.359   7.361  0.7300  1.8874 -2.7668
 6271SOL    HW230450   2.174   1.391   7.296 -0.3481 -0.4904  0.4157
 6272SOL     OW30451   3.100   3.248   1.745 -0.0805 -0.3061 -0.2808
 6272SOL    HW130452   3.134   3.176   1.798  1.0192 -1.3011 -2.3274
 6272SOL    HW230453   3.172   3.263   1.684 -2.2208  2.3962 -2.1652
 6273SOL     OW30454   2.816   4.294   3.972 -0.5965  0.1230 -0.3221
 6273SOL    HW130455   2.797   4.230   3.904 -0.5045 -0.9259  0.6250
 6273SOL    HW230456   2.827   4.231   4.044  2.0505 -0.4471 -1.2174
 6274SOL     OW30457   2.554   1.664   9.198  0.1189  0.0775 -0.7569
 6274SOL    HW130458   2.521   1.626   9.279 -1.5927 -1.1374 -2.0257
 6274SOL    HW230459   2.532   1.756   9.216 -0.7677 -0.1500 -0.7063
 6275SOL     OW30460   2.646   1.872   2.519 -0.6608 -0.7317  0.6302
 6275SOL    HW130461   2.702   1.904   2.448 -0.7379 -1.2611  0.3354
 6275SOL    HW230462   2.695   1.891   2.599 -0.0200 -1.3449  0.3870
 6276SOL     OW30463   3.343   3.042   5.866  0.6058  0.4360 -0.5532
 6276SOL    HW130464   3.253   3.013   5.880 -0.0285  1.9201 -1.6968
 6276SOL    HW230465   3.352   3.041   5.771  0.4717 -0.1630 -0.5606
 6277SOL     OW30466   2.086   0.705   9.261  0.2789 -0.1149  0.2095
 6277SOL    HW130467   2.042   0.675   9.181  1.6102 -0.9580 -0.1918
 6277SOL    HW230468   2.013   0.692   9.322  1.5821 -0.6709  1.6284
 6278SOL     OW30469   3.026   4.127  10.690  0.1771 -0.0900  0.4893
 6278SOL    HW130470   3.041   4.184  10.615 -1.0506 -1.4585 -0.7869
 6278SOL    HW230471   3.032   4.042  10.647  1.7577  0.7950 -1.0501
 6279SOL     OW30472   0.563   3.977   5.743 -0.0463  0.1346 -0.3630
 6279SOL    HW130473   0.467   3.975   5.744 -0.1036  2.2564 -0.0071
 6279SOL    HW230474   0.589   3.925   5.819 -0.1070  1.3467  0.5056
 6280SOL     OW30475   4.578   4.625   4.040  0.2902 -0.3152  0.7682
 6280SOL    HW130476   4.646   4.693   4.038  0.1423 -0.2050 -0.5796
 6280SOL    HW230477   4.575   4.614   3.945 -0.3921 -0.1280  0.7700
 6281SOL     OW30478   0.443   1.923  11.308 -0.1783 -0.2715  0.6248
 6281SOL    HW130479   0.482   1.890  11.227 -0.8892  0.1386  0.1137
 6281SOL    HW230480   0.452   1.859  11.378 -0.1302  1.1337  1.8971
 6282SOL     OW30481   1.483   4.043   5.405 -0.6086  0.2733  0.4965
 6282SOL    HW130482   1.473   3.963   5.456 -0.1676 -0.6450 -0.8871
 6282SOL    HW230483   1.559   4.014   5.356 -1.2812  0.5037 -0.6818
 6283SOL     OW30484   2.707   2.423  15.785  0.0694  0.3276  0.4952
 6283SOL    HW130485   2.741   2.507  15.754  0.8173 -0.0714  0.2188
 6283SOL    HW230486   2.785   2.398  15.835 -0.9959 -0.0709  1.9425
 6284SOL     OW30487   3.684   0.950   1.731 -0.3309 -0.1906  0.0467
 6284SOL    HW130488   3.758   0.967   1.789  1.0825  0.7359 -2.0332
 6284SOL    HW230489   3.666   1.028   1.680 -1.6849 -0.7539 -0.3647
 6285SOL     OW30490   3.405   2.076  15.779  0.3446 -0.7002 -0.3148
 6285SOL    HW130491   3.380   2.142  15.713  0.7341  0.5903  0.8248
 6285SOL    HW230492   3.324   2.030  15.800 -0.3816  0.5122 -0.4374
 6286SOL     OW30493   0.222   0.687   3.110  0.3933 -0.0714  0.2142
 6286SOL    HW130494   0.165   0.764   3.120  0.7863  0.1921  0.4389
 6286SOL    HW230495   0.168   0.627   3.059  2.7764 -1.1564 -1.0387
 6287SOL     OW30496   2.012   4.663  11.897 -0.7633  0.3337  0.4970
 6287SOL    HW130497   2.080   4.654  11.830 -1.5824  1.3116 -0.4501
 6287SOL    HW230498   1.962   0.008  11.883  1.1182  1.0837 -1.8552
 6288SOL     OW30499   3.300   1.163   7.044  0.0783 -0.0486 -0.5428
 6288SOL    HW130500   3.218   1.138   7.002  0.8113 -2.3038 -0.6181
 6288SOL    HW230501   3.355   1.139   6.969 -0.4011  0.9917 -1.2294
 6289SOL     OW30502   1.568   2.572   6.146 -0.1837  0.3056 -0.5701
 6289SOL    HW130503   1.599   2.539   6.062  0.0698 -0.4307 -0.1848
 6289SOL    HW230504   1.590   2.506   6.211 -2.2406 -0.7193 -0.9397
 6290SOL     OW30505   0.845   3.370  11.281  0.3043  0.0857  0.3411
 6290SOL    HW130506   0.829   3.463  11.262 -0.0021  0.0196  0.2846
 6290SOL    HW230507   0.899   3.384  11.358 -0.7805 -0.7082  1.2394
 6291SOL     OW30508   0.730   0.183   0.602 -0.3104  0.0822 -0.2675
 6291SOL    HW130509   0.706   0.270   0.569 -0.3841  0.3088  0.3720
 6291SOL    HW230510   0.791   0.156   0.534  0.7824  0.5965  0.5244
 6292SOL     OW30511   1.699   0.753   8.611  0.5829 -0.2944 -0.0741
 6292SOL    HW130512   1.722   0.846   8.612 -1.3988  0.2018 -1.0350
 6292SOL    HW230513   1.758   0.714   8.547  0.7173 -1.1429  0.5751
 6293SOL     OW30514   3.849   0.532   7.944 -0.2023  0.3402 -0.1364
 6293SOL    HW130515   3.755   0.511   7.941 -0.3038  0.7799 -0.0112
 6293SOL    HW230516   3.855   0.571   7.857  1.2354 -0.9355 -0.6111
 6294SOL     OW30517   0.119   3.720   7.473  0.3350 -0.4114 -0.0996
 6294SOL    HW130518   0.112   3.791   7.410 -1.8294 -0.5230  0.0276
 6294SOL    HW230519   0.196   3.672   7.443  1.0341  1.7761 -1.7862
 6295SOL     OW30520   1.172   1.832   1.502 -0.5562 -0.0307 -0.4982
 6295SOL    HW130521   1.173   1.738   1.486  1.3519 -0.1363  0.3220
 6295SOL    HW230522   1.082   1.859   1.480 -0.2613  0.2449 -1.3817
 6296SOL     OW30523   4.064   2.801   8.211 -0.2380  0.0411  0.1844
 6296SOL    HW130524   4.090   2.880   8.164 -1.0729 -0.1406 -0.5895
 6296SOL    HW230525   3.998   2.757   8.158  1.1327 -1.1738 -0.5122
 6297SOL     OW30526   1.300   4.706  16.594 -0.5222  0.1728 -0.1728
 6297SOL    HW130527   1.274   4.617  16.569  1.5788  0.0501 -1.8856
 6297SOL    HW230528   1.227   4.726  16.653  0.1287  2.2249 -0.0952
 6298SOL     OW30529   4.577   1.350   4.713 -0.5883  0.1919 -0.5498
 6298SOL    HW130530   4.542   1.275   4.762  0.0280  0.2448 -0.0218
 6298SOL    HW230531   4.605   1.306   4.633 -0.3123 -0.5636 -0.0436
 6299SOL     OW30532   0.347   1.363   4.946 -0.6843  0.8453  0.3483
 6299SOL    HW130533   0.372   1.334   5.033 -0.5803  0.7981  0.3027
 6299SOL    HW230534   0.262   1.325   4.927 -1.5255  0.8986  4.1242
 6300SOL     OW30535   4.312   0.759   4.589 -0.6094  0.2453  0.1637
 6300SOL    HW130536   4.233   0.777   4.538  1.0675 -0.3183 -2.6475
 6300SOL    HW230537   4.329   0.665   4.583 -1.3272  0.1014  0.3562
 6301SOL     OW30538   3.163   4.327   0.173 -0.1742  0.3753 -0.3755
 6301SOL    HW130539   3.110   4.405   0.190 -0.3580 -0.1638  1.5527
 6301SOL    HW230540   3.103   4.282   0.114  0.9384  0.5900 -1.6633
 6302SOL     OW30541   2.631   0.443  12.510 -0.0337 -0.2436 -0.7162
 6302SOL    HW130542   2.683   0.401  12.578 -0.6553  2.8619  1.7027
 6302SOL    HW230543   2.683   0.402  12.441 -0.0768 -1.4111 -0.0491
 6303SOL     OW30544   1.051   0.690   3.578 -0.3532 -0.0376  0.1378
 6303SOL    HW130545   1.128   0.637   3.556  0.3266  1.7597 -1.8225
 6303SOL    HW230546   1.014   0.693   3.490 -1.8607 -2.5085  0.6818
 6304SOL     OW30547   1.670   0.578   3.245 -0.1861  0.2389  0.7298
 6304SOL    HW130548   1.654   0.492   3.285  1.0284 -0.5592 -0.4793
 6304SOL    HW230549   1.682   0.547   3.155  0.0830  0.8351  0.5649
 6305SOL     OW30550   2.259   2.318   5.138  0.0097  0.4063  0.1340
 6305SOL    HW130551   2.173   2.349   5.109  0.3834  1.3167  0.0173
 6305SOL    HW230552   2.260   2.334   5.232 -0.8032 -1.3276  0.4435
 6306SOL     OW30553   2.084   1.867   8.432  0.0503  0.1372  0.1926
 6306SOL    HW130554   1.990   1.860   8.450  0.1638 -1.7871  0.0806
 6306SOL    HW230555   2.102   1.821   8.350  0.9242  1.6094 -0.4463
 6307SOL     OW30556   1.106   1.796   3.278 -0.2068  0.3930 -0.4129
 6307SOL    HW130557   1.045   1.803   3.352  0.5228 -0.1887  0.2403
 6307SOL    HW230558   1.107   1.701   3.278 -1.8340  0.3680 -2.4756
 6308SOL     OW30559   1.423   3.679  14.579  0.4956  0.0209  0.5727
 6308SOL    HW130560   1.396   3.701  14.490 -2.0165  1.9301  1.8140
 6308SOL    HW230561   1.342   3.637  14.609 -0.2920 -0.8471 -2.7905
 6309SOL     OW30562   1.861   3.188   6.276  0.2451  0.4619  0.2227
 6309SOL    HW130563   1.834   3.264   6.326 -1.9174 -0.7561  0.8770
 6309SOL    HW230564   1.950   3.223   6.267 -0.5481  2.5241  0.4009
 6310SOL     OW30565   1.899   3.382  15.716 -0.0048  0.0372 -0.5905
 6310SOL    HW130566   1.805   3.393  15.734 -0.3151 -3.1268 -0.2327
 6310SOL    HW230567   1.922   3.474  15.706  0.3341  0.0374  0.1869
 6311SOL     OW30568   0.830   0.104  13.009  0.1875  0.2512  0.0517
 6311SOL    HW130569   0.749   0.123  12.961  1.0648  0.6850 -1.2400
 6311SOL    HW230570   0.850   0.010  13.003  1.6555  0.6383 -0.9726
 6312SOL     OW30571   4.467   0.287   2.087 -0.4108 -0.2071 -0.0924
 6312SOL    HW130572   4.465   0.279   2.182  0.0913 -1.9385 -0.2413
 6312SOL    HW230573   4.546   0.341   2.079  1.6831 -2.8401  3.4459
 6313SOL     OW30574   4.101   2.326   3.662 -0.0088  0.5360  0.2748
 6313SOL    HW130575   4.111   2.344   3.568  1.1097 -2.5679 -0.1937
 6313SOL    HW230576   4.053   2.406   3.686 -1.3661 -0.0642 -0.4288
 6314SOL     OW30577   0.854   2.686   7.472 -0.0293 -0.5066  0.2029
 6314SOL    HW130578   0.810   2.749   7.529 -1.0722  0.4006 -1.6282
 6314SOL    HW230579   0.869   2.612   7.531  0.4664  0.6862  1.5727
 6315SOL     OW30580   2.096   3.597   3.665  0.2949  0.2509  0.1527
 6315SOL    HW130581   2.057   3.511   3.682 -1.4769  1.3162  1.5240
 6315SOL    HW230582   2.148   3.575   3.587  1.1321  2.5986  0.0561
 6316SOL     OW30583   2.459   1.287  12.868 -0.2761  0.2900  0.0812
 6316SOL    HW130584   2.388   1.283  12.932 -1.8727 -0.5377 -1.7211
 6316SOL    HW230585   2.431   1.371  12.831 -2.0219  0.1835  1.1216
 6317SOL     OW30586   3.313   4.481   1.498  0.5514  0.3520 -0.1522
 6317SOL    HW130587   3.225   4.453   1.521  0.5720  1.0426  0.8088
 6317SOL    HW230588   3.314   4.467   1.403 -1.8174  0.9835 -0.2635
 6318SOL     OW30589   2.945   1.728   9.063 -0.2888 -0.0048  0.4442
 6318SOL    HW130590   2.869   1.691   9.107  0.7662 -2.0498  0.5367
 6318SOL    HW230591   2.905   1.795   9.007  1.2934  0.0993 -0.5876
 6319SOL     OW30592   3.135   3.675   2.879  0.0381  0.2348  0.2297
 6319SOL    HW130593   3.060   3.621   2.856  0.4493  0.2204 -1.0942
 6319SOL    HW230594   3.096   3.761   2.862  0.8363  0.4454 -0.5343
 6320SOL     OW30595   2.548   1.559  13.275 -0.3756 -0.0105  0.1984
 6320SOL    HW130596   2.624   1.531  13.224 -1.5533 -1.3019 -0.8551
 6320SOL    HW230597   2.564   1.512  13.357 -0.6363 -2.5408 -1.1854
 6321SOL     OW30598   0.762   1.970   4.966  0.3036 -0.8082 -0.0513
 6321SOL    HW130599   0.759   1.900   4.901  0.0565 -0.5354 -0.3340
 6321SOL    HW230600   0.844   2.016   4.948 -1.2434  2.3163  0.8691
 6322SOL     OW30601   2.446   1.285   6.253  0.4205 -0.1628  0.2852
 6322SOL    HW130602   2.507   1.352   6.282 -0.9561  0.1978  2.3681
 6322SOL    HW230603   2.458   1.222   6.324  0.6588 -0.6615 -0.1961
 6323SOL     OW30604   2.245   1.355  13.003  0.1280 -0.4360  0.3523
 6323SOL    HW130605   2.163   1.404  13.000 -0.2898 -1.3191 -2.8114
 6323SOL    HW230606   2.208   1.267  13.002 -0.4396 -0.2031  1.2046
 6324SOL     OW30607   2.624   0.575   2.841  0.3310  0.2129 -0.1547
 6324SOL    HW130608   2.566   0.546   2.912 -0.2973  0.0699 -0.7229
 6324SOL    HW230609   2.642   0.663   2.874  1.3625 -0.4217  0.9573
 6325SOL     OW30610   3.568   3.661  11.953 -0.4168  0.4465 -0.0524
 6325SOL    HW130611   3.500   3.662  11.887 -1.3644 -0.2606  0.9134
 6325SOL    HW230612   3.636   3.675  11.887 -1.3328  1.8667 -0.6923
 6326SOL     OW30613   0.771   0.021   7.499 -0.0513 -0.1537 -0.1567
 6326SOL    HW130614   0.695   4.700   7.512 -1.8053  2.3701  0.5286
 6326SOL    HW230615   0.827   4.730   7.572  1.6927  1.9851 -0.7068
 6327SOL     OW30616   1.246   0.328   1.294 -0.1964 -0.2176 -0.2658
 6327SOL    HW130617   1.256   0.408   1.347 -0.1890 -0.1249 -0.4078
 6327SOL    HW230618   1.332   0.325   1.253 -0.1570  1.1073 -0.3015
 6328SOL     OW30619   1.768   0.730  10.890  0.2795  0.5457  0.0200
 6328SOL    HW130620   1.833   0.696  10.828 -0.4062 -0.5678 -0.0870
 6328SOL    HW230621   1.775   0.666  10.961  1.6778  0.4893 -0.1599
 6329SOL     OW30622   3.442   3.669   4.339  0.5403 -0.1175  0.7081
 6329SOL    HW130623   3.419   3.711   4.422 -0.6520 -0.8420  0.7430
 6329SOL    HW230624   3.401   3.584   4.355 -0.2320  0.0411 -0.4747
 6330SOL     OW30625   4.584   2.271   2.353  0.6986  0.0223 -0.0718
 6330SOL    HW130626   4.555   2.354   2.390 -0.6075 -1.4789  2.2858
 6330SOL    HW230627   4.524   2.210   2.397  1.2156 -0.6525 -0.2995
 6331SOL     OW30628   2.493   3.723  12.347  0.5449 -0.5897 -0.0024
 6331SOL    HW130629   2.483   3.807  12.302 -1.0910 -1.5931 -1.4823
 6331SOL    HW230630   2.411   3.709  12.394  0.2481 -0.8359 -0.5990
 6332SOL     OW30631   4.246   1.542   0.390 -0.4460 -0.5786 -0.5626
 6332SOL    HW130632   4.188   1.598   0.442 -2.1098 -1.2478 -1.7109
 6332SOL    HW230633   4.181   1.505   0.332 -0.6873  0.1802 -0.7818
 6333SOL     OW30634   3.560   1.816   6.935 -0.1545  0.2854  0.1396
 6333SOL    HW130635   3.568   1.755   6.862 -0.0610  0.5579 -0.0786
 6333SOL    HW230636   3.476   1.856   6.915 -0.7963 -1.7960 -1.3098
 6334SOL     OW30637   3.739   0.546   7.673 -0.3484 -0.4951  0.2467
 6334SOL    HW130638   3.660   0.522   7.722 -0.7380 -2.4507 -1.3307
 6334SOL    HW230639   3.746   0.466   7.621  0.3653 -0.8995  0.9810
 6335SOL     OW30640   2.187   2.700   6.180  0.2892  0.3953 -0.1521
 6335SOL    HW130641   2.106   2.663   6.213  0.4904 -0.0406 -0.1495
 6335SOL    HW230642   2.208   2.753   6.257  1.2437 -0.8113  0.4221
 6336SOL     OW30643   3.653   1.040   6.285  0.1182  0.6990 -0.2416
 6336SOL    HW130644   3.714   1.091   6.339  0.6010 -2.1836  1.9453
 6336SOL    HW230645   3.671   0.952   6.319  0.5167  1.1475  0.7171
 6337SOL     OW30646   4.033   4.169   5.984 -0.2257  0.0886  0.0296
 6337SOL    HW130647   4.059   4.260   5.993  1.7263 -0.3315 -1.3050
 6337SOL    HW230648   4.049   4.151   5.891 -1.6557 -0.3415 -0.1437
 6338SOL     OW30649   0.363   1.340   9.347 -0.2758  0.3661  0.4188
 6338SOL    HW130650   0.285   1.332   9.401 -0.2010  1.5906  0.7036
 6338SOL    HW230651   0.323   1.375   9.268  0.0425 -1.3598 -0.4922
 6339SOL     OW30652   4.204   1.971   7.011  0.2038  0.7542 -0.0684
 6339SOL    HW130653   4.275   2.030   7.038  0.9443 -0.1737  0.0104
 6339SOL    HW230654   4.253   1.889   7.021  0.1980  0.6022 -1.3476
 6340SOL     OW30655   3.242   3.307   3.843 -0.1898 -0.7177  0.2394
 6340SOL    HW130656   3.276   3.369   3.907  0.2831 -0.7666  0.0354
 6340SOL    HW230657   3.319   3.252   3.830  0.8378  0.7717  0.0090
 6341SOL     OW30658   2.375   3.187  17.040 -0.1400 -0.3429 -0.6507
 6341SOL    HW130659   2.460   3.230  17.035 -1.8276  3.0971 -0.1707
 6341SOL    HW230660   2.324   3.258  17.079  1.0357  0.9307 -1.4410
 6342SOL     OW30661   3.231   4.340   9.537 -0.1376  0.4771 -1.0259
 6342SOL    HW130662   3.296   4.346   9.607 -1.9076 -1.4353  0.7839
 6342SOL    HW230663   3.207   4.428   9.509  1.1665  1.2428  0.3196
 6343SOL     OW30664   4.600   4.547   8.292 -0.0650 -0.5399  0.3773
 6343SOL    HW130665   4.569   4.637   8.306 -0.1919 -0.4637 -0.4268
 6343SOL    HW230666   4.625   4.519   8.380  2.6454 -0.4281 -0.3726
 6344SOL     OW30667   0.271   3.261   7.375 -0.0341  0.3956 -0.4150
 6344SOL    HW130668   0.354   3.240   7.419 -0.3366  1.5172  0.6699
 6344SOL    HW230669   0.264   3.180   7.324 -1.2605 -1.3527  2.5532
 6345SOL     OW30670   3.311   4.187   6.749 -0.1956  0.0164 -0.0756
 6345SOL    HW130671   3.286   4.273   6.715 -0.1871  0.5545  1.2794
 6345SOL    HW230672   3.394   4.163   6.707 -0.1898  2.1711 -1.2918
 6346SOL     OW30673   0.945   0.315   8.132  0.1769 -0.1265 -0.0999
 6346SOL    HW130674   0.992   0.242   8.171 -0.7882  0.6753  2.5265
 6346SOL    HW230675   1.014   0.345   8.073 -1.0657  1.1259 -0.9280
 6347SOL     OW30676   4.374   3.597   6.101  0.3995  0.5905 -0.0492
 6347SOL    HW130677   4.359   3.561   6.189  1.0424  1.1166  0.2779
 6347SOL    HW230678   4.346   3.688   6.108 -0.6632  0.2666 -0.0296
 6348SOL     OW30679   2.142   1.093   8.143 -0.3101  0.5399 -0.0228
 6348SOL    HW130680   2.158   1.162   8.079  2.4605  0.5497  0.6586
 6348SOL    HW230681   2.050   1.115   8.156  0.0727  1.6949  0.7678
 6349SOL     OW30682   3.144   3.562  11.560  0.2696 -0.3141 -0.4017
 6349SOL    HW130683   3.184   3.611  11.489  0.2051 -0.1577 -0.3286
 6349SOL    HW230684   3.222   3.522  11.598  0.5882  1.7827  1.0902
 6350SOL     OW30685   2.860   3.230   1.638  0.0555 -0.1113  0.4407
 6350SOL    HW130686   2.822   3.208   1.723  0.2371  1.0411  0.8097
 6350SOL    HW230687   2.950   3.241   1.670  0.2505 -0.1883 -0.0699
 6351SOL     OW30688   0.455   3.596   5.772 -0.0380 -0.1501 -0.0616
 6351SOL    HW130689   0.510   3.533   5.726 -0.8234 -1.6014  0.9792
 6351SOL    HW230690   0.469   3.669   5.712 -0.5190 -0.1452 -0.1666
 6352SOL     OW30691   4.445   1.703  14.973 -0.1177 -0.4972  0.2521
 6352SOL    HW130692   4.389   1.710  14.896  1.7454  0.6414 -1.0033
 6352SOL    HW230693   4.533   1.683  14.940  1.2343  2.7734  1.9200
 6353SOL     OW30694   2.582   0.249   1.825  0.4185 -0.1427  0.6006
 6353SOL    HW130695   2.616   0.169   1.867  2.7075  0.4333 -0.1508
 6353SOL    HW230696   2.670   0.288   1.826 -0.6066  2.1483 -0.8505
 6354SOL     OW30697   1.139   2.844   0.085  0.1089  0.1265 -0.1708
 6354SOL    HW130698   1.128   2.804   0.172  2.2849  1.3610  0.6671
 6354SOL    HW230699   1.111   2.934   0.103  2.4060  1.1859 -1.9638
 6355SOL     OW30700   0.834   1.674  16.241  0.1744 -0.6320 -0.1150
 6355SOL    HW130701   0.758   1.678  16.299  0.8223 -0.8419  0.7613
 6355SOL    HW230702   0.830   1.760  16.199  2.0072 -0.6532 -0.3349
 6356SOL     OW30703   3.519   2.147   1.105 -0.0628  0.4011  0.2155
 6356SOL    HW130704   3.569   2.097   1.041  2.0731  3.2383 -0.2960
 6356SOL    HW230705   3.465   2.074   1.137  1.7679 -1.3273 -0.6091
 6357SOL     OW30706   2.705   1.667   2.766  0.3366  0.5331 -0.1495
 6357SOL    HW130707   2.616   1.663   2.799  0.7135 -0.8066  0.7167
 6357SOL    HW230708   2.741   1.718   2.839 -0.4743  1.4525 -0.3853
 6358SOL     OW30709   3.902   1.627  13.278  0.7729  0.0239 -0.2981
 6358SOL    HW130710   3.920   1.662  13.192 -0.6677  0.7232 -0.3157
 6358SOL    HW230711   3.948   1.689  13.334  0.0380 -1.0138  1.5043
 6359SOL     OW30712   2.405   3.925   2.236 -0.1752 -0.2353  0.2641
 6359SOL    HW130713   2.438   4.015   2.235 -0.7551 -0.0366 -0.8085
 6359SOL    HW230714   2.482   3.875   2.263 -0.3638 -0.1244  0.9910
 6360SOL     OW30715   2.659   2.996   7.795 -0.1118  0.1906  0.6426
 6360SOL    HW130716   2.709   3.075   7.818 -2.4290  1.4958  1.1713
 6360SOL    HW230717   2.620   3.017   7.710  1.9619  1.1220 -0.0770
 6361SOL     OW30718   3.863   2.977   3.943 -0.6902 -0.4218  0.6074
 6361SOL    HW130719   3.820   3.016   3.867 -0.4141  1.1497  1.2557
 6361SOL    HW230720   3.839   3.048   4.002  1.2810  2.0770 -1.5696
 6362SOL     OW30721   3.856   1.135  16.273  0.2457 -0.0498  0.4269
 6362SOL    HW130722   3.930   1.166  16.222  0.8085 -0.6184  0.9008
 6362SOL    HW230723   3.787   1.162  16.212  0.0078 -1.5132  0.0266
 6363SOL     OW30724   3.327   0.167  10.149  0.5220  0.4136  0.4832
 6363SOL    HW130725   3.276   0.191  10.072  2.1650 -0.4002 -0.8514
 6363SOL    HW230726   3.413   0.185  10.112  0.5232  1.4627  0.9826
 6364SOL     OW30727   3.606   0.106  12.036 -0.1355  0.0343  0.4834
 6364SOL    HW130728   3.623   0.182  12.091 -1.6790 -0.4828  1.6752
 6364SOL    HW230729   3.580   0.044  12.104 -1.2878  0.0152  0.0265
 6365SOL     OW30730   1.111   3.276   7.339  0.5576 -0.0764 -0.0708
 6365SOL    HW130731   1.095   3.209   7.273 -1.1579  0.0426  0.2340
 6365SOL    HW230732   1.031   3.327   7.328 -0.2529 -1.4687 -0.5978
 6366SOL     OW30733   0.926   3.420  12.715 -0.5023 -0.2477 -0.2353
 6366SOL    HW130734   0.965   3.370  12.644 -0.5537 -1.9774  0.9733
 6366SOL    HW230735   0.975   3.384  12.788 -0.2071  0.8819  0.1330
 6367SOL     OW30736   2.058   1.242   9.211  0.3334  0.4721 -0.3682
 6367SOL    HW130737   2.043   1.186   9.287  0.2255  3.5291  1.9027
 6367SOL    HW230738   2.007   1.320   9.233  0.9685  1.4170 -2.2377
 6368SOL     OW30739   2.831   1.136   4.530  0.0646  0.4010  0.6067
 6368SOL    HW130740   2.757   1.100   4.579 -0.2870  0.7815  0.3517
 6368SOL    HW230741   2.835   1.225   4.566 -1.4283  0.7793 -0.1753
 6369SOL     OW30742   1.322   0.686   6.851  0.2927  0.4260  0.1599
 6369SOL    HW130743   1.254   0.684   6.784  0.9381  1.7420 -0.5343
 6369SOL    HW230744   1.294   0.617   6.912  2.1109  1.6296  2.3996
 6370SOL     OW30745   1.349   3.028   5.037 -0.2702 -0.4028 -0.3097
 6370SOL    HW130746   1.355   2.934   5.025  1.1200 -0.2187 -1.0572
 6370SOL    HW230747   1.307   3.040   5.122  1.5722  1.7458  0.2866
 6371SOL     OW30748   1.804   4.114   5.702 -0.3278  0.2326  0.5127
 6371SOL    HW130749   1.792   4.194   5.652  0.0921  0.1609  0.2980
 6371SOL    HW230750   1.873   4.134   5.766  1.7633 -0.8093 -1.4351
 6372SOL     OW30751   4.725   0.427   3.565  0.1156  0.0791  0.1614
 6372SOL    HW130752   4.727   0.334   3.587  0.7130  0.0908  0.1444
 6372SOL    HW230753   4.672   0.457   3.639  0.4577  1.9749 -0.3708
 6373SOL     OW30754   1.905   2.003   2.303  0.3700  0.4588 -0.7219
 6373SOL    HW130755   1.872   1.947   2.233 -1.9222  0.5349  0.2915
 6373SOL    HW230756   1.858   2.083   2.280  1.3443  0.7370 -1.7496
 6374SOL     OW30757   0.289   4.051   6.235  0.1623 -0.2841 -0.3331
 6374SOL    HW130758   0.289   4.141   6.267 -1.5608 -0.8984  1.4174
 6374SOL    HW230759   0.296   4.066   6.141  0.3782  2.6080  0.1616
 6375SOL     OW30760   4.024   4.552  10.186 -0.5062  0.0947  0.2668
 6375SOL    HW130761   3.989   4.601  10.111  0.6135  1.3709  0.5733
 6375SOL    HW230762   4.106   4.597  10.206 -0.3126 -1.1550  2.2739
 6376SOL     OW30763   3.687   1.012  13.238  0.1409  0.3135 -0.3882
 6376SOL    HW130764   3.623   1.049  13.177 -1.4003  1.0297  1.6922
 6376SOL    HW230765   3.659   0.920  13.238 -0.9276  0.6377 -0.4852
 6377SOL     OW30766   2.245   3.625   4.371 -0.1802  0.8453  0.0341
 6377SOL    HW130767   2.325   3.573   4.362 -0.8407  0.1936 -2.1311
 6377SOL    HW230768   2.281   3.712   4.354  0.4591  0.2076 -1.8991
 6378SOL     OW30769   1.738   2.084   8.989 -0.0184  0.2189 -0.1780
 6378SOL    HW130770   1.706   2.170   9.017  1.3592  0.8853 -0.6242
 6378SOL    HW230771   1.829   2.075   9.017 -0.0890 -1.6627 -0.5505
 6379SOL     OW30772   0.594   4.389   2.636  0.2182  0.1471  0.4600
 6379SOL    HW130773   0.604   4.455   2.567 -0.0557  0.0841  0.3578
 6379SOL    HW230774   0.542   4.443   2.696 -1.6753 -0.6626 -0.4517
 6380SOL     OW30775   3.236   1.131  15.129  0.1755 -0.3320  0.4631
 6380SOL    HW130776   3.259   1.224  15.134  3.5920 -1.2562  1.9814
 6380SOL    HW230777   3.319   1.088  15.152  0.3744  0.2448  0.8209
 6381SOL     OW30778   3.828   1.983  14.551  0.3018  0.1493  0.6703
 6381SOL    HW130779   3.894   2.048  14.528 -0.7339  1.0595  0.2765
 6381SOL    HW230780   3.869   1.903  14.517  0.4031  0.1539  0.7812
 6382SOL     OW30781   2.228   3.231   6.976 -0.3402 -0.3452 -0.4827
 6382SOL    HW130782   2.307   3.202   6.932  0.0096 -0.4056  0.1872
 6382SOL    HW230783   2.254   3.285   7.050 -0.7307 -0.1776 -0.4652
 6383SOL     OW30784   0.166   0.770   5.382 -0.1029 -0.1222 -0.5345
 6383SOL    HW130785   0.232   0.811   5.326 -1.5613  0.4949 -1.7951
 6383SOL    HW230786   0.144   0.693   5.330  0.2952  0.2538 -1.2571
 6384SOL     OW30787   2.215   4.401   1.751  0.0127 -0.4222  0.2711
 6384SOL    HW130788   2.287   4.463   1.742 -1.9690  1.6457 -1.4462
 6384SOL    HW230789   2.234   4.371   1.840  0.6332 -0.1434  0.2321
 6385SOL     OW30790   0.421   4.490   1.145  0.1871 -0.3504 -0.1185
 6385SOL    HW130791   0.349   4.490   1.082  0.6038  1.9011 -0.6092
 6385SOL    HW230792   0.460   4.403   1.142 -0.0752 -0.4683 -0.0656
 6386SOL     OW30793   2.182   4.325   5.279 -0.0680  0.0461 -0.1522
 6386SOL    HW130794   2.181   4.238   5.320  0.4082 -0.1498 -0.5545
 6386SOL    HW230795   2.200   4.385   5.352 -0.9209 -3.0206  2.5651
 6387SOL     OW30796   2.266   2.205  14.997  0.5881 -0.3128 -0.1640
 6387SOL    HW130797   2.259   2.299  14.985  0.1672 -0.2055  0.9444
 6387SOL    HW230798   2.265   2.188  15.092  0.4674 -0.1767 -0.1424
 6388SOL     OW30799   4.433   2.330  14.727 -0.1500  0.4347 -0.0823
 6388SOL    HW130800   4.380   2.294  14.798 -0.9698 -0.4454 -1.1397
 6388SOL    HW230801   4.372   2.396  14.696  1.6962  2.4766  0.6090
 6389SOL     OW30802   1.579   3.987   0.738 -0.3272  0.2114  0.4304
 6389SOL    HW130803   1.497   3.979   0.689  0.4322  1.0026 -0.9521
 6389SOL    HW230804   1.566   4.048   0.811 -0.3587 -1.5075  1.8705
 6390SOL     OW30805   0.014   0.379   4.337 -0.0174  0.4907  0.3088
 6390SOL    HW130806   0.013   0.334   4.421  3.0827 -0.6129 -0.2149
 6390SOL    HW230807   4.679   0.440   4.359  0.0922  0.5393  0.5248
 6391SOL     OW30808   1.318   1.376   8.918  0.3989  0.6323 -0.2349
 6391SOL    HW130809   1.341   1.338   9.002  1.0480  2.3731  0.3671
 6391SOL    HW230810   1.362   1.326   8.849  0.9559  1.3159 -0.3785
 6392SOL     OW30811   2.361   4.117   6.497  0.3635 -0.1957  0.0793
 6392SOL    HW130812   2.351   4.186   6.432  0.3883 -0.3309 -0.0661
 6392SOL    HW230813   2.427   4.068   6.448  1.6967 -0.5257  2.1739
 6393SOL     OW30814   2.941   2.485   3.188  0.1175  0.2555  0.2282
 6393SOL    HW130815   2.890   2.420   3.140  1.0518 -1.4107  1.5020
 6393SOL    HW230816   2.893   2.499   3.270  0.6638 -0.4151  0.6606
 6394SOL     OW30817   4.143   4.704  12.630  0.1849 -0.1820 -0.1192
 6394SOL    HW130818   4.109   4.723  12.718 -0.1310 -0.7579 -0.1240
 6394SOL    HW230819   4.123   0.046  12.577  0.2904  0.4264  0.7179
 6395SOL     OW30820   1.323   2.353   4.359  0.4476  0.0373  0.1215
 6395SOL    HW130821   1.402   2.331   4.309  0.2405  2.2268 -1.1636
 6395SOL    HW230822   1.362   2.362   4.446 -3.0166  2.9870  1.3700
 6396SOL     OW30823   3.629   3.027   9.633 -0.0709 -0.5093  0.2420
 6396SOL    HW130824   3.681   3.035   9.552 -0.0410 -1.7786  0.1232
 6396SOL    HW230825   3.551   2.975   9.613  0.2956 -1.2559  0.7315
 6397SOL     OW30826   3.579   4.630  16.606 -0.3320 -0.6221 -0.0833
 6397SOL    HW130827   3.648   4.617  16.672  1.7913  1.0615 -1.9547
 6397SOL    HW230828   3.526   4.685  16.664 -1.9163 -2.1984 -0.0690
 6398SOL     OW30829   2.799   2.101   3.561  0.0553 -0.0031  0.5171
 6398SOL    HW130830   2.716   2.141   3.535 -0.4168 -1.4028 -0.1543
 6398SOL    HW230831   2.768   2.070   3.646 -0.1828  0.8206  0.7346
 6399SOL     OW30832   1.442   3.855  12.874 -0.4349 -0.3275 -0.0145
 6399SOL    HW130833   1.532   3.829  12.894 -0.2517 -0.6250 -1.2313
 6399SOL    HW230834   1.430   3.809  12.791 -0.4145 -1.5868  0.6871
 6400SOL     OW30835   1.624   1.182   5.631 -0.1878  0.5215 -0.3681
 6400SOL    HW130836   1.675   1.212   5.706 -0.4864  1.4796 -0.5540
 6400SOL    HW230837   1.552   1.246   5.632  0.1236  0.8625  0.0491
 6401SOL     OW30838   0.698   1.133   7.584 -0.1964  0.3052 -0.4268
 6401SOL    HW130839   0.618   1.115   7.534  1.6441 -0.6888 -3.0029
 6401SOL    HW230840   0.721   1.051   7.628 -0.1236  0.8166  0.4742
 6402SOL     OW30841   4.073   4.467   4.541 -0.1161  0.3885 -0.0282
 6402SOL    HW130842   4.064   4.525   4.465  0.1972  0.5784  0.0823
 6402SOL    HW230843   4.155   4.497   4.579  0.5174 -0.8994 -0.3869
 6403SOL     OW30844   1.959   0.947   8.953  0.3001 -0.6246 -0.0299
 6403SOL    HW130845   1.899   0.909   9.018  0.3155  0.4419  0.6099
 6403SOL    HW230846   1.955   1.040   8.975  0.3630 -0.0918 -2.2520
 6404SOL     OW30847   3.680   2.653  12.450 -0.0548 -0.0625 -0.0426
 6404SOL    HW130848   3.770   2.659  12.482 -0.8108  1.0339  1.9347
 6404SOL    HW230849   3.679   2.585  12.383  0.4162 -0.1175  0.0050
 6405SOL     OW30850   3.358   3.125  14.932 -0.1472  0.2467 -0.4370
 6405SOL    HW130851   3.337   3.077  15.012  2.5880 -0.2966 -0.0620
 6405SOL    HW230852   3.379   3.211  14.968  2.1999 -0.5947  0.1507
 6406SOL     OW30853   1.552   1.094   2.594 -0.1629  0.7657 -0.5695
 6406SOL    HW130854   1.597   1.174   2.566 -0.3297  0.5237 -1.5314
 6406SOL    HW230855   1.511   1.070   2.511  0.5040  0.8504 -0.9282
 6407SOL     OW30856   4.112   2.265   7.898 -0.4606  0.6397  0.0277
 6407SOL    HW130857   4.101   2.360   7.907  1.1323  0.8023  0.3545
 6407SOL    HW230858   4.053   2.236   7.967  2.1701  3.0398  3.3237
 6408SOL     OW30859   0.445   2.059   4.851 -0.2863  0.1802 -0.0534
 6408SOL    HW130860   0.515   2.063   4.786 -0.0971 -1.5335  0.0466
 6408SOL    HW230861   0.469   1.976   4.892  0.1912  1.0921  1.5122
 6409SOL     OW30862   1.398   3.431   7.675  0.2718 -0.5336  0.3671
 6409SOL    HW130863   1.361   3.406   7.590  0.5126 -0.1159  0.1403
 6409SOL    HW230864   1.352   3.370   7.732 -2.3366  1.6964  0.6958
 6410SOL     OW30865   1.302   0.937  12.538  0.3936  0.2634 -0.5180
 6410SOL    HW130866   1.220   0.986  12.532 -0.2253 -1.0552 -2.8523
 6410SOL    HW230867   1.360   0.966  12.468 -1.3508  0.4298 -1.8921
 6411SOL     OW30868   2.333   4.501  17.414 -0.1476  0.0922  0.1153
 6411SOL    HW130869   2.246   4.538  17.423 -0.2136 -0.3125  1.1665
 6411SOL    HW230870   2.312   4.420  17.369 -2.2693  1.9459 -2.1915
 6412SOL     OW30871   3.452   0.704  11.057  0.3183 -0.0182 -0.7057
 6412SOL    HW130872   3.547   0.693  11.054  0.3881  0.2392  0.3381
 6412SOL    HW230873   3.458   0.744  11.144  0.1230 -0.5175 -0.4673
 6413SOL     OW30874   2.769   2.244   2.492  0.4184  0.2574 -0.7203
 6413SOL    HW130875   2.759   2.320   2.549 -4.6613 -1.2670  0.4132
 6413SOL    HW230876   2.784   2.179   2.561 -0.4461  1.4144  0.5527
 6414SOL     OW30877   0.634   2.936   3.225  0.2869  0.2363  0.3183
 6414SOL    HW130878   0.546   2.963   3.200  0.2602  0.9390  1.1934
 6414SOL    HW230879   0.665   2.919   3.136  0.8547 -1.7186  0.8823
 6415SOL     OW30880   1.905   2.174   7.517  0.4588 -0.2832  0.3002
 6415SOL    HW130881   1.931   2.131   7.598  0.0160  0.8370  1.0377
 6415SOL    HW230882   1.839   2.123   7.470 -0.0229  0.4421  0.1918
 6416SOL     OW30883   3.102   1.221   5.452 -0.0516 -0.1098  0.3050
 6416SOL    HW130884   3.183   1.264   5.424 -0.8195 -0.0184 -1.7438
 6416SOL    HW230885   3.072   1.182   5.370 -1.9876 -0.8465  1.3656
 6417SOL     OW30886   3.626   1.386  14.788 -0.4765 -0.1007 -0.1318
 6417SOL    HW130887   3.540   1.406  14.824 -0.0526 -0.2911  1.0015
 6417SOL    HW230888   3.612   1.392  14.694  1.8094  0.2854 -0.4514
 6418SOL     OW30889   3.246   0.667   3.585 -0.0509  0.3257 -0.4499
 6418SOL    HW130890   3.242   0.680   3.490 -0.3349  0.6788 -0.3861
 6418SOL    HW230891   3.312   0.597   3.583  0.1495  0.4880  0.6783
 6419SOL     OW30892   4.246   2.910   6.055  0.5908 -0.1004 -0.1309
 6419SOL    HW130893   4.214   2.825   6.027  0.4671 -0.2829  0.5702
 6419SOL    HW230894   4.189   2.930   6.129  0.7768 -0.3253  0.0745
 6420SOL     OW30895   3.321   3.064  14.667 -0.5118 -0.7199  0.3406
 6420SOL    HW130896   3.226   3.051  14.678 -0.4756 -1.7044 -0.5035
 6420SOL    HW230897   3.336   3.071  14.761  0.6251 -0.2675  0.1199
 6421SOL     OW30898   3.271   1.907  16.962  0.0643 -0.0919 -0.0472
 6421SOL    HW130899   3.219   1.977  16.922 -0.8698 -0.7664 -0.0299
 6421SOL    HW230900   3.209   1.861  17.019  1.1693 -0.3087  0.9565
 6422SOL     OW30901   4.540   2.900   2.163  0.1559 -0.4407  0.1885
 6422SOL    HW130902   4.453   2.923   2.198  0.1896  1.2653 -0.8256
 6422SOL    HW230903   4.571   2.987   2.139 -0.0713 -0.2881  0.4370
 6423SOL     OW30904   3.242   1.628   5.743  0.3245 -0.1057  0.5495
 6423SOL    HW130905   3.222   1.543   5.703  2.6595 -0.1269 -0.5760
 6423SOL    HW230906   3.177   1.688   5.707 -0.6486 -0.2503  2.0341
 6424SOL     OW30907   0.718   1.414   7.616  0.2724  0.1753 -0.7483
 6424SOL    HW130908   0.728   1.319   7.628  0.2641  0.2604 -0.0632
 6424SOL    HW230909   0.628   1.413   7.586 -0.4611  1.5797  1.3949
 6425SOL     OW30910   2.240   0.447   4.201  0.0254  0.2237 -0.3998
 6425SOL    HW130911   2.318   0.442   4.256  1.2571 -1.3923 -2.2874
 6425SOL    HW230912   2.228   0.352   4.197  0.8987  0.2055 -2.2671
 6426SOL     OW30913   1.844   0.568   6.518 -0.1255  0.3615  0.2228
 6426SOL    HW130914   1.878   0.520   6.442  0.8375 -0.0318  0.8939
 6426SOL    HW230915   1.928   0.583   6.561 -0.3819 -1.5987  1.4136
 6427SOL     OW30916   0.826   3.299  16.567 -0.0842 -0.4523 -0.0663
 6427SOL    HW130917   0.800   3.377  16.615 -1.3341 -0.5747 -0.5406
 6427SOL    HW230918   0.778   3.229  16.610 -2.8630  0.9370 -0.9549
 6428SOL     OW30919   4.616   2.130   9.539 -1.0484  0.3188  0.8510
 6428SOL    HW130920   4.627   2.221   9.565  2.5310  1.2426 -3.8436
 6428SOL    HW230921   4.691   2.082   9.575  0.0215  0.8114 -0.7119
 6429SOL     OW30922   3.681   0.433   6.062  0.2264  0.3653 -0.0558
 6429SOL    HW130923   3.739   0.366   6.024 -1.3712 -1.0265 -0.0456
 6429SOL    HW230924   3.599   0.388   6.044 -0.9394  2.0161  1.2461
 6430SOL     OW30925   0.109   4.325   5.418  0.2526  0.0371  0.4468
 6430SOL    HW130926   0.083   4.372   5.497 -2.3320  1.2472 -1.1131
 6430SOL    HW230927   0.165   4.259   5.459  0.4799  0.1164  0.2620
 6431SOL     OW30928   1.057   3.816  16.216  0.0480  0.0181  0.5089
 6431SOL    HW130929   1.073   3.766  16.296  0.8892  3.7972  2.6838
 6431SOL    HW230930   1.109   3.765  16.153  1.0314  2.3189 -0.5346
 6432SOL     OW30931   4.685   3.139   2.190 -0.4664  0.0487  0.4809
 6432SOL    HW130932   0.035   3.103   2.168 -1.1273 -0.1961 -1.6671
 6432SOL    HW230933   4.705   3.215   2.245 -0.0089 -1.7745  2.8464
 6433SOL     OW30934   3.700   2.875   9.256  0.1095 -0.3252  0.1737
 6433SOL    HW130935   3.622   2.930   9.269  0.2090  0.1465 -1.2645
 6433SOL    HW230936   3.767   2.922   9.306  0.0446 -2.7331  2.5322
 6434SOL     OW30937   3.637   4.355  17.008 -0.0642  0.0318 -0.2998
 6434SOL    HW130938   3.553   4.316  16.988  0.4185 -1.1648  0.0026
 6434SOL    HW230939   3.626   4.379  17.100 -0.9718  0.2806 -0.4726
 6435SOL     OW30940   3.041   2.768   4.113  0.2991  0.0106  0.4221
 6435SOL    HW130941   3.085   2.849   4.088 -0.2701 -0.0038 -0.6279
 6435SOL    HW230942   3.073   2.759   4.203 -2.2482  0.6658  1.3992
 6436SOL     OW30943   3.214   1.777   1.213  0.1880 -0.2423  0.1662
 6436SOL    HW130944   3.272   1.701   1.214  0.9548  0.3539  0.9188
 6436SOL    HW230945   3.273   1.849   1.233 -2.7779  2.0843  0.5434
 6437SOL     OW30946   3.828   3.902  11.344  0.2727 -0.4225  0.5998
 6437SOL    HW130947   3.761   3.897  11.275  0.7072 -0.5860  0.1877
 6437SOL    HW230948   3.793   3.837  11.405 -0.7533  1.7598  2.3095
 6438SOL     OW30949   0.488   0.736   1.002  0.2795 -0.2929  0.4389
 6438SOL    HW130950   0.485   0.661   1.061 -1.6476  0.1396  0.8896
 6438SOL    HW230951   0.576   0.730   0.964  0.2733  0.8858  0.2399
 6439SOL     OW30952   3.524   0.716   0.621 -0.1367 -0.3397 -0.2725
 6439SOL    HW130953   3.462   0.772   0.668 -0.9562 -1.8520  0.4100
 6439SOL    HW230954   3.454   0.652   0.612  0.0554 -0.5847 -0.0162
 6440SOL     OW30955   3.944   0.036  15.192  0.8908 -0.1052  0.2545
 6440SOL    HW130956   3.865   0.086  15.213  0.8250 -0.4573  0.8527
 6440SOL    HW230957   3.978   0.033  15.281 -2.1959 -0.7023  1.4402
 6441SOL     OW30958   4.281   0.076   2.190  0.2430 -0.0896  0.1019
 6441SOL    HW130959   4.188   0.081   2.210  0.3714 -1.5952  1.0060
 6441SOL    HW230960   4.315   0.124   2.266  2.7440 -2.4813  0.4971
 6442SOL     OW30961   1.663   2.350   1.462  0.4511  1.0431  0.0605
 6442SOL    HW130962   1.583   2.386   1.501 -0.6558 -0.6438 -0.6994
 6442SOL    HW230963   1.702   2.301   1.535 -0.8543 -1.2975 -0.8212
 6443SOL     OW30964   2.446   2.551   8.025 -0.0134 -0.1526  0.1324
 6443SOL    HW130965   2.412   2.632   8.062  3.0367  0.8909  0.6642
 6443SOL    HW230966   2.498   2.593   7.957  1.6647 -0.3505  1.2731
 6444SOL     OW30967   1.853   3.523   4.214  0.4161  0.4065  0.0486
 6444SOL    HW130968   1.879   3.438   4.177  1.4111  0.2142  1.1985
 6444SOL    HW230969   1.930   3.579   4.207  0.9595 -0.4518 -1.0500
 6445SOL     OW30970   2.571   3.374  17.075 -0.6345 -0.1346 -0.0057
 6445SOL    HW130971   2.569   3.462  17.115 -0.9144  0.5770 -1.5861
 6445SOL    HW230972   2.662   3.371  17.044  0.0790 -1.2663  2.2194
 6446SOL     OW30973   1.323   4.545   3.490 -0.0652 -0.6752  0.5272
 6446SOL    HW130974   1.361   4.513   3.572 -0.0643  1.3641  1.3356
 6446SOL    HW230975   1.363   4.491   3.422  1.1100  1.1501 -0.2522
 6447SOL     OW30976   4.144   3.236   6.062  0.1187  0.1769  0.4951
 6447SOL    HW130977   4.144   3.332   6.058 -1.0437  0.1391 -0.2933
 6447SOL    HW230978   4.220   3.222   6.005  0.2188  0.6641  0.5030
 6448SOL     OW30979   1.970   0.451   4.168 -0.0863  0.0655 -0.2126
 6448SOL    HW130980   1.928   0.536   4.175 -0.7422 -0.2522 -0.2586
 6448SOL    HW230981   2.062   0.472   4.156  0.2018 -1.1658 -0.1561
 6449SOL     OW30982   2.845   2.452   7.760 -0.0555  0.0520  0.4885
 6449SOL    HW130983   2.822   2.409   7.678 -0.8063  0.4895  0.4697
 6449SOL    HW230984   2.770   2.426   7.813  0.2702 -2.5805 -0.3292
 6450SOL     OW30985   0.889   4.286   7.522  0.0614  0.0742  0.2955
 6450SOL    HW130986   0.976   4.261   7.552 -1.0360 -0.6637  2.9143
 6450SOL    HW230987   0.880   4.240   7.438  0.0406  0.1965  0.2307
 6451SOL     OW30988   3.471   4.195   2.489 -0.1193 -0.2688  0.0422
 6451SOL    HW130989   3.498   4.202   2.581  1.5855 -0.0103 -0.4735
 6451SOL    HW230990   3.557   4.216   2.451 -0.6553 -1.0149 -1.5770
 6452SOL     OW30991   0.667   0.405   0.417  0.3099 -0.5134 -0.1726
 6452SOL    HW130992   0.602   0.352   0.370  0.4115 -1.6350  0.9674
 6452SOL    HW230993   0.738   0.439   0.363  0.6652 -1.2989 -0.1977
 6453SOL     OW30994   0.108   0.408   1.053 -0.2080 -0.3851  0.1789
 6453SOL    HW130995   0.044   0.437   0.987 -0.5749  2.5462  1.8128
 6453SOL    HW230996   0.128   0.491   1.095  0.0222 -0.0573 -0.5716
 6454SOL     OW30997   4.201   3.426  14.897  0.8962 -0.0971 -0.0194
 6454SOL    HW130998   4.161   3.422  14.810 -2.7866  1.3332  1.5965
 6454SOL    HW230999   4.222   3.333  14.908 -0.0240 -0.1960  0.9291
 6455SOL     OW31000   2.930   1.679   7.994 -0.1839 -0.2007  0.2954
 6455SOL    HW131001   2.876   1.754   8.016  2.2987  1.3034  1.3546
 6455SOL    HW231002   3.018   1.707   8.023 -1.4961  3.0654  1.1320
 6456SOL     OW31003   1.333   2.980  12.031 -0.9287 -0.1737 -0.7346
 6456SOL    HW131004   1.418   2.989  11.988 -1.5394  1.6777 -1.5395
 6456SOL    HW231005   1.324   2.885  12.038 -4.0776  0.0152 -2.3289
 6457SOL     OW31006   1.115   1.478   9.753 -0.7329 -0.2713 -0.1056
 6457SOL    HW131007   1.165   1.524   9.821  0.9290 -0.5579 -1.1440
 6457SOL    HW231008   1.192   1.443   9.709 -0.0718  0.8027  0.2133
 6458SOL     OW31009   4.328   0.358   0.610 -0.2691  0.2664  0.3864
 6458SOL    HW131010   4.359   0.379   0.522 -1.2119 -1.6888 -0.3964
 6458SOL    HW231011   4.326   0.447   0.645  0.0721  0.4497 -0.0571
 6459SOL     OW31012   1.009   1.837   9.527  0.2881 -0.5186  0.1858
 6459SOL    HW131013   0.930   1.883   9.553  0.1907 -0.0498 -0.9519
 6459SOL    HW231014   1.062   1.832   9.606  0.3419  3.3961  0.3585
 6460SOL     OW31015   3.906   1.669   6.657  0.0701  0.3397 -0.1235
 6460SOL    HW131016   3.960   1.591   6.660  0.8246  0.9683  2.2307
 6460SOL    HW231017   3.952   1.728   6.716 -1.2366 -2.2151  3.4167
 6461SOL     OW31018   3.402   0.109   5.379 -0.5393 -0.2639  0.0250
 6461SOL    HW131019   3.481   0.121   5.326 -0.9247  0.9386 -0.2847
 6461SOL    HW231020   3.413   0.180   5.442 -1.4956  0.4582 -0.6190
 6462SOL     OW31021   1.348   4.517   2.552  0.1318  0.3947  0.4645
 6462SOL    HW131022   1.286   4.444   2.554  0.6275 -0.0793 -1.3457
 6462SOL    HW231023   1.430   4.471   2.568 -0.3066  0.2156  2.2325
 6463SOL     OW31024   2.035   3.390   9.307  0.0260 -0.4699  0.1693
 6463SOL    HW131025   1.987   3.468   9.278 -0.7903 -1.5690 -1.4446
 6463SOL    HW231026   1.975   3.357   9.374 -0.1673  0.3426  0.3904
 6464SOL     OW31027   3.461   0.330   7.067  0.0939  0.3129 -0.2221
 6464SOL    HW131028   3.406   0.276   7.011 -1.4740  0.3671  1.2785
 6464SOL    HW231029   3.400   0.331   7.141  0.4382  0.5201  0.0576
 6465SOL     OW31030   2.005   1.228   8.947  0.0978  0.4155  0.4962
 6465SOL    HW131031   2.090   1.229   8.905 -0.1151  0.3948  0.0670
 6465SOL    HW231032   2.035   1.240   9.037 -1.3105 -0.1372  1.0410
 6466SOL     OW31033   3.431   1.360  13.772 -0.5589 -0.3071 -0.0361
 6466SOL    HW131034   3.477   1.381  13.691 -0.7778  0.4099  0.0253
 6466SOL    HW231035   3.408   1.451  13.791  0.0541 -0.1998  0.2012
 6467SOL     OW31036   2.402   2.026  13.401  0.0552 -0.2412  0.2702
 6467SOL    HW131037   2.450   1.965  13.346 -1.6674 -0.6722 -0.7403
 6467SOL    HW231038   2.465   2.043  13.472 -2.0022  0.0193  2.0358
 6468SOL     OW31039   1.380   2.723   4.731  0.1893  0.1453 -0.1492
 6468SOL    HW131040   1.329   2.802   4.711  2.7305  2.2207  1.5686
 6468SOL    HW231041   1.370   2.679   4.647 -2.1379  0.1071  0.1456
 6469SOL     OW31042   4.657   3.618   6.146  0.3673 -0.2910 -1.1204
 6469SOL    HW131043   4.711   3.578   6.214 -0.3051 -0.2723 -0.5854
 6469SOL    HW231044   4.569   3.587   6.166  0.0462  0.8977 -0.6852
 6470SOL     OW31045   1.179   3.177  17.447 -0.0703 -0.0081  0.4179
 6470SOL    HW131046   1.112   3.242  17.471 -0.1367  1.3972 -3.5166
 6470SOL    HW231047   1.241   3.181  17.520 -0.7193 -1.7699  1.0649
 6471SOL     OW31048   0.192   2.171  11.020 -0.4678 -0.5680 -0.2674
 6471SOL    HW131049   0.173   2.107  11.089  1.4579 -0.2984  0.5157
 6471SOL    HW231050   0.185   2.255  11.065 -1.5318  0.8554 -3.0678
 6472SOL     OW31051   0.273   4.319   0.714  0.6150  0.3366  0.0292
 6472SOL    HW131052   0.253   4.255   0.783 -0.6817 -0.5025 -1.1309
 6472SOL    HW231053   0.228   4.288   0.635  0.3936 -2.0394  1.0712
 6473SOL     OW31054   2.110   4.614   0.794  0.1157 -0.4528  0.5283
 6473SOL    HW131055   2.060   4.533   0.789 -0.5911  0.0811 -1.0949
 6473SOL    HW231056   2.196   4.592   0.757 -0.8966 -1.2834 -1.3320
 6474SOL     OW31057   1.464   4.165   8.646  0.4227  0.0409 -0.3222
 6474SOL    HW131058   1.433   4.249   8.612  0.6958  1.7714  3.6507
 6474SOL    HW231059   1.526   4.149   8.574  0.5287 -0.6024 -0.0829
 6475SOL     OW31060   1.740   4.548   6.210  0.5006 -0.1799  0.0550
 6475SOL    HW131061   1.726   4.475   6.150  1.2130  0.4292 -0.8500
 6475SOL    HW231062   1.702   4.504   6.286  1.5911 -2.2960 -0.6169
 6476SOL     OW31063   0.991   0.171   4.083  0.0423  0.3263 -0.4580
 6476SOL    HW131064   0.981   0.266   4.078  3.5374  0.7179 -0.0861
 6476SOL    HW231065   0.934   0.151   4.157  1.1678 -0.0682  0.3099
 6477SOL     OW31066   0.231   3.795  12.141  0.0332 -0.2709  0.0468
 6477SOL    HW131067   0.312   3.752  12.170  0.8501  1.2940  0.0920
 6477SOL    HW231068   0.173   3.723  12.116  0.0474  0.3586 -1.8052
 6478SOL     OW31069   4.707   3.423   4.792 -0.1436 -0.5943  0.4945
 6478SOL    HW131070   4.645   3.431   4.864  0.8513 -1.1374  1.4143
 6478SOL    HW231071   0.003   3.336   4.816  3.1570  0.3020 -0.5296
 6479SOL     OW31072   1.771   1.213   2.017 -0.3220 -0.1267  0.1173
 6479SOL    HW131073   1.751   1.302   1.987 -1.2035 -0.1184  0.7099
 6479SOL    HW231074   1.855   1.231   2.059  0.0992 -0.6842 -0.4904
 6480SOL     OW31075   1.055   3.116   4.490  0.2897 -0.4287  0.3544
 6480SOL    HW131076   1.090   3.185   4.434 -1.0347  0.7798  1.0263
 6480SOL    HW231077   0.970   3.106   4.446  0.1896 -1.0825  0.6927
 6481SOL     OW31078   0.408   3.654   2.043 -0.3467  0.1247 -0.0612
 6481SOL    HW131079   0.336   3.602   2.008 -1.2241 -0.1357  2.1130
 6481SOL    HW231080   0.447   3.587   2.099  0.5149  0.6730 -0.0016
 6482SOL     OW31081   2.539   4.534   9.187 -0.2115  0.0881 -0.2051
 6482SOL    HW131082   2.630   4.532   9.158  0.2387 -0.3451  1.2383
 6482SOL    HW231083   2.494   4.570   9.110 -0.7444 -0.4686 -0.1592
 6483SOL     OW31084   1.160   1.999   2.436 -0.1960 -0.0588  0.1362
 6483SOL    HW131085   1.247   1.970   2.464  0.4177  1.3203 -0.3549
 6483SOL    HW231086   1.106   1.920   2.445  0.5700 -0.7292 -1.1093
 6484SOL     OW31087   3.995   0.340   5.514 -0.1253 -0.0988  0.4261
 6484SOL    HW131088   3.915   0.330   5.564  0.4826  0.7309  1.5609
 6484SOL    HW231089   4.018   0.252   5.483  3.6495  0.6794  1.0007
 6485SOL     OW31090   4.318   4.248   7.942 -0.0560  0.0988  0.0807
 6485SOL    HW131091   4.391   4.304   7.967  0.8394 -1.4139  0.8589
 6485SOL    HW231092   4.368   4.205   7.873 -0.7357  2.2098 -1.7352
 6486SOL     OW31093   2.254   0.515   5.754 -0.1579  0.2058 -0.3508
 6486SOL    HW131094   2.173   0.516   5.701  0.4109  0.2339 -1.2249
 6486SOL    HW231095   2.295   0.598   5.731  1.2322 -0.4864 -0.3937
 6487SOL     OW31096   4.631   0.158   9.113 -0.0262  0.4560  0.2043
 6487SOL    HW131097   4.667   0.222   9.175 -0.0055 -0.6923  1.3777
 6487SOL    HW231098   4.714   0.130   9.076 -0.1931  0.4637 -0.1749
 6488SOL     OW31099   4.330   4.434   3.667 -0.3211  0.1516  0.0972
 6488SOL    HW131100   4.378   4.362   3.707  0.0947 -0.3349 -1.2866
 6488SOL    HW231101   4.390   4.504   3.694 -1.3909  0.9362  0.4135
 6489SOL     OW31102   4.525   0.892   3.385 -0.7248 -0.1348  0.0744
 6489SOL    HW131103   4.454   0.953   3.405  1.7240  2.3751  1.1595
 6489SOL    HW231104   4.562   0.881   3.472 -0.4499 -2.1553 -0.3041
 6490SOL     OW31105   2.265   0.647   8.184 -0.2273 -0.6005 -0.1811
 6490SOL    HW131106   2.355   0.617   8.195 -0.6885 -1.3501  1.4605
 6490SOL    HW231107   2.218   0.564   8.194  2.7597 -2.1440  0.7990
 6491SOL     OW31108   4.719   2.759   0.210 -0.5767 -0.0117  0.1908
 6491SOL    HW131109   4.686   2.838   0.253  0.3619  0.9040 -0.7703
 6491SOL    HW231110   0.018   2.707   0.283 -0.9677  0.0288  0.4018
 6492SOL     OW31111   1.228   0.043   4.137  0.0322 -0.1762 -0.4149
 6492SOL    HW131112   1.140   0.080   4.130 -0.5663 -1.3140  1.0754
 6492SOL    HW231113   1.283   0.121   4.136 -0.4904  0.2585  2.3614
 6493SOL     OW31114   3.633   1.452   1.752 -0.3700  0.1150 -0.2174
 6493SOL    HW131115   3.696   1.380   1.759  0.3806  0.6484 -1.5044
 6493SOL    HW231116   3.635   1.505   1.832 -0.3402  1.1870 -0.9284
 6494SOL     OW31117   1.641   1.466  11.629  0.4466  0.1213 -0.4584
 6494SOL    HW131118   1.641   1.560  11.613  1.7767  0.1252 -0.3800
 6494SOL    HW231119   1.724   1.458  11.676 -1.1530  0.6432  2.4511
 6495SOL     OW31120   3.255   1.098   2.177  0.0584  0.1431  0.1675
 6495SOL    HW131121   3.303   1.181   2.185 -2.5573  1.6394  0.1913
 6495SOL    HW231122   3.184   1.114   2.239  2.4185  1.9397  2.4068
 6496SOL     OW31123   0.704   1.235   5.769  0.4376 -0.2994 -0.0613
 6496SOL    HW131124   0.768   1.164   5.779  2.0421  1.2311  0.4716
 6496SOL    HW231125   0.622   1.188   5.756  0.3638  0.1222 -1.1246
 6497SOL     OW31126   2.399   4.515  16.143  0.2543  0.3797  0.1297
 6497SOL    HW131127   2.383   4.589  16.201  4.2531  1.0937  0.3377
 6497SOL    HW231128   2.338   4.540  16.074  0.3214  0.0018 -0.0671
 6498SOL     OW31129   2.783   4.071   6.249  0.5946  0.3767 -0.1592
 6498SOL    HW131130   2.839   3.995   6.236 -2.2668 -2.2871  3.1361
 6498SOL    HW231131   2.798   4.094   6.341 -1.6702  1.0575  0.0522
 6499SOL     OW31132   1.208   0.215   6.609 -0.0899  0.6207 -0.2563
 6499SOL    HW131133   1.145   0.233   6.679  0.8098 -1.4030  1.0863
 6499SOL    HW231134   1.288   0.224   6.661 -1.2980 -1.3244  1.9955
 6500SOL     OW31135   2.201   1.953   7.229  0.6502  0.1972  0.1892
 6500SOL    HW131136   2.144   1.907   7.291 -2.0947  2.6418 -0.5776
 6500SOL    HW231137   2.202   1.885   7.162 -0.7060 -0.6968  1.0926
 6501SOL     OW31138   3.544   4.580   8.725  0.2018  0.4693  0.0936
 6501SOL    HW131139   3.500   4.546   8.803 -0.2647 -0.2163 -0.4646
 6501SOL    HW231140   3.538   4.671   8.752 -1.8445  1.1671 -2.7951
 6502SOL     OW31141   1.911   3.219   8.540  0.1011 -0.0381  0.3777
 6502SOL    HW131142   1.856   3.292   8.568 -0.7408  0.6571 -3.1038
 6502SOL    HW231143   1.893   3.159   8.612  2.2431  1.5590  2.2445
 6503SOL     OW31144   4.202   2.545   2.579 -0.8430 -0.3547 -0.7121
 6503SOL    HW131145   4.298   2.552   2.580 -0.7657 -1.3282 -1.4975
 6503SOL    HW231146   4.186   2.556   2.673 -1.5083 -1.1723 -0.7332
 6504SOL     OW31147   4.643   3.865  12.333  0.3562  0.3422 -0.2312
 6504SOL    HW131148   4.580   3.935  12.350 -1.7183 -1.7264  0.6859
 6504SOL    HW231149   4.728   3.906  12.315  0.2135  0.3088 -1.0047
 6505SOL     OW31150   2.820   3.906   0.220 -0.5527  0.1125 -0.2720
 6505SOL    HW131151   2.898   3.959   0.204 -0.3294 -0.5525 -1.4177
 6505SOL    HW231152   2.819   3.860   0.136 -0.5739  0.9308 -0.7171
 6506SOL     OW31153   2.127   3.778  12.259 -0.4333 -0.1253 -0.3181
 6506SOL    HW131154   2.169   3.743  12.337 -0.3577  0.0045 -0.3006
 6506SOL    HW231155   2.158   3.704  12.207 -1.7069 -1.2405  0.4884
 6507SOL     OW31156   0.084   0.699   5.876 -0.0516  0.3193  0.0709
 6507SOL    HW131157   0.054   0.611   5.853 -2.2249  0.6886  1.4977
 6507SOL    HW231158   0.127   0.729   5.796  0.7674  0.8039  0.6899
 6508SOL     OW31159   0.787   2.228   7.543 -0.0610  0.5922 -0.1436
 6508SOL    HW131160   0.847   2.205   7.615  1.5519  0.5239 -1.5222
 6508SOL    HW231161   0.724   2.156   7.551 -0.4495  1.1427  1.9104
 6509SOL     OW31162   1.890   0.196   3.018  0.2669  0.0238  0.1105
 6509SOL    HW131163   1.980   0.167   3.034  0.2847 -0.8255 -1.4977
 6509SOL    HW231164   1.909   0.205   2.924 -0.5256  1.5274  0.0932
 6510SOL     OW31165   0.544   2.011  16.751 -0.3572  0.4316 -0.1810
 6510SOL    HW131166   0.499   2.068  16.813 -0.6372  3.6833 -3.3859
 6510SOL    HW231167   0.489   2.031  16.676 -0.9920 -1.6735 -0.2809
 6511SOL     OW31168   1.220   2.043   6.549  0.1628  0.0135  0.0168
 6511SOL    HW131169   1.189   2.134   6.553  1.7366  0.5004  1.1783
 6511SOL    HW231170   1.312   2.060   6.531  0.4841 -1.6377  0.0748
 6512SOL     OW31171   3.591   0.528  16.946 -0.3150 -0.3809  0.0613
 6512SOL    HW131172   3.575   0.541  16.852  0.3415  2.9355  0.4211
 6512SOL    HW231173   3.556   0.441  16.965 -0.0367 -0.1107  1.7761
 6513SOL     OW31174   2.293   1.889  15.449  0.0649 -1.0265  0.5260
 6513SOL    HW131175   2.359   1.820  15.446 -1.4063 -2.3535 -0.9790
 6513SOL    HW231176   2.354   1.956  15.417 -0.5498  0.0756  1.6734
 6514SOL     OW31177   1.613   0.659   8.863 -0.0116 -0.0881 -0.0953
 6514SOL    HW131178   1.598   0.731   8.925 -1.5630 -0.8241  0.3788
 6514SOL    HW231179   1.661   0.695   8.789 -1.0308 -1.9168 -1.6228
 6515SOL     OW31180   0.776   4.262   2.918 -0.3081  0.1089 -0.0695
 6515SOL    HW131181   0.761   4.219   2.834 -0.3857  1.3940 -0.7198
 6515SOL    HW231182   0.868   4.237   2.928 -0.3481  0.0965  0.2805
 6516SOL     OW31183   4.716   4.116  10.652  0.2152 -0.2508 -0.3683
 6516SOL    HW131184   0.037   4.102  10.728 -0.0580 -0.4101 -0.1959
 6516SOL    HW231185   0.015   4.199  10.617  1.1151 -0.5452 -0.1830
 6517SOL     OW31186   1.276   3.303  12.717 -0.6719 -0.2987 -0.1507
 6517SOL    HW131187   1.196   3.276  12.762 -0.1431 -1.6621 -0.0289
 6517SOL    HW231188   1.244   3.374  12.662  2.0978 -0.2720 -1.7706
 6518SOL     OW31189   4.122   3.610   8.952  0.3024 -0.3135 -0.2223
 6518SOL    HW131190   4.057   3.561   9.001  0.3209 -0.0367  0.0776
 6518SOL    HW231191   4.147   3.546   8.885  1.0529 -0.3665  0.1130
 6519SOL     OW31192   2.583   3.639   6.389  0.5279 -0.0072 -0.3818
 6519SOL    HW131193   2.497   3.620   6.426  2.3567 -2.2784  2.6174
 6519SOL    HW231194   2.619   3.688   6.463 -0.4641 -1.6644  1.1939
 6520SOL     OW31195   1.206   1.912   4.384 -0.5676  0.2793  0.4493
 6520SOL    HW131196   1.300   1.914   4.402 -0.4568 -2.8773  0.1931
 6520SOL    HW231197   1.163   1.879   4.463 -1.0282 -0.7774 -0.2472
 6521SOL     OW31198   0.657   1.929   2.009  0.2683 -0.0327 -0.0248
 6521SOL    HW131199   0.609   1.996   1.961  1.4855 -0.7063 -2.1901
 6521SOL    HW231200   0.625   1.928   2.099  4.0287 -1.2436  1.3417
 6522SOL     OW31201   2.559   2.920   3.466 -0.0499  0.1245  0.6587
 6522SOL    HW131202   2.554   2.913   3.371  2.5162 -0.7702  0.5696
 6522SOL    HW231203   2.619   2.993   3.484  0.3062 -0.2109  0.8442
 6523SOL     OW31204   3.036   3.759   7.169  0.3359  0.5488 -0.2354
 6523SOL    HW131205   2.985   3.797   7.241  1.2762 -1.5254  1.5497
 6523SOL    HW231206   3.117   3.733   7.212  0.4503 -0.5093 -1.1126
 6524SOL     OW31207   2.553   4.003   9.783 -0.5824 -0.1327 -0.1169
 6524SOL    HW131208   2.626   4.063   9.768 -1.8837  1.6070  0.3676
 6524SOL    HW231209   2.475   4.060   9.787 -0.8073 -0.5159  0.9565
 6525SOL     OW31210   4.168   0.227  12.463  0.4271  0.4270 -0.2103
 6525SOL    HW131211   4.207   0.185  12.386  0.9798  0.1585  0.2174
 6525SOL    HW231212   4.081   0.259  12.439 -0.2451 -0.8778  0.5138
 6526SOL     OW31213   4.678   2.687   8.503 -0.4872  0.1199  0.7695
 6526SOL    HW131214   0.001   2.763   8.502 -0.6609  0.2252 -1.8597
 6526SOL    HW231215   4.598   2.719   8.544 -0.6480  1.1117 -0.3081
 6527SOL     OW31216   3.844   0.078  13.961 -0.4731  0.0687 -0.3202
 6527SOL    HW131217   3.884   0.003  13.915  2.2696  1.5844 -0.4013
 6527SOL    HW231218   3.899   0.146  13.923 -0.3958 -0.4267 -1.1048
 6528SOL     OW31219   3.414   1.924  11.894 -0.7177 -0.3626  0.7500
 6528SOL    HW131220   3.453   2.010  11.910 -0.8941 -0.7445  3.2225
 6528SOL    HW231221   3.461   1.881  11.966 -0.1737  0.2446  0.7575
 6529SOL     OW31222   1.817   3.931  12.595  0.3031  0.6750  0.2514
 6529SOL    HW131223   1.896   3.983  12.579 -0.6477  1.6617 -1.2156
 6529SOL    HW231224   1.850   3.851  12.554  0.8730  0.3312  1.3922
 6530SOL     OW31225   1.575   2.459   3.168 -0.3795  0.0123 -0.6416
 6530SOL    HW131226   1.667   2.456   3.191 -0.6279  1.2172  0.4858
 6530SOL    HW231227   1.568   2.547   3.131  2.7158  0.8992  0.9507
 6531SOL     OW31228   4.076   3.232   3.846  0.3682  0.4026  0.0142
 6531SOL    HW131229   4.092   3.145   3.809  0.2138  0.0205  0.8357
 6531SOL    HW231230   4.020   3.269   3.778 -0.5431 -1.4923 -0.2887
 6532SOL     OW31231   0.927   1.820   3.487  0.2574 -0.3627 -0.2862
 6532SOL    HW131232   0.849   1.799   3.538  1.4062 -1.0596  1.1629
 6532SOL    HW231233   0.983   1.857   3.555 -0.3387  1.9156 -1.0140
 6533SOL     OW31234   0.386   4.711   9.161 -0.4077 -0.1908  0.6149
 6533SOL    HW131235   0.401   0.061   9.120 -1.8434  0.1056  0.6920
 6533SOL    HW231236   0.443   4.651   9.113  0.1736  0.7682  0.1029
 6534SOL     OW31237   2.028   0.309   5.519  0.2580 -0.2532 -0.7095
 6534SOL    HW131238   1.969   0.364   5.569 -0.8153 -0.6863 -1.5073
 6534SOL    HW231239   1.979   0.300   5.438  0.3277 -0.2406 -0.7529
 6535SOL     OW31240   1.995   3.111   3.493 -0.0586 -0.3018 -0.2486
 6535SOL    HW131241   2.008   3.175   3.423  0.1238  0.3930  0.4220
 6535SOL    HW231242   1.937   3.045   3.455  0.6747 -1.0864  0.0242
 6536SOL     OW31243   2.316   0.329   9.038  0.2952  0.4983 -0.0704
 6536SOL    HW131244   2.411   0.341   9.036  0.7042 -2.5473  0.3625
 6536SOL    HW231245   2.280   0.414   9.061 -0.6513  0.0111  0.2293
 6537SOL     OW31246   1.008   3.096  16.458 -0.2354 -0.4261  0.3628
 6537SOL    HW131247   0.954   3.156  16.510 -0.5535 -0.4497  0.0597
 6537SOL    HW231248   1.065   3.155  16.409 -2.2110 -1.6648 -3.5096
 6538SOL     OW31249   2.288   4.053   4.546 -0.5008 -0.9046 -0.2621
 6538SOL    HW131250   2.378   4.039   4.573 -0.1472  1.9741  0.0595
 6538SOL    HW231251   2.300   4.142   4.513  1.9498 -1.8891 -2.0789
 6539SOL     OW31252   0.819   3.999   6.194 -0.2289  0.3652 -0.3844
 6539SOL    HW131253   0.746   3.959   6.241 -1.9916  1.5705 -2.1034
 6539SOL    HW231254   0.787   4.089   6.196  1.8275  1.0801 -0.2850
 6540SOL     OW31255   3.991   3.907  12.316  0.0899 -0.3552  0.3930
 6540SOL    HW131256   3.998   3.817  12.349  3.4906 -0.7525 -1.3586
 6540SOL    HW231257   3.944   3.911  12.234  0.6141  0.0047  0.1082
 6541SOL     OW31258   4.144   4.184  17.292 -0.2731  0.4056 -0.4040
 6541SOL    HW131259   4.083   4.115  17.267  2.8369 -2.3904 -0.2818
 6541SOL    HW231260   4.084   4.251  17.324 -2.1198 -1.3746 -0.1649
 6542SOL     OW31261   0.082   2.603   2.478 -0.1104 -0.1861  0.0383
 6542SOL    HW131262   0.077   2.531   2.416  0.7471 -0.9041  0.7951
 6542SOL    HW231263   0.046   2.681   2.436 -0.4850 -0.9121 -0.9766
 6543SOL     OW31264   2.599   4.023  10.752  0.0779 -0.1420 -0.6717
 6543SOL    HW131265   2.676   4.070  10.784  0.7948 -0.8601 -1.3504
 6543SOL    HW231266   2.637   3.968  10.684 -2.3050 -0.8454 -1.4287
 6544SOL     OW31267   4.129   1.765   1.885  0.5094 -0.2320  0.1116
 6544SOL    HW131268   4.085   1.752   1.801 -1.9322  2.2983  1.0026
 6544SOL    HW231269   4.210   1.715   1.880  0.7462  0.2707 -1.0824
 6545SOL     OW31270   4.665   1.254   2.652  0.8590  0.2515 -0.0462
 6545SOL    HW131271   4.658   1.159   2.651  0.2022  0.3088 -0.5891
 6545SOL    HW231272   0.024   1.264   2.664  0.7926 -0.0486  0.7340
 6546SOL     OW31273   4.626   3.417  11.871 -0.2893 -0.3730  0.1261
 6546SOL    HW131274   4.632   3.352  11.941 -0.4978 -0.0157  0.4712
 6546SOL    HW231275   4.637   3.501  11.915 -3.0155 -0.2051  0.4670
 6547SOL     OW31276   3.530   1.594   2.293 -0.5989 -0.1545  0.3843
 6547SOL    HW131277   3.488   1.545   2.363  0.4593  0.8987  1.7659
 6547SOL    HW231278   3.582   1.521   2.262 -0.4911  0.1919 -0.2568
 6548SOL     OW31279   2.524   1.376   4.864 -0.7514 -1.0195 -0.3460
 6548SOL    HW131280   2.500   1.449   4.921 -1.1216 -0.7034 -0.9105
 6548SOL    HW231281   2.452   1.371   4.802 -1.4257  1.5762  0.2522
 6549SOL     OW31282   3.991   0.145   7.317  0.5637  0.1582  0.1727
 6549SOL    HW131283   3.913   0.122   7.366  1.2871  2.2505  2.3014
 6549SOL    HW231284   3.995   0.241   7.321 -0.9115  0.2606 -0.7261
 6550SOL     OW31285   1.881   0.376   4.997  0.0330  0.4491  0.1973
 6550SOL    HW131286   1.791   0.352   4.977  0.9489 -2.9833  0.2048
 6550SOL    HW231287   1.928   0.320   4.935  2.3573  0.4488  1.9773
 6551SOL     OW31288   0.757   4.384  16.063 -0.0325  0.1131 -0.2271
 6551SOL    HW131289   0.701   4.373  15.986 -0.9553 -0.3678  0.5207
 6551SOL    HW231290   0.707   4.328  16.122 -2.4011  0.3792 -1.9966
 6552SOL     OW31291   0.076   0.764   4.599  0.2659  0.1529  0.4800
 6552SOL    HW131292   0.130   0.788   4.674  0.4929  3.1412 -0.6294
 6552SOL    HW231293   0.070   0.848   4.553  0.1470 -0.7780 -1.1960
 6553SOL     OW31294   4.659   1.368   2.029  0.1929  0.5830 -0.1091
 6553SOL    HW131295   4.625   1.457   2.037 -0.0099  0.4674  0.3152
 6553SOL    HW231296   4.579   1.317   2.032  1.4055 -1.1973  1.7987
 6554SOL     OW31297   2.407   1.627  16.710 -0.3437 -0.0134 -0.0006
 6554SOL    HW131298   2.469   1.554  16.716 -0.0304  0.2030 -0.5697
 6554SOL    HW231299   2.351   1.597  16.781 -2.5450  2.7095 -0.5855
 6555SOL     OW31300   1.684   4.641   3.921 -0.3012  0.2985  0.5511
 6555SOL    HW131301   1.701   4.616   3.830 -0.0433  0.8043  0.4666
 6555SOL    HW231302   1.615   4.707   3.922 -0.2058  0.3959  0.7786
 6556SOL     OW31303   2.387   4.399  17.146 -0.3018 -0.6350  0.8074
 6556SOL    HW131304   2.479   4.408  17.169 -0.0246  0.0395 -0.5684
 6556SOL    HW231305   2.371   4.489  17.117  1.1153 -0.5532  0.2580
 6557SOL     OW31306   0.079   0.269   8.302  0.1718  0.0540  0.3499
 6557SOL    HW131307   0.005   0.320   8.336 -0.8793 -1.1216 -0.1548
 6557SOL    HW231308   0.110   0.244   8.388  1.4201 -1.1345 -0.4453
 6558SOL     OW31309   3.592   4.171   8.815  0.4474  0.5668  0.0502
 6558SOL    HW131310   3.685   4.168   8.838  0.9735  0.1658 -2.0814
 6558SOL    HW231311   3.589   4.181   8.720 -2.1838  0.0408  0.0953
 6559SOL     OW31312   0.667   0.561   3.893  0.3343  0.4484 -0.1783
 6559SOL    HW131313   0.626   0.628   3.838 -0.0743 -0.7991 -1.3852
 6559SOL    HW231314   0.716   0.614   3.956 -3.2602  1.8499  1.4235
 6560SOL     OW31315   0.326   0.076   1.838  0.3801  0.0995  0.1417
 6560SOL    HW131316   0.282   0.033   1.911 -3.5995  2.3953 -0.9185
 6560SOL    HW231317   0.412   0.033   1.836  0.0079 -0.6173 -0.3989
 6561SOL     OW31318   2.402   3.079  14.712 -0.2806 -0.0012  0.1964
 6561SOL    HW131319   2.411   3.105  14.620 -1.1876 -0.3164  0.0135
 6561SOL    HW231320   2.496   3.071  14.729 -0.1355 -1.4702 -1.2025
 6562SOL     OW31321   2.019   2.320   3.954  0.0347 -0.4579 -0.1227
 6562SOL    HW131322   1.979   2.235   3.936  1.9330 -1.9675  2.7028
 6562SOL    HW231323   2.040   2.313   4.048 -1.9205 -0.2426  0.3299
 6563SOL     OW31324   3.336   2.219  15.561 -0.4889  0.0012  0.2075
 6563SOL    HW131325   3.242   2.219  15.579 -0.3659 -1.3882  0.7847
 6563SOL    HW231326   3.343   2.178  15.475 -0.5532 -0.4586  0.4243
 6564SOL     OW31327   1.333   1.835   5.486  0.1957 -0.6639 -0.2163
 6564SOL    HW131328   1.398   1.788   5.432 -0.5339 -1.2508 -0.5919
 6564SOL    HW231329   1.375   1.816   5.570 -0.6725  0.5476  0.4848
 6565SOL     OW31330   3.195   3.545   5.178 -0.1563 -0.2339 -1.0995
 6565SOL    HW131331   3.106   3.548   5.214  1.2922  0.3613  2.4922
 6565SOL    HW231332   3.237   3.627   5.204 -1.2761  0.5632 -1.8011
 6566SOL     OW31333   4.647   2.563   7.304 -0.4416  0.3981  0.5888
 6566SOL    HW131334   4.552   2.568   7.312 -0.4668 -1.0938  1.2011
 6566SOL    HW231335   4.669   2.473   7.327 -2.4373  0.2469  1.8618
 6567SOL     OW31336   1.738   0.216  16.998  0.0834  0.4959  0.1999
 6567SOL    HW131337   1.820   0.256  16.970  0.8944 -0.5111  1.1314
 6567SOL    HW231338   1.682   0.293  16.992  0.4431  0.7467  0.0547
 6568SOL     OW31339   3.709   2.291   4.729  0.3789 -0.2094  0.1527
 6568SOL    HW131340   3.636   2.238   4.759 -1.1714  0.7505 -1.9726
 6568SOL    HW231341   3.780   2.269   4.789  0.0418  2.0029  1.3814
 6569SOL     OW31342   1.896   4.575   2.101 -0.3046 -0.2866 -0.3461
 6569SOL    HW131343   1.916   4.518   2.027 -0.4364  2.0878 -2.2370
 6569SOL    HW231344   1.863   4.521   2.172 -0.9778  0.5529 -0.0173
 6570SOL     OW31345   2.019   4.344  16.843  0.4096 -0.2655  0.2374
 6570SOL    HW131346   1.991   4.436  16.837 -1.2216 -0.6604  1.7226
 6570SOL    HW231347   1.943   4.293  16.814 -0.6843  1.2174  0.4686
 6571SOL     OW31348   3.634   1.619  16.983  0.4182 -0.6958  0.5773
 6571SOL    HW131349   3.591   1.535  16.967  0.2198 -0.4918  0.0328
 6571SOL    HW231350   3.605   1.648  17.070 -0.8238  0.3499 -0.1897
 6572SOL     OW31351   0.951   3.939   6.444  0.0628  0.4971 -0.5221
 6572SOL    HW131352   0.892   3.977   6.509  1.5252  2.5448 -0.3749
 6572SOL    HW231353   0.909   3.969   6.363 -0.8284 -0.4315 -0.4032
 6573SOL     OW31354   3.048   4.068   8.582 -0.6497  0.1688 -0.2566
 6573SOL    HW131355   2.984   4.008   8.620 -1.8777  2.2932  1.0082
 6573SOL    HW231356   3.131   4.039   8.620 -2.6504 -1.0069  3.1376
 6574SOL     OW31357   4.508   1.111   6.000 -0.0605  0.3016  0.0327
 6574SOL    HW131358   4.449   1.108   6.075 -0.5139 -2.3590 -0.4410
 6574SOL    HW231359   4.530   1.023   5.971  0.4297 -0.4973  2.8749
 6575SOL     OW31360   3.390   0.625   2.686 -0.0391  0.1366  0.2496
 6575SOL    HW131361   3.305   0.666   2.700 -0.0643 -0.7823  2.7628
 6575SOL    HW231362   3.412   0.643   2.595  3.1478 -0.8579  0.8088
 6576SOL     OW31363   2.939   2.222   2.122 -0.0374  0.9840 -0.2552
 6576SOL    HW131364   3.008   2.172   2.080 -1.0121 -0.8654  0.3680
 6576SOL    HW231365   2.955   2.184   2.208  1.2579 -1.7073 -1.6923
 6577SOL     OW31366   3.725   4.523  15.080  0.4449  0.4546  0.2850
 6577SOL    HW131367   3.701   4.492  14.993 -3.9941  1.2460  1.2534
 6577SOL    HW231368   3.715   4.616  15.062 -2.7170  0.0430 -0.0205
 6578SOL     OW31369   1.928   3.692  11.323 -0.1106  0.1353 -0.7257
 6578SOL    HW131370   1.933   3.772  11.375  0.7656 -0.7108  0.4779
 6578SOL    HW231371   2.016   3.661  11.342 -0.8730  0.1502  3.0280
 6579SOL     OW31372   4.197   1.560   7.504 -0.2379  0.6960 -0.2183
 6579SOL    HW131373   4.133   1.489   7.495  1.5701 -1.2863  2.6587
 6579SOL    HW231374   4.210   1.551   7.598  1.5665  0.8938 -0.4514
 6580SOL     OW31375   2.619   2.543   6.132  0.2385 -0.3034  0.1672
 6580SOL    HW131376   2.524   2.552   6.125  0.3755  0.8230 -0.2310
 6580SOL    HW231377   2.648   2.561   6.043 -1.7361  0.7709 -0.2703
 6581SOL     OW31378   2.583   1.414  13.756 -0.5232  0.7761 -0.0982
 6581SOL    HW131379   2.669   1.379  13.734 -0.9464 -0.8592  0.8916
 6581SOL    HW231380   2.543   1.342  13.804 -0.5656  1.3671  0.7606
 6582SOL     OW31381   3.443   1.492   8.192 -0.1160  0.0344 -0.0696
 6582SOL    HW131382   3.500   1.498   8.268  0.9232 -0.6543 -0.7901
 6582SOL    HW231383   3.362   1.490   8.242 -0.3436 -2.2098 -0.5426
 6583SOL     OW31384   2.627   3.575   7.538  0.3538 -0.3192 -0.1247
 6583SOL    HW131385   2.682   3.644   7.574 -3.1236  3.3047 -1.8308
 6583SOL    HW231386   2.687   3.500   7.540 -0.4643 -0.9586  0.1664
 6584SOL     OW31387   1.277   0.611   3.004 -0.2005 -0.0127 -0.1009
 6584SOL    HW131388   1.299   0.601   3.096  1.5143  0.5377 -0.4500
 6584SOL    HW231389   1.324   0.690   2.980  0.7743  0.1392  2.3282
 6585SOL     OW31390   4.673   0.724   3.701 -0.1466 -0.4046 -0.0542
 6585SOL    HW131391   4.666   0.703   3.794 -1.3900  1.4321  0.2561
 6585SOL    HW231392   4.585   0.758   3.683 -0.4054 -0.6415  0.7847
 6586SOL     OW31393   2.679   2.120  12.329  0.5967 -0.4593 -0.3523
 6586SOL    HW131394   2.621   2.193  12.350  0.9224 -0.5851  1.0101
 6586SOL    HW231395   2.668   2.065  12.407 -1.2013 -1.9553 -1.6561
 6587SOL     OW31396   2.779   1.657   3.344  0.6632 -0.1904  0.2378
 6587SOL    HW131397   2.794   1.669   3.437  1.9259 -1.8723  0.2521
 6587SOL    HW231398   2.694   1.613   3.346  1.0960 -0.9906  0.7231
 6588SOL     OW31399   2.896   3.538   3.990 -0.3811 -0.2226  0.4296
 6588SOL    HW131400   2.935   3.454   4.012  2.4480  0.8066 -0.6184
 6588SOL    HW231401   2.806   3.510   4.004 -0.9151  0.4484 -1.8073
 6589SOL     OW31402   0.455   3.339   6.012  0.2749 -0.3337 -0.5766
 6589SOL    HW131403   0.478   3.328   6.105 -0.3395  1.0781 -0.2591
 6589SOL    HW231404   0.521   3.403   5.985 -0.4557  0.2880 -0.8579
 6590SOL     OW31405   3.454   0.967  17.218  0.2162 -0.2679 -0.2071
 6590SOL    HW131406   3.505   0.889  17.195  2.7321  0.6503  2.3537
 6590SOL    HW231407   3.400   0.931  17.288  1.6682  1.4742  1.7996
 6591SOL     OW31408   4.026   1.455   0.192  0.2104 -0.4420  0.2922
 6591SOL    HW131409   3.961   1.525   0.194 -0.4108 -0.9648 -1.2335
 6591SOL    HW231410   4.043   1.451   0.098 -2.0272  0.7197 -0.1564
 6592SOL     OW31411   4.361   3.662   1.653  0.0966  0.0903 -0.0082
 6592SOL    HW131412   4.385   3.751   1.678 -0.5958  0.5133 -0.8507
 6592SOL    HW231413   4.440   3.617   1.623 -1.0875 -1.4224 -0.8525
 6593SOL     OW31414   1.055   4.728  12.504  0.4379  0.1171 -0.5211
 6593SOL    HW131415   1.136   4.710  12.553  0.6941  2.3292 -0.1292
 6593SOL    HW231416   1.090   0.054  12.439 -0.9751  1.0754 -0.3648
 6594SOL     OW31417   1.816   2.848   6.147 -0.0601  0.1822  0.0471
 6594SOL    HW131418   1.755   2.867   6.218  0.5179  3.3637 -0.2910
 6594SOL    HW231419   1.834   2.756   6.166 -0.1161 -0.1170 -1.3438
 6595SOL     OW31420   0.708   1.666   9.541 -0.0385  0.4654 -0.1784
 6595SOL    HW131421   0.720   1.761   9.540  0.3143  0.4393  1.2415
 6595SOL    HW231422   0.796   1.628   9.546  0.0498  0.8566  1.2854
 6596SOL     OW31423   3.492   3.981   1.630 -0.0160  0.7059 -0.1944
 6596SOL    HW131424   3.509   3.888   1.614  0.4952  0.2823  2.7377
 6596SOL    HW231425   3.560   4.024   1.578  1.0497 -1.6094 -0.7251
 6597SOL     OW31426   1.404   3.736   0.632  0.4692  0.4148 -0.0248
 6597SOL    HW131427   1.468   3.723   0.562  0.8634 -0.7752  0.5488
 6597SOL    HW231428   1.346   3.799   0.590  0.5280 -0.3310 -1.2275
 6598SOL     OW31429   2.316   1.205   9.286  0.0037  0.0375 -0.2295
 6598SOL    HW131430   2.348   1.115   9.283 -1.2314 -0.4087 -0.0489
 6598SOL    HW231431   2.245   1.204   9.222 -0.2533  1.3388  0.0380
 6599SOL     OW31432   2.174   1.465   7.685 -0.1067  0.1450  0.2904
 6599SOL    HW131433   2.181   1.369   7.680  1.8350  0.3860 -1.5641
 6599SOL    HW231434   2.256   1.468   7.734  0.5359  0.9772 -0.8360
 6600SOL     OW31435   0.176   1.316   1.288  0.1504  0.2619 -0.2763
 6600SOL    HW131436   0.115   1.288   1.219 -0.9248  1.3582  0.2488
 6600SOL    HW231437   0.121   1.356   1.355  0.9016 -2.1804  1.8019
 6601SOL     OW31438   1.030   1.270   4.736  0.3065  0.0349 -0.0274
 6601SOL    HW131439   1.077   1.281   4.819  0.2574 -1.0823  0.1568
 6601SOL    HW231440   0.952   1.224   4.769  0.6520  0.3579  1.2422
 6602SOL     OW31441   0.296   3.990   7.512  0.0222 -0.1517 -0.6828
 6602SOL    HW131442   0.291   3.934   7.589  1.2271 -0.0600 -0.5360
 6602SOL    HW231443   0.211   4.033   7.506 -0.6595 -1.5429 -0.8391
 6603SOL     OW31444   3.419   2.331  14.569  0.2048  0.0468  0.1142
 6603SOL    HW131445   3.500   2.378  14.548  1.3661 -1.7111  0.6877
 6603SOL    HW231446   3.448   2.240  14.570  0.0541  0.0017  0.5431
 6604SOL     OW31447   2.530   4.595   0.211  0.0573 -0.4431 -0.0055
 6604SOL    HW131448   2.558   4.528   0.148 -1.3710  0.2711 -1.4125
 6604SOL    HW231449   2.616   4.625   0.239 -0.2706 -0.1133  0.6490
 6605SOL     OW31450   3.358   3.519  15.407  0.2402 -0.4754  0.4226
 6605SOL    HW131451   3.303   3.506  15.484 -1.0102  1.4588 -0.1541
 6605SOL    HW231452   3.424   3.575  15.449  0.5476 -2.4917  2.6259
 6606SOL     OW31453   0.121   4.381   5.956 -0.1484  0.5795 -0.0370
 6606SOL    HW131454   0.045   4.375   6.014 -1.2220 -1.6524 -1.6370
 6606SOL    HW231455   0.109   4.468   5.918  1.9781  1.1386  0.5842
 6607SOL     OW31456   0.276   1.423  14.128  0.1812 -0.4986 -0.2467
 6607SOL    HW131457   0.185   1.407  14.150  0.5340 -1.2472  0.6963
 6607SOL    HW231458   0.265   1.476  14.050  0.5444  0.6993  0.5101
 6608SOL     OW31459   1.905   0.905  15.662  0.4610  0.2532 -0.1432
 6608SOL    HW131460   1.827   0.927  15.712  1.9050  0.6140  1.9747
 6608SOL    HW231461   1.884   0.915  15.569 -0.0756  1.7264  0.1386
 6609SOL     OW31462   1.994   0.716  17.129 -0.2212 -0.3243 -0.1619
 6609SOL    HW131463   2.068   0.687  17.182  1.7568 -0.3721 -2.9475
 6609SOL    HW231464   1.979   0.802  17.168 -0.4397  0.0942 -1.1586
 6610SOL     OW31465   1.426   3.636   4.640 -0.3469 -0.9251 -0.3057
 6610SOL    HW131466   1.370   3.642   4.563 -2.6556 -1.4239  1.3245
 6610SOL    HW231467   1.402   3.551   4.679  0.6937 -0.6067  1.0302
 6611SOL     OW31468   0.159   4.271  17.697  0.3206  0.1694  0.4079
 6611SOL    HW131469   0.078   4.321  17.713 -0.7502 -1.3925 -0.1504
 6611SOL    HW231470   0.117   4.204  17.644  0.2242 -1.0530  2.0260
 6612SOL     OW31471   4.273   2.790   9.566 -0.4129  0.7339  0.0611
 6612SOL    HW131472   4.300   2.819   9.653  4.1025  3.0625 -2.0714
 6612SOL    HW231473   4.340   2.839   9.517  1.7686 -0.1585  2.1175
 6613SOL     OW31474   0.922   0.510   1.715  0.7243  0.0428  0.4125
 6613SOL    HW131475   0.947   0.433   1.766 -2.5613  0.6527  2.8891
 6613SOL    HW231476   0.856   0.481   1.652  0.7922 -0.4635  0.5731
 6614SOL     OW31477   3.673   2.144   7.854 -0.1979  0.0458  0.0843
 6614SOL    HW131478   3.739   2.195   7.807 -1.6097  0.3713 -1.5254
 6614SOL    HW231479   3.605   2.146   7.787 -0.4828 -0.9780  0.3321
 6615SOL     OW31480   4.315   1.643  11.041  0.4353  0.3812 -0.0560
 6615SOL    HW131481   4.249   1.689  11.093 -2.2519 -1.2229 -2.0472
 6615SOL    HW231482   4.381   1.620  11.106 -0.4016 -0.1749  0.5944
 6616SOL     OW31483   2.531   0.609  17.040 -0.2207  0.3456  0.5470
 6616SOL    HW131484   2.559   0.575  16.955 -2.9484 -0.8325  0.1060
 6616SOL    HW231485   2.440   0.637  17.026 -0.4171 -2.1933 -3.1023
 6617SOL     OW31486   2.560   1.613   7.719 -0.3184 -0.2496 -0.1217
 6617SOL    HW131487   2.647   1.627   7.755  0.2293  0.2738 -1.6402
 6617SOL    HW231488   2.523   1.554   7.784  1.0330 -1.4357 -0.4194
 6618SOL     OW31489   1.629   2.538   4.621  0.0841  0.2022 -0.7674
 6618SOL    HW131490   1.712   2.489   4.622 -0.9202 -1.4982 -1.4128
 6618SOL    HW231491   1.570   2.471   4.586  0.1149 -0.0069 -0.4224
 6619SOL     OW31492   0.169   3.272   5.588  0.1837 -0.1302 -0.2343
 6619SOL    HW131493   0.186   3.357   5.627  0.4162  0.2713 -1.2166
 6619SOL    HW231494   0.100   3.296   5.525  0.5442 -0.2134 -0.6561
 6620SOL     OW31495   1.716   2.311   7.234 -0.0287  0.1464 -0.4416
 6620SOL    HW131496   1.632   2.267   7.219 -0.3201 -0.0123  1.6117
 6620SOL    HW231497   1.710   2.333   7.327 -0.9380 -0.9413 -0.2286
 6621SOL     OW31498   2.904   4.422   0.807 -0.3838 -0.0283  0.1341
 6621SOL    HW131499   2.994   4.426   0.773 -0.7293  0.6732 -0.6844
 6621SOL    HW231500   2.913   4.397   0.899  4.6965  1.0603 -0.0573
 6622SOL     OW31501   4.430   1.039   9.096 -0.2003  0.2727  0.5641
 6622SOL    HW131502   4.458   0.948   9.110 -0.3813  0.5351  2.6141
 6622SOL    HW231503   4.449   1.042   9.002  1.0460 -2.3494  0.7177
 6623SOL     OW31504   0.018   2.366   7.820 -0.2489 -0.3133 -0.2773
 6623SOL    HW131505   0.057   2.289   7.861 -0.7534  0.4463  1.6393
 6623SOL    HW231506   4.712   2.404   7.898 -0.4330 -1.3382  0.1208
 6624SOL     OW31507   1.699   3.175   7.129  0.0085 -0.7911  0.7180
 6624SOL    HW131508   1.651   3.147   7.051  0.9525 -0.6377  0.0887
 6624SOL    HW231509   1.788   3.166   7.097 -1.1760 -2.4511 -2.1006
 6625SOL     OW31510   4.360   3.530  10.141  0.6725 -0.1537 -0.4699
 6625SOL    HW131511   4.343   3.620  10.168  1.5015  0.2337 -1.2375
 6625SOL    HW231512   4.293   3.485  10.192 -0.2106 -1.7547 -3.0847
 6626SOL     OW31513   0.430   4.481   6.144 -0.3564  0.0959 -0.4382
 6626SOL    HW131514   0.415   4.430   6.065 -0.1899 -1.5114  0.5627
 6626SOL    HW231515   0.485   4.550   6.109 -0.9161  0.7714  0.0108
 6627SOL     OW31516   3.865   4.243   7.076 -0.1430 -0.4027  0.2707
 6627SOL    HW131517   3.797   4.205   7.020 -1.2581  0.6816  0.8927
 6627SOL    HW231518   3.917   4.170   7.109  0.4633  0.8858  2.1617
 6628SOL     OW31519   4.585   1.692   8.617  0.0367 -0.0897 -0.0908
 6628SOL    HW131520   4.620   1.606   8.594 -0.7456 -0.9688  2.0020
 6628SOL    HW231521   4.507   1.650   8.655  0.7289 -1.4734 -0.2087
 6629SOL     OW31522   4.535   1.790  14.276 -0.7659  0.3274  0.4805
 6629SOL    HW131523   4.609   1.734  14.300 -1.4506 -0.9416 -0.3610
 6629SOL    HW231524   4.565   1.879  14.290  0.8886 -0.0607 -0.4551
 6630SOL     OW31525   1.454   0.027   4.684  0.1291 -0.2698 -0.3879
 6630SOL    HW131526   1.476   0.107   4.637  1.2512  0.0874  0.7639
 6630SOL    HW231527   1.524   0.009   4.746  1.5128 -1.2294 -2.2358
 6631SOL     OW31528   4.260   1.871   8.051 -0.1974 -0.0865 -0.6103
 6631SOL    HW131529   4.277   1.779   8.027  1.3760 -1.2644  5.0448
 6631SOL    HW231530   4.235   1.911   7.968  0.4347  0.5820 -0.4730
 6632SOL     OW31531   4.114   1.359  15.969  0.1692 -0.0185 -0.3312
 6632SOL    HW131532   4.048   1.413  16.013 -1.0752 -1.5365 -0.3036
 6632SOL    HW231533   4.165   1.425  15.922 -0.5712  0.9735  0.2462
 6633SOL     OW31534   1.190   1.748   1.780  0.1005  0.7240  0.2712
 6633SOL    HW131535   1.214   1.777   1.692  0.5093 -0.5435 -0.0332
 6633SOL    HW231536   1.098   1.729   1.763  0.5920 -2.4999  1.3280
 6634SOL     OW31537   0.131   1.226   5.720 -0.7125 -0.0582  0.1339
 6634SOL    HW131538   0.077   1.272   5.784  1.7818  1.1030  1.3743
 6634SOL    HW231539   0.059   1.200   5.663  1.4150 -2.4689 -1.4426
 6635SOL     OW31540   4.555   2.573   1.709 -0.3915  0.5709 -0.4277
 6635SOL    HW131541   4.520   2.658   1.736  0.4408  1.1444 -1.1534
 6635SOL    HW231542   4.574   2.593   1.617 -0.3318  0.7569 -0.3749
 6636SOL     OW31543   0.656   2.681   1.625 -0.0527 -0.2665 -0.2616
 6636SOL    HW131544   0.650   2.627   1.704  1.8299 -0.9065 -0.5534
 6636SOL    HW231545   0.665   2.618   1.554 -1.4342  1.4061 -1.9333
 6637SOL     OW31546   1.801   3.101   4.148 -0.0119 -0.3214 -0.6416
 6637SOL    HW131547   1.741   3.026   4.147  1.4445 -1.4779 -2.8774
 6637SOL    HW231548   1.809   3.126   4.056 -0.9130  3.0708  0.2105
 6638SOL     OW31549   2.760   0.648  10.803  0.1933  0.0315  0.2886
 6638SOL    HW131550   2.671   0.644  10.838  0.3564  0.0079  0.6945
 6638SOL    HW231551   2.789   0.738  10.820  2.2892 -0.9181  1.6645
 6639SOL     OW31552   1.032   4.070   4.519  0.5284  0.3968 -0.0804
 6639SOL    HW131553   1.105   4.123   4.486  0.9707  0.7692  1.5211
 6639SOL    HW231554   1.075   3.992   4.555  0.8604  0.0496 -1.2248
 6640SOL     OW31555   0.243   4.697   6.166  0.0060  0.3020 -0.5905
 6640SOL    HW131556   0.189   4.652   6.101 -0.0707  0.8868 -0.9308
 6640SOL    HW231557   0.300   4.627   6.196  3.4128  2.8932 -0.9327
 6641SOL     OW31558   2.045   3.932   6.876 -0.5355  0.0907 -0.3327
 6641SOL    HW131559   1.992   3.881   6.937 -0.9922  1.0657  0.0907
 6641SOL    HW231560   2.011   3.906   6.790 -0.8675  0.4850 -0.3210
 6642SOL     OW31561   4.132   0.277   2.899 -0.1775  0.3863 -0.3967
 6642SOL    HW131562   4.174   0.346   2.950 -1.3810  0.8069  0.0163
 6642SOL    HW231563   4.045   0.311   2.880 -0.3885  0.8779  1.4925
 6643SOL     OW31564   0.014   1.880   1.949 -0.0140  0.0906 -0.5845
 6643SOL    HW131565   0.026   1.958   2.004 -0.1350 -1.8974  2.2858
 6643SOL    HW231566   4.684   1.920   1.892 -0.3414  1.3504  0.6732
 6644SOL     OW31567   3.669   1.169   2.086 -0.5374  0.1394  0.0489
 6644SOL    HW131568   3.655   1.259   2.116  0.6468  1.4925 -3.3762
 6644SOL    HW231569   3.610   1.164   2.011  0.0185 -0.9194 -0.3334
 6645SOL     OW31570   1.044   3.105   8.938 -0.9503  0.3133  0.1252
 6645SOL    HW131571   0.956   3.138   8.958 -2.3055 -2.4709 -1.0982
 6645SOL    HW231572   1.013   3.040   8.875  0.5235 -0.1089 -0.1631
 6646SOL     OW31573   4.151   2.568   4.436  0.1209 -0.9732  0.1357
 6646SOL    HW131574   4.056   2.577   4.445  0.4646  1.5974  1.1855
 6646SOL    HW231575   4.175   2.659   4.454 -0.3325 -1.0149  0.9368
 6647SOL     OW31576   0.929   2.510   9.943  0.4007 -0.3252  0.2838
 6647SOL    HW131577   1.021   2.486   9.941  1.5547  3.9564  1.9610
 6647SOL    HW231578   0.915   2.488   9.851 -2.5225  2.9585 -0.0918
 6648SOL     OW31579   4.460   2.819  16.650  0.4928 -0.0547  0.4617
 6648SOL    HW131580   4.400   2.828  16.576  1.2110 -0.7161 -0.1989
 6648SOL    HW231581   4.524   2.890  16.647  1.1894 -0.6064  2.3318
 6649SOL     OW31582   2.476   3.807   7.427  0.7903  0.2001  0.2319
 6649SOL    HW131583   2.435   3.756   7.497  1.3085 -1.6549 -0.8163
 6649SOL    HW231584   2.433   3.892   7.441  0.8477  0.2357  0.1937
 6650SOL     OW31585   1.343   4.040   0.631  0.1069  0.0647 -0.0751
 6650SOL    HW131586   1.294   4.001   0.558  1.5933 -3.5939  0.8502
 6650SOL    HW231587   1.300   4.125   0.635  0.8522  0.3150  2.8105
 6651SOL     OW31588   1.025   0.404   0.635 -0.3124  0.0803  0.3346
 6651SOL    HW131589   0.988   0.456   0.706  0.2537  1.0855 -0.1051
 6651SOL    HW231590   1.069   0.331   0.680 -0.4616  1.7984  3.2851
 6652SOL     OW31591   1.917   2.985   7.356 -0.1913  0.5025  0.6748
 6652SOL    HW131592   1.987   2.940   7.310 -1.0446  1.2398 -1.3614
 6652SOL    HW231593   1.850   2.998   7.289 -1.3671  0.7956  1.8893
 6653SOL     OW31594   3.158   1.755   3.455 -0.0582  0.4638 -0.3774
 6653SOL    HW131595   3.070   1.720   3.468  0.2059  0.0098  0.1601
 6653SOL    HW231596   3.179   1.807   3.533 -3.0191  0.6298  0.3242
 6654SOL     OW31597   2.220   1.170   7.692 -0.2477  0.1831  0.3667
 6654SOL    HW131598   2.280   1.132   7.627 -1.4298  0.3141 -0.8147
 6654SOL    HW231599   2.175   1.091   7.721 -1.6496  0.4638 -1.0003
 6655SOL     OW31600   2.722   0.853   4.966  0.0289 -0.1008 -0.2612
 6655SOL    HW131601   2.740   0.898   5.049 -0.8745  1.8965 -1.1319
 6655SOL    HW231602   2.687   0.930   4.921 -2.6894  0.7605  3.3497
 6656SOL     OW31603   3.480   2.010   2.677  0.0788  0.3545 -0.5665
 6656SOL    HW131604   3.563   2.039   2.640 -0.0047 -2.1057 -2.6624
 6656SOL    HW231605   3.475   1.925   2.633 -0.0030  0.9159 -1.6109
 6657SOL     OW31606   0.301   1.102   6.224  0.4769 -0.5557 -0.4711
 6657SOL    HW131607   0.240   1.078   6.154  2.3207 -1.5570 -1.7338
 6657SOL    HW231608   0.278   1.193   6.243 -2.2702 -1.2311 -0.4853
 6658SOL     OW31609   2.053   4.645   3.559 -0.2959 -0.3123  0.5596
 6658SOL    HW131610   2.075   4.592   3.483 -1.5473  2.4337 -1.7448
 6658SOL    HW231611   2.135   4.686   3.586 -1.4959  1.5480  1.3964
 6659SOL     OW31612   4.161   2.574   2.834 -0.4710 -0.1268 -0.0644
 6659SOL    HW131613   4.088   2.596   2.892  1.1413  3.4095  0.5989
 6659SOL    HW231614   4.198   2.496   2.877  2.0002  1.3192  0.4319
 6660SOL     OW31615   0.103   3.346  16.960  0.1984  0.7625  0.0856
 6660SOL    HW131616   0.167   3.277  16.978 -1.2680 -0.0919  1.9974
 6660SOL    HW231617   0.098   3.398  17.040  1.9494  0.6804  0.2578
 6661SOL     OW31618   2.615   3.036   2.026  0.7697 -0.1782 -0.5914
 6661SOL    HW131619   2.624   3.064   2.117 -1.3637 -0.1828 -0.3613
 6661SOL    HW231620   2.604   2.941   2.040 -0.4259 -0.0234 -0.4174
 6662SOL     OW31621   2.693   0.378   2.537  0.5448  0.0276  0.4577
 6662SOL    HW131622   2.767   0.352   2.592  0.7619 -0.9651 -0.3059
 6662SOL    HW231623   2.630   0.323   2.584  0.3016 -0.5803 -0.5888
 6663SOL     OW31624   1.677   2.850  17.021 -0.0476  0.3458  0.0113
 6663SOL    HW131625   1.616   2.877  16.952  0.7081  0.4811 -0.6124
 6663SOL    HW231626   1.655   2.759  17.044 -2.8951  0.0385 -3.9054
 6664SOL     OW31627   3.354   0.492   0.594 -0.3159  0.5764  0.7906
 6664SOL    HW131628   3.262   0.464   0.588 -0.4874  1.2091  0.4005
 6664SOL    HW231629   3.397   0.422   0.545 -2.0085 -0.9200  1.4506
 6665SOL     OW31630   1.321   3.152   6.957  0.1711  0.3579  0.5425
 6665SOL    HW131631   1.321   3.241   6.992 -1.6480  0.5174  0.1533
 6665SOL    HW231632   1.334   3.090   7.028 -1.5032 -1.4256 -0.6881
 6666SOL     OW31633   3.594   2.749  15.524  0.2759 -0.5533  0.3550
 6666SOL    HW131634   3.652   2.807  15.574  1.1403 -0.9706 -0.1588
 6666SOL    HW231635   3.631   2.660  15.528 -0.6302 -0.8197  2.6138
 6667SOL     OW31636   1.178   4.378   2.163  0.7792  0.4301  0.3781
 6667SOL    HW131637   1.110   4.338   2.109  3.2012 -0.6204 -1.8996
 6667SOL    HW231638   1.183   4.310   2.231  2.1323 -0.7738 -0.9198
 6668SOL     OW31639   1.510   0.085   5.210 -0.8646  0.7404 -0.5571
 6668SOL    HW131640   1.484   0.123   5.293  0.2660  1.6485 -0.6292
 6668SOL    HW231641   1.567   0.155   5.179 -1.0026  1.5548  1.0686
 6669SOL     OW31642   1.058   3.144   7.709  0.0412  0.0742  0.6746
 6669SOL    HW131643   1.075   3.212   7.775 -1.6123  1.1237  0.0040
 6669SOL    HW231644   1.133   3.166   7.653  0.9928 -2.2744  1.0327
 6670SOL     OW31645   2.592   0.978   1.423 -0.7619 -0.0581  0.0056
 6670SOL    HW131646   2.589   0.973   1.327 -0.3514 -0.8282  0.0352
 6670SOL    HW231647   2.667   0.922   1.442 -1.4503 -0.3565  1.8103
 6671SOL     OW31648   3.597   3.407  17.318 -0.0335 -0.6085 -0.3131
 6671SOL    HW131649   3.658   3.430  17.248 -0.6689  0.3712 -0.5411
 6671SOL    HW231650   3.528   3.359  17.273  1.9986 -3.6624 -0.1469
 6672SOL     OW31651   3.751   3.138   6.240 -0.1700 -0.4209 -0.6403
 6672SOL    HW131652   3.721   3.131   6.150  0.0864  1.0514 -0.8310
 6672SOL    HW231653   3.838   3.100   6.226  0.2673  0.2467  0.2276
 6673SOL     OW31654   2.754   2.510   6.391 -0.2291  0.2482  0.1637
 6673SOL    HW131655   2.706   2.538   6.313  1.2891  0.2009 -0.7910
 6673SOL    HW231656   2.799   2.588   6.421 -0.2543  0.1784  0.3822
 6674SOL     OW31657   1.938   3.018   9.625  0.2612 -0.0859  0.0002
 6674SOL    HW131658   2.003   2.961   9.664 -1.1248 -0.2204  2.1273
 6674SOL    HW231659   1.885   2.957   9.573 -0.5520  1.8882 -1.5217
 6675SOL     OW31660   3.273   3.113  17.689 -0.0953 -0.1469 -0.1280
 6675SOL    HW131661   3.297   3.194  17.733 -2.8334  0.3831  0.3872
 6675SOL    HW231662   3.339   3.105  17.620 -1.7865 -2.1997 -1.5152
 6676SOL     OW31663   0.408   3.157   6.566 -0.6118 -0.3852 -0.1184
 6676SOL    HW131664   0.356   3.238   6.563  1.1196  0.6856 -1.4298
 6676SOL    HW231665   0.368   3.101   6.500  0.1225 -3.1054  1.7332
 6677SOL     OW31666   1.588   1.724   0.361  0.3570 -0.1582 -0.3198
 6677SOL    HW131667   1.560   1.637   0.334  0.0164 -0.7705  1.9854
 6677SOL    HW231668   1.605   1.713   0.455  1.4146 -2.0611 -0.7462
 6678SOL     OW31669   1.201   0.477   9.302  0.3004 -0.2594 -0.1101
 6678SOL    HW131670   1.115   0.517   9.319  0.0964 -0.8348  0.2276
 6678SOL    HW231671   1.181   0.393   9.261 -1.5741 -1.1840  2.7180
 6679SOL     OW31672   2.844   1.289   5.312 -0.8200 -0.2946  0.2718
 6679SOL    HW131673   2.815   1.380   5.307 -1.5866 -0.6884 -2.0216
 6679SOL    HW231674   2.934   1.303   5.283 -0.6025  0.6985  1.4075
 6680SOL     OW31675   4.594   2.259   5.980  0.3645  0.1827 -0.3738
 6680SOL    HW131676   4.635   2.173   5.986 -1.9357 -0.7904  1.6489
 6680SOL    HW231677   4.509   2.249   5.936 -0.0968  1.8241  0.1391
 6681SOL     OW31678   4.341   3.699   3.151  0.0961 -0.1844 -0.4583
 6681SOL    HW131679   4.297   3.687   3.235  2.5101  1.3493  1.0179
 6681SOL    HW231680   4.429   3.727   3.176 -0.3469  0.8704 -0.0891
 6682SOL     OW31681   2.346   1.232   2.230 -0.3071  0.2395  0.1135
 6682SOL    HW131682   2.345   1.302   2.295  0.7039  0.8715 -0.5459
 6682SOL    HW231683   2.433   1.196   2.247  0.7468  3.0278  0.6937
 6683SOL     OW31684   3.913   4.624   7.574  0.3223 -0.4476  0.3795
 6683SOL    HW131685   3.878   4.705   7.537 -1.2947 -1.9623 -1.4252
 6683SOL    HW231686   3.837   4.578   7.610  0.8492 -0.5187  1.4127
 6684SOL     OW31687   3.397   3.759   5.271 -0.8050 -0.2903  0.6853
 6684SOL    HW131688   3.415   3.787   5.361  1.0786 -0.1731  0.2833
 6684SOL    HW231689   3.310   3.797   5.258 -1.0841 -0.7373  1.3038
 6685SOL     OW31690   3.058   3.256   6.832  0.1171  0.0121  0.3253
 6685SOL    HW131691   3.053   3.183   6.893  0.6494 -0.5570 -0.3050
 6685SOL    HW231692   3.149   3.285   6.841  0.1936 -0.5345  1.2660
 6686SOL     OW31693   4.466   1.015   7.131 -0.2727 -0.3207 -0.4130
 6686SOL    HW131694   4.390   0.995   7.185  1.2055  0.3728  1.9346
 6686SOL    HW231695   4.524   0.943   7.153 -1.2934 -0.8879  0.3876
 6687SOL     OW31696   0.861   1.237   8.412 -0.1810  0.2716 -0.4239
 6687SOL    HW131697   0.817   1.312   8.452 -0.4577 -0.1836  0.1252
 6687SOL    HW231698   0.952   1.251   8.441 -0.4100 -1.3701  1.1528
 6688SOL     OW31699   2.495   4.261   7.688  0.6367  0.5579 -0.0676
 6688SOL    HW131700   2.426   4.324   7.663 -1.3536 -1.7129 -0.2937
 6688SOL    HW231701   2.533   4.306   7.764  0.0167  1.6923 -0.4159
 6689SOL     OW31702   4.556   3.601   5.476 -0.3730  0.0576  0.4775
 6689SOL    HW131703   4.535   3.521   5.426  1.8370 -1.2657  1.6817
 6689SOL    HW231704   4.552   3.675   5.416 -1.4033 -1.1071 -0.9256
 6690SOL     OW31705   4.317   4.137  16.259  0.0406  0.4061  0.6007
 6690SOL    HW131706   4.357   4.050  16.266  2.2391  1.4288  0.7354
 6690SOL    HW231707   4.265   4.140  16.339  1.3278  0.4554  1.4282
 6691SOL     OW31708   0.946   1.154  16.324  0.2783 -0.0148  0.1425
 6691SOL    HW131709   0.959   1.128  16.415 -0.5951 -3.3318 -0.6485
 6691SOL    HW231710   0.955   1.247  16.340 -1.3649  0.4282 -1.4574
 6692SOL     OW31711   2.526   1.178   7.532  0.3659 -0.1838 -0.5116
 6692SOL    HW131712   2.551   1.269   7.518  1.7265 -0.5740 -0.5965
 6692SOL    HW231713   2.609   1.158   7.574  0.3445 -1.4622 -1.0680
 6693SOL     OW31714   1.234   1.627   5.112 -0.6432 -0.0704 -0.1123
 6693SOL    HW131715   1.324   1.599   5.126 -0.8732 -0.0965  1.3050
 6693SOL    HW231716   1.198   1.633   5.201 -1.9525  0.9880 -0.7038
 6694SOL     OW31717   2.505   2.625   9.000  0.0389  0.4011 -0.2606
 6694SOL    HW131718   2.424   2.624   9.051  0.9354 -0.9562  1.1140
 6694SOL    HW231719   2.462   2.616   8.915  1.3733 -3.6977 -0.4600
 6695SOL     OW31720   4.240   2.854  15.336  0.3104 -0.3180  0.5215
 6695SOL    HW131721   4.155   2.811  15.340  0.4087 -0.5312  0.2064
 6695SOL    HW231722   4.287   2.801  15.272 -1.9798  0.1378 -1.5168
 6696SOL     OW31723   1.866   0.101   2.087 -0.2914  0.2748  0.0403
 6696SOL    HW131724   1.924   0.122   2.014 -1.2111  1.6950 -0.2600
 6696SOL    HW231725   1.878   0.006   2.091 -0.8919  0.2942  2.6216
 6697SOL     OW31726   4.068   0.693   4.889 -0.5768 -0.1711  0.6279
 6697SOL    HW131727   4.112   0.624   4.840  0.0700  0.9517 -0.3618
 6697SOL    HW231728   4.042   0.635   4.960 -0.9515  0.6119  1.1267
 6698SOL     OW31729   3.931   3.801   0.021 -0.6432  0.0270  0.7213
 6698SOL    HW131730   3.891   3.766  17.681 -2.4460 -2.0846  2.5440
 6698SOL    HW231731   3.851   3.785   0.072 -1.5314 -1.1434 -1.0390
 6699SOL     OW31732   1.899   1.218   8.098  0.1045  0.1969  0.3867
 6699SOL    HW131733   1.859   1.275   8.033  0.8313  0.9342  0.5881
 6699SOL    HW231734   1.857   1.134   8.083  1.0293 -0.5572  2.0528
 6700SOL     OW31735   2.700   3.266   0.881 -0.5209  0.2135  0.3858
 6700SOL    HW131736   2.607   3.263   0.905 -0.8240 -1.6097 -1.0053
 6700SOL    HW231737   2.721   3.173   0.894  0.7125 -0.3696 -5.5293
 6701SOL     OW31738   1.549   1.595   8.721  0.2439  0.6255  0.3276
 6701SOL    HW131739   1.535   1.687   8.745 -0.2586  0.8917 -0.9465
 6701SOL    HW231740   1.458   1.571   8.701  0.6069 -0.3206 -0.1498
 6702SOL     OW31741   3.354   1.777   4.749 -0.2360  0.3674 -0.0381
 6702SOL    HW131742   3.298   1.782   4.826 -0.3996 -0.8803 -0.0741
 6702SOL    HW231743   3.439   1.812   4.778  0.6637 -0.6065 -1.5073
 6703SOL     OW31744   3.411   2.094   5.318 -0.0666  0.0812 -0.1236
 6703SOL    HW131745   3.482   2.050   5.272 -0.2390  1.5450 -1.7843
 6703SOL    HW231746   3.410   2.188   5.296 -0.7064  0.0663 -0.1557
 6704SOL     OW31747   3.504   3.998   7.144 -0.0130 -0.2180  0.3039
 6704SOL    HW131748   3.580   3.975   7.091 -0.0788  1.2920 -0.4543
 6704SOL    HW231749   3.427   3.970   7.093  0.5278 -2.2015  0.6070
 6705SOL     OW31750   1.828   2.469  15.521  0.0832  0.4438 -0.4455
 6705SOL    HW131751   1.891   2.503  15.458  1.3245 -0.4919  0.2975
 6705SOL    HW231752   1.867   2.382  15.522  2.6813  1.5912 -1.4056
 6706SOL     OW31753   3.053   4.731   8.110 -0.5031 -0.1640  0.4216
 6706SOL    HW131754   2.960   0.008   8.130 -0.8894  0.3920 -1.7727
 6706SOL    HW231755   3.078   4.646   8.148  0.8263 -0.4662 -1.1120
 6707SOL     OW31756   2.071   3.838   5.914 -0.0153  0.0388 -0.0171
 6707SOL    HW131757   1.986   3.812   5.880 -0.8065  2.2083  0.3103
 6707SOL    HW231758   2.127   3.814   5.840  2.1670 -0.4792  1.7937
 6708SOL     OW31759   2.859   2.985   6.689 -0.1138  0.3961  0.3778
 6708SOL    HW131760   2.918   2.974   6.614 -1.5182  0.8780 -0.7985
 6708SOL    HW231761   2.783   2.941   6.651  0.5610 -0.8714  0.5035
 6709SOL     OW31762   4.253   2.809   5.744  0.4251 -0.3070 -0.3731
 6709SOL    HW131763   4.177   2.816   5.802 -0.8399 -2.0792 -1.8252
 6709SOL    HW231764   4.233   2.880   5.684 -1.5681 -0.2957  0.3014
 6710SOL     OW31765   1.047   4.566   5.934  0.2424 -0.3357 -0.0681
 6710SOL    HW131766   1.080   4.480   5.957 -0.2887 -0.5805 -0.2266
 6710SOL    HW231767   1.130   4.613   5.946  1.5260 -2.2551 -1.5094
 6711SOL     OW31768   4.104   4.554   2.230 -0.1453 -0.1687  0.3648
 6711SOL    HW131769   4.122   4.603   2.310  0.9175  0.6079 -0.3561
 6711SOL    HW231770   4.149   4.476   2.261  0.0286  0.9932  3.0628
 6712SOL     OW31771   3.931   1.612   9.942 -0.2200 -0.2198 -0.6980
 6712SOL    HW131772   3.875   1.538   9.963  0.8054 -0.7704  0.0753
 6712SOL    HW231773   3.926   1.611   9.846 -1.4710 -1.9099 -0.6122
 6713SOL     OW31774   4.454   2.536   8.376 -0.4000  0.4053 -0.2278
 6713SOL    HW131775   4.491   2.569   8.294  0.9373  0.5238  0.4138
 6713SOL    HW231776   4.411   2.611   8.416 -1.5068 -0.3251 -0.0555
 6714SOL     OW31777   4.074   2.328  12.978  0.0418 -0.0152 -0.7371
 6714SOL    HW131778   4.040   2.249  12.936  1.2468 -1.1975  0.5088
 6714SOL    HW231779   4.012   2.339  13.050 -1.0607 -0.4721 -1.6097
 6715SOL     OW31780   2.115   3.535   8.191 -0.1939 -0.2339 -0.1756
 6715SOL    HW131781   2.163   3.550   8.110 -1.5158  0.7253 -0.7835
 6715SOL    HW231782   2.049   3.469   8.173 -1.1592  0.2831  1.4849
 6716SOL     OW31783   1.753   2.079   5.287  0.3325 -0.3799  0.1446
 6716SOL    HW131784   1.744   2.150   5.223  0.6195 -0.5052 -0.0341
 6716SOL    HW231785   1.843   2.058   5.263  0.8627  0.5404  1.3074
 6717SOL     OW31786   1.188   2.545   4.131  0.1918 -0.1921  0.0138
 6717SOL    HW131787   1.125   2.618   4.135 -0.4804 -0.7113 -1.2357
 6717SOL    HW231788   1.256   2.585   4.186  1.2728  0.3050 -1.6861
 6718SOL     OW31789   3.802   2.184   3.524  0.0844 -0.0069 -0.2129
 6718SOL    HW131790   3.870   2.145   3.580 -1.0580 -0.0555  1.1508
 6718SOL    HW231791   3.727   2.168   3.581  0.5603  1.5431  0.8696
 6719SOL     OW31792   3.184   0.410   2.912 -0.6058 -0.2340 -0.6721
 6719SOL    HW131793   3.103   0.368   2.940 -0.8897  1.4602  1.0991
 6719SOL    HW231794   3.180   0.370   2.825  1.8366 -2.0082  0.0512
 6720SOL     OW31795   3.160   4.167   4.293  0.9581  0.1004  0.4614
 6720SOL    HW131796   3.206   4.242   4.255 -0.4533 -0.5580 -2.5713
 6720SOL    HW231797   3.148   4.108   4.219 -0.6114 -0.7777  1.4204
 6721SOL     OW31798   4.398   2.493   9.900 -0.8210  0.3614 -0.1964
 6721SOL    HW131799   4.379   2.426   9.966  0.9683  0.0368 -0.0144
 6721SOL    HW231800   4.329   2.558   9.909 -2.3266 -0.9281 -2.4595
 6722SOL     OW31801   3.377   3.277   2.306 -0.3637 -0.1542  0.3206
 6722SOL    HW131802   3.314   3.302   2.239  0.7363  3.0699  0.5145
 6722SOL    HW231803   3.322   3.304   2.380 -0.7850  0.7687 -0.3377
 6723SOL     OW31804   0.591   1.067   0.938 -0.1760  0.1155 -0.0578
 6723SOL    HW131805   0.619   1.098   0.852  1.3156 -0.4191  0.2416
 6723SOL    HW231806   0.496   1.052   0.936 -0.1828  0.2447 -1.0271
 6724SOL     OW31807   4.704   4.115  16.819  0.1044 -0.7849  0.7255
 6724SOL    HW131808   4.624   4.165  16.805  1.0886  0.6277  0.1964
 6724SOL    HW231809   4.682   4.058  16.893 -0.7680  1.1577  1.9458
 6725SOL     OW31810   0.182   1.892  11.844 -0.2931  0.0801 -0.3908
 6725SOL    HW131811   0.129   1.902  11.923  0.7526  0.4670  0.2577
 6725SOL    HW231812   0.119   1.832  11.804 -0.5952 -0.6706  1.2405
 6726SOL     OW31813   0.329   3.852   8.190 -0.4009 -0.3906 -0.4994
 6726SOL    HW131814   0.389   3.925   8.199 -0.2661 -0.7110  1.1408
 6726SOL    HW231815   0.314   3.850   8.096  1.3717 -0.4737 -0.7733
 6727SOL     OW31816   4.309   2.484   0.231 -0.0790 -0.3732  0.5472
 6727SOL    HW131817   4.331   2.532   0.151  1.0014 -0.8429  0.5695
 6727SOL    HW231818   4.327   2.556   0.292  0.4017  1.1966 -1.4529
 6728SOL     OW31819   1.552   2.949   8.294  0.2201 -0.3185 -0.4115
 6728SOL    HW131820   1.469   2.994   8.307  0.1134 -1.0271  1.3205
 6728SOL    HW231821   1.588   3.003   8.224 -1.7319 -0.1537 -1.2818
 6729SOL     OW31822   4.727   0.421  12.270  0.5816  0.4757  0.1226
 6729SOL    HW131823   4.718   0.346  12.210 -1.1463  0.7205  0.0942
 6729SOL    HW231824   4.693   0.491  12.215 -0.2288  0.2297  0.3094
 6730SOL     OW31825   0.777   1.408   4.421  0.0551  0.3769  0.6569
 6730SOL    HW131826   0.848   1.362   4.465  0.6662 -2.1657 -2.9427
 6730SOL    HW231827   0.827   1.479   4.381 -0.4778 -0.1307 -0.9153
 6731SOL     OW31828   0.107   0.226   1.656 -0.0121 -0.1066 -0.7260
 6731SOL    HW131829   0.089   0.184   1.740  0.4408  0.0979 -0.5273
 6731SOL    HW231830   0.194   0.189   1.640 -0.3276 -0.9180 -0.5809
 6732SOL     OW31831   1.011   3.005   2.204 -0.1748  0.4880 -0.3002
 6732SOL    HW131832   1.026   3.100   2.203 -0.8676  0.6171  0.6628
 6732SOL    HW231833   1.098   2.984   2.171  0.0557  1.9745 -0.6371
 6733SOL     OW31834   3.819   3.482   9.020  0.1124 -0.2509  0.1076
 6733SOL    HW131835   3.841   3.456   8.931 -2.0581 -1.5226 -0.0527
 6733SOL    HW231836   3.727   3.506   9.006  0.8099  2.2303 -0.1670
 6734SOL     OW31837   2.802   0.291   6.261 -0.5132  0.3327  0.2574
 6734SOL    HW131838   2.724   0.333   6.224  0.2055 -0.5641 -2.2480
 6734SOL    HW231839   2.774   0.265   6.349  0.2144  0.3678  0.5018
 6735SOL     OW31840   3.068   4.712   1.476 -0.2812  0.1008  0.2929
 6735SOL    HW131841   3.103   0.039   1.413 -0.2679  1.8850  2.0371
 6735SOL    HW231842   3.025   0.043   1.531  0.7562  0.6742  0.4097
 6736SOL     OW31843   0.483   1.079  13.354  0.4107  0.0579 -0.0434
 6736SOL    HW131844   0.532   1.116  13.427 -1.6534  2.7220 -0.0128
 6736SOL    HW231845   0.486   0.987  13.381 -1.7805 -0.1580 -0.5299
 6737SOL     OW31846   4.461   2.387   2.108 -0.2455  0.2038  0.1158
 6737SOL    HW131847   4.496   2.355   2.192 -2.3747  0.8249  1.2522
 6737SOL    HW231848   4.470   2.481   2.120  1.9730 -0.1160  0.9554
 6738SOL     OW31849   3.686   3.385   1.658 -0.4657 -0.7055 -0.2176
 6738SOL    HW131850   3.729   3.300   1.668 -0.4589 -0.8969 -1.8870
 6738SOL    HW231851   3.745   3.432   1.600 -1.7341  1.6699  0.3922
 6739SOL     OW31852   4.382   0.502  16.316 -0.3285 -0.4302  0.1171
 6739SOL    HW131853   4.467   0.547  16.326 -1.0172  0.6158  1.2939
 6739SOL    HW231854   4.377   0.463  16.404 -0.9214  1.0024  0.7188
 6740SOL     OW31855   2.341   1.910   4.432 -0.5367 -0.5526 -0.3530
 6740SOL    HW131856   2.351   2.004   4.448  2.4537 -0.9001 -0.1424
 6740SOL    HW231857   2.253   1.916   4.396 -0.9513  1.1249  0.9668
 6741SOL     OW31858   1.935   0.505   7.428  0.0791  0.0274 -0.5015
 6741SOL    HW131859   1.908   0.518   7.337 -2.1457  1.4061  0.3771
 6741SOL    HW231860   2.029   0.524   7.427  0.1736 -0.3812  1.9491
 6742SOL     OW31861   0.897   2.873   9.783 -0.9690 -0.3904 -0.0869
 6742SOL    HW131862   0.935   2.853   9.868  1.3545  0.2513 -0.9568
 6742SOL    HW231863   0.959   2.834   9.721 -0.1181  2.1071 -0.7972
 6743SOL     OW31864   4.051   4.451   5.782 -0.4353  0.1417 -0.0820
 6743SOL    HW131865   4.131   4.445   5.729  1.2637  2.2694  2.2189
 6743SOL    HW231866   4.085   4.479   5.868  0.7558 -1.5464 -0.0027
 6744SOL     OW31867   1.084   2.895   7.356  0.1050 -0.4392 -0.1355
 6744SOL    HW131868   1.073   2.844   7.436 -0.2151  0.6425  0.5073
 6744SOL    HW231869   1.005   2.946   7.371  1.4533  2.1223 -1.7400
 6745SOL     OW31870   0.269   0.026   4.253  0.2857  0.2544 -0.0773
 6745SOL    HW131871   0.317   4.694   4.205 -0.3798  0.5331 -1.1372
 6745SOL    HW231872   0.317   0.104   4.225 -2.2330  1.6553 -0.4789
 6746SOL     OW31873   4.019   1.762   3.056 -0.5289 -0.0768  0.2952
 6746SOL    HW131874   3.931   1.735   3.027  0.2265 -1.1891 -0.9284
 6746SOL    HW231875   3.999   1.855   3.070 -1.4906  0.0512 -1.9613
 6747SOL     OW31876   4.284   3.666   2.349  0.2807  0.0272  0.5952
 6747SOL    HW131877   4.196   3.689   2.320 -0.0938 -2.0930 -0.0063
 6747SOL    HW231878   4.289   3.579   2.309  0.4619  0.5181 -0.4461
 6748SOL     OW31879   4.314   1.251   8.768  0.5254  0.3937  0.5170
 6748SOL    HW131880   4.314   1.156   8.760 -2.8107  0.3976  0.4934
 6748SOL    HW231881   4.227   1.261   8.806  0.7633 -0.1648  1.2110
 6749SOL     OW31882   0.049   1.334  16.613  0.0905  0.6471 -0.3748
 6749SOL    HW131883   4.735   1.254  16.597  0.0321  0.8263 -1.1017
 6749SOL    HW231884   0.141   1.308  16.620  0.3199  1.2481 -1.0706
 6750SOL     OW31885   4.271   3.465   2.176 -0.1422 -0.1860 -0.7982
 6750SOL    HW131886   4.314   3.492   2.095  0.2773  0.4332 -0.3671
 6750SOL    HW231887   4.317   3.383   2.195  0.0700 -0.0686 -0.8091
 6751SOL     OW31888   0.877   4.564  12.890  0.1278  0.1629 -0.0920
 6751SOL    HW131889   0.822   4.500  12.936  0.3926  0.6192  0.8419
 6751SOL    HW231890   0.953   4.508  12.872  1.2408  1.4451  0.6139
 6752SOL     OW31891   1.835   0.173  11.127 -0.1979  0.9351 -0.3854
 6752SOL    HW131892   1.777   0.229  11.178 -0.1644  2.6729 -2.2633
 6752SOL    HW231893   1.771   0.102  11.118  0.5428  0.3855 -1.2550
 6753SOL     OW31894   3.041   3.954   6.329  0.3799 -0.5210 -0.1317
 6753SOL    HW131895   3.010   3.958   6.419 -1.4953  0.3166 -0.8279
 6753SOL    HW231896   3.031   4.046   6.307  2.0802 -0.5144 -0.9025
 6754SOL     OW31897   0.980   0.996   6.474  0.3104  0.1689 -0.0671
 6754SOL    HW131898   0.905   0.989   6.534  0.5530  2.2924  0.4708
 6754SOL    HW231899   1.042   1.059   6.511 -0.1440  0.0596  0.8985
 6755SOL     OW31900   4.365   1.444  15.418  0.1179  0.0456  0.4247
 6755SOL    HW131901   4.455   1.414  15.430  0.3100  0.5787  0.2860
 6755SOL    HW231902   4.365   1.467  15.325 -2.1478 -0.4511  0.2958
 6756SOL     OW31903   4.106   4.311   7.765  0.0731 -0.3131  0.1266
 6756SOL    HW131904   4.163   4.272   7.832  1.5428  0.8065 -0.4648
 6756SOL    HW231905   4.019   4.308   7.804  0.6286  0.9683  1.4959
 6757SOL     OW31906   3.152   0.583  13.457 -0.3450 -0.5086 -0.0257
 6757SOL    HW131907   3.193   0.543  13.534  1.7238  1.7223  0.0306
 6757SOL    HW231908   3.233   0.601  13.410  0.1943 -2.4620  0.1578
 6758SOL     OW31909   3.972   4.193   3.508 -0.4803  0.1062 -0.3586
 6758SOL    HW131910   4.008   4.188   3.420  1.0426 -1.1913  0.3295
 6758SOL    HW231911   3.907   4.124   3.498 -0.6336  0.4995 -1.9484
 6759SOL     OW31912   1.031   3.621   4.529 -0.1247  0.1661 -0.2649
 6759SOL    HW131913   1.037   3.538   4.578 -0.5049  0.2188 -0.1326
 6759SOL    HW231914   1.072   3.593   4.447  0.0216  0.6348 -0.3481
 6760SOL     OW31915   0.400   4.246   5.195  0.6330  0.7760  0.1491
 6760SOL    HW131916   0.455   4.323   5.182  0.5787  0.7032 -0.5042
 6760SOL    HW231917   0.318   4.291   5.174 -0.5869 -0.0956  2.9710
 6761SOL     OW31918   0.356   3.731   8.845  0.7265 -0.2343 -0.5827
 6761SOL    HW131919   0.315   3.810   8.811 -0.2097 -0.7869 -0.7543
 6761SOL    HW231920   0.269   3.700   8.868  0.3937  0.6007 -0.7384
 6762SOL     OW31921   3.278   0.388  14.924  0.0407  0.1959  0.0897
 6762SOL    HW131922   3.192   0.348  14.915  1.2751 -1.9401 -2.1840
 6762SOL    HW231923   3.257   0.482  14.925  2.8229  0.8434 -0.4310
 6763SOL     OW31924   3.653   1.442   7.926  0.0428 -0.0930  0.6881
 6763SOL    HW131925   3.641   1.536   7.915  1.7559  0.2803  1.9389
 6763SOL    HW231926   3.652   1.445   8.022  0.1709 -0.3003  0.6963
 6764SOL     OW31927   2.832   1.092   7.448 -0.5222  0.0475 -0.2958
 6764SOL    HW131928   2.822   1.158   7.516  1.0458  1.2311 -1.2014
 6764SOL    HW231929   2.832   1.139   7.365 -3.1274 -1.1553 -0.9567
 6765SOL     OW31930   3.321   0.490  13.195  0.1879  0.1757  0.2519
 6765SOL    HW131931   3.297   0.581  13.212 -1.2762 -0.0163 -0.7649
 6765SOL    HW231932   3.335   0.491  13.101 -1.8313  0.1039 -0.0635
 6766SOL     OW31933   1.171   3.081   2.971  0.0665  0.3999 -0.2506
 6766SOL    HW131934   1.160   3.143   3.044  0.5792 -0.0269  0.1855
 6766SOL    HW231935   1.097   3.020   2.974 -0.3797  0.9844  0.9093
 6767SOL     OW31936   0.247   1.379   8.610  0.5510  0.2155  0.2414
 6767SOL    HW131937   0.254   1.455   8.669  1.2265 -0.3783  0.9255
 6767SOL    HW231938   0.337   1.385   8.576  0.1601  2.2391 -0.4621
 6768SOL     OW31939   4.295   1.390   6.744  0.1045  0.5356 -0.4891
 6768SOL    HW131940   4.386   1.370   6.767  0.9477  3.3163 -1.4198
 6768SOL    HW231941   4.270   1.428   6.828  0.7763 -1.5502  0.6835
 6769SOL     OW31942   3.767   0.225   3.614  0.1668 -0.0872  0.3244
 6769SOL    HW131943   3.738   0.146   3.568  2.9663  0.0149 -1.5912
 6769SOL    HW231944   3.774   0.289   3.544 -1.5588  1.3137  1.4530
 6770SOL     OW31945   0.598   2.653   4.125 -0.4247  0.4705 -0.0179
 6770SOL    HW131946   0.604   2.596   4.201 -0.9932 -0.6088 -0.7929
 6770SOL    HW231947   0.568   2.734   4.166 -0.5077  1.1441 -1.4018
 6771SOL     OW31948   2.347   0.131   1.713 -0.0797  0.0091 -0.2564
 6771SOL    HW131949   2.433   0.126   1.756  0.1549 -0.4149 -0.7790
 6771SOL    HW231950   2.309   0.045   1.727 -1.6767  0.6516 -0.6388
 6772SOL     OW31951   3.222   2.460   4.744 -0.1481 -0.6763  0.5263
 6772SOL    HW131952   3.248   2.373   4.773 -1.4935 -1.1186  0.4017
 6772SOL    HW231953   3.213   2.499   4.831  0.5475 -0.4522  0.4969
 6773SOL     OW31954   2.966   1.141   2.367 -0.2702 -0.6558 -0.1700
 6773SOL    HW131955   2.947   1.225   2.408  1.7563  0.3498 -1.2595
 6773SOL    HW231956   2.926   1.159   2.282  1.0751  0.7276 -0.5057
 6774SOL     OW31957   2.435   0.190   5.652 -0.2722  0.7951 -0.5482
 6774SOL    HW131958   2.379   0.183   5.574  0.8471 -2.8821 -1.0133
 6774SOL    HW231959   2.500   0.255   5.626  0.2646  0.7408  0.7049
 6775SOL     OW31960   1.220   4.246   7.973 -0.1905  0.2097  0.3141
 6775SOL    HW131961   1.237   4.340   7.964 -4.0535  0.8866  0.2100
 6775SOL    HW231962   1.127   4.250   7.994 -0.3406  0.2986 -0.3515
 6776SOL     OW31963   0.501   2.531   7.697 -0.0865 -0.3259 -0.6112
 6776SOL    HW131964   0.500   2.553   7.604 -1.2877  0.1418 -0.4809
 6776SOL    HW231965   0.411   2.530   7.730 -1.1516 -0.3895 -3.5070
 6777SOL     OW31966   3.068   4.434  10.823 -0.3021 -0.2235  0.5719
 6777SOL    HW131967   3.090   4.468  10.909  1.6136  0.6990 -0.2989
 6777SOL    HW231968   2.976   4.461  10.824 -0.5300 -1.0184  1.4807
 6778SOL     OW31969   4.249   0.145   7.667  0.4016  0.4192  0.2698
 6778SOL    HW131970   4.221   0.067   7.716  2.6665 -1.1077 -0.8545
 6778SOL    HW231971   4.211   0.114   7.584  0.9659  0.5190 -0.0238
 6779SOL     OW31972   3.057   2.280   9.113  0.0398 -0.1228  0.2253
 6779SOL    HW131973   3.054   2.295   9.207 -2.3062  1.5700 -0.1043
 6779SOL    HW231974   3.101   2.359   9.081 -2.2622  0.8601 -0.5105
 6780SOL     OW31975   4.731   4.384  10.512  0.0156 -0.1199 -0.0674
 6780SOL    HW131976   0.083   4.421  10.509 -0.2694  0.5506  0.0287
 6780SOL    HW231977   4.691   4.466  10.483  0.0446 -0.5821 -1.3755
 6781SOL     OW31978   2.821   4.065   4.159  0.1895 -0.2199 -0.0727
 6781SOL    HW131979   2.785   4.006   4.093  0.2423  0.2257 -0.4977
 6781SOL    HW231980   2.848   4.014   4.235 -0.6730 -0.9255 -0.2411
 6782SOL     OW31981   2.552   3.173   1.140 -0.4235 -0.3243 -0.1781
 6782SOL    HW131982   2.479   3.222   1.102  0.1571 -0.1362 -1.0441
 6782SOL    HW231983   2.598   3.245   1.182  0.3140  0.1532 -1.8083
 6783SOL     OW31984   0.462   0.020   0.582 -0.5513  0.2071  0.4301
 6783SOL    HW131985   0.489   4.690   0.647 -0.7071 -1.2120 -0.9021
 6783SOL    HW231986   0.541   0.074   0.580  1.1845 -2.3861 -1.9349
 6784SOL     OW31987   4.272   4.647   1.961  0.4272  0.4829  0.1323
 6784SOL    HW131988   4.189   4.685   1.932  0.6814 -0.2535 -1.5836
 6784SOL    HW231989   4.290   4.706   2.034  1.0784 -1.5868  1.6120
 6785SOL     OW31990   2.360   4.274   8.962 -0.2752  0.0887 -0.5901
 6785SOL    HW131991   2.368   4.364   8.930  0.1330  0.5210  0.7199
 6785SOL    HW231992   2.325   4.284   9.050  1.5470 -0.1014  0.1575
 6786SOL     OW31993   1.440   1.518   7.625 -0.3720 -0.3026  0.5610
 6786SOL    HW131994   1.404   1.506   7.713 -0.0744  0.5791  0.7944
 6786SOL    HW231995   1.508   1.453   7.607  0.2885 -0.1887  2.6612
 6787SOL     OW31996   4.603   1.510  10.258  0.3540 -0.0941 -0.2401
 6787SOL    HW131997   4.612   1.604  10.274  0.1156  0.0434 -0.8813
 6787SOL    HW231998   4.519   1.484  10.295 -0.2849  1.9959 -0.2095
 6788SOL     OW31999   0.212   2.895   2.007  0.1036  0.4909 -0.0019
 6788SOL    HW132000   0.238   2.939   1.927  0.4584 -0.8270 -0.6058
 6788SOL    HW232001   0.294   2.909   2.054  1.2523 -1.9716 -1.3000
 6789SOL     OW32002   0.813   1.635  16.713 -0.3161  0.2106 -0.0698
 6789SOL    HW132003   0.751   1.630  16.786 -1.6485  0.1466 -1.2152
 6789SOL    HW232004   0.836   1.728  16.714  0.1183  0.1369 -3.9611
 6790SOL     OW32005   1.128   1.532   8.316  0.3699  0.0048 -0.2173
 6790SOL    HW132006   1.077   1.492   8.386 -1.8911  1.0339 -1.2986
 6790SOL    HW232007   1.073   1.603   8.284  0.3883  0.1181 -0.0006
 6791SOL     OW32008   3.377   3.355   8.157 -0.0361  0.1912 -0.5861
 6791SOL    HW132009   3.432   3.326   8.084 -0.0581 -0.3730 -0.3807
 6791SOL    HW232010   3.345   3.430   8.107  0.7438  1.7158  1.2068
 6792SOL     OW32011   0.163   2.942   9.200 -0.5379 -0.0454 -0.2391
 6792SOL    HW132012   0.133   2.853   9.182 -0.9137  0.3367 -1.5033
 6792SOL    HW232013   0.257   2.927   9.213 -0.0440  1.3971 -2.1598
 6793SOL     OW32014   1.421   2.004   3.543 -0.1067 -0.5501 -0.3700
 6793SOL    HW132015   1.348   2.048   3.584  0.8167 -2.3431  3.1796
 6793SOL    HW232016   1.426   2.060   3.466  1.5212 -1.2463 -0.7698
 6794SOL     OW32017   3.925   4.315  17.042 -0.1304 -0.0673 -0.5977
 6794SOL    HW132018   3.830   4.308  17.037  0.1021 -3.6315  0.0409
 6794SOL    HW232019   3.936   4.379  16.972 -0.0190  1.3242  0.6822
 6795SOL     OW32020   0.876   2.998   5.804  0.3622  0.2108  0.5139
 6795SOL    HW132021   0.842   3.076   5.848 -0.4876  1.3144 -2.0922
 6795SOL    HW232022   0.971   3.006   5.815  0.3136  0.6120  0.6554
 6796SOL     OW32023   3.998   2.224  10.797  0.5258  0.2724 -0.1315
 6796SOL    HW132024   4.019   2.294  10.735  0.4380  1.0098  0.6624
 6796SOL    HW232025   4.081   2.216  10.843  0.6961 -0.2113 -0.5298
 6797SOL     OW32026   2.395   2.126   7.181 -0.2197  0.7884 -0.2582
 6797SOL    HW132027   2.327   2.178   7.139 -1.2660 -1.0088 -0.8132
 6797SOL    HW232028   2.349   2.043   7.195 -1.0944  1.4045  0.5697
 6798SOL     OW32029   1.051   1.112   9.721  0.7317  1.1066 -0.2191
 6798SOL    HW132030   0.969   1.063   9.715 -0.2993  2.2400  4.8692
 6798SOL    HW232031   1.071   1.125   9.628 -1.7368  0.4026 -0.8664
 6799SOL     OW32032   1.092   2.896  13.143 -0.3948 -0.5274  0.7647
 6799SOL    HW132033   1.131   2.809  13.136 -0.4230 -0.3921 -1.0443
 6799SOL    HW232034   1.075   2.887  13.237  0.5203 -1.3167  0.8572
 6800SOL     OW32035   2.750   2.481   5.887 -0.1817  0.1655  0.3270
 6800SOL    HW132036   2.673   2.447   5.842  0.4214 -2.5177  1.3072
 6800SOL    HW232037   2.804   2.523   5.821  0.3225 -3.4991 -1.6216
 6801SOL     OW32038   1.350   0.077   1.928  0.1030  0.0177 -0.2270
 6801SOL    HW132039   1.274   0.067   1.985  0.4809 -0.9780  0.1090
 6801SOL    HW232040   1.390   0.151   1.973 -1.1713  0.5342  0.0697
 6802SOL     OW32041   2.206   4.346   4.986 -0.1388 -1.2531  0.5971
 6802SOL    HW132042   2.221   4.363   5.079 -0.3982  2.3329 -0.0383
 6802SOL    HW232043   2.155   4.265   4.990  0.1685 -1.5691 -1.9968
 6803SOL     OW32044   2.831   2.080   7.868 -0.0731 -0.3336 -0.1122
 6803SOL    HW132045   2.792   1.999   7.902  1.4139 -0.1239  2.0134
 6803SOL    HW232046   2.923   2.056   7.867 -0.1995 -0.8663  1.2497
 6804SOL     OW32047   3.459   1.666  12.058  0.2133  0.1722 -0.0500
 6804SOL    HW132048   3.459   1.615  11.977 -0.9196 -2.1094  1.3804
 6804SOL    HW232049   3.373   1.644  12.094  0.7954 -0.6330  0.8630
 6805SOL     OW32050   1.590   3.253  10.014 -0.6022 -0.0574  0.6529
 6805SOL    HW132051   1.670   3.233   9.964 -1.7765 -0.4901 -1.0420
 6805SOL    HW232052   1.523   3.203   9.968 -0.5998  0.6822 -0.1546
 6806SOL     OW32053   4.576   0.722   8.046  0.2314  0.1760  0.6208
 6806SOL    HW132054   4.643   0.785   8.020 -0.6445  1.3636  1.2225
 6806SOL    HW232055   4.519   0.774   8.102  2.0981  1.6664  1.1486
 6807SOL     OW32056   2.369   0.881   6.610  0.1311 -0.1041 -0.1508
 6807SOL    HW132057   2.464   0.877   6.602  0.1990  0.9213  0.1358
 6807SOL    HW232058   2.346   0.944   6.542 -3.0276 -0.0549  0.9556
 6808SOL     OW32059   1.942   0.961   0.367 -0.4392  0.0176 -0.3681
 6808SOL    HW132060   1.935   0.956   0.462  1.8862  2.4497 -0.0668
 6808SOL    HW232061   2.004   0.889   0.354  0.5514  0.9524 -0.7890
 6809SOL     OW32062   1.546   2.271  15.261 -0.0234  0.1498 -0.0312
 6809SOL    HW132063   1.631   2.260  15.218 -0.6353 -0.0855 -1.1673
 6809SOL    HW232064   1.567   2.347  15.316  0.0890 -0.0304  0.1759
 6810SOL     OW32065   1.526   0.650   2.788 -0.0649  0.0046  0.4090
 6810SOL    HW132066   1.506   0.687   2.702 -1.3151 -1.5402  0.0498
 6810SOL    HW232067   1.615   0.686   2.795 -0.3931  0.4061  2.4976
 6811SOL     OW32068   3.758   0.445  10.187  0.0677  0.0502  0.3078
 6811SOL    HW132069   3.802   0.385  10.126 -1.9490 -0.8004 -0.3183
 6811SOL    HW232070   3.687   0.389  10.219  0.7995 -0.6173  0.7609
 6812SOL     OW32071   2.011   4.302   4.416 -0.0884  0.2385  0.5021
 6812SOL    HW132072   1.989   4.393   4.394 -0.7630  0.2202  1.1038
 6812SOL    HW232073   2.033   4.309   4.509  0.6879 -0.3965  0.3634
 6813SOL     OW32074   4.335   2.641   0.586 -0.1707  0.0829  0.5734
 6813SOL    HW132075   4.427   2.632   0.610  0.6364  3.7830 -1.0813
 6813SOL    HW232076   4.341   2.652   0.491  0.5538 -1.1088  0.4846
 6814SOL     OW32077   1.054   0.699  10.483 -0.2025  0.4372  0.4293
 6814SOL    HW132078   1.039   0.757  10.409 -0.2842  0.9536  0.8489
 6814SOL    HW232079   0.966   0.663  10.494 -1.0197  2.4617  0.4007
 6815SOL     OW32080   3.444   3.143   3.215  0.0949  0.6728 -0.4341
 6815SOL    HW132081   3.465   3.226   3.172 -0.7896  0.8711 -0.4892
 6815SOL    HW232082   3.406   3.177   3.296 -1.8875  0.3524 -1.2296
 6816SOL     OW32083   4.060   2.759   3.238 -0.7155  0.5521  0.5908
 6816SOL    HW132084   4.025   2.679   3.277 -1.4482  0.7476  0.3417
 6816SOL    HW232085   3.992   2.764   3.170  1.0148 -2.2770 -1.3510
 6817SOL     OW32086   1.010   3.498   6.940  0.1019 -0.0208  0.0159
 6817SOL    HW132087   0.927   3.534   6.971 -0.3523 -0.3208 -0.8642
 6817SOL    HW232088   1.060   3.569   6.900  0.7421 -0.9487 -0.8283
 6818SOL     OW32089   3.170   0.929  11.984  0.2328 -0.5667 -0.7454
 6818SOL    HW132090   3.262   0.943  11.962  0.1720 -1.9500 -1.9210
 6818SOL    HW232091   3.169   0.953  12.076  1.4942  0.7637 -1.0676
 6819SOL     OW32092   0.747   1.368   2.133  0.0219  0.0479 -0.3834
 6819SOL    HW132093   0.677   1.426   2.104  0.3119  0.0305 -1.1041
 6819SOL    HW232094   0.734   1.301   2.066  0.2096  0.8200 -1.1834
 6820SOL     OW32095   2.444   1.262   8.106  0.4925  0.3818 -0.0159
 6820SOL    HW132096   2.488   1.346   8.123 -0.7626  0.7474  1.3967
 6820SOL    HW232097   2.421   1.221   8.190 -0.8794 -0.0589 -0.6101
 6821SOL     OW32098   1.269   0.304   8.643  0.1879  0.3350 -0.1427
 6821SOL    HW132099   1.291   0.216   8.675 -2.1844 -0.2778 -0.2063
 6821SOL    HW232100   1.187   0.287   8.598  0.1165  0.6958 -0.1489
 6822SOL     OW32101   4.365   2.738  14.693 -0.3251 -0.2552 -0.1878
 6822SOL    HW132102   4.429   2.683  14.738 -0.3676 -1.0669 -1.1413
 6822SOL    HW232103   4.334   2.679  14.624 -0.8281  0.3180 -0.4524
 6823SOL     OW32104   2.604   4.348   5.241 -0.1829  0.0116  0.3155
 6823SOL    HW132105   2.575   4.336   5.151 -0.6538  2.4059  0.1532
 6823SOL    HW232106   2.570   4.437   5.247 -1.1917 -0.2841 -1.0759
 6824SOL     OW32107   0.532   0.125   4.626  0.2489 -0.1520 -0.5870
 6824SOL    HW132108   0.525   0.178   4.546  2.2127  0.3585 -0.4198
 6824SOL    HW232109   0.565   0.045   4.585  0.3958 -0.5554  0.3233
 6825SOL     OW32110   2.414   2.922   3.711 -0.0573  0.1553  0.4533
 6825SOL    HW132111   2.488   2.953   3.659  0.8269  0.3916  1.8562
 6825SOL    HW232112   2.365   2.882   3.638 -2.2741 -1.6653  2.9451
 6826SOL     OW32113   0.526   1.772   6.550 -0.0062  1.0873  0.2838
 6826SOL    HW132114   0.564   1.792   6.636  0.4332  1.9596 -0.1074
 6826SOL    HW232115   0.442   1.734   6.578  0.4796  0.3319  0.7049
 6827SOL     OW32116   4.045   1.327   7.580 -0.3999 -0.2715  0.1437
 6827SOL    HW132117   4.097   1.263   7.629  0.5433 -0.1184 -0.6528
 6827SOL    HW232118   4.002   1.369   7.655 -0.7946 -0.5530  0.0730
 6828SOL     OW32119   2.683   3.738   8.680 -0.6355  0.0316  0.8538
 6828SOL    HW132120   2.764   3.787   8.666 -1.1665  1.6084  3.2376
 6828SOL    HW232121   2.676   3.736   8.776 -1.1421  1.0040  0.8360
 6829SOL     OW32122   3.612   1.898  12.128 -0.3655 -0.6562  0.2239
 6829SOL    HW132123   3.579   1.916  12.216 -2.2138  1.3971 -0.8869
 6829SOL    HW232124   3.590   1.805  12.122 -0.1513 -0.5006 -2.8258
 6830SOL     OW32125   0.733   1.616   5.552  0.4227 -0.4112  0.1477
 6830SOL    HW132126   0.773   1.529   5.559 -0.8530 -1.2002 -2.4081
 6830SOL    HW232127   0.748   1.647   5.463 -0.0285  3.3190  1.3937
 6831SOL     OW32128   0.052   3.467   7.143  0.3888 -0.4657 -0.3023
 6831SOL    HW132129   4.733   3.546   7.133 -0.5787 -1.1227 -0.2461
 6831SOL    HW232130   0.008   3.401   7.090 -0.6596  0.1511 -0.1985
 6832SOL     OW32131   3.993   1.908   5.094  0.3600 -0.2003 -0.2207
 6832SOL    HW132132   3.932   1.982   5.097  1.0486  0.3140  1.1458
 6832SOL    HW232133   4.019   1.900   5.186 -0.5301  0.0984  0.0520
 6833SOL     OW32134   4.251   1.814  12.503 -0.7313  0.1538  0.0714
 6833SOL    HW132135   4.246   1.837  12.596  1.3081 -0.2977  0.3011
 6833SOL    HW232136   4.220   1.724  12.502 -0.7828  0.1865 -0.8907
 6834SOL     OW32137   4.181   1.682  11.362 -0.5820  0.8856  0.2119
 6834SOL    HW132138   4.212   1.614  11.422 -2.1311 -0.5171 -0.5701
 6834SOL    HW232139   4.128   1.731  11.425  1.4650  1.4818  1.4707
 6835SOL     OW32140   3.943   3.390  15.373 -0.6734  0.7290 -1.1394
 6835SOL    HW132141   3.954   3.465  15.432 -1.6890  0.4281 -0.5791
 6835SOL    HW232142   3.849   3.383  15.387 -0.3741 -0.0620  0.4172
 6836SOL     OW32143   3.783   1.744   4.091  0.2799 -0.1164 -0.5282
 6836SOL    HW132144   3.697   1.727   4.129  0.4021  1.9586  0.7114
 6836SOL    HW232145   3.752   1.785   4.010 -0.9650  1.6712  0.8437
 6837SOL     OW32146   3.192   0.132   9.898 -0.3613  0.6079  0.0303
 6837SOL    HW132147   3.229   0.045   9.884  0.1568  0.9761 -0.9228
 6837SOL    HW232148   3.231   0.179   9.824 -2.3270 -0.0895 -1.4474
 6838SOL     OW32149   0.810   1.816   5.345 -0.0372  0.1718  0.0934
 6838SOL    HW132150   0.898   1.778   5.342 -1.0889 -2.3880  1.3555
 6838SOL    HW232151   0.825   1.908   5.366  0.8020 -0.1266  0.8038
 6839SOL     OW32152   4.303   3.858   6.101 -0.0413  0.9102  0.0820
 6839SOL    HW132153   4.228   3.917   6.099 -0.9388 -0.1640  2.1850
 6839SOL    HW232154   4.356   3.887   6.174  0.3133 -0.3940  0.3449
 6840SOL     OW32155   1.881   0.041   6.132  0.4698 -0.1679  0.0067
 6840SOL    HW132156   1.824   4.704   6.154  0.6832 -0.6600 -1.0489
 6840SOL    HW232157   1.877   0.088   6.215 -1.8289 -0.7279  0.1973
 6841SOL     OW32158   1.865   0.729   4.124  0.3942 -0.4973 -0.3857
 6841SOL    HW132159   1.910   0.715   4.040 -2.1097 -2.8211 -1.3518
 6841SOL    HW232160   1.913   0.802   4.162  1.3726 -0.2552 -2.0690
 6842SOL     OW32161   4.208   0.676   5.332  0.1769  0.0963 -0.3935
 6842SOL    HW132162   4.267   0.708   5.399  0.5161 -0.0315 -0.6315
 6842SOL    HW232163   4.248   0.687   5.246 -0.5794 -4.0706 -1.3140
 6843SOL     OW32164   3.627   3.826   7.420 -0.2360  0.1225  0.0161
 6843SOL    HW132165   3.663   3.895   7.476 -0.2023  0.7783 -0.8101
 6843SOL    HW232166   3.656   3.852   7.333 -0.9987 -0.8226 -0.5186
 6844SOL     OW32167   2.041   1.574   5.776  0.1607 -0.5029 -0.3781
 6844SOL    HW132168   2.042   1.479   5.785 -1.5999 -0.5163 -0.3163
 6844SOL    HW232169   2.132   1.591   5.751  0.4045  0.3638  1.0674
 6845SOL     OW32170   0.283   0.873   8.323  0.1831  0.5597 -0.4628
 6845SOL    HW132171   0.363   0.822   8.332 -0.7491 -0.5895  1.2866
 6845SOL    HW232172   0.256   0.846   8.235  0.9421  1.8749 -1.0876
 6846SOL     OW32173   2.474   3.154   6.534 -0.3846 -0.0478 -0.1888
 6846SOL    HW132174   2.457   3.221   6.467  1.7158 -1.1066 -1.8175
 6846SOL    HW232175   2.560   3.191   6.557 -0.1817  0.0004 -0.9969
 6847SOL     OW32176   3.149   0.006  10.288 -0.4243 -0.6989  0.4762
 6847SOL    HW132177   3.223   0.065  10.277 -0.4497 -0.8878 -0.6577
 6847SOL    HW232178   3.155   0.001  10.384 -0.3962 -0.3434  0.4940
 6848SOL     OW32179   4.452   1.912   8.236  0.2638 -0.0895  0.0023
 6848SOL    HW132180   4.486   1.827   8.264  0.8637  0.4372  0.9147
 6848SOL    HW232181   4.378   1.874   8.188  1.7878 -1.9530 -0.8475
 6849SOL     OW32182   0.941   4.646   7.709 -0.3623  0.1205 -0.3254
 6849SOL    HW132183   1.008   4.583   7.685  1.3182  1.7683  0.0439
 6849SOL    HW232184   0.997   4.724   7.697  0.5627 -0.3495  0.9961
 6850SOL     OW32185   0.259   0.242   6.173  0.3302 -0.4544  0.1635
 6850SOL    HW132186   0.275   0.149   6.155 -2.5975 -0.9016 -0.0255
 6850SOL    HW232187   0.192   0.251   6.241  1.5183  3.2580  0.8803
 6851SOL     OW32188   1.181   2.150   3.586 -0.2950  0.0191  0.9456
 6851SOL    HW132189   1.106   2.106   3.545 -0.4897  1.5221 -0.2924
 6851SOL    HW232190   1.159   2.242   3.571  1.1336  0.3721  1.0329
 6852SOL     OW32191   0.597   1.406  16.253  0.4371 -0.1429  0.0429
 6852SOL    HW132192   0.676   1.436  16.207 -0.1670  2.4542  0.7057
 6852SOL    HW232193   0.616   1.410  16.347 -1.9320  1.6881  0.4455
 6853SOL     OW32194   1.653   0.382   5.468  0.2197 -0.0285  0.8966
 6853SOL    HW132195   1.691   0.306   5.512  0.9468 -0.6007 -0.7060
 6853SOL    HW232196   1.564   0.352   5.482 -0.9272  1.6703 -2.6769
 6854SOL     OW32197   4.286   0.220   4.751  0.2964 -0.1643  0.1487
 6854SOL    HW132198   4.315   0.245   4.663 -0.5709 -1.3034 -0.4562
 6854SOL    HW232199   4.366   0.187   4.791  1.0577  1.2797 -0.1872
 6855SOL     OW32200   1.581   2.651   3.961  0.1372 -0.2373  0.1997
 6855SOL    HW132201   1.661   2.599   3.950 -0.4362 -0.9771 -0.4843
 6855SOL    HW232202   1.521   2.609   3.900  0.3104 -1.5529  0.9297
 6856SOL     OW32203   3.212   4.002   4.075  0.2771  0.0461 -0.2086
 6856SOL    HW132204   3.163   3.924   4.049 -0.1399 -0.5983  2.5275
 6856SOL    HW232205   3.215   4.039   3.987 -0.2311 -1.9042 -1.0362
 6857SOL     OW32206   1.750   1.320   8.836  0.2710  0.0658 -0.6128
 6857SOL    HW132207   1.743   1.348   8.928 -0.2642 -0.0875 -0.6065
 6857SOL    HW232208   1.815   1.252   8.855  0.3639  0.6496  1.2264
 6858SOL     OW32209   3.770   1.615  17.519  0.6012 -0.4403  0.3635
 6858SOL    HW132210   3.708   1.553  17.480  0.0231  0.9437 -0.9220
 6858SOL    HW232211   3.826   1.621  17.442  0.1559 -2.6938 -0.1475
 6859SOL     OW32212   2.278   2.437   5.828 -0.0284 -0.2455 -0.2584
 6859SOL    HW132213   2.361   2.439   5.780  1.2256  0.2696  1.9558
 6859SOL    HW232214   2.233   2.363   5.787  0.0960 -1.0018  0.9937
 6860SOL     OW32215   0.689   1.224   3.559  0.1649 -0.7452 -0.0875
 6860SOL    HW132216   0.736   1.151   3.601  1.4356 -0.2063 -0.5621
 6860SOL    HW232217   0.724   1.294   3.614  2.6084 -2.0146 -0.0197
 6861SOL     OW32218   3.969   2.174   5.769  0.7149 -0.6881  0.2826
 6861SOL    HW132219   3.919   2.250   5.800 -1.5642 -1.5551 -1.2621
 6861SOL    HW232220   4.013   2.134   5.844  2.8511  2.6494  0.8129
 6862SOL     OW32221   0.935   0.636   5.548 -0.4930  0.1008  1.2244
 6862SOL    HW132222   1.023   0.608   5.523 -1.0607 -0.8215  0.2919
 6862SOL    HW232223   0.888   0.553   5.559  0.6364 -0.5995  0.8127
 6863SOL     OW32224   1.155   0.135  12.334  0.6229 -0.6128  0.4641
 6863SOL    HW132225   1.227   0.198  12.325 -0.6183  0.3813 -2.5688
 6863SOL    HW232226   1.169   0.104  12.244  1.4932  1.5467 -0.1628
 6864SOL     OW32227   4.712   4.176  16.178 -0.8724  0.1766  0.5165
 6864SOL    HW132228   4.721   4.103  16.240 -0.0306  0.6566  0.9617
 6864SOL    HW232229   0.016   4.142  16.097  0.3559  1.2173  0.6775
 6865SOL     OW32230   0.335   4.329   2.254  0.4706  0.4420  0.0893
 6865SOL    HW132231   0.340   4.236   2.273  2.5381  0.2286 -1.5015
 6865SOL    HW232232   0.244   4.339   2.282  0.5422 -0.7303  0.7542
 6866SOL     OW32233   0.985   1.292   7.527 -0.4261  0.2871  0.4569
 6866SOL    HW132234   1.038   1.242   7.464 -1.8141  0.0033 -0.4863
 6866SOL    HW232235   0.923   1.326   7.463 -0.9407 -0.8235  0.3609
 6867SOL     OW32236   2.951   0.088   1.908 -0.0207  0.7904  0.1770
 6867SOL    HW132237   3.033   0.060   1.948 -1.4625  0.6047  2.9483
 6867SOL    HW232238   2.908   0.104   1.992 -0.7123  0.6147 -0.1410
 6868SOL     OW32239   1.085   0.047   8.183 -0.0564 -0.2586 -0.3676
 6868SOL    HW132240   1.042   4.710   8.137  0.7982 -0.2231 -1.2328
 6868SOL    HW232241   1.105   0.004   8.266  0.2909 -0.4070 -0.5258
 6869SOL     OW32242   0.475   0.821   5.547  0.1910 -0.5920 -0.1233
 6869SOL    HW132243   0.562   0.804   5.583  0.9011 -3.0852 -3.1068
 6869SOL    HW232244   0.498   0.853   5.460 -0.3306  1.2999  0.4202
 6870SOL     OW32245   3.545   0.200  10.000 -0.3660  0.1513  0.0272
 6870SOL    HW132246   3.567   0.277   9.948  1.0863 -1.2899 -1.4802
 6870SOL    HW232247   3.624   0.146  10.006 -0.8737 -0.5491  0.4107
 6871SOL     OW32248   2.051   2.533  15.367  0.2498 -0.0550 -0.4070
 6871SOL    HW132249   2.125   2.548  15.426  1.0953 -1.2330 -1.1743
 6871SOL    HW232250   2.088   2.564  15.284 -0.1021  0.8796 -0.2159
 6872SOL     OW32251   3.088   2.958  12.033 -0.6013  1.0309 -0.2190
 6872SOL    HW132252   3.101   2.951  12.127 -1.4693  0.9882 -0.1020
 6872SOL    HW232253   2.996   2.984  12.032 -0.4626  1.4772 -2.3902
 6873SOL     OW32254   1.076   3.920   8.489 -0.7002 -0.5848  0.2849
 6873SOL    HW132255   1.111   3.845   8.441  0.1876  1.2444 -1.9392
 6873SOL    HW232256   1.107   3.908   8.578  2.6089 -1.2021 -0.9536
 6874SOL     OW32257   2.248   2.633  16.942  0.5922  0.6200  0.4320
 6874SOL    HW132258   2.218   2.548  16.976  0.0745  0.9045  0.6961
 6874SOL    HW232259   2.213   2.694  17.008  1.7519  0.2767  1.3674
 6875SOL     OW32260   4.345   0.992  15.975 -0.5144 -0.0367  0.0765
 6875SOL    HW132261   4.425   1.036  15.946  0.0863 -0.7956  0.5976
 6875SOL    HW232262   4.297   1.007  15.893 -0.6894  1.7557  0.4907
 6876SOL     OW32263   2.684   3.546   3.601  0.0789 -0.2603 -0.3103
 6876SOL    HW132264   2.623   3.546   3.675  2.6500 -1.7339  1.8338
 6876SOL    HW232265   2.749   3.609   3.632  0.0805 -0.0054 -0.8443
 6877SOL     OW32266   0.714   3.637   2.878 -0.5399  1.0617  0.2334
 6877SOL    HW132267   0.665   3.630   2.796 -0.5126  0.7310  0.2440
 6877SOL    HW232268   0.657   3.590   2.938 -0.2578 -0.0929 -0.3956
 6878SOL     OW32269   3.597   4.489   0.211  0.0659 -0.7303  0.0357
 6878SOL    HW132270   3.629   4.446   0.132  0.3370  0.1170 -0.3176
 6878SOL    HW232271   3.618   4.417   0.270  0.3962 -2.7719 -2.5960
 6879SOL     OW32272   3.340   1.534   7.667  0.1733  0.6730 -0.1723
 6879SOL    HW132273   3.301   1.494   7.590 -0.5530  0.5391  0.2674
 6879SOL    HW232274   3.406   1.471   7.698 -0.6373 -0.7218 -1.3171
 6880SOL     OW32275   2.314   4.565   4.832 -0.1636  0.0501 -0.2548
 6880SOL    HW132276   2.283   4.480   4.864 -3.1769  1.7386  1.3694
 6880SOL    HW232277   2.279   4.633   4.889  1.2935 -0.0113  0.7147
 6881SOL     OW32278   2.949   0.465   8.310  0.2537 -0.1274 -0.3977
 6881SOL    HW132279   2.981   0.488   8.222 -0.2536  0.9884 -0.2948
 6881SOL    HW232280   2.877   0.404   8.294 -1.9130  2.3931 -0.3976
 6882SOL     OW32281   3.959   0.372   1.852 -0.1407 -0.2441  0.3650
 6882SOL    HW132282   3.872   0.397   1.821  0.2418 -0.5653 -0.9844
 6882SOL    HW232283   3.998   0.459   1.860 -1.8918  0.5891 -0.1466
 6883SOL     OW32284   2.385   4.057   2.541  0.1028  0.1500  0.1425
 6883SOL    HW132285   2.299   4.079   2.577  0.2214  0.9969 -0.0747
 6883SOL    HW232286   2.375   4.088   2.451  0.2699  2.0919  0.7858
 6884SOL     OW32287   2.919   0.334   2.661  0.7364  0.3761 -0.0436
 6884SOL    HW132288   2.916   0.387   2.740  1.3619 -0.3179  0.4478
 6884SOL    HW232289   2.953   0.250   2.693 -1.4187 -0.3475  0.3492
 6885SOL     OW32290   4.487   3.505  11.406  0.1996  0.4241 -0.3296
 6885SOL    HW132291   4.464   3.419  11.440  0.6085  1.1082  1.6678
 6885SOL    HW232292   4.528   3.551  11.479 -0.3642 -1.0009  0.8834
 6886SOL     OW32293   0.873   2.026   8.894 -0.0330 -0.4835  0.5549
 6886SOL    HW132294   0.800   2.087   8.878  0.7279 -0.2574 -1.9981
 6886SOL    HW232295   0.854   1.958   8.829 -0.7517 -0.2415  0.5053
 6887SOL     OW32296   0.592   2.662   7.949  0.4476  0.2073 -0.0125
 6887SOL    HW132297   0.592   2.599   8.021 -0.8592  0.0439 -0.1664
 6887SOL    HW232298   0.576   2.603   7.875  0.4761 -0.8344  0.8033
 6888SOL     OW32299   2.580   3.593   8.374 -0.1949  0.3748 -0.2590
 6888SOL    HW132300   2.506   3.549   8.332 -0.3138 -1.4833  1.8966
 6888SOL    HW232301   2.536   3.677   8.361 -0.6932  0.4844  2.1185
 6889SOL     OW32302   3.967   4.179   1.478 -0.2960  0.8179 -0.1354
 6889SOL    HW132303   4.023   4.250   1.446 -0.5924  0.9725 -0.3025
 6889SOL    HW232304   3.998   4.161   1.567  2.4495  2.5408 -0.7375
 6890SOL     OW32305   3.855   0.002   9.979 -0.4376 -0.6633 -0.3987
 6890SOL    HW132306   3.946   4.721   9.956 -0.2864 -0.3736  0.0037
 6890SOL    HW232307   3.809   4.656   9.956 -0.3169 -1.4285  2.0925
 6891SOL     OW32308   4.698   4.084   4.727  0.2229  0.0913  0.0155
 6891SOL    HW132309   0.006   4.004   4.757  1.1533  1.0697  1.2597
 6891SOL    HW232310   4.613   4.042   4.709  0.0526 -0.0147  1.0591
 6892SOL     OW32311   0.322   1.314  12.528  0.0540 -0.5522 -0.5574
 6892SOL    HW132312   0.229   1.295  12.534 -0.1151  0.2538 -0.6335
 6892SOL    HW232313   0.347   1.326  12.620  1.9035  1.4304 -1.2895
 6893SOL     OW32314   3.650   1.462   5.087 -0.2174  0.1796  0.0699
 6893SOL    HW132315   3.592   1.533   5.058 -2.7941 -0.8085  2.8539
 6893SOL    HW232316   3.713   1.463   5.015 -0.1224  0.8688  0.1576
 6894SOL     OW32317   1.067   4.550   1.641  0.6110  0.0037 -0.3588
 6894SOL    HW132318   1.155   4.578   1.665  0.6146  0.2361 -0.6392
 6894SOL    HW232319   1.039   4.543   1.732 -0.1514 -1.7631 -0.7290
 6895SOL     OW32320   0.357   4.218   7.651 -0.1068  0.0374  0.4307
 6895SOL    HW132321   0.343   4.130   7.616  0.1720 -0.2677  1.0914
 6895SOL    HW232322   0.272   4.263   7.648  0.2698  0.7904  0.9326
 6896SOL     OW32323   1.166   2.327   6.412  0.0777  0.0751  0.4881
 6896SOL    HW132324   1.076   2.302   6.436 -0.2827 -0.4702 -1.4027
 6896SOL    HW232325   1.162   2.407   6.464  1.1748  0.2188  0.3310
 6897SOL     OW32326   1.851   3.296   5.356 -0.5538 -0.1433  0.1449
 6897SOL    HW132327   1.861   3.289   5.451  2.1024 -1.4011 -0.2492
 6897SOL    HW232328   1.757   3.278   5.348 -0.4602 -0.1047 -1.1142
 6898SOL     OW32329   3.173   2.509  14.580  0.3708 -0.1827 -0.1816
 6898SOL    HW132330   3.253   2.455  14.579  1.1841  0.9958  1.5610
 6898SOL    HW232331   3.191   2.574  14.648 -1.6490  2.8974 -2.5653
 6899SOL     OW32332   3.013   3.717   0.795 -0.1837 -0.5928  0.8665
 6899SOL    HW132333   3.069   3.791   0.774 -3.2066  1.3104 -0.4290
 6899SOL    HW232334   3.042   3.695   0.883  1.2396 -0.0463  0.5276
 6900SOL     OW32335   0.149   3.194   1.987  0.1670 -0.0836  0.0091
 6900SOL    HW132336   0.201   3.145   1.923  1.2393  0.7111  0.2648
 6900SOL    HW232337   0.065   3.149   1.980 -1.2528  2.3972  1.3674
 6901SOL     OW32338   2.187   0.331   1.579  0.4449  0.1482 -0.1645
 6901SOL    HW132339   2.229   0.296   1.501  0.8250  0.8334 -0.2651
 6901SOL    HW232340   2.254   0.295   1.637  0.0376 -1.0827 -0.4644
 6902SOL     OW32341   0.240   2.684   4.963  0.5329  0.1218 -0.2185
 6902SOL    HW132342   0.277   2.604   4.925  2.2355  0.8249 -0.0539
 6902SOL    HW232343   0.154   2.684   4.921  0.6640  3.2997 -0.4924
 6903SOL     OW32344   3.333   2.757   6.580  0.4138 -0.2273 -0.3211
 6903SOL    HW132345   3.350   2.811   6.503 -0.7239  2.5631  1.3788
 6903SOL    HW232346   3.419   2.740   6.620 -0.5593  0.0041  1.8815
 6904SOL     OW32347   3.382   0.351   5.521 -0.1252  0.2361 -0.0034
 6904SOL    HW132348   3.417   0.438   5.536 -1.2410  0.5827  0.6195
 6904SOL    HW232349   3.291   0.375   5.504  0.6367  2.5231 -0.7532
 6905SOL     OW32350   0.362   0.932  17.471 -0.1525 -0.0001 -0.2899
 6905SOL    HW132351   0.403   0.848  17.489  1.9386  1.3331  1.2630
 6905SOL    HW232352   0.440   0.985  17.450  0.3311 -1.0857 -1.2324
 6906SOL     OW32353   3.308   3.560   2.212 -0.7906  0.3910  0.3864
 6906SOL    HW132354   3.246   3.633   2.219 -3.4265 -1.8383 -0.0576
 6906SOL    HW232355   3.247   3.489   2.194  0.5481 -0.4538 -0.7907
 6907SOL     OW32356   3.214   2.761   8.944 -0.1298 -0.2630 -0.2636
 6907SOL    HW132357   3.294   2.766   8.892 -0.4164 -1.7128 -0.8418
 6907SOL    HW232358   3.246   2.774   9.034 -0.1386  1.1780 -0.4742
 6908SOL     OW32359   0.041   1.338   3.429 -0.5339  0.3093 -0.6179
 6908SOL    HW132360   0.051   1.244   3.414  0.0345  0.0694  1.2050
 6908SOL    HW232361   4.682   1.347   3.411 -0.0422 -1.1667 -3.9162
 6909SOL     OW32362   2.084   3.155  13.218  0.0929 -0.5124 -0.4663
 6909SOL    HW132363   2.061   3.148  13.125 -0.2617  1.7248 -0.5428
 6909SOL    HW232364   2.158   3.094  13.223  0.1238 -0.3496  0.9202
 6910SOL     OW32365   2.939   1.249   5.833  0.7386  0.1221 -0.1835
 6910SOL    HW132366   2.865   1.228   5.889  1.3248  0.0345  0.5571
 6910SOL    HW232367   2.969   1.337   5.857  0.5146  0.1910 -0.1502
 6911SOL     OW32368   1.518   4.293   4.772  0.3694  0.0631 -0.2335
 6911SOL    HW132369   1.488   4.353   4.704  2.5106  0.2741 -1.0007
 6911SOL    HW232370   1.501   4.209   4.729 -1.8634 -0.1982  1.2115
 6912SOL     OW32371   3.717   1.439  15.308 -0.2016 -0.8369  0.0243
 6912SOL    HW132372   3.678   1.481  15.232  1.7975  0.8923 -0.0368
 6912SOL    HW232373   3.810   1.448  15.287  0.2785  0.2161  2.5390
 6913SOL     OW32374   0.798   0.996   2.382  0.3387  0.5640  0.0920
 6913SOL    HW132375   0.859   0.993   2.456  0.9969 -1.6021 -0.5634
 6913SOL    HW232376   0.757   1.083   2.387 -0.7745  0.0509 -0.2058
 6914SOL     OW32377   1.022   2.582   5.238 -0.3429  0.3555 -0.0029
 6914SOL    HW132378   0.937   2.620   5.261  0.3998  1.6173  0.6357
 6914SOL    HW232379   0.991   2.508   5.184 -0.0969 -1.0909  1.8425
 6915SOL     OW32380   1.655   2.022   3.332  0.0453 -0.5394 -0.3663
 6915SOL    HW132381   1.725   1.963   3.362 -0.7593 -3.3872 -4.1074
 6915SOL    HW232382   1.656   2.017   3.236 -2.2282 -0.2285 -0.4051
 6916SOL     OW32383   1.943   2.174   4.491  0.3733 -0.0012 -0.6465
 6916SOL    HW132384   2.018   2.216   4.535 -0.1738 -0.0375  0.3049
 6916SOL    HW232385   1.891   2.254   4.490 -0.1404 -0.3852 -4.1545
 6917SOL     OW32386   1.138   4.612  13.186  0.2980 -0.4564  0.1932
 6917SOL    HW132387   1.212   4.632  13.244  0.4819 -0.5054 -0.0228
 6917SOL    HW232388   1.075   4.571  13.245 -0.4539  1.0333  0.4296
 6918SOL     OW32389   2.876   2.000   9.476 -0.2862 -0.0510  0.5141
 6918SOL    HW132390   2.802   2.028   9.530  0.7047  2.8583  0.3386
 6918SOL    HW232391   2.944   2.046   9.525 -2.9689  2.9536  1.3791
 6919SOL     OW32392   0.912   2.413   9.678 -0.8745 -0.4641  0.1672
 6919SOL    HW132393   0.972   2.450   9.613 -0.7260  0.0786  0.6127
 6919SOL    HW232394   0.942   2.323   9.692  0.3957  0.0378  0.6768
 6920SOL     OW32395   4.173   3.806  10.049  0.6073 -0.2222  0.4967
 6920SOL    HW132396   4.095   3.862  10.048  0.6495 -0.1615  0.6538
 6920SOL    HW232397   4.130   3.729  10.011  0.6045  0.4272 -0.8110
 6921SOL     OW32398   3.353   0.744  16.842  0.2768 -0.1687 -0.3258
 6921SOL    HW132399   3.389   0.676  16.784  0.5288 -0.1778 -0.1605
 6921SOL    HW232400   3.311   0.692  16.911 -1.2401  1.8384  0.2421
 6922SOL     OW32401   3.637   1.388   6.064  0.3257  0.3387 -0.2946
 6922SOL    HW132402   3.710   1.411   6.008  1.2999 -2.3968 -0.1382
 6922SOL    HW232403   3.586   1.330   6.007  0.3817 -1.5937  1.6031
 6923SOL     OW32404   3.943   1.471   6.360 -0.5694  0.1867  0.8909
 6923SOL    HW132405   3.905   1.386   6.381  0.7341 -0.9681 -1.3618
 6923SOL    HW232406   3.865   1.518   6.332  0.2710  0.3947 -1.0535
 6924SOL     OW32407   0.252   0.833   7.417 -0.2721 -0.7359  0.3325
 6924SOL    HW132408   0.241   0.819   7.511 -3.7421 -1.3618 -0.1569
 6924SOL    HW232409   0.323   0.771   7.405  1.7003  1.3757  0.9858
 6925SOL     OW32410   3.750   1.033  11.120  0.5378  0.7462 -0.1335
 6925SOL    HW132411   3.797   1.113  11.141  0.4319  0.7911 -0.0667
 6925SOL    HW232412   3.796   1.018  11.038 -1.5944  1.1884 -1.4181
 6926SOL     OW32413   0.455   3.120   3.892 -0.3326  0.0800 -0.0162
 6926SOL    HW132414   0.405   3.060   3.836 -0.0771  1.1134 -1.3474
 6926SOL    HW232415   0.545   3.099   3.867 -0.1570  3.1169 -1.9800
 6927SOL     OW32416   2.004   0.634   4.843 -0.0349  0.0852  0.3459
 6927SOL    HW132417   2.096   0.639   4.870  0.6133 -1.0453 -1.6699
 6927SOL    HW232418   1.965   0.573   4.906 -0.9651  0.5084  0.1814
 6928SOL     OW32419   0.674   4.322   8.339 -0.3019  0.1756 -0.4632
 6928SOL    HW132420   0.619   4.312   8.417 -0.7371  0.6804 -0.7092
 6928SOL    HW232421   0.604   4.344   8.278 -0.5384 -0.9426 -0.6068
 6929SOL     OW32422   3.179   2.807   1.949  0.1105 -0.3515 -0.5197
 6929SOL    HW132423   3.140   2.761   2.023 -1.6588  2.3302  0.2043
 6929SOL    HW232424   3.273   2.799   1.964  0.2157  1.1227 -0.3840
 6930SOL     OW32425   2.837   3.873   2.891 -0.2127 -0.3148  0.2489
 6930SOL    HW132426   2.930   3.877   2.870  0.0506  1.5345  1.7937
 6930SOL    HW232427   2.836   3.865   2.986  0.4316  0.3709  0.3150
 6931SOL     OW32428   1.491   2.989   3.289 -0.1245  0.8064  0.0471
 6931SOL    HW132429   1.513   2.950   3.374 -1.6490  1.7992  0.9018
 6931SOL    HW232430   1.556   2.942   3.238  0.3812 -0.0316  1.4514
 6932SOL     OW32431   1.369   2.653  12.872  0.3059  0.3423  0.1266
 6932SOL    HW132432   1.306   2.644  12.943 -0.4966 -1.8167 -0.8476
 6932SOL    HW232433   1.343   2.737  12.835  1.3074  0.2014 -0.9232
 6933SOL     OW32434   2.808   3.318  16.940 -0.0267 -0.2034 -0.0332
 6933SOL    HW132435   2.847   3.237  16.973  0.6586 -0.4884 -1.5627
 6933SOL    HW232436   2.756   3.291  16.864 -1.9992  1.3229  0.7918
 6934SOL     OW32437   1.485   3.978   3.611  0.0642  0.4478  0.0595
 6934SOL    HW132438   1.560   3.948   3.663 -1.4204 -0.6099  1.5827
 6934SOL    HW232439   1.416   3.953   3.673  1.3551 -1.0828  0.8709
 6935SOL     OW32440   0.367   2.481   5.206 -0.3262  0.2041 -0.3752
 6935SOL    HW132441   0.319   2.560   5.233  0.6450  0.3819  0.8369
 6935SOL    HW232442   0.292   2.425   5.187  2.1205 -2.7215 -1.2042
 6936SOL     OW32443   0.529   0.711   5.252  0.3312  0.0051  0.2495
 6936SOL    HW132444   0.614   0.750   5.270  1.8243 -2.2509 -1.9734
 6936SOL    HW232445   0.474   0.788   5.267  0.5302  0.1358  0.3108
 6937SOL     OW32446   1.332   2.403   1.861 -0.1957  0.5391  0.1849
 6937SOL    HW132447   1.238   2.386   1.851 -0.6867  2.6675  1.1584
 6937SOL    HW232448   1.338   2.432   1.770  1.5885 -0.0434  0.1087
 6938SOL     OW32449   0.166   1.995   9.041 -0.6103  0.2416 -0.1393
 6938SOL    HW132450   0.091   1.965   9.092 -0.7853 -0.0801 -0.5852
 6938SOL    HW232451   0.131   1.995   8.952  2.3020  0.2386 -1.2815
 6939SOL     OW32452   3.557   0.559   3.317  0.5593  0.4810  0.3313
 6939SOL    HW132453   3.486   0.597   3.265  2.7751  2.2016 -1.4322
 6939SOL    HW232454   3.618   0.530   3.249  0.7547  0.3034  0.5820
 6940SOL     OW32455   1.507   2.452  12.789  0.1758 -0.0998  0.0637
 6940SOL    HW132456   1.461   2.534  12.806  1.3130  0.5621 -0.0449
 6940SOL    HW232457   1.458   2.426  12.712  0.2013  1.5321 -0.5134
 6941SOL     OW32458   3.422   3.643  14.872 -0.4229  0.6232 -0.6882
 6941SOL    HW132459   3.503   3.693  14.861 -0.5556  1.0336  0.2313
 6941SOL    HW232460   3.367   3.706  14.919  0.1426  0.5920  0.0258
 6942SOL     OW32461   2.789   0.519   3.448  0.2922  0.6703  0.0296
 6942SOL    HW132462   2.868   0.486   3.491  0.1280  2.8038  2.0139
 6942SOL    HW232463   2.787   0.600   3.500  2.1534  1.3992 -1.0103
 6943SOL     OW32464   0.114   0.494  17.432  0.3116 -0.2169  0.4295
 6943SOL    HW132465   0.182   0.474  17.367  0.1809 -1.9702  0.8211
 6943SOL    HW232466   0.043   0.449  17.386  0.0143  0.8487 -0.1428
 6944SOL     OW32467   0.608   2.176   2.367 -0.4933 -0.0833  0.0861
 6944SOL    HW132468   0.582   2.090   2.336 -2.6637 -0.3141  2.5871
 6944SOL    HW232469   0.702   2.188   2.348 -0.6461  1.6765  0.4296
 6945SOL     OW32470   2.812   0.837  13.742 -0.0201  0.3967  0.1187
 6945SOL    HW132471   2.733   0.785  13.730 -0.9782  1.5470  1.5139
 6945SOL    HW232472   2.841   0.808  13.829  0.8885 -2.1036 -1.0280
 6946SOL     OW32473   2.987   1.543   2.229 -0.3210  0.1041  0.1955
 6946SOL    HW132474   3.003   1.636   2.214  0.4021  0.0972  0.9521
 6946SOL    HW232475   3.025   1.523   2.314  0.4142  2.6744  0.4751
 6947SOL     OW32476   1.950   2.760   4.250  0.2443  0.7296 -0.3334
 6947SOL    HW132477   1.880   2.765   4.185  1.6918  0.2928 -1.9039
 6947SOL    HW232478   2.023   2.772   4.189  2.3505 -1.0713  1.8254
 6948SOL     OW32479   0.839   3.250   1.983 -0.4260 -0.0793 -0.0999
 6948SOL    HW132480   0.930   3.244   1.955 -0.5838 -0.1811 -0.5884
 6948SOL    HW232481   0.852   3.312   2.055 -0.0095 -0.1988 -0.0713
 6949SOL     OW32482   2.637   2.302   2.251  0.6327  0.2763  0.5772
 6949SOL    HW132483   2.663   2.279   2.340  1.4169  1.6559  0.6913
 6949SOL    HW232484   2.570   2.234   2.239 -1.4632  2.6002 -0.7164
 6950SOL     OW32485   4.461   2.044   7.052  0.6865  0.0607 -0.7418
 6950SOL    HW132486   4.527   2.086   6.997 -0.5542  0.8233 -1.6440
 6950SOL    HW232487   4.496   2.073   7.136 -0.7508  1.9596 -0.7912
 6951SOL     OW32488   2.602   0.623   5.006  0.2810  0.3915  0.0009
 6951SOL    HW132489   2.614   0.718   5.001  1.4787  0.1516 -1.6545
 6951SOL    HW232490   2.631   0.590   5.091 -0.7357 -0.3132  0.0677
 6952SOL     OW32491   3.810   4.154  14.487  0.4326  0.0103 -0.2388
 6952SOL    HW132492   3.834   4.198  14.406  0.3756  0.6886  0.1176
 6952SOL    HW232493   3.786   4.231  14.538  1.2350  0.4529 -0.5271
 6953SOL     OW32494   1.989   0.063  10.749 -0.5242 -0.4890 -0.2999
 6953SOL    HW132495   2.027   0.054  10.837 -2.1957  3.5414  0.8691
 6953SOL    HW232496   1.918   4.734  10.746  1.4842 -2.7532  1.4658
 6954SOL     OW32497   2.590   4.436   1.286  0.0730  0.7115  0.5045
 6954SOL    HW132498   2.647   4.363   1.266 -1.3274 -0.3740  0.4878
 6954SOL    HW232499   2.533   4.394   1.351 -0.3774 -0.9306 -0.9731
 6955SOL     OW32500   0.501   3.259   8.233 -0.0586 -0.3642 -0.0693
 6955SOL    HW132501   0.442   3.332   8.214 -0.0327 -0.5559 -0.8777
 6955SOL    HW232502   0.436   3.189   8.225 -1.3871  0.8392  0.1393
 6956SOL     OW32503   1.697   4.581   3.659 -0.0272  0.3069  0.2873
 6956SOL    HW132504   1.699   4.656   3.600  0.7383 -0.1357 -0.2509
 6956SOL    HW232505   1.750   4.525   3.603 -0.4932  0.0949  0.0503
 6957SOL     OW32506   2.623   2.011  12.092  0.0140  0.1091 -0.5699
 6957SOL    HW132507   2.660   2.016  12.180 -1.1290  1.8192 -0.1900
 6957SOL    HW232508   2.660   2.092  12.057 -0.7336 -0.7619 -3.3666
 6958SOL     OW32509   2.489   4.541   4.602  0.2643 -0.2583 -0.3349
 6958SOL    HW132510   2.430   4.577   4.668  1.2806 -0.0917  0.4786
 6958SOL    HW232511   2.548   4.496   4.662  0.1708 -1.2061 -0.9490
 6959SOL     OW32512   2.525   0.970   8.042  0.1672 -0.5119  0.0691
 6959SOL    HW132513   2.440   0.935   8.016  0.2429  0.6026 -1.6781
 6959SOL    HW232514   2.507   1.063   8.052  0.3231 -0.1481 -3.0147
 6960SOL     OW32515   0.902   0.279   6.096 -0.8059  0.1710  0.2612
 6960SOL    HW132516   0.982   0.247   6.055 -0.3992 -0.3241  1.4692
 6960SOL    HW232517   0.892   0.368   6.062 -0.8416  0.0763  0.0186
 6961SOL     OW32518   3.173   1.641   6.033 -0.6401  0.5933  0.6652
 6961SOL    HW132519   3.160   1.733   6.056 -0.8583  1.4825 -3.0702
 6961SOL    HW232520   3.269   1.641   6.038 -0.6789  1.1284  1.4946
 6962SOL     OW32521   3.704   1.154   8.986  0.1177  0.2749 -0.1326
 6962SOL    HW132522   3.666   1.242   8.990 -0.2354  0.1359 -0.4639
 6962SOL    HW232523   3.657   1.112   9.058  0.7333 -1.7269 -0.8898
 6963SOL     OW32524   1.109   1.581   7.357 -0.0835 -0.3902  0.0714
 6963SOL    HW132525   1.141   1.619   7.439  2.0390 -1.8535 -0.0806
 6963SOL    HW232526   1.025   1.625   7.348  0.5093  0.9564  1.1812
 6964SOL     OW32527   0.957   4.502   9.239 -0.1439 -0.0791 -0.1120
 6964SOL    HW132528   1.033   4.473   9.289 -0.9071 -0.3869  0.8732
 6964SOL    HW232529   0.968   4.455   9.156 -0.8707 -1.5405  0.6239
 6965SOL     OW32530   2.090   1.745   7.715  0.3959  0.1302 -0.3546
 6965SOL    HW132531   2.086   1.710   7.626 -1.0400 -1.3670  0.3082
 6965SOL    HW232532   2.079   1.664   7.764 -0.0582 -0.9514 -2.2432
 6966SOL     OW32533   3.716   2.113   2.567  0.8179  0.3700 -0.5964
 6966SOL    HW132534   3.718   2.067   2.484  0.6620 -2.5857  1.0267
 6966SOL    HW232535   3.809   2.124   2.587  0.8870 -3.5617  1.1276
 6967SOL     OW32536   3.907   4.393   6.169 -0.5166 -0.4965 -0.4773
 6967SOL    HW132537   3.844   4.324   6.189 -1.1251  0.3491  0.4987
 6967SOL    HW232538   3.872   4.469   6.215  0.4366  1.1121 -2.4041
 6968SOL     OW32539   1.890   2.927   4.749  0.5728 -0.0135 -0.2799
 6968SOL    HW132540   1.974   2.883   4.738 -0.0990 -0.8117 -2.3638
 6968SOL    HW232541   1.860   2.937   4.658 -2.2512 -1.7632  0.4736
 6969SOL     OW32542   2.226   3.440   3.010  0.0670 -0.0681 -0.5473
 6969SOL    HW132543   2.186   3.473   3.091 -2.8988 -2.1875 -1.1292
 6969SOL    HW232544   2.154   3.392   2.968 -0.3433  0.0655 -0.0060
 6970SOL     OW32545   1.037   2.332   1.184 -0.0756  0.3231  0.4336
 6970SOL    HW132546   0.943   2.341   1.196 -0.0038  0.2048  1.0519
 6970SOL    HW232547   1.048   2.387   1.106  0.7248  0.2160  0.4628
 6971SOL     OW32548   3.122   2.081   4.542  0.0659 -0.2548 -0.0097
 6971SOL    HW132549   3.186   2.079   4.613 -1.5350 -3.8183  1.3897
 6971SOL    HW232550   3.080   2.166   4.555 -0.9179 -0.4037 -2.2034
 6972SOL     OW32551   1.894   3.735  10.021 -0.0906 -0.2735 -0.1634
 6972SOL    HW132552   1.855   3.802  10.077 -0.8351  0.1847 -1.2505
 6972SOL    HW232553   1.842   3.752   9.943  0.3751  0.3311 -0.3403
 6973SOL     OW32554   3.399   3.862   5.911  0.1108 -0.7282 -0.4682
 6973SOL    HW132555   3.351   3.944   5.923  0.7698 -0.7655  2.4214
 6973SOL    HW232556   3.371   3.806   5.984 -0.7054 -1.6569 -1.4935
 6974SOL     OW32557   3.389   3.603   4.990 -0.3056 -0.2965  0.2355
 6974SOL    HW132558   3.447   3.560   5.052 -0.2304 -1.5037 -0.6863
 6974SOL    HW232559   3.301   3.582   5.023  0.5372  1.8210  3.9267
 6975SOL     OW32560   1.082   2.646  13.806  0.0421  0.8139  0.5170
 6975SOL    HW132561   1.057   2.670  13.717  0.9954  2.0342  0.5764
 6975SOL    HW232562   1.088   2.736  13.838  0.6184  0.6124  0.9722
 6976SOL     OW32563   4.369   3.992  16.622  0.4692 -0.0122 -0.2558
 6976SOL    HW132564   4.284   4.003  16.579  0.8665 -2.8604 -1.8211
 6976SOL    HW232565   4.367   4.054  16.695 -3.7933 -1.8896  1.2564
 6977SOL     OW32566   1.089   1.111  16.084 -0.1716 -0.5102 -0.0971
 6977SOL    HW132567   1.171   1.161  16.079  0.0664 -0.8401  0.5737
 6977SOL    HW232568   1.074   1.102  16.178  0.0357 -1.9019 -0.1947
 6978SOL     OW32569   2.543   0.588   5.472 -0.3498 -0.4699 -0.0930
 6978SOL    HW132570   2.581   0.672   5.498  0.9164 -0.9873 -0.2802
 6978SOL    HW232571   2.457   0.613   5.437 -0.9410  1.4174  2.7182
 6979SOL     OW32572   3.466   0.594   5.678  0.2484 -0.0916  0.2157
 6979SOL    HW132573   3.493   0.654   5.608 -1.4027  0.6191  0.1757
 6979SOL    HW232574   3.527   0.615   5.749  1.3291 -1.4995 -0.2892
 6980SOL     OW32575   3.460   4.646   5.641 -0.5486 -0.4849 -0.1273
 6980SOL    HW132576   3.376   4.682   5.671  0.2546  2.3423 -1.2248
 6980SOL    HW232577   3.493   4.594   5.715  2.4706  1.2304 -0.2769
 6981SOL     OW32578   0.996   3.274  11.690 -0.5254  0.7224  0.0208
 6981SOL    HW132579   1.015   3.184  11.662 -1.0917 -0.3686  3.1054
 6981SOL    HW232580   1.035   3.280  11.777  0.9891 -0.2677 -0.5931
 6982SOL     OW32581   3.936   2.324  11.284  0.1477 -0.6770 -0.1364
 6982SOL    HW132582   4.011   2.283  11.243 -0.3531 -3.2366  1.5119
 6982SOL    HW232583   3.947   2.415  11.255 -0.8737 -0.3978  0.3343
 6983SOL     OW32584   4.657   4.083   4.095  0.2270 -0.2763  0.2756
 6983SOL    HW132585   4.655   4.143   4.021  1.4759  0.9787  1.2560
 6983SOL    HW232586   4.578   4.112   4.142 -0.8719 -0.7943 -1.2319
 6984SOL     OW32587   1.661   4.536   2.298 -0.3312  0.2514 -0.6105
 6984SOL    HW132588   1.726   4.466   2.303 -0.2421  0.3524 -0.3328
 6984SOL    HW232589   1.606   4.498   2.229  1.8580 -0.0291 -2.2122
 6985SOL     OW32590   1.359   0.731   8.989 -0.2761 -0.8456  1.0943
 6985SOL    HW132591   1.423   0.787   8.945 -0.9112 -0.6944  0.3668
 6985SOL    HW232592   1.400   0.644   8.996  0.2805 -0.7236 -0.7389
 6986SOL     OW32593   0.176   3.674   5.460  0.2256 -0.2558 -0.2931
 6986SOL    HW132594   0.167   3.603   5.523 -0.7947 -0.4545 -0.6473
 6986SOL    HW232595   0.184   3.752   5.515 -2.2379  0.2108 -0.5542
 6987SOL     OW32596   3.675   1.854  10.446 -0.1264 -0.0897 -0.5170
 6987SOL    HW132597   3.638   1.937  10.414  1.4721  1.0961  0.7446
 6987SOL    HW232598   3.671   1.793  10.372  0.6017 -2.2445  1.2188
 6988SOL     OW32599   0.080   3.950   2.897  0.1832  0.8180  0.0458
 6988SOL    HW132600   0.020   3.987   2.962 -1.6797  2.2275 -2.4473
 6988SOL    HW232601   0.025   3.908   2.831  0.1814 -0.6487  1.0002
 6989SOL     OW32602   3.229   3.667   1.002  0.1752  0.0742 -0.4103
 6989SOL    HW132603   3.298   3.601   1.006  1.4671  1.5652  1.8646
 6989SOL    HW232604   3.245   3.711   0.918  1.7217 -2.8437 -1.6604
 6990SOL     OW32605   1.917   2.076   9.512  0.4512  0.0786  0.1107
 6990SOL    HW132606   1.898   2.004   9.572 -0.9025  0.2575 -0.1016
 6990SOL    HW232607   2.010   2.067   9.494  0.4398 -3.0053  1.6583
 6991SOL     OW32608   4.718   2.028   4.199  0.1845 -0.4593 -0.1295
 6991SOL    HW132609   4.702   1.933   4.197  1.5686 -0.6579 -1.5881
 6991SOL    HW232610   0.033   2.037   4.279  0.8448 -0.6527 -0.5178
 6992SOL     OW32611   1.684   2.880   5.375 -0.5435 -0.3908  0.2140
 6992SOL    HW132612   1.671   2.912   5.286  0.3076 -2.4508 -0.6469
 6992SOL    HW232613   1.681   2.787   5.354 -2.0187 -0.1607 -0.5982
 6993SOL     OW32614   0.779   1.234   1.693  0.7220 -1.0801 -0.3091
 6993SOL    HW132615   0.740   1.315   1.659  2.2859 -0.0896  0.2708
 6993SOL    HW232616   0.796   1.188   1.610 -0.5783  1.0654 -1.7820
 6994SOL     OW32617   2.376   4.159   0.611 -0.5274  0.2390 -0.3942
 6994SOL    HW132618   2.389   4.070   0.577  5.4247  1.0681 -0.3108
 6994SOL    HW232619   2.463   4.198   0.601 -1.2464  1.7109 -0.8842
 6995SOL     OW32620   0.573   3.072   9.165 -0.0899 -0.6351  0.3289
 6995SOL    HW132621   0.500   3.078   9.227  0.2143 -0.0404  0.6346
 6995SOL    HW232622   0.620   3.003   9.212  0.3729  0.8827  2.0896
 6996SOL     OW32623   3.124   1.411  15.398  0.2897 -0.4645 -0.2629
 6996SOL    HW132624   3.088   1.406  15.487  2.9528 -0.2075  0.8336
 6996SOL    HW232625   3.215   1.391  15.421 -0.2375 -2.6962 -0.1175
 6997SOL     OW32626   3.155   2.278  16.871  0.0270 -0.4968 -0.0603
 6997SOL    HW132627   3.152   2.182  16.870  1.6414 -0.5611  0.6605
 6997SOL    HW232628   3.118   2.291  16.958 -1.1563 -1.1693 -0.4715
 6998SOL     OW32629   0.959   1.432  13.732  0.2567 -0.0250  0.6686
 6998SOL    HW132630   1.047   1.411  13.764  0.2880  0.6287  1.0171
 6998SOL    HW232631   0.991   1.509  13.683 -0.1033 -0.9093 -0.9380
 6999SOL     OW32632   0.929   4.519   4.999 -0.1824 -0.6481  0.5687
 6999SOL    HW132633   1.004   4.524   5.057  1.0917  4.5029 -1.6026
 6999SOL    HW232634   0.919   4.424   4.990 -1.1611 -0.3834 -1.2033
 7000SOL     OW32635   2.052   3.258   0.714  0.1641  0.4711  0.1206
 7000SOL    HW132636   2.124   3.226   0.769 -1.1780 -0.9691  1.0169
 7000SOL    HW232637   2.108   3.317   0.663 -1.1991 -0.1374 -2.0923
 7001SOL     OW32638   0.470   4.024   3.158 -0.9209  0.4190 -0.2500
 7001SOL    HW132639   0.480   3.930   3.175 -0.8108 -0.0234 -2.7872
 7001SOL    HW232640   0.389   4.037   3.206 -0.7467 -2.1237  0.7378
 7002SOL     OW32641   1.640   1.441  11.371  0.7563 -0.3956  0.3928
 7002SOL    HW132642   1.650   1.436  11.466  1.3201  0.1608  0.3626
 7002SOL    HW232643   1.729   1.459  11.342  0.8044  1.3557  1.6321
 7003SOL     OW32644   0.923   1.372   8.029  0.1404 -0.3617 -0.0399
 7003SOL    HW132645   0.961   1.309   8.090 -5.0475 -1.0370  2.5467
 7003SOL    HW232646   0.907   1.307   7.961  1.8403 -0.9654  0.1385
 7004SOL     OW32647   4.205   2.436   8.169  0.1627 -0.3026 -0.5369
 7004SOL    HW132648   4.283   2.478   8.132  2.2199 -1.2129  2.7302
 7004SOL    HW232649   4.146   2.477   8.107  0.0671  1.9361  1.0391
 7005SOL     OW32650   0.823   1.587  15.960  0.0226  0.7124 -0.4311
 7005SOL    HW132651   0.849   1.653  16.024 -1.0968 -0.9565  1.7607
 7005SOL    HW232652   0.750   1.635  15.920 -2.0192  0.1001  2.5827
 7006SOL     OW32653   0.955   2.196  13.950 -0.2357  0.5461 -0.6965
 7006SOL    HW132654   0.935   2.289  13.964  0.3980  0.2897  1.8714
 7006SOL    HW232655   0.987   2.165  14.035  2.4632  2.7364 -0.9179
 7007SOL     OW32656   1.853   3.655   2.634 -0.4995  0.1055 -0.0462
 7007SOL    HW132657   1.911   3.655   2.710 -3.3833  0.9259  2.1493
 7007SOL    HW232658   1.903   3.710   2.574 -0.7209  1.6110  1.1799
 7008SOL     OW32659   1.065   0.078  13.423 -0.3367 -0.0593 -1.0128
 7008SOL    HW132660   1.002   0.096  13.353  0.8007 -0.5857 -2.1738
 7008SOL    HW232661   1.072   4.718  13.426 -2.0987 -0.2094 -1.5855
 7009SOL     OW32662   2.827   2.486   3.787 -0.1870 -0.2327 -0.3839
 7009SOL    HW132663   2.826   2.397   3.820 -1.8802 -0.5783 -1.3824
 7009SOL    HW232664   2.735   2.509   3.791  0.3817  2.3519 -1.8595
 7010SOL     OW32665   3.453   0.005   0.178  0.0924 -0.8182 -0.2619
 7010SOL    HW132666   3.407   4.699   0.252  0.6920 -0.3704  0.3645
 7010SOL    HW232667   3.516   4.671   0.161  1.5239  0.0640  1.4476
 7011SOL     OW32668   4.055   0.421   5.966 -0.2532 -1.1490 -0.2825
 7011SOL    HW132669   3.990   0.364   5.926  0.4922 -3.1943  1.4215
 7011SOL    HW232670   4.126   0.380   5.917  0.0496  1.7781 -2.3015
 7012SOL     OW32671   2.944   2.329  14.578  0.5987  0.4333 -0.0973
 7012SOL    HW132672   3.006   2.259  14.559  1.5144  1.5216 -1.1071
 7012SOL    HW232673   3.000   2.405  14.592 -0.8713  1.6103 -0.6101
 7013SOL     OW32674   1.978   2.606   2.890 -0.2808  0.1625  0.2033
 7013SOL    HW132675   1.945   2.519   2.915 -3.1793  1.4936  1.0179
 7013SOL    HW232676   1.961   2.648   2.974 -3.5009 -0.0181 -0.3607
 7014SOL     OW32677   3.931   4.181  15.236 -0.2246  0.2289 -0.4742
 7014SOL    HW132678   3.840   4.154  15.242 -0.0963  0.3053  1.8956
 7014SOL    HW232679   3.976   4.109  15.281  1.8222  1.8136  0.0405
 7015SOL     OW32680   2.721   2.824   3.752 -0.5516 -0.0751 -0.4953
 7015SOL    HW132681   2.687   2.889   3.691 -2.8775  1.0538  1.9781
 7015SOL    HW232682   2.813   2.816   3.726 -0.3915  1.5725 -0.4502
 7016SOL     OW32683   0.609   3.853  16.669  0.0690 -0.1359 -0.5294
 7016SOL    HW132684   0.650   3.791  16.608 -0.0305  0.8825 -1.6284
 7016SOL    HW232685   0.523   3.835  16.630  0.4684 -0.3150 -1.3249
 7017SOL     OW32686   1.856   4.523  10.808 -0.2473  0.1517 -0.0996
 7017SOL    HW132687   1.803   4.451  10.776 -2.9203  1.2645  1.8248
 7017SOL    HW232688   1.784   4.567  10.854 -1.1532 -2.3545  0.8426
 7018SOL     OW32689   0.272   0.123   3.422 -0.3875 -0.2461  0.6044
 7018SOL    HW132690   0.269   0.165   3.508  0.3338 -4.4345  2.6402
 7018SOL    HW232691   0.273   0.204   3.371  0.2263 -1.3220 -1.0757
 7019SOL     OW32692   1.793   3.896   9.406 -0.2741  0.6318 -0.9804
 7019SOL    HW132693   1.778   3.876   9.499  0.9163 -0.3271 -0.9905
 7019SOL    HW232694   1.752   3.983   9.398 -0.0163  0.7250 -1.2726
 7020SOL     OW32695   0.458   1.596   8.651  0.0808 -0.1610 -0.4753
 7020SOL    HW132696   0.387   1.594   8.715  1.0195 -2.1876  0.5450
 7020SOL    HW232697   0.541   1.576   8.695  0.3755  1.7712 -0.1900
 7021SOL     OW32698   4.175   3.304   6.579  0.2199  0.3215  0.8854
 7021SOL    HW132699   4.133   3.299   6.493  0.9231  0.2843  0.5427
 7021SOL    HW232700   4.261   3.340   6.558  0.0475 -0.1783 -0.6596
 7022SOL     OW32701   2.699   1.098  17.693  0.1547  0.5396  0.3884
 7022SOL    HW132702   2.718   1.005  17.678 -2.3223  0.4260 -2.1315
 7022SOL    HW232703   2.701   1.097   0.048 -0.2090 -1.7040  0.3621
 7023SOL     OW32704   0.371   4.003   1.581  0.0118 -0.5380  0.1700
 7023SOL    HW132705   0.359   3.952   1.661  0.6009 -1.1407 -0.1223
 7023SOL    HW232706   0.280   4.018   1.557 -0.5441 -0.0573  2.5951
 7024SOL     OW32707   4.220   3.259   3.287 -0.3557  0.0025  0.0757
 7024SOL    HW132708   4.303   3.267   3.242  0.0259 -2.5500  0.3473
 7024SOL    HW232709   4.216   3.167   3.313 -0.4080 -0.4022 -1.4027
 7025SOL     OW32710   2.134   1.985   6.856 -0.3250  0.0858 -0.4634
 7025SOL    HW132711   2.043   1.980   6.883 -0.6134  1.5300 -1.1525
 7025SOL    HW232712   2.167   1.896   6.867 -0.3736  0.0586 -0.5407
 7026SOL     OW32713   0.995   2.321  10.288 -0.2508  0.1451 -0.4245
 7026SOL    HW132714   1.064   2.293  10.229  0.8245 -0.8905  1.3280
 7026SOL    HW232715   1.037   2.334  10.373 -0.9153  0.9557 -0.2160
 7027SOL     OW32716   1.831   0.706   7.627 -0.3513  0.6166 -0.8769
 7027SOL    HW132717   1.834   0.612   7.608 -1.7740  0.0042  1.8371
 7027SOL    HW232718   1.833   0.746   7.541 -0.7720  0.8559 -0.7748
 7028SOL     OW32719   2.238   1.851   8.661  0.5337 -0.6932  0.3189
 7028SOL    HW132720   2.186   1.782   8.703 -0.1152 -0.6904 -0.4776
 7028SOL    HW232721   2.187   1.867   8.582  0.0634  0.9995  0.9568
 7029SOL     OW32722   0.153   0.255  13.269 -0.2037  0.2823 -0.1866
 7029SOL    HW132723   0.078   0.305  13.303  0.6470  1.0392  0.5826
 7029SOL    HW232724   0.099   0.206  13.207 -0.9271 -0.4322  1.0086
 7030SOL     OW32725   3.315   0.077   5.929  0.5547 -0.1283 -0.7986
 7030SOL    HW132726   3.379   0.132   5.885  0.4912 -0.7586 -1.6884
 7030SOL    HW232727   3.365   0.028   5.994 -0.6816  0.0745  0.3099
 7031SOL     OW32728   2.035   2.749   4.969  0.2628  0.1746 -0.0134
 7031SOL    HW132729   2.028   2.739   4.874 -0.9467  0.4082  0.0552
 7031SOL    HW232730   2.073   2.836   4.978  0.7696 -0.3611  3.1556
 7032SOL     OW32731   3.760   3.930   6.548 -0.9364  0.1629  0.1500
 7032SOL    HW132732   3.852   3.957   6.541 -0.8287 -0.5336 -1.1683
 7032SOL    HW232733   3.762   3.851   6.493  0.6179 -0.0149  0.4422
 7033SOL     OW32734   1.873   0.053   5.390 -0.1402  0.0133  0.3441
 7033SOL    HW132735   1.837   4.708   5.428 -2.1156  0.4636 -0.5753
 7033SOL    HW232736   1.845   0.116   5.456 -3.6297 -1.2952  0.1669
 7034SOL     OW32737   3.599   3.283   9.741 -0.3360  0.2946  0.0779
 7034SOL    HW132738   3.610   3.189   9.727 -2.0848 -0.2250  2.1689
 7034SOL    HW232739   3.544   3.313   9.669 -1.9865 -1.1928  0.7140
 7035SOL     OW32740   4.296   2.014   1.561  0.0920 -0.4782  0.5523
 7035SOL    HW132741   4.317   2.106   1.544 -0.9061 -0.0827  1.4946
 7035SOL    HW232742   4.265   2.018   1.652 -2.7902 -0.4960 -0.4138
 7036SOL     OW32743   1.307   4.099   2.582 -0.2501 -0.6412  0.1778
 7036SOL    HW132744   1.283   4.066   2.668 -0.2232 -1.1765 -0.0201
 7036SOL    HW232745   1.263   4.026   2.538 -1.7830  0.0806  0.5166
 7037SOL     OW32746   4.163   0.645   4.167  0.0354  0.2906  0.1708
 7037SOL    HW132747   4.097   0.628   4.099  0.6872  0.8107 -0.6011
 7037SOL    HW232748   4.144   0.580   4.234 -3.0477  0.0280 -0.9275
 7038SOL     OW32749   4.552   0.704  12.967 -0.3557 -0.2670 -0.4285
 7038SOL    HW132750   4.608   0.666  13.035 -0.6138  1.0145  0.4896
 7038SOL    HW232751   4.471   0.654  12.958  0.9642 -2.5524  0.4492
 7039SOL     OW32752   3.812   1.223   7.022  0.3393  0.1975 -0.1443
 7039SOL    HW132753   3.831   1.252   7.112 -0.0448  1.1407 -0.3660
 7039SOL    HW232754   3.900   1.221   6.987  0.5340  0.4492  0.3196
 7040SOL     OW32755   2.120   3.413  15.497 -0.6503 -0.1687  0.4147
 7040SOL    HW132756   2.090   3.380  15.412 -0.7157  2.5701 -0.6460
 7040SOL    HW232757   2.202   3.460  15.483 -0.8614  0.5815  1.7026
 7041SOL     OW32758   2.256   3.507  14.318  0.2717 -0.2470  0.3631
 7041SOL    HW132759   2.189   3.483  14.254  0.2007  0.9671 -0.0158
 7041SOL    HW232760   2.226   3.593  14.349  0.5181 -0.4908  1.2735
 7042SOL     OW32761   3.000   2.448   1.394  0.1781 -0.3521 -0.7444
 7042SOL    HW132762   2.942   2.374   1.413  0.9360 -0.1887  2.1799
 7042SOL    HW232763   2.944   2.524   1.380  1.6843  1.0449  0.7435
 7043SOL     OW32764   1.768   4.205   6.599 -0.0088 -0.0052 -0.3070
 7043SOL    HW132765   1.680   4.192   6.634  0.5047  1.2640  1.4111
 7043SOL    HW232766   1.818   4.197   6.679  0.3053 -1.0000 -0.6016
 7044SOL     OW32767   3.032   0.265  14.905 -0.1952 -0.4390 -0.7254
 7044SOL    HW132768   2.978   0.245  14.982  0.5621  1.3123  0.2584
 7044SOL    HW232769   3.032   0.175  14.873  0.3359 -0.6668 -0.0691
 7045SOL     OW32770   3.664   0.581   1.038 -0.0623  0.1855  0.0756
 7045SOL    HW132771   3.752   0.617   1.049 -0.4036  1.0208  0.0909
 7045SOL    HW232772   3.679   0.500   1.088 -0.1751 -0.0464 -0.2686
 7046SOL     OW32773   2.589   0.204   3.905 -0.3357 -0.4589 -0.6781
 7046SOL    HW132774   2.576   0.274   3.969  1.1697  1.0709 -2.0395
 7046SOL    HW232775   2.496   0.182   3.917 -0.5436 -0.1096 -1.6946
 7047SOL     OW32776   1.280   0.879   7.575 -0.2817 -0.1646  0.3634
 7047SOL    HW132777   1.194   0.898   7.539  0.6931  2.1111 -0.7218
 7047SOL    HW232778   1.264   0.810   7.640 -0.1116  0.4780  1.0851
 7048SOL     OW32779   2.857   2.212   5.932  0.0556  0.3024 -0.4640
 7048SOL    HW132780   2.825   2.301   5.951  0.0600  0.0082  0.8830
 7048SOL    HW232781   2.950   2.220   5.951 -0.2185  0.1704  0.9247
 7049SOL     OW32782   4.404   0.575   8.423 -0.9201 -0.1743 -0.1034
 7049SOL    HW132783   4.465   0.616   8.484  0.3528  1.1018 -2.2434
 7049SOL    HW232784   4.453   0.571   8.341 -1.5679 -1.0324 -0.4626
 7050SOL     OW32785   2.699   3.005   2.675 -0.1360 -0.2662  0.7453
 7050SOL    HW132786   2.711   2.934   2.612  0.1905  0.8065 -0.4197
 7050SOL    HW232787   2.614   3.035   2.644  0.7126  0.7459 -0.6293
 7051SOL     OW32788   0.483   0.424  13.477 -0.2928  0.6004  0.0019
 7051SOL    HW132789   0.393   0.454  13.473 -0.7934 -1.1381 -1.6061
 7051SOL    HW232790   0.520   0.501  13.519 -0.7013  0.2231  1.0477
 7052SOL     OW32791   2.659   3.412   4.941  0.1766  0.1866  0.2125
 7052SOL    HW132792   2.724   3.478   4.918 -1.0133  0.4937 -2.3186
 7052SOL    HW232793   2.582   3.446   4.895 -1.1369 -0.8260  1.6595
 7053SOL     OW32794   1.105   0.918   5.607  0.1845 -0.6654  0.3549
 7053SOL    HW132795   1.144   0.869   5.679  2.4680  1.3061  0.4707
 7053SOL    HW232796   1.130   0.869   5.529 -0.5901  0.6075 -0.7056
 7054SOL     OW32797   1.779   2.704   7.105  0.1462  0.1210  0.2127
 7054SOL    HW132798   1.868   2.697   7.140 -0.1116  1.9565  1.2201
 7054SOL    HW232799   1.731   2.687   7.186  1.3188 -0.4546  0.7834
 7055SOL     OW32800   0.454   0.151   7.428 -0.1612  0.2523  0.0673
 7055SOL    HW132801   0.542   0.177   7.455 -0.3115  3.1300 -2.2431
 7055SOL    HW232802   0.403   0.157   7.509  0.0584 -2.7245  0.4365
 7056SOL     OW32803   2.191   3.798   9.225 -0.2493 -0.7885 -0.7044
 7056SOL    HW132804   2.125   3.773   9.291  0.5860  2.3321  1.3149
 7056SOL    HW232805   2.267   3.741   9.241 -0.0015 -0.2564 -0.0086
 7057SOL     OW32806   3.918   3.587  10.959  0.3130  0.0269 -0.1985
 7057SOL    HW132807   3.862   3.549  11.026  0.3711  0.0400 -0.1426
 7057SOL    HW232808   3.995   3.622  11.003 -0.8895  0.4245  1.5459
 7058SOL     OW32809   2.598   1.050   5.609  0.0251 -0.0949 -0.0193
 7058SOL    HW132810   2.578   1.089   5.524  2.4151 -0.8257 -0.9010
 7058SOL    HW232811   2.689   1.079   5.613 -0.6288  1.8577  0.6896
 7059SOL     OW32812   2.820   3.177  15.072  0.3214 -0.1437  0.3073
 7059SOL    HW132813   2.760   3.139  15.008  1.8150 -2.2154  0.1570
 7059SOL    HW232814   2.897   3.187  15.017 -0.0067  2.9294  0.3928
 7060SOL     OW32815   4.438   3.357   6.466 -0.2270  0.4448 -0.2402
 7060SOL    HW132816   4.419   3.389   6.378 -0.4403 -0.6129 -0.5738
 7060SOL    HW232817   4.457   3.265   6.451 -0.6917  0.4926 -1.1110
 7061SOL     OW32818   0.152   0.872   8.551 -0.1775  0.1506 -0.9455
 7061SOL    HW132819   0.146   0.958   8.594 -1.4697 -0.8479  0.8516
 7061SOL    HW232820   0.203   0.893   8.473  0.6800  0.3422 -0.3359
 7062SOL     OW32821   2.453   3.128  16.535  0.2149 -0.4821 -0.8865
 7062SOL    HW132822   2.408   3.181  16.468  0.7832 -0.0456 -0.9291
 7062SOL    HW232823   2.379   3.088  16.579  0.9500 -0.7708  0.0794
 7063SOL     OW32824   2.437   3.100   5.087 -0.5432 -0.1488  0.9108
 7063SOL    HW132825   2.383   3.179   5.077 -0.3008 -0.1980 -0.7353
 7063SOL    HW232826   2.490   3.107   5.007 -1.1602 -0.6136  0.4669
 7064SOL     OW32827   0.169   2.836   5.616  0.1876  0.5682  0.2941
 7064SOL    HW132828   0.251   2.859   5.660  1.6545 -0.9229 -1.6424
 7064SOL    HW232829   0.168   2.740   5.623  0.9658  0.4638 -0.9232
 7065SOL     OW32830   0.575   2.135   2.988 -0.3760 -0.1675 -0.3723
 7065SOL    HW132831   0.605   2.170   3.072  0.9736  0.8197 -1.2681
 7065SOL    HW232832   0.496   2.087   3.011 -0.7273  1.9906  2.8466
 7066SOL     OW32833   3.205   1.933   3.644  0.1398 -0.1878 -0.6052
 7066SOL    HW132834   3.220   2.009   3.588 -2.6300  1.3231  0.6794
 7066SOL    HW232835   3.141   1.970   3.705  2.8935  1.8099  1.0181
 7067SOL     OW32836   4.114   0.844   4.387 -0.1739  0.8218  0.1941
 7067SOL    HW132837   4.106   0.925   4.337  2.5274  0.1258 -1.3133
 7067SOL    HW232838   4.157   0.799   4.315 -1.7507  1.6637 -1.2592
 7068SOL     OW32839   3.117   0.785  14.041 -0.6396 -0.1488  0.0298
 7068SOL    HW132840   3.022   0.791  14.049 -0.6035  1.8693 -0.9958
 7068SOL    HW232841   3.128   0.729  13.965 -0.3544  1.0687 -0.8324
 7069SOL     OW32842   2.041   3.602  13.974 -0.2591 -0.1294  0.1091
 7069SOL    HW132843   2.010   3.691  13.987 -0.4077 -0.2621  0.6441
 7069SOL    HW232844   2.067   3.567  14.059  0.1520 -0.4665 -0.1481
 7070SOL     OW32845   2.666   2.808   6.269  0.7918 -0.4331  0.3739
 7070SOL    HW132846   2.760   2.826   6.269  0.1402  3.0852  0.4382
 7070SOL    HW232847   2.650   2.763   6.185 -1.9498 -0.6800  1.0184
 7071SOL     OW32848   3.590   1.833  15.489  0.1695  0.0731 -0.2364
 7071SOL    HW132849   3.604   1.911  15.542 -0.1859 -2.0470  2.9716
 7071SOL    HW232850   3.632   1.858  15.407 -0.7463 -0.4971 -0.8820
 7072SOL     OW32851   3.783   2.292  12.838  0.2552 -0.1612  0.1459
 7072SOL    HW132852   3.732   2.372  12.848  0.2424  0.2001 -2.6215
 7072SOL    HW232853   3.712   2.229  12.852  0.1581  0.1624  1.1086
 7073SOL     OW32854   3.161   3.804   4.860  0.3098 -0.1766  0.0009
 7073SOL    HW132855   3.087   3.864   4.851 -1.2043 -1.8253  1.4998
 7073SOL    HW232856   3.230   3.865   4.835  1.4932 -0.9883  1.2873
 7074SOL     OW32857   1.461   2.899  15.273  0.3621 -0.3091  0.0321
 7074SOL    HW132858   1.422   2.960  15.209 -1.9577  0.7264  2.4141
 7074SOL    HW232859   1.397   2.828  15.269  1.0461 -0.8908 -0.4524
 7075SOL     OW32860   1.851   4.282  13.820 -0.2484 -0.1928 -0.4801
 7075SOL    HW132861   1.910   4.225  13.869 -2.0163 -0.2450  1.5428
 7075SOL    HW232862   1.870   4.246  13.733 -0.8222 -0.7283 -0.3753
 7076SOL     OW32863   3.887   4.258   5.657  0.0472 -0.0078  0.0420
 7076SOL    HW132864   3.942   4.331   5.687 -0.3928 -0.0345  0.8990
 7076SOL    HW232865   3.802   4.298   5.643  0.0226  0.0358  0.3190
 7077SOL     OW32866   4.496   2.314   9.307  1.0462  0.3239 -0.0148
 7077SOL    HW132867   4.531   2.389   9.355 -0.0036 -0.1517  1.5117
 7077SOL    HW232868   4.483   2.254   9.380 -0.4607  0.4795 -0.1521
 7078SOL     OW32869   1.007   1.293   7.014 -0.3976 -0.0634 -0.3164
 7078SOL    HW132870   0.955   1.276   7.092  1.7705  1.6637  1.4890
 7078SOL    HW232871   0.955   1.353   6.961 -0.3916 -1.3825 -1.8186
 7079SOL     OW32872   4.009   0.343   8.049  0.1275 -0.4607 -0.0062
 7079SOL    HW132873   3.953   0.415   8.019  0.7464 -0.3742 -0.9383
 7079SOL    HW232874   3.969   0.264   8.013  0.4675  0.3729 -2.2063
 7080SOL     OW32875   4.218   1.134   8.117 -0.2109 -0.0215  0.0663
 7080SOL    HW132876   4.258   1.212   8.155  2.0895 -0.2714 -1.9138
 7080SOL    HW232877   4.133   1.134   8.163 -0.8547  0.6498 -1.1366
 7081SOL     OW32878   1.346   3.024  10.378  0.1684  0.0045  0.5097
 7081SOL    HW132879   1.365   3.092  10.314 -1.1206 -0.7954 -0.7264
 7081SOL    HW232880   1.336   2.945  10.326  1.3949  0.4170 -0.3365
 7082SOL     OW32881   3.730   3.064   3.363  0.1320  0.6700 -0.3106
 7082SOL    HW132882   3.653   3.122   3.361 -0.0341  0.4132 -1.5990
 7082SOL    HW232883   3.803   3.115   3.328 -0.2039  0.2979 -1.5590
 7083SOL     OW32884   1.875   2.122   8.339 -0.0527  0.3858 -0.1166
 7083SOL    HW132885   1.838   2.157   8.420 -0.4933  0.0552 -0.1782
 7083SOL    HW232886   1.846   2.031   8.341 -0.6693  0.4765 -4.7335
 7084SOL     OW32887   2.539   0.209  11.440 -0.6403 -0.6997  0.1969
 7084SOL    HW132888   2.482   0.155  11.495 -2.1369  0.0255 -0.6306
 7084SOL    HW232889   2.621   0.199  11.487  1.3019  2.4228 -2.4505
 7085SOL     OW32890   0.033   3.531   1.083  0.2611 -0.4596 -0.3083
 7085SOL    HW132891   0.109   3.589   1.089 -0.5184  0.6025 -0.6548
 7085SOL    HW232892   4.725   3.554   1.000  0.9696 -3.1447 -1.4037
 7086SOL     OW32893   2.290   3.066   6.709  0.2065  0.3642  0.1957
 7086SOL    HW132894   2.366   3.118   6.684  0.7771 -0.8367 -0.5882
 7086SOL    HW232895   2.311   2.982   6.668  2.3676  0.6684  0.6971
 7087SOL     OW32896   1.091   2.605   2.555  0.0299 -0.1282 -0.2472
 7087SOL    HW132897   1.140   2.542   2.502 -0.5522 -0.6495 -0.1649
 7087SOL    HW232898   1.166   2.663   2.571  0.4659 -0.3373 -1.4870
 7088SOL     OW32899   1.093   1.834   6.695 -0.2733 -0.4946  0.1060
 7088SOL    HW132900   1.148   1.838   6.774  1.0010  0.0374 -0.8165
 7088SOL    HW232901   1.131   1.897   6.634  1.0327 -1.3610  0.0508
 7089SOL     OW32902   1.974   3.920  12.874 -0.3414 -0.2797 -0.1151
 7089SOL    HW132903   2.014   3.924  12.788  0.7219  0.7111  0.4274
 7089SOL    HW232904   1.997   4.007  12.907  1.1398 -0.8510  0.3602
 7090SOL     OW32905   1.428   3.355   3.056 -0.2581  0.2991 -0.2220
 7090SOL    HW132906   1.460   3.374   3.144 -0.3356  0.7786 -0.3002
 7090SOL    HW232907   1.466   3.426   3.005  1.0982  0.1317  0.5640
 7091SOL     OW32908   2.114   1.857  10.399 -0.3381  0.1661 -0.1561
 7091SOL    HW132909   2.154   1.943  10.411  0.4555 -0.3697  1.0075
 7091SOL    HW232910   2.121   1.818  10.486  0.0853 -0.7543 -0.6059
 7092SOL     OW32911   1.136   0.665   2.469 -0.4364 -0.3546  0.6392
 7092SOL    HW132912   1.137   0.600   2.540  2.3222 -0.0878  0.8400
 7092SOL    HW232913   1.202   0.623   2.414  0.3929  2.2840 -0.3382
 7093SOL     OW32914   2.690   0.959   4.677 -0.4074 -0.1048  0.7277
 7093SOL    HW132915   2.774   0.938   4.718  1.0036 -0.1857 -2.1950
 7093SOL    HW232916   2.642   0.877   4.694  1.7928 -2.3415 -3.7658
 7094SOL     OW32917   1.628   0.726   6.522 -0.5463  0.4451 -0.0069
 7094SOL    HW132918   1.721   0.708   6.507 -0.5891  0.5290 -0.3620
 7094SOL    HW232919   1.627   0.750   6.615 -0.5624 -0.1235  0.1406
 7095SOL     OW32920   0.389   3.653   5.294 -0.3308 -0.5931  0.1256
 7095SOL    HW132921   0.343   3.640   5.211  0.3227 -1.9147 -0.0265
 7095SOL    HW232922   0.314   3.676   5.349  1.2375  2.2867  1.0479
 7096SOL     OW32923   0.606   2.664   9.350 -0.5377  0.4181 -0.2624
 7096SOL    HW132924   0.656   2.619   9.281 -2.2321 -0.5760 -0.8264
 7096SOL    HW232925   0.649   2.623   9.425 -2.1810  1.5387  1.2803
 7097SOL     OW32926   1.213   0.957   9.872 -0.1630  0.1872 -0.4244
 7097SOL    HW132927   1.184   1.035   9.824  2.5573  2.7170  2.0998
 7097SOL    HW232928   1.304   0.957   9.842 -0.4057  0.2580 -1.1836
 7098SOL     OW32929   4.442   4.371   5.896  0.6114 -0.0988  0.1420
 7098SOL    HW132930   4.505   4.350   5.827 -0.5180  0.5207 -1.0640
 7098SOL    HW232931   4.378   4.303   5.877 -1.7577  1.5141  2.2682
 7099SOL     OW32932   3.689   4.213   7.616 -0.1667 -0.0916 -0.1103
 7099SOL    HW132933   3.742   4.233   7.538  1.0158 -0.8623  0.5019
 7099SOL    HW232934   3.725   4.126   7.632 -1.0081 -0.3334  0.4647
 7100SOL     OW32935   0.361   0.231  14.321 -0.0816 -0.2299 -0.2220
 7100SOL    HW132936   0.357   0.178  14.241 -1.4656 -0.6522  0.1261
 7100SOL    HW232937   0.414   0.180  14.382 -0.9403  0.7283  1.3129
 7101SOL     OW32938   3.118   3.723   8.168 -0.5888  0.3298 -0.1743
 7101SOL    HW132939   3.022   3.718   8.169 -0.4445 -2.3995 -1.9747
 7101SOL    HW232940   3.139   3.813   8.145  0.4404  0.1139 -0.0589
 7102SOL     OW32941   1.235   1.096   6.534  0.1376  0.1605 -0.7467
 7102SOL    HW132942   1.314   1.046   6.554  0.5130  0.1182 -2.3492
 7102SOL    HW232943   1.227   1.139   6.619  1.3824 -1.0885  0.0059
 7103SOL     OW32944   1.483   0.209   8.923 -0.1912  0.0140  0.6242
 7103SOL    HW132945   1.535   0.184   8.846  0.2076  0.8120  0.6389
 7103SOL    HW232946   1.418   0.139   8.914 -1.1510  1.3950 -3.2402
 7104SOL     OW32947   2.743   0.418   4.288 -0.3231  0.0944  0.2620
 7104SOL    HW132948   2.796   0.346   4.322 -0.0578  0.4567  0.6146
 7104SOL    HW232949   2.706   0.443   4.373 -0.9202  0.7407 -0.1839
 7105SOL     OW32950   3.745   1.407  11.415  0.5068 -0.0617  0.1436
 7105SOL    HW132951   3.763   1.500  11.412 -1.6585  0.4438  2.0780
 7105SOL    HW232952   3.649   1.399  11.413  0.5783 -1.4301  1.8715
 7106SOL     OW32953   1.846   2.615   9.894 -0.2098 -0.0299  0.4704
 7106SOL    HW132954   1.899   2.537   9.911 -2.2685 -0.9709  2.6061
 7106SOL    HW232955   1.799   2.624   9.977 -2.0622 -0.0068 -0.5927
 7107SOL     OW32956   4.663   2.492   5.096 -0.3678 -0.1797 -0.6916
 7107SOL    HW132957   4.597   2.487   5.027 -3.0099 -1.5960  1.9179
 7107SOL    HW232958   4.655   2.580   5.132  1.0711  0.4736 -1.9770
 7108SOL     OW32959   0.160   2.532   3.005  0.3139 -0.1769  0.4488
 7108SOL    HW132960   0.164   2.626   2.986  1.2729 -0.4899 -0.9375
 7108SOL    HW232961   0.106   2.504   2.931 -1.6102  0.1250  1.7485
 7109SOL     OW32962   2.882   1.217   3.838  0.0209  0.2252  0.0103
 7109SOL    HW132963   2.805   1.253   3.880  1.2557  0.3171  2.1723
 7109SOL    HW232964   2.903   1.284   3.772  3.8605 -1.0668 -0.1038
 7110SOL     OW32965   2.811   4.691   8.190  0.2472 -0.3986  0.0602
 7110SOL    HW132966   2.828   4.620   8.251 -0.4988  0.1426  0.8875
 7110SOL    HW232967   2.736   4.646   8.152  0.2645  0.0854 -0.5574
 7111SOL     OW32968   0.646   0.505   4.567  0.0967 -0.7370 -0.0804
 7111SOL    HW132969   0.688   0.477   4.648  1.7223 -0.0047 -0.6751
 7111SOL    HW232970   0.627   0.596   4.589  0.9889 -0.9012  1.3062
 7112SOL     OW32971   0.699   2.527   3.031 -0.6099  0.3460  0.7705
 7112SOL    HW132972   0.608   2.524   3.001 -0.7521 -1.2341  1.3477
 7112SOL    HW232973   0.692   2.538   3.126 -1.1587  2.0866  0.5276
 7113SOL     OW32974   2.426   0.456   4.411  0.4411 -0.0112  0.5548
 7113SOL    HW132975   2.369   0.484   4.482 -1.3441 -0.8266 -0.5678
 7113SOL    HW232976   2.505   0.498   4.445 -0.7435  1.3674  1.5825
 7114SOL     OW32977   0.637   3.987  16.895  0.1882 -0.0174 -0.2517
 7114SOL    HW132978   0.544   4.002  16.907 -0.4130 -2.4551 -1.8049
 7114SOL    HW232979   0.644   3.937  16.814 -2.4541  0.6714 -0.8803
 7115SOL     OW32980   2.167   0.690   7.755  0.3939  0.5020  0.0833
 7115SOL    HW132981   2.134   0.668   7.668  0.5728  0.6772 -0.0288
 7115SOL    HW232982   2.147   0.611   7.806 -1.7206 -0.3473 -2.0867
 7116SOL     OW32983   4.444   0.114   5.598  0.2598  0.2001 -0.1798
 7116SOL    HW132984   4.446   0.207   5.616 -1.5097 -0.0066  1.0546
 7116SOL    HW232985   4.454   0.109   5.502 -0.2846  0.7690 -0.2614
 7117SOL     OW32986   1.218   2.345   7.908  0.5584  0.9055 -0.0968
 7117SOL    HW132987   1.228   2.270   7.848 -0.5233 -1.0607  2.1654
 7117SOL    HW232988   1.150   2.393   7.861 -0.1308 -0.1709 -0.2008
 7118SOL     OW32989   0.693   1.872   7.285  0.2104  0.1125  0.0270
 7118SOL    HW132990   0.719   1.964   7.278 -0.2972  0.3532  1.2636
 7118SOL    HW232991   0.615   1.872   7.340 -0.4823  1.0545 -0.9460
 7119SOL     OW32992   0.489   1.274   7.236  0.2028  0.3299  0.3987
 7119SOL    HW132993   0.461   1.251   7.325  0.2180  1.1627  0.6290
 7119SOL    HW232994   0.424   1.345   7.230 -0.1413  0.0090  0.3611
 7120SOL     OW32995   4.402   1.100   6.781  0.5798  0.0352 -0.0455
 7120SOL    HW132996   4.310   1.116   6.761  0.7722  1.1129 -0.1034
 7120SOL    HW232997   4.444   1.186   6.783 -0.7400  0.6841 -0.3262
 7121SOL     OW32998   3.042   4.330   3.350 -0.5660 -0.0336 -0.0317
 7121SOL    HW132999   3.062   4.386   3.425  2.7159  0.9621 -1.5941
 7121SOL    HW233000   3.018   4.252   3.400 -0.0929  0.2355  0.6238
 7122SOL     OW33001   3.563   3.371   1.227 -0.0967  0.8684 -0.1274
 7122SOL    HW133002   3.624   3.312   1.271  1.2746  1.8350 -0.7033
 7122SOL    HW233003   3.596   3.458   1.249  1.4179  0.5538 -1.0988
 7123SOL     OW33004   4.705   0.157   3.773  0.2920 -0.2065 -0.0603
 7123SOL    HW133005   4.661   0.238   3.797  1.8837  0.6854 -0.2024
 7123SOL    HW233006   0.054   0.177   3.814 -0.0870 -1.1532  1.1673
 7124SOL     OW33007   4.379   4.067  11.485  0.3442 -0.0715  0.0645
 7124SOL    HW133008   4.287   4.059  11.510  0.6095 -0.6665  0.8490
 7124SOL    HW233009   4.387   3.996  11.421  0.4676 -0.9419  1.0481
 7125SOL     OW33010   0.567   0.412  13.177 -0.6022  0.6630 -0.0418
 7125SOL    HW133011   0.499   0.345  13.188  0.8942 -0.3887  2.6503
 7125SOL    HW233012   0.626   0.385  13.247 -0.0087  0.4215 -0.6212
 7126SOL     OW33013   0.438   2.434   3.733  0.5867  0.0685  0.0879
 7126SOL    HW133014   0.518   2.386   3.753  0.0646 -1.4708 -1.5153
 7126SOL    HW233015   0.373   2.394   3.791 -0.5467 -0.2342 -1.4138
 7127SOL     OW33016   0.243   0.473   6.570 -0.0427  0.0241 -0.1125
 7127SOL    HW133017   0.296   0.516   6.503  3.1121  0.4961  2.6699
 7127SOL    HW233018   0.195   0.549   6.606 -0.7494 -0.1207 -0.7548
 7128SOL     OW33019   4.491   1.243  13.141 -0.2499 -0.8805  0.1683
 7128SOL    HW133020   4.499   1.337  13.152 -0.9095 -1.0908  2.6007
 7128SOL    HW233021   4.458   1.223  13.229 -0.8512  0.0751  0.1487
 7129SOL     OW33022   0.166   4.475   5.208  0.4701 -0.3125 -0.1724
 7129SOL    HW133023   0.134   4.416   5.277  1.4547 -2.0550 -1.2107
 7129SOL    HW233024   0.240   4.511   5.258 -0.5153 -1.2144  1.9290
 7130SOL     OW33025   2.898   1.294  16.819  0.7958 -0.0349  0.1041
 7130SOL    HW133026   2.970   1.246  16.860 -0.9478 -2.4008  0.3527
 7130SOL    HW233027   2.951   1.372  16.801  0.7072 -0.4703 -2.0242
 7131SOL     OW33028   0.437   4.272   1.535  0.2990 -0.1010 -0.0213
 7131SOL    HW133029   0.417   4.202   1.597  1.2862  0.1994  0.6393
 7131SOL    HW233030   0.437   4.345   1.597  2.9145 -0.8751  0.9006
 7132SOL     OW33031   3.897   3.032   8.137 -0.5081 -0.6670  0.0099
 7132SOL    HW133032   3.993   3.026   8.138 -0.3872  1.6917  1.2225
 7132SOL    HW233033   3.885   3.073   8.052 -0.9714 -0.4112  0.1965
 7133SOL     OW33034   1.888   3.907   7.287 -0.3839 -0.7136 -0.6618
 7133SOL    HW133035   1.866   3.817   7.312 -0.4809 -0.2892  0.7530
 7133SOL    HW233036   1.820   3.952   7.336  2.3268  0.7539  1.7961
 7134SOL     OW33037   4.350   4.039   3.176 -0.0843  0.3066 -0.2139
 7134SOL    HW133038   4.268   4.065   3.132 -0.2193 -1.1159 -0.7939
 7134SOL    HW233039   4.312   4.020   3.261  1.1140  0.3096  0.3182
 7135SOL     OW33040   3.920   1.219   6.396 -0.4964  0.0608 -0.5842
 7135SOL    HW133041   3.954   1.148   6.340  2.4088  2.8331 -2.3187
 7135SOL    HW233042   3.902   1.170   6.476  1.6842 -0.0059 -0.1373
 7136SOL     OW33043   1.882   2.805   2.676 -0.2283  0.0239 -0.2126
 7136SOL    HW133044   1.948   2.875   2.675 -0.9801  0.7374  0.0333
 7136SOL    HW233045   1.925   2.734   2.724  1.1653  1.0800  0.1149
 7137SOL     OW33046   0.777   3.831   6.799 -0.2692 -0.3741 -0.4168
 7137SOL    HW133047   0.759   3.901   6.737 -0.6707  1.6874  2.0568
 7137SOL    HW233048   0.696   3.781   6.785 -0.8360  0.2403  0.6723
 7138SOL     OW33049   1.961   3.152   7.018 -0.1528  0.1142  0.0552
 7138SOL    HW133050   1.971   3.087   6.948 -0.8554  0.4920 -0.4016
 7138SOL    HW233051   2.043   3.199   7.008 -0.8870  0.9686 -1.9906
 7139SOL     OW33052   1.615   2.506   4.967  0.5642 -0.3747  0.1416
 7139SOL    HW133053   1.640   2.590   4.929  0.6718 -0.4382  0.0731
 7139SOL    HW233054   1.542   2.475   4.912  1.8146 -0.0104 -1.7292
 7140SOL     OW33055   2.923   2.884   5.405 -0.2714 -0.4864 -0.5793
 7140SOL    HW133056   2.832   2.874   5.430  0.1043 -2.2159  0.0604
 7140SOL    HW233057   2.924   2.843   5.318  0.7182 -2.1242  0.2211
 7141SOL     OW33058   2.435   2.047   3.842  0.4642  0.1491 -0.1954
 7141SOL    HW133059   2.478   1.962   3.825 -0.1045 -0.1469 -0.1492
 7141SOL    HW233060   2.369   2.043   3.773 -0.3379  1.1120  0.5282
 7142SOL     OW33061   0.166   3.929   5.571 -0.0977  0.6599  0.7833
 7142SOL    HW133062   0.222   4.005   5.584 -0.4172  1.3479 -1.9258
 7142SOL    HW233063   0.120   3.934   5.655  0.0357  0.0575  0.8970
 7143SOL     OW33064   3.857   0.364   2.895 -0.3345  0.0581  0.2746
 7143SOL    HW133065   3.871   0.453   2.926 -1.6476  1.0951 -2.1631
 7143SOL    HW233066   3.781   0.377   2.838 -0.9472 -0.0261  1.0658
 7144SOL     OW33067   0.600   1.759  16.889 -0.0937 -0.0016 -0.2304
 7144SOL    HW133068   0.584   1.848  16.859 -1.8615 -0.2583 -0.0605
 7144SOL    HW233069   0.689   1.770  16.922 -0.2472 -0.0223  0.1920
 7145SOL     OW33070   3.119   0.011   0.416 -0.0714  0.0499  0.0087
 7145SOL    HW133071   3.190   4.686   0.439  0.4491 -0.4283 -2.8330
 7145SOL    HW233072   3.103   0.052   0.501  2.4348 -1.2331  1.0908
 7146SOL     OW33073   1.097   0.153  13.100 -0.4906 -0.0072  0.1044
 7146SOL    HW133074   1.136   0.079  13.146 -1.6938  0.9257  2.6615
 7146SOL    HW233075   1.026   0.105  13.057  0.4451 -1.3324  0.0342
 7147SOL     OW33076   2.938   0.203   7.032  0.3369 -0.4990  0.4188
 7147SOL    HW133077   2.975   0.291   7.020 -1.3081  0.0746 -0.3882
 7147SOL    HW233078   2.941   0.167   6.944  2.1873 -2.0477  1.1020
 7148SOL     OW33079   0.184   4.220   0.473 -0.2975 -0.2094 -0.0179
 7148SOL    HW133080   0.185   4.292   0.410  1.4941  0.5812  0.9053
 7148SOL    HW233081   0.255   4.161   0.448  1.7161  3.0664 -1.9680
 7149SOL     OW33082   3.421   0.606  15.330 -0.0106  0.0872  0.0890
 7149SOL    HW133083   3.419   0.561  15.415  1.5895 -3.5077 -1.7997
 7149SOL    HW233084   3.483   0.676  15.348 -2.2607  1.9275  0.6360
 7150SOL     OW33085   0.933   0.545  17.548  0.5544 -0.1329 -0.2332
 7150SOL    HW133086   1.027   0.565  17.557  0.6100 -0.7543  0.6108
 7150SOL    HW233087   0.931   0.450  17.556  0.6223 -0.2943 -2.2246
 7151SOL     OW33088   1.913   0.280   1.627 -0.2280 -0.4572  0.2227
 7151SOL    HW133089   2.009   0.283   1.624 -0.1446 -0.6488  2.1872
 7151SOL    HW233090   1.899   0.345   1.697  1.6063  0.7686 -0.5396
 7152SOL     OW33091   1.584   0.483  16.927  0.7587 -0.6274 -0.0314
 7152SOL    HW133092   1.561   0.467  17.019  0.7945 -1.6619 -0.1924
 7152SOL    HW233093   1.671   0.523  16.932  0.2336  0.4170  0.5705
 7153SOL     OW33094   1.649   3.599  17.632  0.0100  0.6274 -0.1418
 7153SOL    HW133095   1.668   3.678  17.682 -2.3196  1.4799 -0.5602
 7153SOL    HW233096   1.639   3.631  17.543 -1.5349  1.1448  0.2127
 7154SOL     OW33097   1.069   0.941   4.961  0.4277  0.6095  0.1833
 7154SOL    HW133098   1.104   0.880   4.895  0.5770  1.0326 -0.1244
 7154SOL    HW233099   0.974   0.935   4.945  0.7218 -1.5987 -0.7593
 7155SOL     OW33100   1.622   1.748   9.917  0.2669  0.0911 -0.2003
 7155SOL    HW133101   1.641   1.654   9.925 -0.8619 -0.1829 -0.7440
 7155SOL    HW233102   1.705   1.783   9.950  0.3746  0.5629 -0.9798
 7156SOL     OW33103   0.503   4.416   7.328 -0.0601  0.3964  0.2610
 7156SOL    HW133104   0.512   4.462   7.412  0.0797 -0.5366  0.7547
 7156SOL    HW233105   0.430   4.360   7.354  0.1542  0.2663  0.5853
 7157SOL     OW33106   3.738   3.236  13.383  0.3279  0.2450  0.7441
 7157SOL    HW133107   3.722   3.143  13.396  0.9766  0.0403  0.1021
 7157SOL    HW233108   3.698   3.270  13.463  3.5435  1.7137  1.7143
 7158SOL     OW33109   3.968   3.151  11.326 -0.4817 -0.3375 -0.4491
 7158SOL    HW133110   3.986   3.061  11.297 -1.0239 -0.5975  0.0128
 7158SOL    HW233111   3.879   3.158  11.291 -1.2034  1.1542  1.6615
 7159SOL     OW33112   3.041   1.648  13.736 -0.3321  0.2794 -0.6044
 7159SOL    HW133113   2.951   1.643  13.706 -0.6113 -0.6738  0.3537
 7159SOL    HW233114   3.040   1.707  13.811  1.3522 -0.5991  0.1283
 7160SOL     OW33115   4.653   2.413   9.558 -0.1482 -0.0140  0.2395
 7160SOL    HW133116   4.679   2.453   9.641  1.2147  2.0617 -1.1778
 7160SOL    HW233117   4.731   2.431   9.505  0.4248  0.8003  1.3475
 7161SOL     OW33118   3.066   2.234  15.501 -0.1661  0.7307  0.0295
 7161SOL    HW133119   3.025   2.318  15.524 -2.3707 -0.7608  1.5373
 7161SOL    HW233120   2.998   2.177  15.537  2.1255 -0.5486  2.3112
 7162SOL     OW33121   3.747   1.454   9.702  0.2181 -0.7622  0.1874
 7162SOL    HW133122   3.711   1.394   9.767  1.3042 -1.9591 -0.3132
 7162SOL    HW233123   3.831   1.413   9.681 -0.3259 -2.0074  0.4543
 7163SOL     OW33124   4.154   2.459   8.927  0.0285  0.1959 -0.3561
 7163SOL    HW133125   4.181   2.440   9.017 -0.4664 -1.4914 -0.5741
 7163SOL    HW233126   4.175   2.378   8.880 -2.3070 -2.6037  3.4554
 7164SOL     OW33127   3.442   4.561  11.191  0.5168  0.1545  0.0031
 7164SOL    HW133128   3.480   4.510  11.119 -0.9357  0.4413 -0.9475
 7164SOL    HW233129   3.378   4.612  11.142  1.5970 -0.2069 -1.7944
 7165SOL     OW33130   4.194   2.019   1.825  0.3699 -0.1482 -0.1066
 7165SOL    HW133131   4.237   2.072   1.892 -0.2395  1.7041 -1.1822
 7165SOL    HW233132   4.149   1.952   1.875  0.4753 -0.1154  0.0322
 7166SOL     OW33133   3.460   1.134   6.523 -0.1773  0.1027  0.0766
 7166SOL    HW133134   3.392   1.168   6.581  1.1486 -1.5035  2.5651
 7166SOL    HW233135   3.508   1.215   6.509 -0.2170  0.4327  1.8355
 7167SOL     OW33136   0.525   4.661  17.683 -0.2058 -0.0414  0.4164
 7167SOL    HW133137   0.609   4.668  17.637  0.6185  0.0247  1.9187
 7167SOL    HW233138   0.548   4.588   0.001 -1.2544  0.4054  1.3938
 7168SOL     OW33139   4.397   4.269   7.282  0.7625 -0.2297 -0.1972
 7168SOL    HW133140   4.371   4.349   7.326 -0.8107 -1.1460  0.5553
 7168SOL    HW233141   4.314   4.220   7.283  1.3647 -1.2879 -1.4229
 7169SOL     OW33142   0.370   1.998  13.638  0.2186 -0.4772 -0.2439
 7169SOL    HW133143   0.420   1.942  13.578 -0.5845 -1.0809 -0.3425
 7169SOL    HW233144   0.414   2.011  13.722  0.0444  1.9074 -0.5239
 7170SOL     OW33145   2.146   2.164   8.385 -0.0738 -0.8342 -0.0129
 7170SOL    HW133146   2.050   2.162   8.375 -0.3197 -0.2326  2.2725
 7170SOL    HW233147   2.163   2.073   8.361 -0.7864 -0.6901 -1.0867
 7171SOL     OW33148   0.908   1.583  17.598 -0.0310  0.1624  0.3242
 7171SOL    HW133149   0.868   1.502  17.566 -1.2770  1.2011 -0.7502
 7171SOL    HW233150   0.937   1.558  17.686  1.5082  0.5674 -0.0669
 7172SOL     OW33151   2.707   3.489   5.218 -0.5389  0.0139 -0.1284
 7172SOL    HW133152   2.679   3.480   5.126 -2.4018  0.7694  0.3556
 7172SOL    HW233153   2.674   3.409   5.259  0.9265 -0.8937 -0.7382
 7173SOL     OW33154   2.810   4.152  17.730 -0.1686  0.0081 -0.2409
 7173SOL    HW133155   2.816   4.211   0.065 -1.2491  0.1104 -0.2358
 7173SOL    HW233156   2.837   4.206  17.655 -0.3363 -0.6369 -0.7695
 7174SOL     OW33157   1.636   1.721   7.806  0.1844 -0.1855  0.2835
 7174SOL    HW133158   1.584   1.791   7.845 -0.1456  0.0191 -0.5289
 7174SOL    HW233159   1.569   1.679   7.752  1.7479 -2.1349 -0.1420
 7175SOL     OW33160   2.108   0.089  11.033 -0.1984  0.7381  0.2043
 7175SOL    HW133161   2.165   0.036  11.090 -0.7570 -0.1557 -0.0725
 7175SOL    HW233162   2.036   0.104  11.094 -0.2375  0.4417  0.2334
 7176SOL     OW33163   4.189   1.345  15.603  0.2905  0.2224  0.0878
 7176SOL    HW133164   4.186   1.425  15.655 -0.8447  1.2895 -1.5750
 7176SOL    HW233165   4.267   1.365  15.551  0.0728  1.1073  0.1102
 7177SOL     OW33166   1.786   2.996  14.943  0.1391 -0.2014 -0.2215
 7177SOL    HW133167   1.721   3.025  14.879  0.9604  1.7631 -0.1770
 7177SOL    HW233168   1.860   3.050  14.917  1.1190 -0.9872  0.9444
 7178SOL     OW33169   3.556   3.825  14.085  0.3882  0.2673 -0.5422
 7178SOL    HW133170   3.563   3.845  14.178 -1.5364 -1.3258 -0.0686
 7178SOL    HW233171   3.519   3.737  14.091 -3.2899  1.9310  1.3461
 7179SOL     OW33172   4.553   1.834   6.192 -0.0994 -0.3214 -0.8904
 7179SOL    HW133173   4.585   1.770   6.256  2.2784  0.7785 -0.9683
 7179SOL    HW233174   4.512   1.898   6.250  1.2756 -1.1133  0.9437
 7180SOL     OW33175   0.429   1.556   4.238  0.5517 -0.0908 -0.1194
 7180SOL    HW133176   0.390   1.528   4.155  0.0295 -0.7667  0.3590
 7180SOL    HW233177   0.509   1.604   4.216 -0.1845  1.5872  0.8550
 7181SOL     OW33178   4.259   0.019   7.407  0.1037  0.1800  1.0572
 7181SOL    HW133179   4.183   0.045   7.354  0.4030 -1.5525 -0.2345
 7181SOL    HW233180   4.324   0.018   7.336  0.4250  2.0819  1.3357
 7182SOL     OW33181   1.672   2.727   8.863  0.1091  0.4745  0.0163
 7182SOL    HW133182   1.696   2.689   8.779 -2.2597 -0.5063 -0.2195
 7182SOL    HW233183   1.734   2.682   8.921  0.8486  2.0174  0.4142
 7183SOL     OW33184   4.046   1.218   6.875 -0.8697  0.7447 -0.2183
 7183SOL    HW133185   4.134   1.248   6.893 -0.7674  1.2077 -1.5041
 7183SOL    HW233186   4.020   1.287   6.814  1.5086  2.2489  0.4720
 7184SOL     OW33187   1.976   0.927   4.881  0.0170 -0.6751  0.7072
 7184SOL    HW133188   1.964   0.833   4.895  2.0418 -1.2992 -1.7950
 7184SOL    HW233189   1.893   0.955   4.920 -1.0095 -2.2888 -0.3463
 7185SOL     OW33190   0.717   1.529   8.746 -0.0323 -0.0743  0.2657
 7185SOL    HW133191   0.732   1.511   8.654  0.5842  2.2083 -0.0886
 7185SOL    HW233192   0.731   1.440   8.777  0.5734 -0.1728 -0.3143
 7186SOL     OW33193   0.511   4.023   2.608  0.1159  0.5402  0.0322
 7186SOL    HW133194   0.594   4.003   2.652  0.2839 -0.4054 -0.7133
 7186SOL    HW233195   0.463   4.059   2.682 -0.7051  0.6237 -0.5379
 7187SOL     OW33196   3.825   3.150   4.117 -0.0273 -0.0509  0.5149
 7187SOL    HW133197   3.810   3.245   4.110  1.0210  0.0266 -0.7427
 7187SOL    HW233198   3.913   3.150   4.155  0.9477 -0.0315 -1.7214
 7188SOL     OW33199   1.004   3.540   8.432  0.3831 -0.9550 -0.1866
 7188SOL    HW133200   1.076   3.479   8.448  1.9793  1.6333  2.5541
 7188SOL    HW233201   0.967   3.561   8.518 -2.0689 -0.2209 -1.3949
 7189SOL     OW33202   2.928   1.873   5.298  0.4140 -0.4546 -0.3022
 7189SOL    HW133203   2.869   1.927   5.351  1.5124 -0.5829  1.0568
 7189SOL    HW233204   2.985   1.934   5.251  0.2466  0.6219  0.9066
 7190SOL     OW33205   0.717   0.949  11.131  0.5953 -0.2002  0.2901
 7190SOL    HW133206   0.633   0.912  11.157  1.3187 -3.1822 -1.6941
 7190SOL    HW233207   0.701   1.044  11.125 -1.5976 -0.6034 -0.4482
 7191SOL     OW33208   4.405   3.648  12.734 -0.4117  0.0503 -0.2568
 7191SOL    HW133209   4.328   3.635  12.789  0.2268 -0.4845  0.5094
 7191SOL    HW233210   4.414   3.743  12.743 -0.4420 -0.0159  0.4977
 7192SOL     OW33211   0.862   1.822   6.890  0.2937 -0.0717 -0.0012
 7192SOL    HW133212   0.889   1.912   6.906  1.0416 -0.6360  1.9319
 7192SOL    HW233213   0.923   1.805   6.818  1.6231 -0.2131  1.1529
 7193SOL     OW33214   0.553   2.137   6.053  0.0500  0.0255 -0.5736
 7193SOL    HW133215   0.596   2.061   6.012  0.2912  0.7667 -1.7096
 7193SOL    HW233216   0.470   2.091   6.065  0.6802 -0.9349  0.0873
 7194SOL     OW33217   0.074   4.516  16.607 -0.7800  0.4903 -0.0853
 7194SOL    HW133218   0.095   4.567  16.685  0.4777  1.0759 -0.8032
 7194SOL    HW233219   0.158   4.518  16.561 -0.7319  2.7611  0.1256
 7195SOL     OW33220   0.031   3.247   4.054 -0.1255 -0.0772  0.0505
 7195SOL    HW133221   0.070   3.181   3.997  0.5193  1.2790 -1.0705
 7195SOL    HW233222   0.101   3.273   4.114 -0.1077 -0.8283  0.3475
 7196SOL     OW33223   0.937   4.502   1.388 -0.4784 -0.1040  0.0902
 7196SOL    HW133224   0.850   4.535   1.408  0.0759  1.3830 -0.0191
 7196SOL    HW233225   0.972   4.506   1.477 -0.5919  0.1186  0.1229
 7197SOL     OW33226   4.409   0.623   7.311 -0.0085 -0.5053 -0.4347
 7197SOL    HW133227   4.415   0.627   7.407  0.1267 -2.0622 -0.3802
 7197SOL    HW233228   4.326   0.670   7.299  1.0293  1.6897  1.0097
 7198SOL     OW33229   3.627   3.902   6.809  0.1028 -0.6901  0.3487
 7198SOL    HW133230   3.643   3.815   6.847  0.5145 -0.5501  0.4952
 7198SOL    HW233231   3.677   3.897   6.728  0.8153 -0.0746  0.7456
 7199SOL     OW33232   3.737   0.563   0.702  0.2498  0.2376 -0.4004
 7199SOL    HW133233   3.718   0.576   0.795  0.7180  1.3191 -0.4647
 7199SOL    HW233234   3.683   0.633   0.667 -0.4489  0.1148  0.4278
 7200SOL     OW33235   0.338   0.599   2.784 -0.8894  0.1168  0.0665
 7200SOL    HW133236   0.420   0.592   2.832 -0.4837  0.2066 -0.6015
 7200SOL    HW233237   0.270   0.633   2.843 -0.2360  0.2999  0.7092
 7201SOL     OW33238   2.288   2.388   7.795  0.3946 -0.2600  0.9390
 7201SOL    HW133239   2.235   2.329   7.848  1.9873 -1.3887  1.2818
 7201SOL    HW233240   2.347   2.428   7.859  0.1638  0.7432  0.5221
 7202SOL     OW33241   1.845   1.007   2.722  0.0824 -0.2493 -0.0531
 7202SOL    HW133242   1.767   1.060   2.735  0.2568  0.2474 -0.9831
 7202SOL    HW233243   1.869   1.042   2.636  1.5269 -1.9351 -0.3481
 7203SOL     OW33244   2.906   2.486   1.818  0.3356  0.5461  0.2686
 7203SOL    HW133245   2.927   2.478   1.912  0.2051  0.4072  0.2869
 7203SOL    HW233246   2.994   2.488   1.781  0.6210  0.8951  0.9550
 7204SOL     OW33247   3.858   3.892   5.240  0.0526 -0.1595  0.3417
 7204SOL    HW133248   3.830   3.904   5.331  0.3212 -2.9175  0.8005
 7204SOL    HW233249   3.768   3.892   5.206  0.6559  3.5996 -1.1542
 7205SOL     OW33250   1.090   2.914  13.909  0.1817 -0.1985  0.2257
 7205SOL    HW133251   1.173   2.960  13.897  0.6907 -1.1884 -0.0496
 7205SOL    HW233252   1.102   2.870  13.993  0.1580 -1.1742 -0.2813
 7206SOL     OW33253   3.285   3.952   8.697  0.1774 -0.0690 -0.2395
 7206SOL    HW133254   3.321   3.933   8.610 -1.5308 -1.2705 -0.6808
 7206SOL    HW233255   3.333   3.889   8.751  0.1134  1.7962  1.9799
 7207SOL     OW33256   4.562   2.560  14.841 -0.0224  0.5900  0.5298
 7207SOL    HW133257   4.651   2.570  14.807  0.0590 -0.6532  0.3884
 7207SOL    HW233258   4.543   2.470  14.813  0.2635  0.9104 -0.7030
 7208SOL     OW33259   3.972   1.748   5.991 -0.9334 -0.0425 -0.1517
 7208SOL    HW133260   3.876   1.743   5.986 -0.9279  0.2533 -0.5622
 7208SOL    HW233261   3.985   1.774   5.899 -2.6580  0.5399 -0.2288
 7209SOL     OW33262   1.067   0.706   6.766  0.1949 -0.7816  0.5214
 7209SOL    HW133263   1.095   0.725   6.856 -0.8077  2.1094  0.2452
 7209SOL    HW233264   0.985   0.756   6.759  2.1215  2.1616 -1.1765
 7210SOL     OW33265   4.022   3.851   8.825  0.2097 -0.3201 -0.3138
 7210SOL    HW133266   4.054   3.773   8.871  3.8432  1.9803  1.0810
 7210SOL    HW233267   4.069   3.923   8.867  2.3597 -1.8803 -0.0705
 7211SOL     OW33268   3.628   2.226   1.977 -0.8742  0.4028  0.3091
 7211SOL    HW133269   3.717   2.194   1.969 -0.9493  0.4627 -0.7405
 7211SOL    HW233270   3.642   2.320   1.990 -1.1426  0.8808 -2.7239
 7212SOL     OW33271   3.239   4.580   8.255  0.1553  0.1111 -0.2531
 7212SOL    HW133272   3.294   4.519   8.304  0.0718 -0.7046 -1.1778
 7212SOL    HW233273   3.295   4.658   8.255  0.5819 -0.2008 -1.1783
 7213SOL     OW33274   1.872   1.881   9.338 -0.0599 -0.0517  0.3598
 7213SOL    HW133275   1.894   1.973   9.349  1.6320 -0.4203  0.0871
 7213SOL    HW233276   1.930   1.848   9.407  1.4573 -0.2003 -0.9793
 7214SOL     OW33277   2.809   4.146   8.178 -0.0937  0.2647 -0.2457
 7214SOL    HW133278   2.847   4.234   8.183  0.1323  0.0740  1.3483
 7214SOL    HW233279   2.754   4.143   8.100  0.3115  0.2706 -0.5275
 7215SOL     OW33280   0.656   1.286   8.227 -0.5505 -0.3154 -1.0505
 7215SOL    HW133281   0.751   1.298   8.216 -0.4762 -0.4329 -0.5185
 7215SOL    HW233282   0.661   1.192   8.238  0.1602  0.0084  1.3431
 7216SOL     OW33283   1.280   0.007   3.707  0.2605  0.0379  0.3182
 7216SOL    HW133284   1.256   4.722   3.617  1.3639  0.7197 -0.1250
 7216SOL    HW233285   1.241   4.677   3.766 -1.5179  1.7700  1.0510
 7217SOL     OW33286   3.044   2.902   8.606  0.6227 -0.1344  0.6854
 7217SOL    HW133287   3.036   2.997   8.603  1.0052 -0.0256  3.2276
 7217SOL    HW233288   3.139   2.890   8.604  0.6351  0.3574 -1.3275
 7218SOL     OW33289   2.771   0.479  10.025  0.1834 -0.2310 -0.0952
 7218SOL    HW133290   2.862   0.450  10.024  0.4944  0.7911 -1.2655
 7218SOL    HW233291   2.737   0.422  10.094 -0.7840 -0.0093 -0.3824
 7219SOL     OW33292   4.286   2.945   2.252  0.0616  0.0562  0.0096
 7219SOL    HW133293   4.212   2.894   2.219 -1.9627  2.6867  0.4946
 7219SOL    HW233294   4.254   2.970   2.339  0.4241  2.0617 -0.4362
 7220SOL     OW33295   4.596   3.331   2.914 -0.1225 -0.7943 -0.1630
 7220SOL    HW133296   4.524   3.317   2.976 -0.5482 -1.5627 -0.8180
 7220SOL    HW233297   4.592   3.427   2.906  1.2064 -0.6831  0.6136
 7221SOL     OW33298   3.904   3.354   1.824 -0.3541  0.2142  0.4612
 7221SOL    HW133299   3.946   3.324   1.904 -2.0803 -0.8649  0.9696
 7221SOL    HW233300   3.876   3.269   1.790 -0.3180  0.4833 -0.2522
 7222SOL     OW33301   2.549   3.762   5.649 -0.4465  0.2054 -0.2692
 7222SOL    HW133302   2.616   3.730   5.588 -1.1304 -0.9929 -0.3825
 7222SOL    HW233303   2.488   3.804   5.589  0.2921 -2.2537 -2.7502
 7223SOL     OW33304   3.493   3.306   4.808  0.3990  0.1195  0.3863
 7223SOL    HW133305   3.455   3.279   4.891 -1.5044  1.0020 -0.2102
 7223SOL    HW233306   3.494   3.224   4.759 -1.5160  0.2015  0.2400
 7224SOL     OW33307   0.846   1.742   8.792  0.3785 -0.1777  0.4660
 7224SOL    HW133308   0.794   1.662   8.791 -0.0365  0.0853  1.0322
 7224SOL    HW233309   0.903   1.726   8.717 -1.8382 -1.6624 -0.8759
 7225SOL     OW33310   0.319   0.806   7.683 -0.2948 -0.4244  0.1628
 7225SOL    HW133311   0.321   0.826   7.776  0.6721  0.0921  0.0253
 7225SOL    HW233312   0.304   0.712   7.692  2.1878 -0.7371  1.0574
 7226SOL     OW33313   2.470   4.281   8.218 -0.3120  0.3537  0.6752
 7226SOL    HW133314   2.385   4.249   8.249 -0.5111 -0.7342 -0.9940
 7226SOL    HW233315   2.501   4.199   8.178 -0.8933  0.5347 -0.1420
 7227SOL     OW33316   1.674   1.168   5.232  0.6670  0.0394  0.1302
 7227SOL    HW133317   1.669   1.111   5.309 -1.8351  1.5233  1.0650
 7227SOL    HW233318   1.594   1.220   5.242 -0.0157 -0.5299 -2.3499
 7228SOL     OW33319   2.131   1.722   3.878 -0.0689  0.0464  0.5659
 7228SOL    HW133320   2.044   1.713   3.918 -0.0303 -0.3388  0.5623
 7228SOL    HW233321   2.117   1.807   3.836  1.7794  0.2100  0.2957
 7229SOL     OW33322   2.927   2.007   3.279  0.6350  1.2600  0.4504
 7229SOL    HW133323   2.910   2.063   3.355  0.9490  0.5946  1.0192
 7229SOL    HW233324   3.011   2.045   3.255  1.3175 -0.7162 -0.3157
 7230SOL     OW33325   4.654   2.944   0.630  0.2640 -0.0335  0.1241
 7230SOL    HW133326   4.697   2.881   0.687 -0.1210 -1.4598 -1.1645
 7230SOL    HW233327   4.696   3.029   0.643  0.5930 -0.6799  3.3111
 7231SOL     OW33328   3.222   4.498   0.987  0.4558  0.6391  0.0551
 7231SOL    HW133329   3.143   4.462   1.028 -1.1011  1.6926 -2.0191
 7231SOL    HW233330   3.210   4.449   0.905  1.6557  2.2424 -1.0803
 7232SOL     OW33331   1.434   2.989   5.750 -0.4475 -0.2917  0.7502
 7232SOL    HW133332   1.410   2.938   5.827  1.2691 -1.3785  0.5857
 7232SOL    HW233333   1.493   3.051   5.792 -0.6010  0.6624 -0.4399
 7233SOL     OW33334   2.860   1.063   8.843 -0.0860  0.7536 -0.0143
 7233SOL    HW133335   2.953   1.075   8.828  0.0737 -0.0881  0.2871
 7233SOL    HW233336   2.846   1.123   8.916 -2.0290 -0.5256  0.6779
 7234SOL     OW33337   0.872   2.457   4.750 -0.0137  0.2290 -0.3898
 7234SOL    HW133338   0.791   2.428   4.793 -0.4683  2.3532  0.1843
 7234SOL    HW233339   0.845   2.545   4.725  1.4233  0.8758  0.3412
 7235SOL     OW33340   1.784   0.839  12.117  0.0902  0.3786  0.8075
 7235SOL    HW133341   1.800   0.793  12.035 -0.4211  2.0866 -0.2486
 7235SOL    HW233342   1.732   0.912  12.085  0.2115  0.2969  0.4311
 7236SOL     OW33343   4.701   3.070   7.263  0.1278 -0.8161 -0.6244
 7236SOL    HW133344   4.706   2.975   7.250 -1.3630 -0.8761 -0.7969
 7236SOL    HW233345   4.717   3.067   7.357  2.1675  3.8708 -0.8518
 7237SOL     OW33346   2.059   0.024  12.177  0.3063  0.2134 -0.0919
 7237SOL    HW133347   2.041   0.034  12.083  1.4189 -0.8195 -0.4152
 7237SOL    HW233348   2.132   4.698  12.175 -1.2923 -1.6887  0.7302
 7238SOL     OW33349   3.872   4.186   4.803  0.3625  0.5526 -0.2046
 7238SOL    HW133350   3.848   4.100   4.840  1.0222  1.7458  2.9691
 7238SOL    HW233351   3.881   4.239   4.882  0.9528 -0.7502  0.6016
 7239SOL     OW33352   0.112   4.516   3.344  0.3475 -0.2607 -0.1171
 7239SOL    HW133353   0.177   4.454   3.309  0.6397  0.6745 -1.2176
 7239SOL    HW233354   0.076   4.550   3.262  1.7252 -0.1478 -0.6796
 7240SOL     OW33355   4.377   3.592   2.876 -0.1305  0.1870  0.2079
 7240SOL    HW133356   4.472   3.599   2.878 -0.1424  0.2300  0.6108
 7240SOL    HW233357   4.355   3.614   2.967 -2.1568 -3.3857  0.5716
 7241SOL     OW33358   0.509   2.160   5.551  0.5609  0.3961 -0.3407
 7241SOL    HW133359   0.481   2.117   5.632 -0.5493  1.5674 -0.0988
 7241SOL    HW233360   0.522   2.082   5.496  0.4247 -1.2787  2.0237
 7242SOL     OW33361   3.511   3.568   2.774 -0.6159 -0.3509  0.1131
 7242SOL    HW133362   3.588   3.522   2.739 -0.6966  1.3082 -2.1761
 7242SOL    HW233363   3.442   3.519   2.730 -0.3446 -1.1429  0.5597
 7243SOL     OW33364   4.362   4.150  16.864 -0.2124 -0.4501  1.1615
 7243SOL    HW133365   4.326   4.237  16.848 -0.5854 -0.2566  3.0729
 7243SOL    HW233366   4.358   4.148  16.960  0.4447 -1.9299  1.1644
 7244SOL     OW33367   3.643   1.838   7.271 -0.2570 -0.1248 -0.1758
 7244SOL    HW133368   3.564   1.789   7.294 -0.9611  1.0625 -0.0411
 7244SOL    HW233369   3.650   1.886   7.354  1.6022 -1.3413  0.3596
 7245SOL     OW33370   0.032   3.913   6.218 -0.0544 -0.0146 -0.5314
 7245SOL    HW133371   0.062   3.832   6.177  5.2445  0.3763  2.6757
 7245SOL    HW233372   0.103   3.946   6.273 -0.2118 -0.1080 -0.2735
 7246SOL     OW33373   2.082   3.701   7.744 -0.1884  0.3411 -0.2293
 7246SOL    HW133374   2.005   3.682   7.796 -0.6563  2.1190 -0.2623
 7246SOL    HW233375   2.100   3.611   7.715 -0.8906  0.5637 -1.3398
 7247SOL     OW33376   2.124   3.333  10.352  0.6002 -0.6472  0.5954
 7247SOL    HW133377   2.065   3.408  10.343 -0.4399 -1.6639 -0.9587
 7247SOL    HW233378   2.183   3.339  10.427  2.7219  0.1516 -1.1424
 7248SOL     OW33379   3.748   1.287   8.550  0.1310 -0.3441  0.9234
 7248SOL    HW133380   3.744   1.379   8.578  1.9690 -0.6329  2.1041
 7248SOL    HW233381   3.750   1.238   8.632 -0.6916 -0.7597  0.7016
 7249SOL     OW33382   1.852   3.919   4.080 -0.2125  0.1808 -0.0023
 7249SOL    HW133383   1.855   3.930   4.175 -1.5224  0.9482 -0.0478
 7249SOL    HW233384   1.888   4.005   4.056  2.4255 -1.0647 -0.5273
 7250SOL     OW33385   4.515   1.628  11.277 -0.2827 -0.3391  0.2797
 7250SOL    HW133386   4.468   1.644  11.359 -0.0898  1.9493 -0.0578
 7250SOL    HW233387   4.606   1.650  11.297 -0.1677  1.1967 -1.9715
 7251SOL     OW33388   1.424   4.404   8.540 -0.7515  0.1195 -0.6818
 7251SOL    HW133389   1.514   4.433   8.545 -0.4916 -0.6780 -0.6308
 7251SOL    HW233390   1.391   4.461   8.610  1.5233 -0.5198  0.9275
 7252SOL     OW33391   0.893   1.037  16.622  0.2963  0.2156 -0.3961
 7252SOL    HW133392   0.892   0.943  16.638  0.9734 -0.3703 -3.8140
 7252SOL    HW233393   0.802   1.056  16.602  0.1724  2.2522  1.9789
 7253SOL     OW33394   2.531   3.917  17.138 -0.1483 -0.3524 -0.2223
 7253SOL    HW133395   2.514   3.974  17.213  0.3482  1.8063 -1.7380
 7253SOL    HW233396   2.563   3.985  17.077 -4.5604  1.8397 -0.0930
 7254SOL     OW33397   3.960   3.738   2.977 -0.0258 -0.1997  0.0130
 7254SOL    HW133398   3.953   3.649   2.942  1.2047 -0.4072  0.3055
 7254SOL    HW233399   4.038   3.777   2.938 -0.1317 -0.5994 -0.6098
 7255SOL     OW33400   4.575   4.389  16.680 -0.3985 -0.8983  0.3712
 7255SOL    HW133401   4.659   4.424  16.650 -0.3688 -0.0485  1.4396
 7255SOL    HW233402   4.569   4.391  16.775  3.7248  0.6564  0.6244
 7256SOL     OW33403   3.680   1.164   5.470  0.1349 -0.6871 -0.7317
 7256SOL    HW133404   3.627   1.222   5.525  0.0893 -0.1346 -1.3609
 7256SOL    HW233405   3.618   1.152   5.397 -0.3383  0.2807 -0.4902
 7257SOL     OW33406   0.722   3.324   2.278  0.4532 -0.1775 -0.1429
 7257SOL    HW133407   0.676   3.241   2.267  0.9578 -0.3266 -1.0766
 7257SOL    HW233408   0.774   3.307   2.356  0.4275 -2.7304 -0.6711
 7258SOL     OW33409   2.814   4.475   0.056  0.5119  0.4440 -0.4686
 7258SOL    HW133410   2.774   4.427   0.129 -0.5575  0.1818 -1.2338
 7258SOL    HW233411   2.886   4.521   0.099 -0.3700  0.1131  1.3465
 7259SOL     OW33412   4.590   3.938  14.923  0.1817 -0.3836  0.1086
 7259SOL    HW133413   4.500   3.914  14.945  0.3165 -0.4507  0.5762
 7259SOL    HW233414   4.586   4.034  14.927 -2.0066 -0.5111  0.8566
 7260SOL     OW33415   0.185   2.242   6.853  0.1867  0.1991 -0.0675
 7260SOL    HW133416   0.195   2.146   6.856  0.7571  0.2862  0.7570
 7260SOL    HW233417   0.224   2.257   6.767 -0.6955  1.0848 -0.3068
 7261SOL     OW33418   1.682   3.237  12.401  0.0080 -0.1062  0.4294
 7261SOL    HW133419   1.626   3.204  12.330  2.5318 -1.9941 -0.6666
 7261SOL    HW233420   1.603   3.275  12.441  0.3808  0.7110  0.3837
 7262SOL     OW33421   1.557   0.961   0.541  0.0150 -0.4168  0.1246
 7262SOL    HW133422   1.471   0.967   0.498  0.2423 -0.0854 -0.2843
 7262SOL    HW233423   1.606   0.998   0.468 -1.2923 -1.6265 -1.3753
 7263SOL     OW33424   3.113   2.590   0.262  0.6252  0.4996  0.1864
 7263SOL    HW133425   3.101   2.513   0.207  0.2487 -1.4820  3.0026
 7263SOL    HW233426   3.161   2.550   0.335  1.4409 -1.2598 -1.2999
 7264SOL     OW33427   0.476   1.426   5.423  0.5849  0.0127  0.0622
 7264SOL    HW133428   0.400   1.425   5.480 -0.1370 -0.9288 -0.9204
 7264SOL    HW233429   0.492   1.520   5.417 -1.6411  0.3992  0.3609
 7265SOL     OW33430   1.171   4.300   7.016 -0.2458  0.0864  0.7450
 7265SOL    HW133431   1.187   4.343   6.932 -1.5245 -0.3301  0.2787
 7265SOL    HW233432   1.083   4.265   7.001  0.3886 -0.9304 -0.5845
 7266SOL     OW33433   3.441   3.372  15.016 -0.3839 -0.3585 -0.4263
 7266SOL    HW133434   3.440   3.460  14.980 -3.5743  0.3449  1.3254
 7266SOL    HW233435   3.534   3.354  15.004 -0.9317 -3.3283 -0.2178
 7267SOL     OW33436   0.261   0.202   6.865  0.3574 -0.4427 -0.0643
 7267SOL    HW133437   0.168   0.193   6.845  0.5465 -1.6388 -0.3998
 7267SOL    HW233438   0.304   0.162   6.789 -2.2141 -0.1345 -1.6594
 7268SOL     OW33439   3.352   2.824  15.439 -0.1044  0.4924 -0.3132
 7268SOL    HW133440   3.435   2.794  15.478  0.0179  0.8338 -0.3127
 7268SOL    HW233441   3.371   2.808  15.347  0.3456  1.2613 -0.3504
 7269SOL     OW33442   3.989   3.879  14.954 -0.4174 -0.0372  0.4989
 7269SOL    HW133443   3.995   3.783  14.959  0.1153  0.0004  0.6041
 7269SOL    HW233444   3.969   3.884  14.861 -0.0983 -0.8486  0.3817
 7270SOL     OW33445   4.101   4.062  16.524 -0.4684 -0.3761  0.6478
 7270SOL    HW133446   4.032   4.013  16.568 -0.1087 -1.2631  0.2162
 7270SOL    HW233447   4.048   4.118  16.467  2.4951  0.1995 -1.5563
 7271SOL     OW33448   0.522   0.217   5.294 -0.9470 -0.3346  0.1811
 7271SOL    HW133449   0.500   0.303   5.331 -0.5230  0.2463 -0.9411
 7271SOL    HW233450   0.614   0.211   5.320 -0.6987  1.6101 -0.2317
 7272SOL     OW33451   1.786   1.682  12.107  0.2288 -0.3375  0.5432
 7272SOL    HW133452   1.879   1.661  12.104  0.1717 -0.6285  0.7519
 7272SOL    HW233453   1.745   1.598  12.085 -1.1840  0.5087 -0.0431
 7273SOL     OW33454   1.506   1.793   3.971 -0.1942 -0.5705 -0.7610
 7273SOL    HW133455   1.427   1.749   3.940  0.4384 -3.0386  1.0839
 7273SOL    HW233456   1.553   1.711   3.986  0.2634 -0.1725  0.0296
 7274SOL     OW33457   1.677   2.649   2.495 -0.3010  0.4200  0.3621
 7274SOL    HW133458   1.770   2.634   2.480 -0.6083  0.2374 -1.3955
 7274SOL    HW233459   1.680   2.741   2.469 -0.4622 -0.2448 -1.9852
 7275SOL     OW33460   4.621   1.327   7.521 -0.0050  0.2325 -0.2894
 7275SOL    HW133461   4.617   1.338   7.616  1.9019  1.1258 -0.3299
 7275SOL    HW233462   4.627   1.232   7.512  0.8938  0.4396 -1.7868
 7276SOL     OW33463   1.434   4.441  11.052  0.1038  0.3598  0.3971
 7276SOL    HW133464   1.385   4.364  11.022  0.8265  0.8029 -1.9451
 7276SOL    HW233465   1.425   4.445  11.147 -1.3283 -0.7912  0.3194
 7277SOL     OW33466   2.269   4.351   6.333 -0.1718  0.2030  0.2885
 7277SOL    HW133467   2.266   4.355   6.237  0.0331  2.0986  0.3653
 7277SOL    HW233468   2.212   4.425   6.353 -2.8649 -1.4935 -1.1948
 7278SOL     OW33469   3.478   2.914   6.351 -0.1687 -0.2601 -0.4368
 7278SOL    HW133470   3.540   2.846   6.377 -0.6418 -1.3705 -2.2409
 7278SOL    HW233471   3.474   2.896   6.257  2.0262 -1.4942 -0.2942
 7279SOL     OW33472   4.229   3.014   3.394 -0.4493  0.1813  0.2191
 7279SOL    HW133473   4.181   2.931   3.396 -1.2602  0.6289 -0.5266
 7279SOL    HW233474   4.291   2.988   3.462  1.0228 -2.3055 -2.0740
 7280SOL     OW33475   3.336   0.834   2.153  0.0480 -0.2063  0.0292
 7280SOL    HW133476   3.403   0.829   2.084  1.6989  0.7766  1.5668
 7280SOL    HW233477   3.343   0.923   2.187  0.7654 -0.8012  1.4351
 7281SOL     OW33478   2.679   1.832  13.509 -0.1749  0.4880  0.4170
 7281SOL    HW133479   2.745   1.783  13.461  0.2458  0.5682  0.9206
 7281SOL    HW233480   2.607   1.828  13.445 -0.9143 -0.0893  1.2868
 7282SOL     OW33481   4.086   0.586   7.490 -0.2977  0.2032  0.2859
 7282SOL    HW133482   4.166   0.616   7.532 -0.1443 -0.1503  0.2453
 7282SOL    HW233483   4.007   0.628   7.525 -0.8576 -0.8121  0.2368
 7283SOL     OW33484   3.211   2.292   1.475 -0.2027  0.6149  0.5598
 7283SOL    HW133485   3.145   2.350   1.437  2.1592  2.4417 -0.7734
 7283SOL    HW233486   3.201   2.314   1.568 -0.9004  3.4171 -0.1585
 7284SOL     OW33487   2.328   3.822   7.733 -0.4253  0.1944 -0.1052
 7284SOL    HW133488   2.233   3.817   7.722 -0.2998  2.0798 -1.9210
 7284SOL    HW233489   2.344   3.729   7.751 -0.0117  0.2611 -0.1203
 7285SOL     OW33490   4.628   0.149   3.453  0.5135 -0.6079  0.5777
 7285SOL    HW133491   4.673   0.113   3.529 -0.9469  0.4461  1.9561
 7285SOL    HW233492   4.540   0.154   3.491 -0.0416 -0.1634 -0.7335
 7286SOL     OW33493   2.403   0.404   3.708 -0.6972  0.2801  0.7286
 7286SOL    HW133494   2.452   0.477   3.670 -0.3358 -0.3026  0.0807
 7286SOL    HW233495   2.458   0.405   3.786  0.2147  0.0624  0.0920
 7287SOL     OW33496   2.383   1.390   2.675  0.7253 -0.3699 -0.0022
 7287SOL    HW133497   2.471   1.371   2.709  0.8930  0.0889 -0.1796
 7287SOL    HW233498   2.389   1.483   2.654  1.6089  0.3004  3.1171
 7288SOL     OW33499   1.161   0.487   2.691  0.6748 -0.3607  0.0709
 7288SOL    HW133500   1.147   0.393   2.677  1.6864 -0.6566  1.0523
 7288SOL    HW233501   1.253   0.485   2.717  0.6153 -0.6909  0.2538
 7289SOL     OW33502   3.668   4.421   6.411 -0.1541 -0.4966 -0.1143
 7289SOL    HW133503   3.649   4.486   6.478  1.3905  0.5845 -0.7285
 7289SOL    HW233504   3.582   4.379   6.407 -1.2039  1.5817  0.8479
 7290SOL     OW33505   2.676   1.555   2.278 -0.0916  0.2181  0.7937
 7290SOL    HW133506   2.685   1.644   2.245 -1.6232  0.0505 -0.0804
 7290SOL    HW233507   2.680   1.503   2.198  1.6699  0.2939  0.8433
 7291SOL     OW33508   4.577   0.603   6.795  0.1856  0.2491 -0.6696
 7291SOL    HW133509   4.520   0.679   6.786  0.8585  0.7102 -1.0865
 7291SOL    HW233510   4.522   0.547   6.849  0.3589 -0.2670 -1.0286
 7292SOL     OW33511   0.117   2.386  11.161  0.1558 -0.0871  0.4425
 7292SOL    HW133512   0.027   2.391  11.132  1.1588 -0.7781 -2.7336
 7292SOL    HW233513   0.099   2.342  11.244  1.0604 -0.6632  0.3335
 7293SOL     OW33514   3.321   0.340   9.302  0.3565  0.7380 -0.5355
 7293SOL    HW133515   3.263   0.354   9.226 -0.5811  0.6900  0.1759
 7293SOL    HW233516   3.333   0.246   9.290  0.8027  0.8562 -0.9932
 7294SOL     OW33517   3.767   4.350  14.246  0.5968  0.3335 -0.2939
 7294SOL    HW133518   3.728   4.318  14.165  0.7358  2.4513 -1.1926
 7294SOL    HW233519   3.745   4.443  14.240 -1.2888  0.1517  3.1124
 7295SOL     OW33520   4.461   1.012  13.693  0.0712 -0.1383 -0.5460
 7295SOL    HW133521   4.405   1.087  13.711 -0.8214 -0.6397 -1.2059
 7295SOL    HW233522   4.420   0.950  13.754  2.5377 -0.5221  0.7068
 7296SOL     OW33523   0.461   0.820  13.437  0.0154 -0.6363 -0.6133
 7296SOL    HW133524   0.475   0.741  13.489 -2.2135 -0.2543  0.5676
 7296SOL    HW233525   0.438   0.793  13.347  0.8810 -0.6116 -0.8396
 7297SOL     OW33526   1.950   0.556   2.936  0.7524  0.0239  0.2232
 7297SOL    HW133527   1.871   0.503   2.951  0.4366  0.0574 -1.2370
 7297SOL    HW233528   1.930   0.625   2.872 -0.2173 -0.4039  0.0603
 7298SOL     OW33529   2.786   0.194   4.446  0.4769 -0.9702 -0.0683
 7298SOL    HW133530   2.721   0.124   4.433  0.8319 -1.4950  1.0042
 7298SOL    HW233531   2.800   0.199   4.541 -0.4888 -0.4317  0.0531
 7299SOL     OW33532   0.540   1.630  13.787  0.1668 -0.2194  0.1217
 7299SOL    HW133533   0.520   1.634  13.881 -0.9481  0.9620 -0.1628
 7299SOL    HW233534   0.464   1.675  13.749 -0.2415 -1.8274 -0.9286
 7300SOL     OW33535   2.822   4.675  13.932 -0.9551 -0.0014 -0.8114
 7300SOL    HW133536   2.803   4.678  14.026 -0.4806 -0.1824 -0.7069
 7300SOL    HW233537   2.795   0.025  13.899 -0.9747 -0.2866 -1.5171
 7301SOL     OW33538   0.170   1.426  15.399 -0.0811 -0.4346  0.2747
 7301SOL    HW133539   0.256   1.391  15.377 -0.1606 -1.8926  2.2949
 7301SOL    HW233540   0.137   1.442  15.310  3.5328  0.2827 -0.9181
 7302SOL     OW33541   3.823   1.369   5.668  0.2204 -0.8801 -0.1945
 7302SOL    HW133542   3.897   1.314   5.644  1.8713  0.5325  1.6083
 7302SOL    HW233543   3.821   1.353   5.762  0.6921 -2.5870 -0.4879
 7303SOL     OW33544   2.452   2.988   9.014 -0.1903 -0.2357  0.4269
 7303SOL    HW133545   2.373   2.936   8.997  0.8448 -1.8526  0.5847
 7303SOL    HW233546   2.479   2.998   8.923 -1.4505 -0.6075  0.0120
 7304SOL     OW33547   0.336   0.683   6.375  0.1283 -0.3707 -0.3646
 7304SOL    HW133548   0.303   0.724   6.455 -0.0464 -1.7881  0.2922
 7304SOL    HW233549   0.266   0.687   6.311 -0.1617  1.0445  0.0412
 7305SOL     OW33550   4.691   3.700   8.581  0.0156  0.6139  0.6070
 7305SOL    HW133551   4.663   3.791   8.585  0.2602  0.6901  0.5466
 7305SOL    HW233552   0.049   3.717   8.573 -0.2095  2.5897  2.2528
 7306SOL     OW33553   4.541   4.337   1.693  0.0934  0.5230  0.0326
 7306SOL    HW133554   4.602   4.411   1.698  0.4253  0.1941  0.8488
 7306SOL    HW233555   4.547   4.317   1.600 -3.0571  0.1648 -0.0851
 7307SOL     OW33556   0.097   0.913  13.137 -0.0716  0.3233  0.4763
 7307SOL    HW133557   0.189   0.889  13.149  0.2337  1.2381 -0.0623
 7307SOL    HW233558   0.112   0.989  13.081  0.3487 -0.4797 -0.5150
 7308SOL     OW33559   1.606   0.358  13.459  0.0420  0.0705  0.0914
 7308SOL    HW133560   1.685   0.348  13.405 -0.3985 -1.4360 -0.2921
 7308SOL    HW233561   1.551   0.370  13.382 -0.4263  1.6235  0.6795
 7309SOL     OW33562   2.747   3.394  17.687  0.6135 -0.1105  0.0748
 7309SOL    HW133563   2.735   3.364  17.597  0.4258 -0.9730  0.3839
 7309SOL    HW233564   2.656   3.377  17.711  1.3325 -0.3920  2.6749
 7310SOL     OW33565   3.741   0.599   5.860 -0.3001 -0.4057  0.1628
 7310SOL    HW133566   3.723   0.542   5.934  1.6721 -1.3993 -0.1240
 7310SOL    HW233567   3.785   0.673   5.901  0.5279 -0.3848 -0.7655
 7311SOL     OW33568   0.090   3.578  17.460  0.0429  0.0114 -0.1086
 7311SOL    HW133569   0.026   3.582  17.531  0.9592  1.8312  0.6088
 7311SOL    HW233570   0.150   3.511  17.494 -1.0885 -1.2133 -0.5190
 7312SOL     OW33571   1.648   3.161   2.299 -0.2770  1.0285  0.5516
 7312SOL    HW133572   1.715   3.226   2.276  1.5318 -0.3232  1.9983
 7312SOL    HW233573   1.577   3.216   2.333 -1.3172  0.5950 -0.9292
 7313SOL     OW33574   1.009   0.473  11.948  0.1101  0.4430 -0.1685
 7313SOL    HW133575   0.939   0.430  11.898  0.2564  0.9255 -0.7887
 7313SOL    HW233576   1.027   0.547  11.890  0.5327  0.5338  0.0774
 7314SOL     OW33577   1.768   3.882   7.770 -0.3729  0.0093 -0.1314
 7314SOL    HW133578   1.676   3.907   7.774  0.0867  1.3888  2.0545
 7314SOL    HW233579   1.762   3.839   7.685 -0.8843 -0.8948  0.3639
 7315SOL     OW33580   3.836   1.637   0.243 -0.3325 -0.4976 -0.5636
 7315SOL    HW133581   3.863   1.717   0.287  0.6148 -0.7379 -0.7114
 7315SOL    HW233582   3.833   1.657   0.150  1.3514  1.0325 -0.2761
 7316SOL     OW33583   4.197   2.924  16.644 -0.4044  0.4242 -0.6111
 7316SOL    HW133584   4.116   2.912  16.694  0.3799 -0.8226  0.3528
 7316SOL    HW233585   4.246   2.845  16.667 -1.4118 -0.8309 -2.8709
 7317SOL     OW33586   4.586   3.443   1.312 -0.0068  0.8146 -1.0744
 7317SOL    HW133587   4.650   3.462   1.243  0.9116  0.5365 -0.3050
 7317SOL    HW233588   4.576   3.350   1.296  1.0681  0.4258  0.4698
 7318SOL     OW33589   3.378   2.997   2.224  1.0304 -0.7729 -0.4513
 7318SOL    HW133590   3.407   3.077   2.268 -0.3053  0.1083 -1.1940
 7318SOL    HW233591   3.290   2.992   2.261  0.8263  2.8138 -0.5201
 7319SOL     OW33592   0.709   0.993   8.957  0.1805 -0.0212 -0.0197
 7319SOL    HW133593   0.621   1.031   8.963  1.0182  1.7909  0.6337
 7319SOL    HW233594   0.701   0.944   8.875 -1.0323  0.1616 -0.0172
 7320SOL     OW33595   1.954   0.625   7.158 -0.2863 -0.0708  0.3951
 7320SOL    HW133596   2.014   0.558   7.124  1.3409  0.1889  2.6930
 7320SOL    HW233597   2.022   0.667   7.211  0.8650  0.0622 -1.1757
 7321SOL     OW33598   2.780   3.148   8.046 -0.6189 -0.3011  0.1594
 7321SOL    HW133599   2.758   3.204   7.972 -3.0088  0.8070  1.7029
 7321SOL    HW233600   2.722   3.178   8.116  0.4326 -2.0216  1.7688
 7322SOL     OW33601   0.435   2.083   0.581  0.0972 -0.1252  0.2327
 7322SOL    HW133602   0.449   2.149   0.513  0.6319  0.3786  0.8300
 7322SOL    HW233603   0.340   2.086   0.592  0.0008  1.2421 -0.8741
 7323SOL     OW33604   4.322   4.098   2.227  0.8431 -0.5720  0.2312
 7323SOL    HW133605   4.358   4.176   2.184 -0.1593 -0.5021 -0.4815
 7323SOL    HW233606   4.398   4.081   2.283 -0.6929 -5.5533  0.7800
 7324SOL     OW33607   2.038   2.980   9.172  0.1381 -0.2376 -0.1115
 7324SOL    HW133608   1.949   3.013   9.164 -0.6501 -2.0510  1.1127
 7324SOL    HW233609   2.070   3.058   9.126 -0.1185  0.5203  0.9926
 7325SOL     OW33610   2.597   1.680  16.922  0.2041  0.8807  0.3733
 7325SOL    HW133611   2.577   1.756  16.976  1.2524 -0.1721  2.2548
 7325SOL    HW233612   2.540   1.695  16.846  0.7987  1.3475  0.0107
 7326SOL     OW33613   2.841   0.198   3.350  0.1874 -0.3496  0.4460
 7326SOL    HW133614   2.833   0.220   3.443  2.1702  2.1695  0.0260
 7326SOL    HW233615   2.780   0.124   3.349 -1.6597  1.1884 -1.6900
 7327SOL     OW33616   1.450   1.501   3.229 -0.5012 -0.2799 -0.5269
 7327SOL    HW133617   1.446   1.593   3.204  0.7073 -0.7639 -2.5158
 7327SOL    HW233618   1.518   1.512   3.294 -0.6257  0.0701 -0.4567
 7328SOL     OW33619   2.011   1.652   8.820  0.2655 -0.0231  0.1161
 7328SOL    HW133620   1.946   1.722   8.809 -0.4306 -0.6729  0.1055
 7328SOL    HW233621   2.052   1.686   8.900 -0.9591  0.8930  0.3604
 7329SOL     OW33622   1.107   2.262   9.504 -0.0263  0.0778 -0.0294
 7329SOL    HW133623   1.113   2.355   9.481 -0.0616  0.2116  0.5098
 7329SOL    HW233624   1.189   2.245   9.549 -0.0710 -2.9814 -1.0490
 7330SOL     OW33625   0.415   3.628   7.563  0.3370 -0.4015 -0.0287
 7330SOL    HW133626   0.397   3.577   7.484 -0.4185  0.9114 -0.7015
 7330SOL    HW233627   0.504   3.654   7.542  0.5072  0.2613  1.4738
 7331SOL     OW33628   1.958   3.868  13.803 -0.0133  0.3116 -0.0792
 7331SOL    HW133629   1.998   3.801  13.748  0.4771  0.1196  0.5134
 7331SOL    HW233630   1.896   3.815  13.854  1.5001 -2.7894 -1.4312
 7332SOL     OW33631   4.237   3.404   8.805  0.4236 -0.4103  0.0484
 7332SOL    HW133632   4.240   3.342   8.878  2.0776 -1.8076 -1.1907
 7332SOL    HW233633   4.224   3.350   8.727 -2.0673 -1.7911  1.4422
 7333SOL     OW33634   2.048   0.904   4.253 -0.3964 -0.6504 -0.3937
 7333SOL    HW133635   2.127   0.866   4.293 -1.3004 -1.8622  0.2459
 7333SOL    HW233636   2.089   0.941   4.175 -0.4009  1.4897  0.6369
 7334SOL     OW33637   4.338   0.183  15.160 -0.0002  0.1670 -0.1049
 7334SOL    HW133638   4.285   0.239  15.217  1.0619  0.6497  0.3997
 7334SOL    HW233639   4.421   0.229  15.176  0.1129  0.0126 -0.2519
 7335SOL     OW33640   4.011   2.810  14.966  0.1152 -0.0154 -0.0917
 7335SOL    HW133641   4.055   2.725  14.954  0.0621 -0.0958  0.2967
 7335SOL    HW233642   3.940   2.803  14.902  1.5124  0.4733 -1.7063
 7336SOL     OW33643   3.575   2.501   8.626 -0.0220  0.6631  0.2876
 7336SOL    HW133644   3.546   2.519   8.715  1.7416  0.9374  0.8229
 7336SOL    HW233645   3.592   2.590   8.593 -1.2039  0.6880 -0.2488
 7337SOL     OW33646   2.370   4.571   9.399  0.2113 -0.2022  0.6263
 7337SOL    HW133647   2.452   4.564   9.447  1.2499 -1.0417 -1.2494
 7337SOL    HW233648   2.399   4.555   9.309 -3.4007 -0.9565 -0.4263
 7338SOL     OW33649   2.183   2.176   2.490 -0.1839 -0.2363 -0.5700
 7338SOL    HW133650   2.190   2.241   2.421  2.6839  1.3705  1.2422
 7338SOL    HW233651   2.240   2.109   2.453  1.8816  0.8493  0.6812
 7339SOL     OW33652   0.524   3.401   2.110  0.4427  0.1015  0.2437
 7339SOL    HW133653   0.598   3.390   2.169 -0.3039  0.6194  1.2764
 7339SOL    HW233654   0.488   3.313   2.106 -1.4276  0.8606  0.1853
 7340SOL     OW33655   1.377   1.404   2.504  0.1264  0.4532 -0.0134
 7340SOL    HW133656   1.301   1.434   2.453  0.7811 -0.4020 -1.5003
 7340SOL    HW233657   1.334   1.366   2.581 -1.2646 -0.0121 -1.0183
 7341SOL     OW33658   2.607   0.518  16.802 -0.4648 -0.0251 -0.2049
 7341SOL    HW133659   2.612   0.563  16.717 -0.2802  0.8526  0.2727
 7341SOL    HW233660   2.633   0.430  16.774  3.3544  0.5868  1.4941
 7342SOL     OW33661   4.084   3.454   3.415  0.2090 -0.7265 -0.2329
 7342SOL    HW133662   4.008   3.464   3.358 -1.7553 -0.3421  2.4379
 7342SOL    HW233663   4.142   3.394   3.369  1.5327  0.5086 -0.1838
 7343SOL     OW33664   1.951   0.117   8.630 -0.2541  0.3490  0.1066
 7343SOL    HW133665   1.931   0.032   8.669  2.4321 -1.3987 -2.3527
 7343SOL    HW233666   1.942   0.185   8.696 -0.9082 -0.1100  0.4927
 7344SOL     OW33667   1.520   0.519   8.356  0.4956 -0.7393  0.0503
 7344SOL    HW133668   1.486   0.608   8.360 -1.2317 -1.4288  0.8986
 7344SOL    HW233669   1.520   0.486   8.446 -0.8196  0.3945  0.4601
 7345SOL     OW33670   2.927   0.749  11.676  0.3930  0.1140  0.4338
 7345SOL    HW133671   2.833   0.741  11.656  0.6599  1.9226 -1.4938
 7345SOL    HW233672   2.960   0.700  11.600 -1.3848 -1.4698  0.6745
 7346SOL     OW33673   1.170   1.426  14.753  0.1434 -0.1718  0.1595
 7346SOL    HW133674   1.136   1.407  14.665 -0.6122  2.2174 -0.0683
 7346SOL    HW233675   1.261   1.402  14.735 -0.8481 -2.4555 -1.8842
 7347SOL     OW33676   3.739   2.668   3.577 -0.4060 -0.1939  0.6972
 7347SOL    HW133677   3.757   2.751   3.532  1.2365 -0.5389  0.7159
 7347SOL    HW233678   3.779   2.680   3.664 -0.4425 -1.9943  0.9672
 7348SOL     OW33679   4.732   1.268  10.309  0.4652  0.3652  0.6640
 7348SOL    HW133680   4.708   1.358  10.290 -1.7153 -0.4956 -0.6737
 7348SOL    HW233681   4.724   1.267  10.405  0.2451 -0.8052  0.6329
 7349SOL     OW33682   4.716   3.379   7.416 -0.2610 -0.1507  0.4763
 7349SOL    HW133683   0.013   3.391   7.327 -0.4821  0.0800  0.4297
 7349SOL    HW233684   0.061   3.354   7.461  0.4617  0.4290 -0.5095
 7350SOL     OW33685   0.712   3.700   3.873  0.3915 -0.5963 -0.3959
 7350SOL    HW133686   0.758   3.781   3.896 -0.5620  0.1951 -1.2597
 7350SOL    HW233687   0.651   3.691   3.947  1.4992 -0.2450  0.5622
 7351SOL     OW33688   4.459   4.220  14.215 -0.5419 -0.2521  0.2015
 7351SOL    HW133689   4.445   4.297  14.161 -0.3502 -0.0961  0.3743
 7351SOL    HW233690   4.554   4.207  14.213 -0.8872 -2.9680  1.0399
 7352SOL     OW33691   0.286   1.611  16.063 -0.0780  0.6620  0.6980
 7352SOL    HW133692   0.230   1.688  16.059  1.0482  1.4241 -0.0232
 7352SOL    HW233693   0.369   1.637  16.023  0.1680 -0.2814  0.5971
 7353SOL     OW33694   1.232   4.029  14.833  0.4201  0.4614  0.7229
 7353SOL    HW133695   1.315   3.984  14.847  1.7008  2.9493  0.9509
 7353SOL    HW233696   1.176   3.960  14.796  0.4442 -0.0335  1.6129
 7354SOL     OW33697   0.776   3.525   1.813  0.6158 -0.2931 -0.3338
 7354SOL    HW133698   0.724   3.446   1.826  0.4689 -0.0330  0.6157
 7354SOL    HW233699   0.719   3.574   1.753 -0.7131 -1.4648 -0.0301
 7355SOL     OW33700   4.455   0.093   9.824  0.8520 -0.0477  0.0327
 7355SOL    HW133701   4.371   0.125   9.857  1.5717  2.8466 -0.9846
 7355SOL    HW233702   4.482   0.030   9.891  2.8573  0.1822 -0.5548
 7356SOL     OW33703   3.006   4.702  15.305 -0.1564  0.1829 -0.4429
 7356SOL    HW133704   3.017   0.015  15.387 -2.0541 -1.5111  0.7923
 7356SOL    HW233705   3.035   0.032  15.241  0.7765 -0.0622 -0.2621
 7357SOL     OW33706   1.435   0.286   6.771  0.0192  0.4419 -0.0864
 7357SOL    HW133707   1.528   0.306   6.766  0.1128 -0.2022 -0.9141
 7357SOL    HW233708   1.402   0.359   6.823  1.2544 -0.5771  2.1569
 7358SOL     OW33709   1.764   3.546   4.898 -0.4482  0.3602 -0.8464
 7358SOL    HW133710   1.852   3.510   4.907  0.0823  2.3284  1.7220
 7358SOL    HW233711   1.737   3.561   4.988  1.2975  0.7760 -0.4005
 7359SOL     OW33712   1.761   0.183   5.625  0.5624  0.2852  0.7679
 7359SOL    HW133713   1.805   0.189   5.710 -0.2085 -0.6827  1.2245
 7359SOL    HW233714   1.726   0.095   5.638 -0.1779  0.2905 -1.2632
 7360SOL     OW33715   2.554   1.406   0.822 -0.3566 -0.2586 -0.6101
 7360SOL    HW133716   2.626   1.450   0.867  0.5424 -1.3513 -0.9709
 7360SOL    HW233717   2.500   1.474   0.781 -1.8378 -0.8334  0.3734
 7361SOL     OW33718   2.428   2.127   9.502 -0.1451 -0.1195  0.2817
 7361SOL    HW133719   2.383   2.199   9.547  1.0801  0.2456  0.9317
 7361SOL    HW233720   2.466   2.179   9.432  1.0788  0.1090  1.1238
 7362SOL     OW33721   1.375   0.903   2.950 -0.1542  0.6222  0.3200
 7362SOL    HW133722   1.433   0.959   2.897 -0.7011  1.9489  1.1296
 7362SOL    HW233723   1.419   0.903   3.035 -2.4976  0.7874  1.5352
 7363SOL     OW33724   4.477   0.862  12.618  0.3009 -0.5004  0.5219
 7363SOL    HW133725   4.442   0.836  12.533 -0.6973 -0.4258  0.9066
 7363SOL    HW233726   4.424   0.806  12.675 -1.1689 -1.1826 -1.5199
 7364SOL     OW33727   1.870   2.319   6.286  0.0827  0.0397  0.6577
 7364SOL    HW133728   1.801   2.270   6.330 -0.8138  1.2355  0.5870
 7364SOL    HW233729   1.843   2.315   6.195  0.0604  0.0237  0.6648
 7365SOL     OW33730   2.173   3.172   2.226 -0.0295 -0.7804 -0.5331
 7365SOL    HW133731   2.194   3.196   2.136  3.8582  3.6841  1.5636
 7365SOL    HW233732   2.253   3.130   2.257 -0.7431  0.5224  3.1330
 7366SOL     OW33733   2.695   4.153   7.884 -0.0415  0.6090 -0.7854
 7366SOL    HW133734   2.706   4.143   7.789  0.2803 -0.9350 -0.5698
 7366SOL    HW233735   2.613   4.106   7.897  0.3021 -0.0300 -0.9560
 7367SOL     OW33736   3.445   4.179  17.331  0.2134  0.6071  0.0175
 7367SOL    HW133737   3.444   4.086  17.355 -0.4618  0.4417 -0.6556
 7367SOL    HW233738   3.350   4.196  17.329  0.4327  1.6291 -1.1902
 7368SOL     OW33739   1.844   4.364   0.086  0.3867 -0.3427  0.0037
 7368SOL    HW133740   1.907   4.436   0.094  1.4280 -1.1078 -1.5248
 7368SOL    HW233741   1.834   4.333   0.176 -0.5622  1.3685  0.4875
 7369SOL     OW33742   2.711   2.113   8.213 -0.1557  0.0460 -0.4461
 7369SOL    HW133743   2.786   2.138   8.267  0.3446 -0.8499 -0.7074
 7369SOL    HW233744   2.636   2.126   8.271  1.5111 -3.6851  2.5820
 7370SOL     OW33745   3.893   2.581   8.541 -0.8238 -0.4276  0.2707
 7370SOL    HW133746   3.833   2.566   8.468 -1.3228 -0.2120  0.6383
 7370SOL    HW233747   3.912   2.490   8.564  1.5973  0.2323  0.9255
 7371SOL     OW33748   0.285   3.110   2.946  0.5329  0.4070  0.5004
 7371SOL    HW133749   0.220   3.177   2.925 -1.1175 -1.0233  1.0248
 7371SOL    HW233750   0.346   3.102   2.873  0.4654  1.6862  0.3035
 7372SOL     OW33751   2.407   1.505   2.366 -0.2198  0.2379  0.2852
 7372SOL    HW133752   2.493   1.509   2.324  0.5795 -2.3577  1.6832
 7372SOL    HW233753   2.349   1.506   2.289 -1.0467  0.4924  0.9052
 7373SOL     OW33754   2.166   3.191   4.177  0.1218 -0.0555  1.0832
 7373SOL    HW133755   2.138   3.234   4.258 -2.3631  0.3579 -0.0040
 7373SOL    HW233756   2.176   3.099   4.203  0.5770 -0.1068  0.7247
 7374SOL     OW33757   3.098   2.222   5.170  0.2586  0.0113 -0.2419
 7374SOL    HW133758   3.163   2.257   5.231 -1.9041  2.4060  0.6910
 7374SOL    HW233759   3.083   2.300   5.117 -1.2862  0.8121  1.3691
 7375SOL     OW33760   4.568   2.281   2.746  0.1958 -0.3538 -0.7222
 7375SOL    HW133761   4.564   2.293   2.841  2.0439 -1.5742 -0.4885
 7375SOL    HW233762   4.603   2.362   2.709 -0.3745  0.1309 -0.1975
 7376SOL     OW33763   0.268   1.971   4.580  0.0154 -0.9364 -0.3504
 7376SOL    HW133764   0.321   1.938   4.507 -1.5200 -1.1583 -1.3590
 7376SOL    HW233765   0.311   2.052   4.608 -0.6746 -0.6958  0.0248
 7377SOL     OW33766   0.554   2.957   0.918 -0.6697 -0.4729 -0.0370
 7377SOL    HW133767   0.519   2.962   0.829  1.9496  0.7598 -0.9964
 7377SOL    HW233768   0.481   2.923   0.968  0.5820 -3.6109 -0.3197
 7378SOL     OW33769   1.012   3.231   5.233  0.1253 -0.0972  1.5267
 7378SOL    HW133770   0.967   3.206   5.152  0.4828  1.6284  0.8038
 7378SOL    HW233771   1.076   3.162   5.244  1.3592  0.6038 -1.2725
 7379SOL     OW33772   3.671   2.747   6.416 -0.4766  0.4869  0.6308
 7379SOL    HW133773   3.660   2.661   6.456 -0.6432 -0.1148 -0.7133
 7379SOL    HW233774   3.738   2.783   6.474  0.3779 -0.2803  0.1109
 7380SOL     OW33775   1.064   1.623   3.677  0.2159 -0.0815  0.1266
 7380SOL    HW133776   0.980   1.667   3.685  0.2481 -0.2021  1.0874
 7380SOL    HW233777   1.118   1.670   3.614  0.4383 -0.0065  0.3746
 7381SOL     OW33778   1.138   3.892   2.029  0.3603 -0.2947  0.0628
 7381SOL    HW133779   1.193   3.896   2.107 -0.8340  2.1427  0.7640
 7381SOL    HW233780   1.163   3.816   1.976 -1.1171 -1.1644  0.5999
 7382SOL     OW33781   0.917   2.011   8.202  0.5215 -0.0118 -0.3055
 7382SOL    HW133782   0.836   2.053   8.228 -0.3058 -1.8414  0.0607
 7382SOL    HW233783   0.889   1.979   8.116  1.3373  2.6541 -1.5363
 7383SOL     OW33784   4.017   4.599  14.856 -0.2390 -0.1415  0.0388
 7383SOL    HW133785   4.097   4.609  14.906  0.7349 -0.1334 -1.5204
 7383SOL    HW233786   4.008   4.504  14.864  0.2121 -0.0030  2.1447
 7384SOL     OW33787   1.890   4.446  12.348  0.2423  0.5320  0.8558
 7384SOL    HW133788   1.884   4.352  12.336 -1.4522  0.9195 -1.4165
 7384SOL    HW233789   1.875   4.480  12.259  0.3160 -2.6557 -0.3515
 7385SOL     OW33790   2.014   0.251   5.241  0.0228 -0.2857 -0.1521
 7385SOL    HW133791   1.969   0.310   5.181  0.8215  2.4707  1.9312
 7385SOL    HW233792   1.959   0.174   5.254 -0.0585  0.0192  1.2988
 7386SOL     OW33793   2.624   1.245   3.268 -0.6081  0.2304 -0.0332
 7386SOL    HW133794   2.651   1.234   3.359 -1.8679  0.2011  0.3356
 7386SOL    HW233795   2.564   1.318   3.285  1.3028  1.9358 -0.6649
 7387SOL     OW33796   3.366   3.133   6.635  0.1108 -0.2795 -0.2913
 7387SOL    HW133797   3.460   3.117   6.627  0.1160 -1.6290  2.6570
 7387SOL    HW233798   3.368   3.209   6.694  3.0750 -0.2548 -0.4083
 7388SOL     OW33799   4.264   3.127   6.804  0.4814 -0.4493 -0.0840
 7388SOL    HW133800   4.253   3.208   6.754 -0.1737 -1.5588 -1.6936
 7388SOL    HW233801   4.301   3.161   6.886  2.9531  0.5623 -1.6326
 7389SOL     OW33802   4.280   2.828  11.381 -0.3610  1.0721 -0.1710
 7389SOL    HW133803   4.250   2.854  11.468 -0.8253  1.0922 -0.3357
 7389SOL    HW233804   4.362   2.877  11.381 -0.1247  0.6674  0.8025
 7390SOL     OW33805   0.002   0.714   2.389  0.2464  0.1807  0.3129
 7390SOL    HW133806   0.066   0.730   2.457  2.6038  2.3915 -2.4378
 7390SOL    HW233807   4.655   0.727   2.437 -0.4470 -3.8357  0.2733
 7391SOL     OW33808   4.376   1.766   7.062 -0.3341 -0.3789 -0.2214
 7391SOL    HW133809   4.431   1.697   7.099  1.2519  1.3890  0.6855
 7391SOL    HW233810   4.429   1.845   7.072 -0.4551 -0.6645  2.7380
 7392SOL     OW33811   1.461   1.230   3.160  0.5039 -0.2718  0.6979
 7392SOL    HW133812   1.432   1.321   3.149 -0.6711 -0.7899 -0.4028
 7392SOL    HW233813   1.542   1.247   3.209 -0.1430 -1.5433  2.1798
 7393SOL     OW33814   2.048   0.541   6.119  0.0196  0.0823  0.3259
 7393SOL    HW133815   2.120   0.479   6.111  1.0708  1.1924  1.1760
 7393SOL    HW233816   2.000   0.525   6.037  0.8558  1.1005 -0.3521
 7394SOL     OW33817   0.555   1.736   5.722  0.1994  0.0214 -0.3131
 7394SOL    HW133818   0.506   1.654   5.731  0.0909  0.3225  1.7550
 7394SOL    HW233819   0.629   1.703   5.672  0.9165  2.9423 -1.1528
 7395SOL     OW33820   1.157   0.854   4.716 -0.1485  0.4063 -0.0411
 7395SOL    HW133821   1.243   0.814   4.699 -0.6948  0.1742 -2.2600
 7395SOL    HW233822   1.108   0.777   4.687 -1.7766  1.8629 -1.1191
 7396SOL     OW33823   0.499   2.497   8.195 -0.2500  0.0463  0.4156
 7396SOL    HW133824   0.507   2.564   8.263  1.5250  0.0640  0.1889
 7396SOL    HW233825   0.540   2.422   8.238  0.3007 -0.0646 -0.3015
 7397SOL     OW33826   2.145   1.190   3.705 -0.5359  0.2986  0.1321
 7397SOL    HW133827   2.090   1.265   3.728  1.3309  1.7483 -0.1415
 7397SOL    HW233828   2.079   1.121   3.708  0.5156 -0.7094  0.2647
 7398SOL     OW33829   3.395   2.994   7.518  0.4735 -0.1652 -0.6054
 7398SOL    HW133830   3.390   2.961   7.428 -1.8322 -0.4741 -0.3733
 7398SOL    HW233831   3.355   2.918   7.561 -1.8215  0.8682 -0.8832
 7399SOL     OW33832   1.338   1.700   8.889  0.4593 -0.1185  0.1952
 7399SOL    HW133833   1.313   1.609   8.906 -1.9013  1.1080  3.2179
 7399SOL    HW233834   1.258   1.748   8.912 -0.3343 -0.9216 -0.8596
 7400SOL     OW33835   2.321   1.243   6.929 -0.1118  0.4868 -0.7219
 7400SOL    HW133836   2.236   1.220   6.891 -1.2297  2.3440  0.6537
 7400SOL    HW233837   2.378   1.170   6.905  1.5505  0.8872  2.0244
 7401SOL     OW33838   1.409   4.334   7.678 -0.0475  0.4953 -0.2102
 7401SOL    HW133839   1.456   4.390   7.740 -0.7787 -0.4012  1.1422
 7401SOL    HW233840   1.442   4.375   7.597  0.0861  2.4776  0.8360
 7402SOL     OW33841   2.498   4.324  11.345  0.4902 -0.1139 -0.5414
 7402SOL    HW133842   2.474   4.259  11.411  0.2580  0.9193  0.3936
 7402SOL    HW233843   2.572   4.290  11.294  2.0643 -0.1213  1.7557
 7403SOL     OW33844   3.601   2.809   3.830  0.0608 -0.2743 -0.5156
 7403SOL    HW133845   3.672   2.872   3.817 -0.8533  1.2353  1.8623
 7403SOL    HW233846   3.568   2.791   3.742 -0.6504  0.1914 -0.3445
 7404SOL     OW33847   1.625   2.659   9.715  0.1383 -0.4842  0.3306
 7404SOL    HW133848   1.705   2.674   9.766 -0.8120  3.1480  0.7262
 7404SOL    HW233849   1.638   2.569   9.685  0.7985  0.4286 -2.0725
 7405SOL     OW33850   1.136   3.565   9.147  0.0977  0.1336 -0.2859
 7405SOL    HW133851   1.070   3.496   9.143  0.9647 -0.6804 -0.5566
 7405SOL    HW233852   1.206   3.528   9.201 -0.8612  0.2055  1.0115
 7406SOL     OW33853   1.487   0.248  12.443  0.0776  0.0828 -0.5144
 7406SOL    HW133854   1.453   0.218  12.527  3.0036 -0.9893  0.3132
 7406SOL    HW233855   1.550   0.317  12.467 -0.8717  0.2698  1.4185
 7407SOL     OW33856   1.103   3.723   3.598 -0.1532 -0.0474  0.0402
 7407SOL    HW133857   1.075   3.767   3.518  3.8061 -0.7324 -1.6963
 7407SOL    HW233858   1.136   3.801   3.643  3.0482 -1.3176 -0.1591
 7408SOL     OW33859   3.234   4.157   2.108 -0.3603 -0.0869  0.1368
 7408SOL    HW133860   3.275   4.225   2.054  1.3815 -1.3897 -0.1859
 7408SOL    HW233861   3.149   4.156   2.064 -0.2446  0.1327 -0.0887
 7409SOL     OW33862   0.601   1.835   1.442  0.4443 -0.1898  0.2197
 7409SOL    HW133863   0.565   1.893   1.374 -2.8919 -2.2028  0.2704
 7409SOL    HW233864   0.582   1.749   1.406 -1.1810  0.6662 -0.9812
 7410SOL     OW33865   4.287   4.680   6.369 -0.2276 -0.0864 -0.5380
 7410SOL    HW133866   4.277   4.700   6.462  0.1538 -0.3729 -0.4406
 7410SOL    HW233867   4.371   4.721   6.349 -0.9550  1.0350 -1.3728
 7411SOL     OW33868   4.050   3.374   6.330  0.1637  0.0134 -0.1806
 7411SOL    HW133869   4.033   3.370   6.236 -1.1146 -2.1832  0.1324
 7411SOL    HW233870   3.962   3.403   6.352  0.4287  0.4286  0.3335
 7412SOL     OW33871   1.574   1.797   9.297  0.0383  0.3223  0.3258
 7412SOL    HW133872   1.645   1.854   9.327 -0.3058  1.1045 -0.3543
 7412SOL    HW233873   1.505   1.855   9.265  2.1439  1.1262 -2.8037
 7413SOL     OW33874   3.349   3.672   3.710 -0.0885  0.5469 -0.4321
 7413SOL    HW133875   3.403   3.602   3.748 -0.4620 -0.0849 -1.0514
 7413SOL    HW233876   3.320   3.716   3.789 -0.9771  1.8364 -1.4675
 7414SOL     OW33877   0.529   0.680   7.404  0.1963  0.0550  0.5351
 7414SOL    HW133878   0.551   0.742   7.334 -0.7758 -1.3270 -0.9798
 7414SOL    HW233879   0.520   0.598   7.356  2.6075  0.0858  0.0149
 7415SOL     OW33880   1.487   2.158   2.504 -0.2786 -0.0015 -0.0423
 7415SOL    HW133881   1.480   2.110   2.421  1.7927 -0.6172  0.1574
 7415SOL    HW233882   1.522   2.245   2.481 -0.1982 -0.3469 -1.2505
 7416SOL     OW33883   1.423   1.020   2.364  0.3993 -0.0632  0.0877
 7416SOL    HW133884   1.333   0.989   2.352  0.3137  0.0971  0.3207
 7416SOL    HW233885   1.463   1.013   2.278  1.7937  0.4907  0.7043
 7417SOL     OW33886   0.714   4.314   6.415 -0.9594 -0.7679  0.1441
 7417SOL    HW133887   0.644   4.336   6.477 -0.2724  0.4352  0.4962
 7417SOL    HW233888   0.737   4.404   6.393 -0.0482 -0.9401  0.3798
 7418SOL     OW33889   2.750   1.582   4.052 -0.1007 -0.2947  0.0361
 7418SOL    HW133890   2.675   1.592   4.111 -0.8264 -3.3244 -0.3675
 7418SOL    HW233891   2.815   1.585   4.122 -2.0140 -1.5897  1.8917
 7419SOL     OW33892   4.074   0.586  12.368  0.0210  0.3002  0.9638
 7419SOL    HW133893   4.049   0.533  12.292 -1.4958 -0.1532  1.7935
 7419SOL    HW233894   4.008   0.559  12.431 -1.7676  1.6106 -0.3475
 7420SOL     OW33895   4.268   3.879   6.450  0.2274  0.2338 -0.4391
 7420SOL    HW133896   4.316   3.913   6.525  2.8080 -4.8720  0.2294
 7420SOL    HW233897   4.334   3.842   6.391 -0.2493  0.6779 -1.2523
 7421SOL     OW33898   3.275   0.770   0.714  0.6093  0.3476  0.2443
 7421SOL    HW133899   3.214   0.813   0.774  3.5572  1.5392  2.4165
 7421SOL    HW233900   3.224   0.697   0.681  2.3585 -0.8890  0.2732
 7422SOL     OW33901   2.631   4.502   7.275  0.8440 -0.0820 -0.6655
 7422SOL    HW133902   2.672   4.441   7.214  0.6270 -1.9415  1.0690
 7422SOL    HW233903   2.538   4.496   7.252  0.4576 -0.8649  1.1113
 7423SOL     OW33904   3.849   3.366   9.448  0.1587 -0.5696  0.3680
 7423SOL    HW133905   3.870   3.329   9.362 -0.7026  2.8056 -1.3132
 7423SOL    HW233906   3.917   3.432   9.465 -0.8227  0.3949  0.5775
 7424SOL     OW33907   1.768   3.110  15.191  0.3529  0.2704  0.1142
 7424SOL    HW133908   1.715   3.051  15.245  0.3986  1.4888  1.4633
 7424SOL    HW233909   1.760   3.075  15.102 -2.3121  2.1333 -0.3579
 7425SOL     OW33910   4.039   4.022   7.116  0.0686 -0.2445  0.1074
 7425SOL    HW133911   4.045   3.935   7.076  0.5215 -1.0536  1.9371
 7425SOL    HW233912   4.100   4.009   7.189  0.2531  1.8294  0.3278
 7426SOL     OW33913   2.138   2.653   9.392 -0.2441  0.0723  0.2176
 7426SOL    HW133914   2.151   2.747   9.397 -1.6509  0.2495  0.4713
 7426SOL    HW233915   2.057   2.643   9.442 -0.4036  0.3169  0.0063
 7427SOL     OW33916   4.452   4.573   4.334  0.0809  0.2867  0.1267
 7427SOL    HW133917   4.508   4.499   4.311 -0.9138 -0.8948  1.4846
 7427SOL    HW233918   4.514   4.643   4.318 -0.6908  0.9248 -0.0834
 7428SOL     OW33919   4.650   0.991   2.589 -0.1544  0.1459 -0.4452
 7428SOL    HW133920   4.685   1.022   2.506 -1.3432  0.0850 -0.9670
 7428SOL    HW233921   4.731   0.957   2.629  0.4812  0.5751 -1.3658
 7429SOL     OW33922   1.226   0.278  10.909  0.0455 -0.0664 -0.4055
 7429SOL    HW133923   1.182   0.195  10.929 -1.1668  0.7376  0.2681
 7429SOL    HW233924   1.314   0.265  10.947  0.5144  1.7220 -0.8794
 7430SOL     OW33925   2.169   3.960  16.625  0.2612  0.0866  0.1593
 7430SOL    HW133926   2.227   3.967  16.549 -0.0189 -1.4522 -0.1955
 7430SOL    HW233927   2.089   3.997  16.589  0.2037  1.0998  1.3094
 7431SOL     OW33928   4.483   0.264  12.434  0.2284  0.4133 -0.3925
 7431SOL    HW133929   4.508   0.339  12.488  0.1044  1.0306 -1.1865
 7431SOL    HW233930   4.462   0.308  12.351 -1.7423 -0.0946 -0.1614
 7432SOL     OW33931   1.621   2.343   9.121 -0.1510  0.1819  0.5084
 7432SOL    HW133932   1.561   2.329   9.194 -0.2821  1.2378  0.6095
 7432SOL    HW233933   1.697   2.392   9.155  0.4531 -1.6584  1.7958
 7433SOL     OW33934   3.015   1.521   6.235 -0.0508 -0.4853  0.4638
 7433SOL    HW133935   3.060   1.436   6.240  1.2651  0.0139 -2.4641
 7433SOL    HW233936   3.070   1.560   6.166 -2.2785  0.1570 -0.9397
 7434SOL     OW33937   1.713   4.279   6.073  0.0605  0.4697 -0.3049
 7434SOL    HW133938   1.672   4.294   6.158 -0.7587  0.8855 -0.7731
 7434SOL    HW233939   1.644   4.227   6.031  0.3950 -0.3685  0.1704
 7435SOL     OW33940   0.075   2.847   8.104 -0.2945  0.3432 -0.2046
 7435SOL    HW133941   0.048   2.869   8.015 -0.1859 -0.4926 -0.4371
 7435SOL    HW233942   4.731   2.841   8.157  0.2912  0.6457  0.7099
 7436SOL     OW33943   3.960   2.938   6.223  0.1582 -0.0570  0.3813
 7436SOL    HW133944   3.925   2.971   6.140 -0.4098 -0.0663  0.6116
 7436SOL    HW233945   3.944   2.843   6.221 -2.9961  0.4501  0.8261
 7437SOL     OW33946   2.043   1.122  15.762 -0.0990  0.0957 -0.1307
 7437SOL    HW133947   1.997   1.047  15.723  0.3259  0.2301 -0.8821
 7437SOL    HW233948   2.101   1.138  15.687  0.6397  0.0273  0.4253
 7438SOL     OW33949   1.838   0.432   6.916 -0.8062 -0.0713  0.1993
 7438SOL    HW133950   1.798   0.486   6.984  0.8706  1.7031 -0.2512
 7438SOL    HW233951   1.780   0.445   6.841  2.9735 -1.5603 -2.9909
 7439SOL     OW33952   3.403   0.692   4.518 -0.1957  0.1111  0.7911
 7439SOL    HW133953   3.351   0.617   4.547 -1.2280  0.9789  1.1813
 7439SOL    HW233954   3.356   0.719   4.439  1.0103 -0.1723 -0.0201
 7440SOL     OW33955   1.917   1.408   7.584  0.0987 -0.0122 -0.3366
 7440SOL    HW133956   1.956   1.401   7.497 -0.2180  0.1471 -0.4908
 7440SOL    HW233957   1.995   1.440   7.628 -0.4723 -2.1143  2.2376
 7441SOL     OW33958   1.996   4.374   0.705  0.0442  0.1088  0.1585
 7441SOL    HW133959   1.953   4.343   0.625 -1.4603  0.1740  0.9401
 7441SOL    HW233960   2.086   4.375   0.675  0.2604 -0.8632  0.7746
 7442SOL     OW33961   2.066   4.408   9.836 -0.6044  0.5870 -0.2846
 7442SOL    HW133962   2.069   4.503   9.836  0.2229  0.5587 -0.8618
 7442SOL    HW233963   2.083   4.392   9.929  1.8713  3.1865 -0.3191
 7443SOL     OW33964   3.985   1.466   4.662 -0.2885 -0.0912  0.4086
 7443SOL    HW133965   4.060   1.412   4.690  1.2721  2.3879  1.0215
 7443SOL    HW233966   3.932   1.405   4.612  0.1717 -0.3432  0.2217
 7444SOL     OW33967   3.151   2.027   9.029 -0.3664  0.0627 -0.2625
 7444SOL    HW133968   3.114   2.112   9.053  0.8940 -0.1105  2.2097
 7444SOL    HW233969   3.168   1.982   9.111 -0.5767 -0.6149 -0.5915
 7445SOL     OW33970   4.374   0.721   6.446 -0.7098  0.1255 -0.7188
 7445SOL    HW133971   4.440   0.723   6.377 -0.9759  0.8393 -0.9522
 7445SOL    HW233972   4.319   0.794   6.419 -0.5132  1.6988  3.0703
 7446SOL     OW33973   3.836   1.147  10.176  0.0980  0.0500 -0.4491
 7446SOL    HW133974   3.819   1.053  10.186 -0.3034  0.4733  2.8189
 7446SOL    HW233975   3.844   1.158  10.082  1.5919 -0.9765 -0.4347
 7447SOL     OW33976   3.023   3.606   4.741  0.0064  0.4011  0.0266
 7447SOL    HW133977   3.073   3.667   4.795 -0.8345  0.1513  1.0893
 7447SOL    HW233978   3.085   3.534   4.730 -0.4621  0.4714 -3.1753
 7448SOL     OW33979   3.393   4.400  14.809  0.3090  0.2096  0.2957
 7448SOL    HW133980   3.480   4.362  14.795  0.2546 -0.0507  0.6599
 7448SOL    HW233981   3.331   4.332  14.834 -0.8586  0.7655 -1.0909
 7449SOL     OW33982   0.634   0.372   6.465 -0.6024  0.0881  0.1548
 7449SOL    HW133983   0.580   0.404   6.393 -0.5705  0.7648  0.4286
 7449SOL    HW233984   0.668   0.289   6.432  0.6932  1.2199 -1.3067
 7450SOL     OW33985   0.157   4.329   4.056  0.1426  0.1838  0.2120
 7450SOL    HW133986   0.248   4.312   4.081  0.8243  0.4566 -2.0373
 7450SOL    HW233987   0.157   4.331   3.960  0.3238 -0.6805  0.1943
 7451SOL     OW33988   3.272   0.774   3.339  0.2351  0.5321  0.5175
 7451SOL    HW133989   3.198   0.761   3.280  1.2285  2.9450 -1.2763
 7451SOL    HW233990   3.287   0.869   3.338 -1.5431  0.8335  1.5597
 7452SOL     OW33991   2.723   4.167   1.287 -0.2074 -0.0954 -0.0954
 7452SOL    HW133992   2.818   4.169   1.275 -0.1642 -1.6593  0.0950
 7452SOL    HW233993   2.724   4.132   1.376 -2.4490 -1.4017 -0.5860
 7453SOL     OW33994   2.475   1.748   0.291  0.3512 -0.4870 -0.4207
 7453SOL    HW133995   2.382   1.771   0.295  0.2949 -0.7328 -0.3204
 7453SOL    HW233996   2.511   1.803   0.361 -2.0478 -0.1324  0.5386
 7454SOL     OW33997   2.066   4.713   7.736  0.0925  0.0603  0.2949
 7454SOL    HW133998   2.135   4.712   7.670 -0.3388 -0.6032 -0.1392
 7454SOL    HW233999   2.121   4.676   7.805  0.8367  3.5522  1.5959
 7455SOL     OW34000   3.402   2.314   7.848  0.0875  0.3742 -1.1199
 7455SOL    HW134001   3.385   2.379   7.916 -2.5846 -2.1866  0.6342
 7455SOL    HW234002   3.317   2.272   7.835 -1.1428  1.8827  1.9842
 7456SOL     OW34003   0.734   4.523   5.382 -0.0796  0.1528  0.6089
 7456SOL    HW134004   0.801   4.576   5.425 -0.1311  1.2217 -0.6145
 7456SOL    HW234005   0.778   4.512   5.297 -2.4649 -1.7173 -0.3993
 7457SOL     OW34006   1.135   1.169   6.802  0.4956 -0.2010 -0.4509
 7457SOL    HW134007   1.073   1.185   6.873  1.7693 -0.3444  0.6773
 7457SOL    HW234008   1.082   1.204   6.730  0.0891  2.7668  1.2604
 7458SOL     OW34009   4.707   2.660   7.601  0.3114 -0.6027  0.7547
 7458SOL    HW134010   4.708   2.638   7.508 -1.9056  0.5397  0.4611
 7458SOL    HW234011   0.057   2.625   7.628  1.1770  0.6403 -0.4167
 7459SOL     OW34012   2.639   4.727   3.410  0.5333 -0.1388  0.0284
 7459SOL    HW134013   2.564   0.026   3.459  0.2869 -2.3090  1.1538
 7459SOL    HW234014   2.699   4.695   3.477  0.3286 -2.1634 -0.7762
 7460SOL     OW34015   0.991   2.752   4.096 -0.1611  0.4674 -0.0301
 7460SOL    HW134016   1.044   2.831   4.097  0.1164  0.2949 -1.2806
 7460SOL    HW234017   0.939   2.763   4.175 -0.0843  2.3496 -0.2547
 7461SOL     OW34018   4.163   0.672   7.190  0.6593  0.0654 -0.1558
 7461SOL    HW134019   4.100   0.738   7.161 -0.3418 -0.6705  0.3462
 7461SOL    HW234020   4.192   0.644   7.103  3.2945  0.0269  0.7179
 7462SOL     OW34021   2.926   2.007   6.513 -0.0472 -0.9317  0.4722
 7462SOL    HW134022   2.858   2.073   6.503 -0.4924 -1.3038  1.0323
 7462SOL    HW234023   2.879   1.928   6.486 -0.6791 -0.1395 -0.7473
 7463SOL     OW34024   0.166   1.634   5.035  0.4513  0.1596  0.0852
 7463SOL    HW134025   0.148   1.690   4.959 -2.5439 -0.3523  0.4271
 7463SOL    HW234026   0.098   1.567   5.025  0.7331 -0.2043  0.6060
 7464SOL     OW34027   0.067   3.994   5.818  0.0342 -0.3167  0.2743
 7464SOL    HW134028   0.097   3.933   5.885  2.0024 -1.4452 -1.6550
 7464SOL    HW234029   0.005   4.046   5.869 -0.0639  1.1129 -1.2989
 7465SOL     OW34030   3.124   3.658   3.547  0.0115 -0.3773  0.1545
 7465SOL    HW134031   3.211   3.659   3.588  0.1492 -0.4306 -0.1377
 7465SOL    HW234032   3.127   3.565   3.524 -1.6363 -0.2384 -0.6150
 7466SOL     OW34033   2.437   2.165   4.613 -0.0934  0.5493  0.2350
 7466SOL    HW134034   2.463   2.246   4.657  0.8304  0.8120 -0.8013
 7466SOL    HW234035   2.465   2.182   4.524  0.3258  0.7871  0.4148
 7467SOL     OW34036   0.426   3.686  10.542  0.1477 -0.5710 -0.3098
 7467SOL    HW134037   0.357   3.628  10.574 -0.9633  0.9233  0.0065
 7467SOL    HW234038   0.434   3.646  10.455 -1.2368 -0.8187 -0.3256
 7468SOL     OW34039   1.368   3.409   8.227 -0.1344  0.2556  0.4009
 7468SOL    HW134040   1.395   3.347   8.159  0.3999  1.3600 -0.3975
 7468SOL    HW234041   1.318   3.353   8.286 -0.5166  0.9585  0.7530
 7469SOL     OW34042   1.651   1.625   8.987 -0.5388  0.7840  0.4964
 7469SOL    HW134043   1.645   1.601   8.894  3.6621  0.0819  0.3988
 7469SOL    HW234044   1.561   1.657   8.986 -0.5773  0.6941  1.0391
 7470SOL     OW34045   4.203   1.713   8.815 -0.2848 -0.8555 -0.0673
 7470SOL    HW134046   4.241   1.801   8.810  0.6521 -1.3434 -1.7382
 7470SOL    HW234047   4.164   1.720   8.901  1.6568  0.2931  0.7321
 7471SOL     OW34048   4.703   2.331   4.666 -0.0651 -0.3865 -0.4287
 7471SOL    HW134049   0.036   2.313   4.731 -0.5632  0.3861  0.3067
 7471SOL    HW234050   4.658   2.247   4.673 -1.9869  0.2970 -4.5610
 7472SOL     OW34051   0.871   0.145  16.905 -0.5380 -0.1866 -0.3915
 7472SOL    HW134052   0.785   0.125  16.870 -0.6293  1.5849 -1.1794
 7472SOL    HW234053   0.858   0.235  16.935  0.3302 -1.3325  3.4620
 7473SOL     OW34054   0.809   2.570   2.294 -0.3420 -0.0056  0.4409
 7473SOL    HW134055   0.752   2.532   2.362 -1.1180  1.3017  0.5117
 7473SOL    HW234056   0.828   2.652   2.340 -0.4253  0.0775  0.3256
 7474SOL     OW34057   2.672   3.231  11.208  0.6502 -1.0621 -0.3332
 7474SOL    HW134058   2.624   3.201  11.286 -1.9812 -2.0723 -2.3314
 7474SOL    HW234059   2.598   3.251  11.150  0.1112 -1.0522  0.3497
 7475SOL     OW34060   1.442   2.707   4.202 -0.2330 -0.3101 -0.3315
 7475SOL    HW134061   1.471   2.711   4.111  0.9961  0.9848  0.1062
 7475SOL    HW234062   1.475   2.796   4.217 -1.0842 -0.1828  0.7125
 7476SOL     OW34063   3.231   4.162   9.333  0.0232 -0.5559  0.4581
 7476SOL    HW134064   3.289   4.097   9.372  0.9322  0.6952  1.1816
 7476SOL    HW234065   3.234   4.219   9.409 -0.3677  0.5517 -0.3532
 7477SOL     OW34066   0.266   0.408   2.552 -0.2072 -0.2661  0.7168
 7477SOL    HW134067   0.312   0.414   2.636  1.3455  1.1964 -0.2227
 7477SOL    HW234068   0.243   0.499   2.534 -2.4258 -0.8878  0.4493
 7478SOL     OW34069   2.576   1.814   3.797 -0.4319  0.1202 -0.1017
 7478SOL    HW134070   2.520   1.780   3.727  0.5473 -2.0824  0.2096
 7478SOL    HW234071   2.566   1.743   3.861  1.1116  1.0702  1.1950
 7479SOL     OW34072   2.369   0.733   1.150  0.5045 -0.0426  0.5197
 7479SOL    HW134073   2.356   0.821   1.186 -0.3365 -1.1454  2.8938
 7479SOL    HW234074   2.282   0.698   1.167 -1.3422  4.3938  0.1289
 7480SOL     OW34075   0.672   4.569  12.680 -0.0395  0.4302  0.1958
 7480SOL    HW134076   0.641   4.524  12.759 -1.6563  1.2914  0.0600
 7480SOL    HW234077   0.752   4.617  12.702 -0.5760  0.9140  1.0952
 7481SOL     OW34078   1.552   2.405   6.391  0.2221  0.1132 -0.3876
 7481SOL    HW134079   1.523   2.326   6.345 -0.4460  0.1572 -0.0277
 7481SOL    HW234080   1.512   2.393   6.477  1.4948 -0.9534  0.0527
 7482SOL     OW34081   1.418   0.888   6.522 -0.1258  0.8512 -0.0416
 7482SOL    HW134082   1.348   0.824   6.508 -0.4928  0.9622  1.2726
 7482SOL    HW234083   1.494   0.834   6.500 -0.5327  0.7296 -1.1283
 7483SOL     OW34084   4.556   0.508   9.072  0.1577 -0.1513 -0.0353
 7483SOL    HW134085   4.504   0.531   9.149  0.5926  0.7612 -0.0176
 7483SOL    HW234086   4.565   0.415   9.090 -1.2983 -0.4655 -0.8777
 7484SOL     OW34087   3.695   4.232   4.037 -0.2528  0.2767 -0.1896
 7484SOL    HW134088   3.775   4.186   4.062 -1.0828 -1.9633 -1.6093
 7484SOL    HW234089   3.631   4.202   4.102  1.3218 -0.0092  1.2365
 7485SOL     OW34090   3.987   3.622   6.587  0.3474  0.5820  0.3144
 7485SOL    HW134091   4.052   3.622   6.657  0.7532 -1.1961 -0.0570
 7485SOL    HW234092   4.043   3.669   6.524 -0.0821 -1.4154 -1.5801
 7486SOL     OW34093   3.800   0.424   3.432  0.0932 -0.3175  0.0389
 7486SOL    HW134094   3.890   0.402   3.410  0.6079  2.8311 -1.1334
 7486SOL    HW234095   3.750   0.421   3.350  0.1703  1.2057 -0.0792
 7487SOL     OW34096   3.718   2.628   5.984  0.3269  0.1246 -0.4256
 7487SOL    HW134097   3.732   2.570   5.910  0.6383  0.3247 -0.5239
 7487SOL    HW234098   3.654   2.577   6.033  0.7520  1.1890  1.2475
 7488SOL     OW34099   1.046   2.534   1.578  0.2688 -0.3668 -0.0902
 7488SOL    HW134100   0.988   2.487   1.639  0.3819  1.7956  1.6736
 7488SOL    HW234101   1.090   2.590   1.641 -0.9892 -0.6438  1.0368
 7489SOL     OW34102   4.602   1.127  15.405  0.4471  0.0275 -0.4227
 7489SOL    HW134103   4.560   1.053  15.360  1.3680 -0.7853  0.0721
 7489SOL    HW234104   4.683   1.081  15.427  1.8170  2.8431  0.4445
 7490SOL     OW34105   4.096   4.271   8.131 -0.1711 -0.5967  1.2663
 7490SOL    HW134106   4.181   4.293   8.093 -1.0671  1.0230  0.2334
 7490SOL    HW234107   4.092   4.184   8.091 -1.2225  0.9213 -1.8691
 7491SOL     OW34108   2.854   1.487   7.349  0.0505  0.0090  0.3706
 7491SOL    HW134109   2.933   1.491   7.296 -0.0503  0.8779  0.2948
 7491SOL    HW234110   2.883   1.534   7.427  0.2851  0.5097 -0.0183
 7492SOL     OW34111   0.188   1.992   6.537 -0.0948 -0.3225  0.1390
 7492SOL    HW134112   0.209   2.085   6.540 -1.6462  0.0116  0.4600
 7492SOL    HW234113   0.143   1.973   6.619  0.6747 -0.4106  0.5376
 7493SOL     OW34114   3.633   3.903   4.564  0.5492 -0.2019  0.8815
 7493SOL    HW134115   3.584   3.852   4.629 -1.7817  1.0450  0.1034
 7493SOL    HW234116   3.616   3.990   4.600  0.6911  0.8615 -1.5863
 7494SOL     OW34117   4.629   0.840   8.816 -0.1681 -0.4268 -0.0525
 7494SOL    HW134118   4.662   0.925   8.845 -0.9497 -0.2462  0.3118
 7494SOL    HW234119   4.685   0.791   8.876 -2.1009  0.0709  2.1638
 7495SOL     OW34120   2.912   0.720   4.018  0.0617  0.4237  0.4815
 7495SOL    HW134121   2.860   0.675   3.952 -1.5252  2.2019  0.5280
 7495SOL    HW234122   2.986   0.743   3.962  1.0251  1.1103  2.0330
 7496SOL     OW34123   2.660   3.266   6.061 -0.4035  0.2862 -0.0192
 7496SOL    HW134124   2.685   3.309   6.143  0.5330  0.7648 -0.5598
 7496SOL    HW234125   2.621   3.186   6.097 -1.3299  0.9429  0.4661
 7497SOL     OW34126   2.763   2.203   6.454  0.1825  0.3941 -0.3288
 7497SOL    HW134127   2.761   2.189   6.359 -0.7699 -0.6642 -0.1638
 7497SOL    HW234128   2.677   2.243   6.464 -0.3515 -0.8311  0.0219
 7498SOL     OW34129   0.066   3.291  15.266 -0.2037  0.2084  0.3144
 7498SOL    HW134130   4.720   3.245  15.288  0.6682 -1.2520  0.4850
 7498SOL    HW234131   0.128   3.218  15.268  1.0489  1.2751  0.5734
 7499SOL     OW34132   4.367   0.273  10.911 -0.0948 -0.5197 -0.0733
 7499SOL    HW134133   4.417   0.310  10.984 -0.0938 -2.2141  0.7892
 7499SOL    HW234134   4.405   0.186  10.904 -1.0800 -1.0896  1.4974
 7500SOL     OW34135   2.960   1.571   5.347 -0.6501  0.4148  0.5191
 7500SOL    HW134136   2.954   1.664   5.367 -0.3675  0.9500 -1.9770
 7500SOL    HW234137   2.969   1.529   5.433 -0.9248  2.3390  1.4978
 7501SOL     OW34138   0.372   1.022  13.102 -0.3942  0.5133  0.9685
 7501SOL    HW134139   0.399   1.037  13.193  1.0332  0.6517  0.5250
 7501SOL    HW234140   0.411   1.089  13.045  1.1876 -0.0195  1.4262
 7502SOL     OW34141   3.802   4.137  14.910  0.1371 -0.0283  0.4374
 7502SOL    HW134142   3.733   4.104  14.967  1.1416 -0.1980  1.5543
 7502SOL    HW234143   3.854   4.057  14.908  0.6764  0.2571  2.3174
 7503SOL     OW34144   4.175   4.122  12.341 -0.1873  0.6500 -0.1417
 7503SOL    HW134145   4.126   4.183  12.396 -0.2039  0.7139 -0.2277
 7503SOL    HW234146   4.126   4.040  12.341  2.0388 -0.7162 -2.9264
 7504SOL     OW34147   3.772   0.690   6.441 -0.1808  0.4245 -0.2451
 7504SOL    HW134148   3.716   0.647   6.376 -1.9370 -0.4242  1.8409
 7504SOL    HW234149   3.726   0.770   6.464  1.7369  1.4312  0.1086
 7505SOL     OW34150   1.730   2.265   2.825  0.4888 -0.2263 -0.4599
 7505SOL    HW134151   1.824   2.261   2.803 -0.1038 -1.5372 -2.7586
 7505SOL    HW234152   1.705   2.344   2.777 -0.1280  0.3904  0.8868
 7506SOL     OW34153   1.808   4.659   7.699  0.0254 -0.1590  0.2601
 7506SOL    HW134154   1.784   4.691   7.786 -0.9986  0.6969 -0.3324
 7506SOL    HW234155   1.902   4.671   7.710  0.2700 -1.1366 -0.7449
 7507SOL     OW34156   1.102   3.770   8.795 -0.1581 -0.1446  0.3265
 7507SOL    HW134157   1.144   3.856   8.791  0.2644 -0.4098 -0.9864
 7507SOL    HW234158   1.075   3.762   8.886  0.2152 -2.8471  0.1941
 7508SOL     OW34159   1.972   3.206   2.375 -0.5487  0.3015 -0.1008
 7508SOL    HW134160   2.048   3.179   2.323 -1.3813 -1.2275 -0.5227
 7508SOL    HW234161   1.920   3.269   2.326 -0.4431  0.9297  0.6051
 7509SOL     OW34162   0.029   3.824   0.612  0.6767  0.0736  0.2621
 7509SOL    HW134163   0.047   3.908   0.571 -3.5568  1.3035  0.9665
 7509SOL    HW234164   0.065   3.855   0.695  1.1441  1.5772 -0.5059
 7510SOL     OW34165   2.972   1.741  16.866 -0.1403  0.0414 -0.1899
 7510SOL    HW134166   2.997   1.780  16.950  0.4400  0.8750 -0.7503
 7510SOL    HW234167   2.887   1.780  16.847  0.1153 -0.0100 -1.4432
 7511SOL     OW34168   0.609   4.392   3.205 -0.0273  0.4286  0.0013
 7511SOL    HW134169   0.692   4.353   3.177 -0.0742 -0.0406  0.5299
 7511SOL    HW234170   0.623   4.424   3.294  0.6532  0.9122 -0.2775
 7512SOL     OW34171   4.381   3.130   7.064 -0.0502  0.0628  0.0100
 7512SOL    HW134172   4.380   3.044   7.105  1.3563  0.0985  0.1322
 7512SOL    HW234173   4.427   3.190   7.124 -3.2520 -0.2186  2.7810
 7513SOL     OW34174   0.185   0.095  16.466 -0.8785 -0.5599 -0.3839
 7513SOL    HW134175   0.219   0.052  16.544  1.6419 -1.1948 -1.8070
 7513SOL    HW234176   0.192   0.189  16.484 -0.1002 -0.8395  0.7459
 7514SOL     OW34177   1.819   1.950   7.115 -0.0022  0.1551  0.4369
 7514SOL    HW134178   1.730   1.939   7.150  0.1950 -1.2776  0.4807
 7514SOL    HW234179   1.846   1.858   7.110  0.4761  0.2158  1.8832
 7515SOL     OW34180   0.188   2.009  11.262  0.0646  0.4278  0.1978
 7515SOL    HW134181   0.154   1.991  11.350  0.1935  0.8478  0.3336
 7515SOL    HW234182   0.280   1.992  11.280  0.4857  0.9305 -1.4956
 7516SOL     OW34183   0.062   4.214  12.932  0.7572  0.2507 -0.8109
 7516SOL    HW134184   0.128   4.145  12.931 -1.5810 -1.9721 -1.3829
 7516SOL    HW234185   0.115   4.293  12.940  0.1221  0.7654 -1.5681
 7517SOL     OW34186   0.320   2.539  16.889  0.1209 -0.0405  0.0958
 7517SOL    HW134187   0.335   2.575  16.976  0.5832 -3.0796  1.2514
 7517SOL    HW234188   0.276   2.458  16.915  0.3982 -0.2918 -0.2093
 7518SOL     OW34189   4.484   1.730  13.029 -0.0615  0.0441 -0.0286
 7518SOL    HW134190   4.410   1.788  13.042  0.4202  0.9327 -1.2317
 7518SOL    HW234191   4.449   1.668  12.965  0.1881  2.2659 -2.3103
 7519SOL     OW34192   2.375   3.909  10.458 -0.6154  0.2495 -0.7215
 7519SOL    HW134193   2.380   3.869  10.545 -0.1138  0.8009 -0.4896
 7519SOL    HW234194   2.463   3.910  10.421  1.4676 -1.5788  4.1979
 7520SOL     OW34195   0.162   0.483   8.714  0.1165 -0.4491 -0.1482
 7520SOL    HW134196   0.095   0.549   8.695  1.2326  0.1151 -2.0584
 7520SOL    HW234197   0.111   0.404   8.695 -0.6303 -0.1935  0.7636
 7521SOL     OW34198   0.495   1.081   7.046  0.2067  0.6402  0.2526
 7521SOL    HW134199   0.490   1.140   7.121  0.0528 -0.1669  0.8771
 7521SOL    HW234200   0.523   1.143   6.979  2.4103  0.5121  1.0658
 7522SOL     OW34201   1.551   3.667   3.898 -0.2535 -0.4109 -0.5049
 7522SOL    HW134202   1.643   3.660   3.924 -0.2652  0.3693 -0.2599
 7522SOL    HW234203   1.555   3.760   3.878 -0.0954 -0.3993 -0.4217
 7523SOL     OW34204   1.107   3.012   3.348 -0.2106 -0.8081 -0.2163
 7523SOL    HW134205   1.086   3.004   3.255 -1.0896  0.4940 -0.1281
 7523SOL    HW234206   1.123   3.106   3.355 -1.4904 -0.7902  2.3532
 7524SOL     OW34207   0.019   1.382   8.332 -0.2942 -0.5858 -0.2593
 7524SOL    HW134208   0.112   1.362   8.325 -0.2635 -0.9122  0.9812
 7524SOL    HW234209   0.022   1.478   8.339  2.2397 -0.7660  1.1165
 7525SOL     OW34210   3.828   2.061   6.018  0.9199 -0.0515  0.2339
 7525SOL    HW134211   3.833   2.154   5.995  0.8691 -0.4497 -1.3813
 7525SOL    HW234212   3.920   2.041   6.007  0.6336 -0.5228 -1.2945
 7526SOL     OW34213   3.191   4.492   7.423  0.0156 -0.4079  0.0676
 7526SOL    HW134214   3.259   4.557   7.404 -1.7339  1.5905  0.6789
 7526SOL    HW234215   3.221   4.448   7.502 -0.9979  1.6325  1.5647
 7527SOL     OW34216   2.676   0.902   8.941 -0.0667 -0.2464  0.1828
 7527SOL    HW134217   2.743   0.841   8.974  1.4115  0.2523 -1.9150
 7527SOL    HW234218   2.731   0.962   8.891 -3.5826  0.9423 -2.2322
 7528SOL     OW34219   4.535   3.156   2.725 -0.2549  0.4642  0.3529
 7528SOL    HW134220   4.629   3.134   2.725 -0.5048 -0.5870 -1.0064
 7528SOL    HW234221   4.534   3.207   2.806  0.7512  0.1156  0.5874
 7529SOL     OW34222   0.329   3.049   8.766 -0.1313 -0.0465 -0.0494
 7529SOL    HW134223   0.255   2.990   8.778 -0.6758  0.9802  1.6343
 7529SOL    HW234224   0.333   3.053   8.670  0.0149  2.5589  0.0686
 7530SOL     OW34225   3.340   2.017   8.137 -0.1686  0.1248 -0.0376
 7530SOL    HW134226   3.343   2.019   8.232  0.4610  0.7266 -0.0698
 7530SOL    HW234227   3.303   2.102   8.112  0.8959  1.2926  2.4089
 7531SOL     OW34228   3.801   0.111  13.556  0.0849  0.1593  0.1653
 7531SOL    HW134229   3.828   0.064  13.635  0.8024  0.7708  0.2747
 7531SOL    HW234230   3.712   0.139  13.579  0.1594 -0.1971  0.8850
 7532SOL     OW34231   3.048   1.199   8.603  0.4614 -0.8906 -0.0189
 7532SOL    HW134232   2.984   1.154   8.548  1.2538  1.5036 -2.8698
 7532SOL    HW234233   2.998   1.236   8.676  0.7031  0.9374 -0.8000
 7533SOL     OW34234   0.725   1.320   5.304 -0.4119 -0.2693  0.1870
 7533SOL    HW134235   0.786   1.316   5.377  0.9455 -1.3294 -1.0296
 7533SOL    HW234236   0.646   1.351   5.349  0.4648 -1.3124  2.4310
 7534SOL     OW34237   2.336   2.664   0.588 -0.1212  0.2429  0.2464
 7534SOL    HW134238   2.405   2.730   0.575  1.1207 -1.4978 -1.9764
 7534SOL    HW234239   2.376   2.614   0.659  1.7779  1.6673  0.1903
 7535SOL     OW34240   2.023   1.003   7.113 -0.2825  0.5925 -0.2266
 7535SOL    HW134241   2.105   1.024   7.157 -0.8274 -1.1299  1.6003
 7535SOL    HW234242   2.039   0.910   7.097  1.0059  0.8280 -0.2935
 7536SOL     OW34243   3.274   4.124   4.538 -0.0235 -0.1044 -0.1362
 7536SOL    HW134244   3.207   4.175   4.583  0.9388  0.1697  0.9947
 7536SOL    HW234245   3.220   4.101   4.462  1.3243 -6.1017  0.7463
 7537SOL     OW34246   4.572   0.608   9.372 -0.4633  0.8882  0.7744
 7537SOL    HW134247   4.504   0.659   9.416 -1.5088 -2.4336  2.9464
 7537SOL    HW234248   4.567   0.528   9.424  1.1947  0.5635  0.4424
 7538SOL     OW34249   0.703   1.291   2.400 -0.0007 -0.1871 -0.8213
 7538SOL    HW134250   0.729   1.308   2.310  0.1363  1.2843 -0.4944
 7538SOL    HW234251   0.766   1.348   2.444 -1.1530 -0.7456  1.5694
 7539SOL     OW34252   3.787   1.478   2.124  0.1009  0.1146 -0.2878
 7539SOL    HW134253   3.752   1.398   2.162  0.9200 -0.1911 -0.1592
 7539SOL    HW234254   3.717   1.531   2.086 -0.1636 -0.1532 -0.1690
 7540SOL     OW34255   2.319   4.140   9.734  0.5127  0.1239  0.0439
 7540SOL    HW134256   2.278   4.210   9.683  2.3418 -1.1577 -3.1843
 7540SOL    HW234257   2.248   4.111   9.791 -1.4619  0.9929 -1.9731
 7541SOL     OW34258   1.558   0.417   4.279  0.6030 -0.3256  0.3110
 7541SOL    HW134259   1.607   0.345   4.239 -0.1297 -0.8904  0.4231
 7541SOL    HW234260   1.560   0.484   4.210  0.1613 -2.0623 -1.3676
 7542SOL     OW34261   1.505   1.483  11.146  0.1337 -0.0184 -0.7034
 7542SOL    HW134262   1.553   1.473  11.228  1.3004  2.3749 -1.0856
 7542SOL    HW234263   1.477   1.575  11.151  0.2650  0.2011 -3.8317
 7543SOL     OW34264   3.008   3.528   1.530 -0.5232  0.1526  0.1261
 7543SOL    HW134265   3.005   3.500   1.439  1.9251 -0.4279  0.2241
 7543SOL    HW234266   3.091   3.484   1.546 -0.2923  0.0090 -1.5312
 7544SOL     OW34267   1.217   2.284   3.961  0.7186 -1.0595 -0.9240
 7544SOL    HW134268   1.187   2.350   4.023  2.8243 -2.9743  2.1128
 7544SOL    HW234269   1.141   2.275   3.903 -0.1435  2.3058 -0.2835
 7545SOL     OW34270   3.492   1.900  16.798 -0.2479  0.1814  0.1255
 7545SOL    HW134271   3.505   1.993  16.778 -0.7915 -0.1398 -1.6815
 7545SOL    HW234272   3.420   1.903  16.861  0.2356  1.7464  0.6017
 7546SOL     OW34273   4.677   2.830  10.627  0.1612  0.8696  0.0862
 7546SOL    HW134274   0.020   2.815  10.680 -0.9471 -1.1609  1.1598
 7546SOL    HW234275   4.726   2.853  10.549 -1.5587 -2.5916 -2.0289
 7547SOL     OW34276   4.723   2.439   6.116 -0.0374 -0.2694 -0.2031
 7547SOL    HW134277   0.076   2.420   6.084  0.2769  2.0117 -0.6765
 7547SOL    HW234278   4.676   2.377   6.060 -2.2468  1.2733 -0.0766
 7548SOL     OW34279   3.613   3.971  14.493 -0.4203  0.5888  0.9071
 7548SOL    HW134280   3.672   4.046  14.493 -0.0050  0.2578  1.4545
 7548SOL    HW234281   3.678   3.903  14.475 -1.5106  0.1010 -1.1280
 7549SOL     OW34282   1.211   3.825   7.049 -0.0906 -0.5686  0.4426
 7549SOL    HW134283   1.185   3.837   7.141  0.8468 -1.1769  0.7907
 7549SOL    HW234284   1.289   3.773   7.069  1.2114  1.2220  0.0015
 7550SOL     OW34285   1.395   0.805   8.479 -0.1818  0.1825  0.1012
 7550SOL    HW134286   1.387   0.863   8.403 -0.7931  1.8113  1.4001
 7550SOL    HW234287   1.443   0.862   8.540 -2.6791  0.5930  1.6920
 7551SOL     OW34288   0.850   3.582   6.228 -0.4545  0.7101 -0.1720
 7551SOL    HW134289   0.898   3.607   6.150  0.1819  0.6513  0.2045
 7551SOL    HW234290   0.917   3.594   6.295 -0.8836 -1.6280  0.7060
 7552SOL     OW34291   1.621   3.117   5.521 -0.0835 -0.3453 -0.2192
 7552SOL    HW134292   1.623   3.029   5.484 -1.5090 -0.1642 -0.7538
 7552SOL    HW234293   1.580   3.165   5.448  1.4619  1.7855  0.3274
 7553SOL     OW34294   2.608   3.275   3.333 -0.0329 -0.1151 -0.1664
 7553SOL    HW134295   2.681   3.214   3.318 -0.4817 -0.2622 -1.7437
 7553SOL    HW234296   2.566   3.275   3.247  0.2444 -3.0410 -0.2904
 7554SOL     OW34297   2.313   2.626  17.620  0.7739  0.2117 -0.0805
 7554SOL    HW134298   2.243   2.680  17.659  0.4919 -2.0340  2.5081
 7554SOL    HW234299   2.376   2.693  17.594 -0.2827  1.6708  1.1045
 7555SOL     OW34300   0.571   1.504   2.941  0.2572 -0.0833  0.6484
 7555SOL    HW134301   0.501   1.439   2.948 -1.2328  1.4661  0.2659
 7555SOL    HW234302   0.516   1.581   2.926  0.5447  0.5098  2.6099
 7556SOL     OW34303   0.803   2.807   1.426 -0.1075 -0.0184  0.2363
 7556SOL    HW134304   0.742   2.782   1.357  0.3123  0.1316 -0.1949
 7556SOL    HW234305   0.752   2.793   1.505  1.0831 -0.9907  0.8399
 7557SOL     OW34306   0.571   2.895   2.515  0.6613 -0.1444 -0.5677
 7557SOL    HW134307   0.666   2.889   2.505  0.7830  1.2142 -0.1329
 7557SOL    HW234308   0.542   2.804   2.526  1.5958 -0.5750 -1.7293
 7558SOL     OW34309   0.454   1.508   2.281  0.4512 -0.3714  0.5635
 7558SOL    HW134310   0.359   1.495   2.271  0.8774 -2.8803 -0.4228
 7558SOL    HW234311   0.498   1.423   2.270 -0.9409 -1.1484  0.9627
 7559SOL     OW34312   3.901   1.823  16.231  0.2401  0.0830 -0.4296
 7559SOL    HW134313   3.892   1.803  16.138  2.1479 -0.5126 -0.4740
 7559SOL    HW234314   3.950   1.905  16.224  1.7559 -0.7388  0.5642
 7560SOL     OW34315   1.229   3.507  12.546  0.2569 -0.6463  0.6754
 7560SOL    HW134316   1.270   3.588  12.578 -1.7286 -0.0419  1.6911
 7560SOL    HW234317   1.143   3.542  12.521  2.1556  1.3850 -3.1594
 7561SOL     OW34318   1.461   4.488  14.065 -0.0776 -0.2967  0.5722
 7561SOL    HW134319   1.543   4.439  14.071 -0.1215 -0.6354 -1.8852
 7561SOL    HW234320   1.446   4.519  14.155 -0.5967 -2.0976  1.1035
 7562SOL     OW34321   3.063   4.295   8.189  0.0546 -0.6662  0.1064
 7562SOL    HW134322   3.019   4.310   8.105 -0.4359  0.6598  0.6017
 7562SOL    HW234323   3.073   4.383   8.226  1.3283 -1.9029  2.7047
 7563SOL     OW34324   3.714   1.292   0.885  0.5305 -0.2111 -0.3831
 7563SOL    HW134325   3.716   1.276   0.791 -1.7313  1.1022 -0.6517
 7563SOL    HW234326   3.742   1.383   0.893  0.2059 -0.1197 -0.2884
 7564SOL     OW34327   4.250   0.352   8.409  0.0319 -0.0663  0.2177
 7564SOL    HW134328   4.204   0.372   8.490 -1.7456 -2.3842 -0.2130
 7564SOL    HW234329   4.295   0.436   8.399 -2.4404  1.2570  0.0521
 7565SOL     OW34330   2.012   4.701   4.663 -0.2010  0.3931  0.0531
 7565SOL    HW134331   1.926   4.664   4.685 -0.1538  0.0090 -0.3965
 7565SOL    HW234332   2.057   4.628   4.621  0.0431  0.8304 -0.4564
 7566SOL     OW34333   4.585   1.504   5.650  0.0286  0.4680 -0.8943
 7566SOL    HW134334   4.497   1.508   5.611  0.2716  0.7514 -1.4180
 7566SOL    HW234335   4.649   1.500   5.579 -1.3031  1.3530 -2.1457
 7567SOL     OW34336   2.978   4.065  11.270  0.4363 -0.0923  0.4235
 7567SOL    HW134337   2.971   4.086  11.177 -0.5624 -3.7518 -0.3421
 7567SOL    HW234338   3.069   4.090  11.287 -0.2655  2.6858 -0.0439
 7568SOL     OW34339   0.840   2.110   5.960  0.2916 -0.1365 -0.1383
 7568SOL    HW134340   0.792   2.028   5.950  1.6848 -0.6113 -2.8926
 7568SOL    HW234341   0.792   2.167   5.899 -0.5642  0.6690  1.2646
 7569SOL     OW34342   0.717   2.028   1.596  0.1178 -0.2899 -0.5263
 7569SOL    HW134343   0.667   1.956   1.558  0.8926 -1.4729  0.6911
 7569SOL    HW234344   0.780   2.033   1.524  1.9263  1.7425  1.2017
 7570SOL     OW34345   0.004   0.948   4.390 -0.0578  0.1748  0.4253
 7570SOL    HW134346   4.735   0.859   4.354 -0.7223  0.7325 -0.8551
 7570SOL    HW234347   0.048   0.991   4.317  1.7654 -0.7294  0.9927
 7571SOL     OW34348   1.122   4.361   4.618  0.1369  0.4903 -0.2067
 7571SOL    HW134349   1.188   4.421   4.653  1.4059 -0.7791 -0.4280
 7571SOL    HW234350   1.180   4.306   4.565 -1.5654  0.6057 -2.1663
 7572SOL     OW34351   1.985   4.078   3.800  0.1729 -0.3099  0.0101
 7572SOL    HW134352   1.990   4.089   3.895 -2.2343  3.0920 -0.2754
 7572SOL    HW234353   2.020   3.990   3.788 -1.1034 -0.8860  0.5616
 7573SOL     OW34354   1.185   3.790   6.385  0.0002  0.2491 -0.2833
 7573SOL    HW134355   1.162   3.707   6.343 -0.1725 -0.8939  2.0979
 7573SOL    HW234356   1.104   3.835   6.409  0.9203  2.4548 -1.2320
 7574SOL     OW34357   4.224   1.042  14.819 -0.5301  0.2025  0.1147
 7574SOL    HW134358   4.285   0.986  14.868  0.4907 -0.5740 -1.9880
 7574SOL    HW234359   4.273   1.059  14.738  1.2738 -1.8954  0.7594
 7575SOL     OW34360   0.986   2.170   0.836  0.1232 -0.0912  0.2311
 7575SOL    HW134361   1.077   2.189   0.814 -0.7971  1.7378 -1.9290
 7575SOL    HW234362   0.955   2.122   0.759 -2.3542  1.8836 -0.0029
 7576SOL     OW34363   3.058   1.026  10.841  0.3150 -0.0727 -0.3700
 7576SOL    HW134364   2.998   0.963  10.881  0.7071  1.3980  2.5481
 7576SOL    HW234365   3.131   0.965  10.844  0.4747  0.1696  0.7150
 7577SOL     OW34366   2.969   3.954   6.950 -0.5027  0.1052 -0.2805
 7577SOL    HW134367   2.987   3.875   7.001 -0.0811  1.3214  1.4419
 7577SOL    HW234368   2.878   3.967   6.976 -0.1169 -0.6906  1.4846
 7578SOL     OW34369   3.337   0.270   4.776 -0.1875  0.1163 -0.1057
 7578SOL    HW134370   3.422   0.298   4.811  0.6289 -2.4023 -0.0927
 7578SOL    HW234371   3.293   0.353   4.797 -1.2175 -0.0037 -1.8276
 7579SOL     OW34372   1.148   4.673   2.098 -0.1343 -0.1500  0.2416
 7579SOL    HW134373   1.124   4.677   2.190 -2.0593 -3.1871 -0.1258
 7579SOL    HW234374   1.178   4.582   2.100  2.5202  0.7420  0.8483
 7580SOL     OW34375   3.053   0.556   4.231 -0.3482  0.2520 -0.6515
 7580SOL    HW134376   3.011   0.637   4.203 -1.3065 -0.3930 -1.0502
 7580SOL    HW234377   3.138   0.587   4.262 -0.3429 -0.9098  0.5194
 7581SOL     OW34378   4.465   0.493   7.067 -0.1144 -0.6776 -0.2802
 7581SOL    HW134379   4.396   0.539   7.019  1.2971  1.6393 -0.0358
 7581SOL    HW234380   4.446   0.522   7.156  1.7631  1.1836 -0.5102
 7582SOL     OW34381   4.484   1.515  14.538  0.1730 -0.5434  0.2022
 7582SOL    HW134382   4.561   1.501  14.484 -0.9140  1.6595 -1.9226
 7582SOL    HW234383   4.421   1.549  14.474 -0.5394 -1.0752  0.6218
 7583SOL     OW34384   0.875   1.632   1.939  0.3177  0.3388 -0.0367
 7583SOL    HW134385   0.820   1.621   2.016 -1.2558  1.9351 -0.9473
 7583SOL    HW234386   0.896   1.540   1.921  0.3499  0.2938  0.2348
 7584SOL     OW34387   4.418   1.709   4.987  0.3288 -0.1216 -0.4632
 7584SOL    HW134388   4.330   1.745   4.975 -0.3503 -1.7725 -0.4821
 7584SOL    HW234389   4.403   1.626   4.942 -0.8384  0.7998 -1.8091
 7585SOL     OW34390   3.267   4.138   4.894 -0.9064 -0.2608  0.3572
 7585SOL    HW134391   3.288   4.200   4.964 -2.5470  0.8980 -0.1621
 7585SOL    HW234392   3.200   4.083   4.934 -1.7467  0.0109 -0.6669
 7586SOL     OW34393   2.955   3.512   6.752  0.4147  0.4192  0.1825
 7586SOL    HW134394   2.940   3.551   6.838 -0.9661  3.1707 -1.3110
 7586SOL    HW234395   2.960   3.418   6.773  0.7993  0.4444  0.1885
 7587SOL     OW34396   1.022   3.439  14.380 -0.4191 -0.0342 -0.4428
 7587SOL    HW134397   0.984   3.388  14.308 -0.3604 -0.5996 -0.0644
 7587SOL    HW234398   0.943   3.465  14.429 -0.8701 -2.7941  0.2667
 7588SOL     OW34399   3.827   1.525   0.909  1.3574 -0.1401 -0.1276
 7588SOL    HW134400   3.901   1.510   0.969  0.2848 -0.1661  1.1833
 7588SOL    HW234401   3.806   1.615   0.933 -0.6870 -0.3358 -1.2166
 7589SOL     OW34402   1.841   2.567   3.362 -0.0534 -0.4081  0.3400
 7589SOL    HW134403   1.760   2.554   3.411 -0.6203  0.4189 -0.3791
 7589SOL    HW234404   1.851   2.489   3.307 -0.7654 -0.3152  0.0759
 7590SOL     OW34405   2.470   0.880   5.315  0.6303  0.0309  0.2623
 7590SOL    HW134406   2.424   0.796   5.303  0.2496  0.2975 -0.1179
 7590SOL    HW234407   2.407   0.929   5.367  1.5381 -0.1798  1.5766
 7591SOL     OW34408   0.063   3.103   4.571 -0.0756 -0.7118 -0.4093
 7591SOL    HW134409   4.719   3.153   4.553 -0.2578 -1.2140 -1.0262
 7591SOL    HW234410   0.137   3.162   4.558  0.2611 -0.6040  1.9565
 7592SOL     OW34411   0.679   2.606   7.234 -0.5838  0.5492  0.2802
 7592SOL    HW134412   0.753   2.651   7.275 -0.4877  0.0447  0.6541
 7592SOL    HW234413   0.630   2.682   7.201 -0.7409  0.5542  0.5278
 7593SOL     OW34414   3.438   0.997   4.870  0.4574 -0.3982  0.0770
 7593SOL    HW134415   3.399   1.045   4.797 -0.7330 -0.3987  0.7148
 7593SOL    HW234416   3.524   1.038   4.877  1.6806 -3.0888  0.5390
 7594SOL     OW34417   4.456   3.807  11.563 -0.0636 -0.3090 -0.1588
 7594SOL    HW134418   4.502   3.728  11.591 -1.1477 -0.6502  0.6546
 7594SOL    HW234419   4.522   3.863  11.522 -0.9878  1.0148  0.1575
 7595SOL     OW34420   2.099   2.469   3.447  0.4956  0.2360  0.0867
 7595SOL    HW134421   2.066   2.520   3.521  0.3179  0.9315 -0.4680
 7595SOL    HW234422   2.117   2.542   3.387  0.9595 -0.6238 -0.8069
 7596SOL     OW34423   0.710   0.982  11.473  0.3650  0.2608 -0.0838
 7596SOL    HW134424   0.637   0.994  11.534 -0.3365  1.6204 -1.2109
 7596SOL    HW234425   0.675   1.027  11.396  0.7102  1.0327  0.2145
 7597SOL     OW34426   0.126   3.009   5.919  0.1443 -0.6028  0.1072
 7597SOL    HW134427   0.065   3.083   5.923  0.7532 -0.0254 -1.4861
 7597SOL    HW234428   0.092   2.973   5.837  0.3170 -1.6215  0.4889
 7598SOL     OW34429   2.636   3.392   6.683  0.6870 -0.2353 -0.1185
 7598SOL    HW134430   2.592   3.460   6.632  2.0398  1.4553  0.9854
 7598SOL    HW234431   2.644   3.418   6.775  0.2727 -1.1335  0.1733
 7599SOL     OW34432   2.360   2.950   1.140 -0.2587  0.6306  0.2835
 7599SOL    HW134433   2.404   3.028   1.106  3.2360 -1.3098  0.2764
 7599SOL    HW234434   2.422   2.907   1.200 -1.8402 -2.3028 -0.2067
 7600SOL     OW34435   2.495   4.473   5.027  0.0282  0.4560  0.0716
 7600SOL    HW134436   2.405   4.475   4.994  0.1987  0.0309 -0.4164
 7600SOL    HW234437   2.522   4.564   5.021  2.4067 -0.2787 -0.4558
 7601SOL     OW34438   3.350   0.153   3.311  0.0775  0.3402  0.0736
 7601SOL    HW134439   3.304   0.106   3.241  0.2066  0.4726 -0.0979
 7601SOL    HW234440   3.349   0.238   3.268  1.3691 -0.2693 -1.1618
 7602SOL     OW34441   2.764   1.618   5.572 -0.3103 -0.1963 -0.2144
 7602SOL    HW134442   2.717   1.685   5.622  1.3132  2.5672 -2.4090
 7602SOL    HW234443   2.857   1.637   5.571 -0.2215 -0.6472 -0.9376
 7603SOL     OW34444   0.210   4.041   4.409  0.3050  0.0300  0.1320
 7603SOL    HW134445   0.160   4.114   4.375  1.9215  0.4081 -1.4385
 7603SOL    HW234446   0.235   4.072   4.496  1.3081 -2.6897  0.8234
 7604SOL     OW34447   3.936   4.526   3.273 -0.8602 -0.4012  0.1051
 7604SOL    HW134448   4.024   4.561   3.259 -0.8664 -0.3675  0.1514
 7604SOL    HW234449   3.947   4.487   3.359 -0.4830 -0.6242 -0.0431
 7605SOL     OW34450   1.244   1.312  10.076 -0.3533  0.2420  0.0559
 7605SOL    HW134451   1.165   1.258  10.070 -0.9471  0.9727  1.2789
 7605SOL    HW234452   1.308   1.257  10.120 -0.5160 -0.2466 -0.3235
 7606SOL     OW34453   0.956   1.220   2.708 -0.2650  0.1114  0.8447
 7606SOL    HW134454   0.940   1.147   2.650  1.7729 -0.2129  0.6883
 7606SOL    HW234455   0.867   1.250   2.727 -0.4339 -0.9593  1.7401
 7607SOL     OW34456   1.030   3.913  11.950 -0.1216  0.1745  0.0978
 7607SOL    HW134457   0.997   3.862  12.024  0.6726 -0.3958  0.0577
 7607SOL    HW234458   1.116   3.934  11.986  0.0205  3.1556 -1.9861
 7608SOL     OW34459   0.108   2.650   1.739  0.7254 -0.6135  0.3238
 7608SOL    HW134460   0.172   2.578   1.744  2.3072  0.6554 -1.6334
 7608SOL    HW234461   0.028   2.608   1.708 -0.7239  1.3091  1.5308
 7609SOL     OW34462   3.068   1.816   1.453 -0.2838 -0.0396  0.0363
 7609SOL    HW134463   2.986   1.812   1.404  1.8398 -0.0484 -3.5832
 7609SOL    HW234464   3.120   1.798   1.375  0.1799 -2.0041  0.8031
 7610SOL     OW34465   4.706   0.016   2.805  0.4829 -0.0497  1.0640
 7610SOL    HW134466   4.719   4.681   2.868 -0.5641 -0.4530  0.8264
 7610SOL    HW234467   4.709   4.718   2.715 -0.9103 -0.4969  1.1861
 7611SOL     OW34468   4.260   0.762   2.763  0.3135 -0.3355  0.5025
 7611SOL    HW134469   4.314   0.683   2.768  0.5310 -0.2210 -0.0426
 7611SOL    HW234470   4.330   0.827   2.758  1.4580 -1.4590  1.9345
 7612SOL     OW34471   2.653   3.126   8.676  0.8491 -0.5023 -0.3818
 7612SOL    HW134472   2.665   3.101   8.768  0.5078  2.8874  0.6135
 7612SOL    HW234473   2.604   3.208   8.680 -2.5506 -2.6046  0.6508
 7613SOL     OW34474   3.046   0.842   5.844 -0.1859  0.1636  0.5630
 7613SOL    HW134475   3.117   0.906   5.838  0.0627 -0.1986 -0.3755
 7613SOL    HW234476   3.081   0.770   5.791 -1.9843  0.6369 -1.2712
 7614SOL     OW34477   3.926   0.010   6.168 -0.4648 -0.0260  0.1064
 7614SOL    HW134478   3.921   0.105   6.160 -1.1332 -0.1386 -0.8854
 7614SOL    HW234479   3.903   4.729   6.259 -0.1723  1.2522  0.4116
 7615SOL     OW34480   3.686   0.508   8.974  0.4978 -0.1025 -0.5815
 7615SOL    HW134481   3.651   0.429   9.016 -1.6653  1.0074 -0.3012
 7615SOL    HW234482   3.624   0.518   8.901  0.3106  1.2552 -0.2178
 7616SOL     OW34483   1.695   3.914   8.072 -0.0572  0.4009  0.1829
 7616SOL    HW134484   1.651   3.834   8.101  0.4749 -0.8870 -2.5402
 7616SOL    HW234485   1.692   3.907   7.977  0.9391  0.4692  0.1479
 7617SOL     OW34486   2.758   0.938   2.014  0.5604  0.4318 -0.0484
 7617SOL    HW134487   2.827   1.002   1.998  1.5435 -0.5150  0.4172
 7617SOL    HW234488   2.755   0.947   2.109 -0.3458 -0.5796  0.0112
 7618SOL     OW34489   1.739   4.256   7.288  0.2886  0.8438  0.0662
 7618SOL    HW134490   1.696   4.204   7.356  1.2599  0.0185  0.0461
 7618SOL    HW234491   1.682   4.331   7.304  0.2612  0.9948 -0.7338
 7619SOL     OW34492   2.522   2.375   1.944  0.2807  0.0708 -0.0219
 7619SOL    HW134493   2.584   2.302   1.944  0.8211  0.5200 -1.5325
 7619SOL    HW234494   2.482   2.366   2.030 -0.7219  0.5711 -0.4346
 7620SOL     OW34495   4.324   3.079  12.840 -0.1929 -0.4193  0.0065
 7620SOL    HW134496   4.332   3.146  12.772 -1.5725  0.0725  0.3446
 7620SOL    HW234497   4.395   3.019  12.816  0.1411 -0.6509  1.5975
 7621SOL     OW34498   0.787   3.969   3.366 -0.3395 -0.2295 -0.1611
 7621SOL    HW134499   0.829   4.039   3.415 -0.9347 -0.5427  0.8106
 7621SOL    HW234500   0.695   3.988   3.384 -0.5855 -0.3106 -1.2805
 7622SOL     OW34501   3.683   1.318   7.456  0.0233 -0.4275  0.2274
 7622SOL    HW134502   3.745   1.311   7.383  1.1511  1.1596  1.0359
 7622SOL    HW234503   3.608   1.288   7.403 -1.3747  2.8166  0.3658
 7623SOL     OW34504   1.961   2.451   6.862  0.1035 -0.0050 -0.2532
 7623SOL    HW134505   1.957   2.540   6.827  2.1191  1.3187  2.8912
 7623SOL    HW234506   2.045   2.456   6.908 -0.8144 -0.3666  1.4584
 7624SOL     OW34507   3.059   3.190   8.585  0.0288 -0.4399  0.3885
 7624SOL    HW134508   3.054   3.201   8.490  1.1874 -0.2334  0.3547
 7624SOL    HW234509   3.004   3.258   8.623  0.1749 -0.2840  0.3197
 7625SOL     OW34510   2.002   3.341  13.676 -0.2429  0.3510 -0.4593
 7625SOL    HW134511   2.089   3.302  13.669 -0.0941  0.6253 -0.1412
 7625SOL    HW234512   1.961   3.312  13.595 -1.7340  0.0469  0.4024
 7626SOL     OW34513   3.356   0.743   8.215  0.3061 -0.2467 -0.5730
 7626SOL    HW134514   3.283   0.684   8.234 -1.0260  1.0095 -1.8053
 7626SOL    HW234515   3.323   0.792   8.139 -0.9776 -1.3435 -0.7292
 7627SOL     OW34516   0.592   3.959   4.495  0.2026  0.4057  0.0486
 7627SOL    HW134517   0.678   3.921   4.514 -0.2189 -1.8424 -2.5062
 7627SOL    HW234518   0.528   3.887   4.493  1.9319 -1.1331  0.6459
 7628SOL     OW34519   1.842   0.568  11.106  0.3185  0.3479  0.2366
 7628SOL    HW134520   1.802   0.530  11.185 -0.9680 -1.2478 -1.1950
 7628SOL    HW234521   1.882   0.494  11.059 -1.7770 -1.2740  1.0014
 7629SOL     OW34522   0.226   2.909   0.741 -0.0847 -0.4690  0.1127
 7629SOL    HW134523   0.175   2.828   0.735  0.2053 -0.6767  0.4440
 7629SOL    HW234524   0.177   2.954   0.810  0.9726 -1.6194  1.6047
 7630SOL     OW34525   0.538   2.226   7.927 -0.0960  0.0579 -0.2876
 7630SOL    HW134526   0.488   2.146   7.913 -0.7864  0.3223  0.6672
 7630SOL    HW234527   0.461   2.282   7.938  0.3030  0.7159 -0.8357
 7631SOL     OW34528   2.217   4.279   3.896  0.0607  0.5565 -0.3146
 7631SOL    HW134529   2.138   4.303   3.847  0.6168  0.8663 -1.0731
 7631SOL    HW234530   2.218   4.336   3.973  1.4077  2.8803 -2.0427
 7632SOL     OW34531   0.640   4.632  13.185 -0.1716  0.1640  0.0935
 7632SOL    HW134532   0.586   4.611  13.261  0.0212 -0.5054  0.0454
 7632SOL    HW234533   0.647   4.549  13.138 -0.1375  0.8473 -1.1180
 7633SOL     OW34534   4.616   2.968  13.548  0.4107  0.6371  0.6167
 7633SOL    HW134535   4.641   2.898  13.609 -0.6094  0.7801  1.2045
 7633SOL    HW234536   4.701   3.002  13.521  0.1556  0.1303 -0.8577
 7634SOL     OW34537   1.288   4.181  16.464 -0.5837 -0.3673 -0.4070
 7634SOL    HW134538   1.300   4.197  16.371 -0.7040 -0.5609 -0.4554
 7634SOL    HW234539   1.289   4.266  16.508 -1.4021 -1.3876  1.5863
 7635SOL     OW34540   0.327   2.286   4.529  0.0121  0.0521  0.5880
 7635SOL    HW134541   0.271   2.360   4.508 -0.2023 -0.3447 -0.2349
 7635SOL    HW234542   0.409   2.313   4.486  0.3158 -1.1911  0.3671
 7636SOL     OW34543   1.598   2.915   8.568 -0.3806 -0.4057 -0.1167
 7636SOL    HW134544   1.569   2.921   8.477 -2.2165  2.7390  0.6812
 7636SOL    HW234545   1.540   2.983   8.602  0.5194  0.6976 -0.7585
 7637SOL     OW34546   4.385   2.194   8.653 -0.1949  0.0568  0.1924
 7637SOL    HW134547   4.334   2.183   8.572  0.2542 -1.3164  0.1032
 7637SOL    HW234548   4.458   2.243   8.616 -1.7164  1.2627 -1.2394
 7638SOL     OW34549   3.629   3.675  17.315 -0.6207  0.1505  0.3542
 7638SOL    HW134550   3.683   3.635  17.248 -0.9841 -1.9060  1.2736
 7638SOL    HW234551   3.562   3.606  17.321 -1.4881  0.9443 -0.1315
 7639SOL     OW34552   3.334   3.652   8.342 -0.9271  0.0734  0.1764
 7639SOL    HW134553   3.315   3.562   8.366 -0.8935 -0.0852 -0.3776
 7639SOL    HW234554   3.253   3.681   8.298 -1.6348 -2.6463 -0.3254
 7640SOL     OW34555   4.484   0.291   4.543 -0.5152  0.0228  0.6714
 7640SOL    HW134556   4.492   0.234   4.466  1.1473  3.2500 -1.5623
 7640SOL    HW234557   4.571   0.291   4.584  0.2821  0.7682 -1.0273
 7641SOL     OW34558   2.199   3.229   7.414 -0.1309 -0.2436 -0.4925
 7641SOL    HW134559   2.227   3.138   7.424  0.3400 -0.1149 -0.6779
 7641SOL    HW234560   2.250   3.262   7.340 -2.1458  3.1086 -0.4150
 7642SOL     OW34561   1.833   3.852   4.352 -0.6650 -0.2938 -0.3116
 7642SOL    HW134562   1.782   3.838   4.432  1.0445  0.0044  0.8351
 7642SOL    HW234563   1.893   3.778   4.357  0.7106  0.8070 -0.4250
 7643SOL     OW34564   2.962   2.390   8.224 -0.3555 -0.0680  0.0125
 7643SOL    HW134565   2.903   2.365   8.295  0.7591  0.7157  1.2132
 7643SOL    HW234566   2.905   2.437   8.163 -1.4946 -0.1624  1.0091
 7644SOL     OW34567   2.379   3.982  16.444 -0.2312  0.2854 -0.0238
 7644SOL    HW134568   2.351   4.062  16.400  0.8746 -0.1644 -1.5402
 7644SOL    HW234569   2.357   3.910  16.384 -0.2488 -0.1552  0.5089
 7645SOL     OW34570   3.423   3.859  11.179 -0.5809 -0.0491  0.0376
 7645SOL    HW134571   3.414   3.798  11.106 -1.5607  2.0183 -1.5482
 7645SOL    HW234572   3.394   3.939  11.137 -1.5287 -0.3396  0.1439
 7646SOL     OW34573   1.869   1.678   9.137 -0.0939  0.0708  0.1187
 7646SOL    HW134574   1.842   1.733   9.210  1.9671  1.4914 -0.1931
 7646SOL    HW234575   1.792   1.678   9.080 -1.4148  0.6212  1.8966
 7647SOL     OW34576   4.345   2.822   7.144  0.6340 -0.6839 -0.0264
 7647SOL    HW134577   4.429   2.827   7.099  0.1922  1.3871 -0.6398
 7647SOL    HW234578   4.334   2.734   7.179 -1.7165 -1.0273 -1.5792
 7648SOL     OW34579   3.975   0.024  17.114 -0.1012 -0.3466 -0.1454
 7648SOL    HW134580   3.880   0.014  17.107 -0.2504  0.3340  0.8638
 7648SOL    HW234581   4.000   4.713  17.034 -0.9505 -0.8750 -0.0993
 7649SOL     OW34582   3.751   3.579  13.802  0.1770 -0.3706  0.0190
 7649SOL    HW134583   3.805   3.504  13.777 -2.0910 -2.6387  1.9824
 7649SOL    HW234584   3.661   3.547  13.809 -0.1953  0.7168  0.2573
 7650SOL     OW34585   2.781   0.023   5.508 -0.1808 -0.0303  0.0556
 7650SOL    HW134586   2.778   4.717   5.422 -0.0587  1.0101 -0.4570
 7650SOL    HW234587   2.856   4.713   5.546 -0.2801 -0.3042 -0.0761
 7651SOL     OW34588   2.285   3.041  16.066 -0.6388 -0.2566  0.9318
 7651SOL    HW134589   2.200   3.006  16.091 -0.4203  0.6063  2.9187
 7651SOL    HW234590   2.255   3.113  16.010  0.0069 -2.3156 -2.0814
 7652SOL     OW34591   3.357   2.869   4.228  0.0633 -0.3180  0.9113
 7652SOL    HW134592   3.341   2.903   4.140 -1.7178 -1.4006  0.8176
 7652SOL    HW234593   3.444   2.828   4.221  0.0064 -0.6429  2.1226
 7653SOL     OW34594   1.993   3.209   4.823  0.3761  0.6585  0.0131
 7653SOL    HW134595   1.957   3.125   4.795 -1.8558  1.7797 -0.4599
 7653SOL    HW234596   1.975   3.213   4.917  1.0820 -0.0066  0.1724
 7654SOL     OW34597   4.719   1.004   5.339  0.1217  0.3392 -0.5104
 7654SOL    HW134598   0.029   0.919   5.331 -0.6022 -0.1983  1.1252
 7654SOL    HW234599   0.033   1.054   5.274  1.9321 -1.8223 -0.8333
 7655SOL     OW34600   2.025   2.168   5.485 -0.3247  0.2543 -0.4037
 7655SOL    HW134601   2.025   2.109   5.410  0.7583 -0.6624  0.3195
 7655SOL    HW234602   1.947   2.223   5.479 -0.1796  0.3164 -1.7425
 7656SOL     OW34603   0.253   4.019  12.895  0.3130 -0.6707 -0.2916
 7656SOL    HW134604   0.251   4.029  12.800 -0.3776  0.4216 -0.1551
 7656SOL    HW234605   0.218   3.931  12.908  0.6654 -0.6656  0.6759
 7657SOL     OW34606   0.544   3.686   5.526 -0.2777  0.1337  0.3788
 7657SOL    HW134607   0.623   3.644   5.491  0.9096  1.4742  1.4666
 7657SOL    HW234608   0.486   3.660   5.454  0.0914  3.5902 -1.1984
 7658SOL     OW34609   1.609   3.148   4.862 -0.1366 -0.2921 -0.3809
 7658SOL    HW134610   1.568   3.235   4.860 -1.9706 -1.1616 -0.1633
 7658SOL    HW234611   1.700   3.173   4.878 -0.2776  0.5626 -0.8721
 7659SOL     OW34612   4.076   4.380   9.721  0.1588 -0.2013  0.2347
 7659SOL    HW134613   4.141   4.410   9.657  1.3120 -0.2428  1.3991
 7659SOL    HW234614   3.999   4.369   9.664  2.2484 -1.5585 -2.3618
 7660SOL     OW34615   0.027   0.911   0.677 -0.1239  0.0438 -0.2554
 7660SOL    HW134616   0.026   0.863   0.594  0.6579  1.0238 -0.8325
 7660SOL    HW234617   0.098   0.974   0.665 -0.4498  0.2639 -1.0495
 7661SOL     OW34618   4.672   3.077   6.976  0.8208 -0.1371 -0.0522
 7661SOL    HW134619   4.679   3.090   7.071  4.2776 -1.4881 -0.0948
 7661SOL    HW234620   4.629   3.159   6.950  1.3346 -0.8220 -3.0550
 7662SOL     OW34621   3.688   4.357  14.794  0.3305 -0.0512  0.1734
 7662SOL    HW134622   3.735   4.283  14.830 -0.8844 -0.7129  0.3806
 7662SOL    HW234623   3.733   4.373  14.711 -0.2319  2.7106  0.3714
 7663SOL     OW34624   1.709   0.007   7.071 -0.1892  0.4999 -0.0177
 7663SOL    HW134625   1.781   0.063   7.042  1.0500 -2.0904 -1.9507
 7663SOL    HW234626   1.752   4.711   7.151 -1.4931 -0.2322  0.4033
 7664SOL     OW34627   4.355   1.406  17.279 -0.4772 -0.3538 -0.5406
 7664SOL    HW134628   4.352   1.470  17.208 -0.9469 -0.1527 -0.3411
 7664SOL    HW234629   4.390   1.323  17.247 -0.4417 -0.0421 -1.3073
 7665SOL     OW34630   0.820   1.010   7.016 -0.3829 -0.2314 -0.6001
 7665SOL    HW134631   0.759   1.079   6.991  0.9819  2.2213  2.9546
 7665SOL    HW234632   0.813   0.951   6.941 -0.1072 -0.9395 -0.0688
 7666SOL     OW34633   4.175   0.580  17.470 -0.7790  0.5518  0.0992
 7666SOL    HW134634   4.270   0.577  17.482 -0.8063 -2.8825 -0.4381
 7666SOL    HW234635   4.152   0.658  17.520 -0.7889  1.8246 -1.8962
 7667SOL     OW34636   2.794   4.278  13.799 -0.2738 -0.3258  0.0686
 7667SOL    HW134637   2.734   4.203  13.795  2.5542 -2.5462  0.0558
 7667SOL    HW234638   2.855   4.246  13.864 -0.8894 -1.8474 -0.0971
 7668SOL     OW34639   4.035   1.610  11.707  0.2309 -0.3583 -0.0163
 7668SOL    HW134640   4.027   1.516  11.724 -0.1152 -0.4356 -0.6069
 7668SOL    HW234641   3.942   1.632  11.705  0.0867 -0.9855 -0.2299
 7669SOL     OW34642   1.830   3.000   2.132  0.2588 -0.1176 -0.1283
 7669SOL    HW134643   1.776   3.068   2.172  0.1891  0.1852 -0.7402
 7669SOL    HW234644   1.768   2.927   2.126  1.3896 -1.1210  0.2530
 7670SOL     OW34645   1.566   1.094   2.931  0.0723 -0.3302  0.2661
 7670SOL    HW134646   1.548   1.147   3.009  1.3119 -1.0255  1.0123
 7670SOL    HW234647   1.591   1.161   2.867 -2.1414  0.4422  0.1874
 7671SOL     OW34648   3.647   0.751   2.216  0.6201  0.3174  0.2979
 7671SOL    HW134649   3.649   0.847   2.213  1.4488  0.2712 -0.3885
 7671SOL    HW234650   3.640   0.734   2.122 -2.4911 -1.0639  0.7522
 7672SOL     OW34651   2.782   3.044   2.932 -0.3737  0.1491 -1.0452
 7672SOL    HW134652   2.753   3.021   2.844 -0.9771 -0.3972 -0.6944
 7672SOL    HW234653   2.772   3.140   2.932 -0.5541  0.1248  0.8255
 7673SOL     OW34654   3.876   4.612   4.885  0.2775  0.2833  0.0119
 7673SOL    HW134655   3.892   4.555   4.811  0.4702  0.8804 -0.4066
 7673SOL    HW234656   3.785   4.640   4.875  0.1543 -1.2141 -3.0912
 7674SOL     OW34657   1.642   1.652   1.790 -0.0615 -0.3069  0.4912
 7674SOL    HW134658   1.704   1.679   1.722 -0.5064  0.8153  0.5341
 7674SOL    HW234659   1.596   1.733   1.808 -0.1033 -0.7719  2.5003
 7675SOL     OW34660   3.945   0.861   8.093  0.0976 -0.1950  0.2132
 7675SOL    HW134661   3.963   0.815   8.175  0.2185 -0.6454 -0.0655
 7675SOL    HW234662   3.850   0.868   8.105 -0.0758  0.2770 -1.4177
 7676SOL     OW34663   1.793   0.389  15.834 -0.2382 -0.2373 -0.5594
 7676SOL    HW134664   1.754   0.424  15.754 -1.5465 -0.5475 -0.0687
 7676SOL    HW234665   1.857   0.334  15.789  0.3153  1.5071 -1.8790
 7677SOL     OW34666   3.996   4.511   2.666 -0.1029  0.5512 -0.2464
 7677SOL    HW134667   3.956   4.509   2.753 -1.1709 -0.2050 -0.7502
 7677SOL    HW234668   3.948   4.438   2.627  2.8885 -1.4948 -0.1247
 7678SOL     OW34669   3.041   1.795  13.988 -0.1367 -0.3282 -0.6042
 7678SOL    HW134670   3.092   1.750  14.055 -0.9402 -1.0638 -0.4836
 7678SOL    HW234671   3.080   1.882  13.980 -1.6070  0.3871  0.0140
 7679SOL     OW34672   2.702   0.943   1.184 -0.2862 -0.3358  0.2746
 7679SOL    HW134673   2.779   0.936   1.241 -0.1449 -0.4650  0.0683
 7679SOL    HW234674   2.687   0.851   1.160  0.2887 -0.5851  0.8607
 7680SOL     OW34675   3.417   4.187   7.693  1.2097  0.2712  0.1097
 7680SOL    HW134676   3.509   4.162   7.703  1.2066  0.1193 -0.2591
 7680SOL    HW234677   3.394   4.189   7.601  0.8284 -0.2201  0.1974
 7681SOL     OW34678   1.678   0.358   9.684 -0.3827  0.2183 -0.0021
 7681SOL    HW134679   1.613   0.290   9.667  0.1953 -0.5721  0.9630
 7681SOL    HW234680   1.661   0.420   9.613 -2.5422 -2.0773 -1.4799
 7682SOL     OW34681   0.792   0.596   0.260 -0.4812 -0.6997 -0.0553
 7682SOL    HW134682   0.868   0.596   0.317 -2.0403  0.9482  2.0159
 7682SOL    HW234683   0.817   0.669   0.203 -1.2668  0.5911  1.2417
 7683SOL     OW34684   3.136   0.456   6.533  0.0713  0.0548 -0.0727
 7683SOL    HW134685   3.123   0.449   6.439  3.5598 -1.7311 -0.4377
 7683SOL    HW234686   3.230   0.473   6.541  0.2813 -0.8510 -0.6564
 7684SOL     OW34687   1.222   4.658   7.015  0.0657 -0.4108 -0.3057
 7684SOL    HW134688   1.162   4.606   7.069  0.3620 -0.9758 -0.5160
 7684SOL    HW234689   1.244   4.614   6.933 -1.4586 -2.3998  0.3535
 7685SOL     OW34690   1.761   1.457   2.568  0.2474  0.2212  0.0858
 7685SOL    HW134691   1.818   1.528   2.540 -0.5328  0.9507  0.3491
 7685SOL    HW234692   1.746   1.417   2.482 -0.5436 -0.1946  0.4128
 7686SOL     OW34693   3.800   1.760  11.036 -0.5125 -0.0909  0.1621
 7686SOL    HW134694   3.873   1.780  11.095 -0.4798 -0.9445  0.4060
 7686SOL    HW234695   3.823   1.804  10.954 -2.3822  0.5542 -0.0290
 7687SOL     OW34696   0.017   4.259   4.483  0.4299  0.1165  0.1143
 7687SOL    HW134697   0.022   4.204   4.561  1.0070 -0.6795 -0.4845
 7687SOL    HW234698   4.665   4.236   4.450 -0.8634  0.9198  2.9956
 7688SOL     OW34699   1.215   0.821  10.108 -0.0595  0.5176  0.1635
 7688SOL    HW134700   1.209   0.861  10.021 -0.6889  1.7772  0.7906
 7688SOL    HW234701   1.306   0.846  10.124 -0.3326  2.2801 -1.0312
 7689SOL     OW34702   4.402   0.796   6.734  0.5817  0.0989 -0.0738
 7689SOL    HW134703   4.344   0.815   6.660 -0.8437 -4.5761 -0.1354
 7689SOL    HW234704   4.402   0.882   6.775  2.3652  0.3857 -0.6520
 7690SOL     OW34705   2.491   0.036   6.682 -0.4586  0.0010 -0.0834
 7690SOL    HW134706   2.490   4.675   6.686 -3.7162  0.0934  0.7950
 7690SOL    HW234707   2.441   0.061   6.604 -0.7758  2.1901  0.8413
 7691SOL     OW34708   0.042   0.392   5.413  0.1949 -0.1752  0.1021
 7691SOL    HW134709   0.078   0.418   5.328 -0.5946  1.9066  0.4056
 7691SOL    HW234710   4.724   0.470   5.428  1.9111  0.9559  0.2896
 7692SOL     OW34711   2.139   4.101   9.414 -0.2052 -0.3197 -0.1760
 7692SOL    HW134712   2.169   4.185   9.449 -0.1606 -0.3489 -0.1429
 7692SOL    HW234713   2.108   4.061   9.495  1.6391  0.7853  1.0964
 7693SOL     OW34714   2.513   1.575   5.078  0.0585  0.1709 -0.0657
 7693SOL    HW134715   2.566   1.637   5.128 -0.5618  0.2139  0.5314
 7693SOL    HW234716   2.439   1.597   5.135  0.8054 -0.6918  1.2330
 7694SOL     OW34717   3.204   2.537  10.025  0.1441 -0.0278  0.0756
 7694SOL    HW134718   3.139   2.477  10.062 -0.1771  0.9059  1.0142
 7694SOL    HW234719   3.286   2.488  10.032 -1.2008 -2.5628 -1.6148
 7695SOL     OW34720   4.015   1.272   2.321  0.0900 -0.2465  0.6566
 7695SOL    HW134721   3.990   1.206   2.257 -0.6257 -1.8657  2.5723
 7695SOL    HW234722   3.947   1.339   2.327 -0.6417 -0.9297  0.0480
 7696SOL     OW34723   2.171   0.651  12.436 -0.0310 -0.3697 -0.2453
 7696SOL    HW134724   2.169   0.586  12.366 -2.1683  0.8230 -1.3202
 7696SOL    HW234725   2.242   0.608  12.483  0.9156  1.7766  0.3069
 7697SOL     OW34726   0.317   4.391   1.982 -0.1276  0.4445 -0.0921
 7697SOL    HW134727   0.335   4.367   2.073 -2.5446 -0.3645  0.1475
 7697SOL    HW234728   0.338   4.317   1.925  1.2110 -0.0862  1.0763
 7698SOL     OW34729   1.247   0.306  12.059  0.0222  0.4407  0.1463
 7698SOL    HW134730   1.313   0.326  11.992 -0.0235  0.9596  0.2519
 7698SOL    HW234731   1.168   0.320  12.006  0.4535  0.5264 -0.4773
 7699SOL     OW34732   4.636   4.622   6.995  0.0628 -0.1048  0.2599
 7699SOL    HW134733   4.635   4.674   6.914 -1.2880 -1.0660 -0.3489
 7699SOL    HW234734   4.728   4.598   7.008 -0.1730 -1.2617 -0.2084
 7700SOL     OW34735   3.894   0.270   8.834  0.0796 -0.7398 -0.3050
 7700SOL    HW134736   3.946   0.203   8.880  0.4686 -0.9774 -1.0941
 7700SOL    HW234737   3.893   0.336   8.903 -0.1699 -0.5921 -0.4497
 7701SOL     OW34738   1.721   4.349  10.627 -1.1422 -0.5235 -0.4385
 7701SOL    HW134739   1.644   4.403  10.607 -1.0161  0.7135  2.4939
 7701SOL    HW234740   1.695   4.260  10.605 -0.7619 -1.1632  1.7302
 7702SOL     OW34741   1.161   4.395  11.744  0.4283  0.3648  0.2680
 7702SOL    HW134742   1.093   4.413  11.809  0.5250  0.4520  0.3438
 7702SOL    HW234743   1.155   4.299  11.746 -2.8461  0.4927 -1.7255
 7703SOL     OW34744   3.088   2.730   5.571  0.3986 -0.3329  0.3135
 7703SOL    HW134745   3.043   2.733   5.486  1.2183 -1.4079 -0.1465
 7703SOL    HW234746   3.095   2.824   5.589 -0.0223 -0.0560 -0.9575
 7704SOL     OW34747   3.963   2.009   3.217  0.7677 -0.0365  0.0843
 7704SOL    HW134748   4.035   2.024   3.156  0.8850 -0.1515  0.1932
 7704SOL    HW234749   3.953   2.099   3.248 -0.7075  0.4373 -1.7836
 7705SOL     OW34750   0.399   4.429   6.909  0.4189  0.1697 -0.2358
 7705SOL    HW134751   0.461   4.371   6.954 -0.5531 -1.7690 -1.3770
 7705SOL    HW234752   0.359   4.374   6.842  0.1878  1.6416 -1.2838
 7706SOL     OW34753   0.914   1.494   9.262 -0.5092  0.2089 -0.5100
 7706SOL    HW134754   0.855   1.570   9.259  2.1684  2.3088 -0.2116
 7706SOL    HW234755   0.971   1.519   9.335 -0.3246 -3.6979  0.6434
 7707SOL     OW34756   3.678   3.633   6.823  0.2047  0.3622 -0.7257
 7707SOL    HW134757   3.767   3.631   6.859  0.7819  2.2905 -2.0383
 7707SOL    HW234758   3.689   3.542   6.796  2.0801  0.2275  0.4412
 7708SOL     OW34759   1.010   2.959   6.708  0.2326 -0.0594 -0.1505
 7708SOL    HW134760   0.929   2.930   6.667  1.0713 -1.0126 -1.1169
 7708SOL    HW234761   0.984   3.006   6.787 -0.6126 -0.5597 -0.1378
 7709SOL     OW34762   1.763   4.630   6.706 -0.7207 -0.0791  0.1892
 7709SOL    HW134763   1.763   4.565   6.777  1.0297 -1.4927 -1.1026
 7709SOL    HW234764   1.678   4.673   6.714 -1.1492 -1.3079  2.1571
 7710SOL     OW34765   3.923   1.414  10.229 -0.3526 -0.2229  0.1508
 7710SOL    HW134766   3.854   1.348  10.218 -0.1406 -0.4093 -0.0572
 7710SOL    HW234767   3.868   1.492  10.217  1.6177  1.3166  1.1914
 7711SOL     OW34768   2.193   0.504  11.145 -0.1265 -0.7538  0.7250
 7711SOL    HW134769   2.262   0.454  11.190  1.2994  0.2364 -0.3402
 7711SOL    HW234770   2.164   0.452  11.070  1.5587 -1.2031  0.3674
 7712SOL     OW34771   0.065   3.664   5.926  0.2002 -0.2327  0.2078
 7712SOL    HW134772   4.729   3.674   5.863 -1.2913  2.6933  2.3870
 7712SOL    HW234773   0.009   3.644   6.002  0.6385  2.8506  1.3225
 7713SOL     OW34774   4.060   1.491  10.889 -0.0838  0.1097 -0.7664
 7713SOL    HW134775   4.073   1.585  10.887  1.0388 -0.0111  0.8990
 7713SOL    HW234776   3.966   1.474  10.882 -0.0618 -0.0531 -0.6702
 7714SOL     OW34777   0.694   3.883   7.278 -0.5351  0.2334  0.1710
 7714SOL    HW134778   0.753   3.936   7.332  1.4389 -0.5961 -1.1906
 7714SOL    HW234779   0.725   3.905   7.190 -0.9356  0.5433  0.1061
 7715SOL     OW34780   2.807   0.574   3.796 -0.6900  0.3285  0.1957
 7715SOL    HW134781   2.763   0.489   3.808 -0.7439  0.7139  2.8205
 7715SOL    HW234782   2.883   0.547   3.744  0.5186  1.7641  1.2122
 7716SOL     OW34783   3.574   1.565   8.408  0.5459 -0.3179  0.2627
 7716SOL    HW134784   3.644   1.624   8.381  2.2953 -1.4094  2.4563
 7716SOL    HW234785   3.603   1.565   8.499  1.0251  1.1022  0.1131
 7717SOL     OW34786   0.577   1.776   0.756 -0.2047  0.1479  0.0630
 7717SOL    HW134787   0.569   1.851   0.815  1.3945 -0.1971  0.7228
 7717SOL    HW234788   0.611   1.700   0.805 -1.9818 -0.5040  0.2969
 7718SOL     OW34789   3.953   3.654   1.409 -0.8321  0.6147  0.3620
 7718SOL    HW134790   4.040   3.636   1.444  0.2500  3.0804 -1.0984
 7718SOL    HW234791   3.972   3.685   1.321  0.3199 -2.1055 -0.3352
 7719SOL     OW34792   1.878   1.807   9.967  0.0383 -0.7004  0.0461
 7719SOL    HW134793   1.968   1.826   9.940  0.6143 -0.4860  2.1473
 7719SOL    HW234794   1.893   1.793  10.060 -2.5818  0.4451  0.6638
 7720SOL     OW34795   4.289   0.974  12.899 -0.1593 -0.0129  0.2454
 7720SOL    HW134796   4.221   0.917  12.863  0.3957 -1.2255  1.1389
 7720SOL    HW234797   4.308   0.927  12.980 -1.0726  0.5483  0.7825
 7721SOL     OW34798   3.931   2.394  12.372  0.2147 -0.2279 -0.4343
 7721SOL    HW134799   3.951   2.377  12.464  0.1592  0.2888 -0.3281
 7721SOL    HW234800   3.837   2.375  12.374  0.1216  0.0196 -2.0570
 7722SOL     OW34801   3.958   3.138  11.026  0.4623 -0.1643  0.4671
 7722SOL    HW134802   3.966   3.098  10.939  2.6247 -0.4306  0.7829
 7722SOL    HW234803   3.948   3.062  11.082 -0.3194 -0.0483  0.4817
 7723SOL     OW34804   3.603   2.143   3.728 -0.0667  0.2910 -0.5489
 7723SOL    HW134805   3.655   2.177   3.801 -0.3817 -1.4095  0.4846
 7723SOL    HW234806   3.555   2.080   3.782 -0.0590  0.5406 -0.2471
 7724SOL     OW34807   3.291   1.819   4.058 -0.2568 -0.4162  0.1821
 7724SOL    HW134808   3.273   1.894   4.114 -0.9974 -0.1719 -0.3829
 7724SOL    HW234809   3.362   1.778   4.108 -0.9222 -0.7103  0.8769
 7725SOL     OW34810   4.735   0.034   3.237  0.9034 -0.3930  0.1591
 7725SOL    HW134811   0.070   4.727   3.286 -0.2549  0.4785  2.5942
 7725SOL    HW234812   4.692   0.083   3.307 -2.3518 -1.3126 -1.2152
 7726SOL     OW34813   0.412   1.362  11.197 -0.2384 -0.1372  0.3249
 7726SOL    HW134814   0.336   1.356  11.255  0.7056 -2.2054  1.3454
 7726SOL    HW234815   0.463   1.292  11.238  0.9813 -0.0921 -1.1062
 7727SOL     OW34816   0.197   4.137   1.404  0.2171 -0.0155 -0.1009
 7727SOL    HW134817   0.160   4.208   1.351  0.0024  0.1773  0.3154
 7727SOL    HW234818   0.269   4.181   1.449  0.9797 -1.7170  0.3367
 7728SOL     OW34819   0.333   2.822   4.510 -0.5310 -0.0102  0.5972
 7728SOL    HW134820   0.427   2.807   4.524  0.1092  3.2498 -0.0953
 7728SOL    HW234821   0.347   2.900   4.456 -0.6496 -0.6641 -0.3755
 7729SOL     OW34822   4.674   3.238  13.541 -0.0451 -0.1567 -0.0182
 7729SOL    HW134823   0.012   3.180  13.518  0.7613  1.1148 -0.6774
 7729SOL    HW234824   4.720   3.316  13.510 -0.6018  0.0271 -0.3937
 7730SOL     OW34825   1.390   2.747  14.085 -0.1732 -0.0660 -0.4846
 7730SOL    HW134826   1.305   2.740  14.127  0.8289  0.2780  1.6071
 7730SOL    HW234827   1.371   2.814  14.019 -3.1373 -0.3629  0.0688
 7731SOL     OW34828   3.291   3.982   6.942  0.2164  0.4440  0.5692
 7731SOL    HW134829   3.311   4.056   6.885  0.7829 -0.3934 -0.3352
 7731SOL    HW234830   3.255   4.033   7.014 -0.4636  1.3426 -0.4179
 7732SOL     OW34831   2.274   1.507   3.042 -0.4746  0.1302  0.0748
 7732SOL    HW134832   2.204   1.539   2.984 -1.6829  0.1874  1.5661
 7732SOL    HW234833   2.351   1.545   3.001  0.8657 -1.1976  1.4037
 7733SOL     OW34834   0.749   1.587   0.933  0.2994 -0.2333 -0.0383
 7733SOL    HW134835   0.805   1.551   1.001 -0.0518 -0.7207 -0.0074
 7733SOL    HW234836   0.724   1.506   0.888 -0.4558 -0.7041  1.2421
 7734SOL     OW34837   2.809   1.042   4.145  0.3631 -0.5900  0.4551
 7734SOL    HW134838   2.850   0.983   4.082  0.4591 -0.9262  0.8366
 7734SOL    HW234839   2.731   0.995   4.174 -2.3892  3.6330 -0.0583
 7735SOL     OW34840   4.364   0.621  12.737  0.3869 -0.0518  0.1119
 7735SOL    HW134841   4.440   0.569  12.762  0.0940 -0.3762  0.3229
 7735SOL    HW234842   4.319   0.562  12.676  1.9096 -1.8964  0.7719
 7736SOL     OW34843   3.646   1.079   3.573  0.6251 -0.1923 -0.1124
 7736SOL    HW134844   3.629   1.142   3.643 -0.4051  0.3303 -0.8387
 7736SOL    HW234845   3.675   0.998   3.615  1.7226 -0.0715 -0.6364
 7737SOL     OW34846   2.364   0.977   1.880  0.0582 -0.6814 -0.0485
 7737SOL    HW134847   2.452   0.940   1.871 -0.1192 -0.8218 -1.1938
 7737SOL    HW234848   2.337   0.975   1.788 -1.1397  2.2440  0.2504
 7738SOL     OW34849   1.052   0.224   2.692 -0.5054  0.1783 -0.4522
 7738SOL    HW134850   1.037   0.178   2.774  0.0686 -0.6555 -0.8152
 7738SOL    HW234851   0.966   0.204   2.654 -1.1464  1.9707  0.0286
 7739SOL     OW34852   3.390   0.609   6.079  0.7243 -0.1639 -0.2916
 7739SOL    HW134853   3.316   0.670   6.081  1.7518  1.0331  1.1919
 7739SOL    HW234854   3.342   0.528   6.066 -0.8769  0.8841 -0.8239
 7740SOL     OW34855   4.057   2.091   4.470 -0.2011 -0.3648  0.1346
 7740SOL    HW134856   4.008   2.172   4.484  1.6173  0.2935  2.6957
 7740SOL    HW234857   4.144   2.125   4.491 -1.4665  3.4531 -0.8426
 7741SOL     OW34858   0.669   1.936   0.558 -0.2667 -0.1885 -0.0350
 7741SOL    HW134859   0.602   2.001   0.579 -0.3981 -0.5125  0.5219
 7741SOL    HW234860   0.647   1.863   0.615  0.1161 -0.4098 -0.1666
 7742SOL     OW34861   4.368   0.718  12.422 -0.4096  0.8130 -0.1212
 7742SOL    HW134862   4.320   0.713  12.339  1.0985 -1.4199 -0.8566
 7742SOL    HW234863   4.305   0.683  12.485  1.6022 -0.9545  0.9414
 7743SOL     OW34864   4.547   3.851   8.210  0.0897 -0.6313 -0.3879
 7743SOL    HW134865   4.515   3.788   8.274  1.0577 -1.6303 -0.8948
 7743SOL    HW234866   4.511   3.835   8.123  0.8199  0.6593 -0.9363
 7744SOL     OW34867   3.362   4.380   8.892 -0.1357  0.3026 -0.0328
 7744SOL    HW134868   3.448   4.342   8.909  0.0962  1.1376  0.7010
 7744SOL    HW234869   3.311   4.306   8.860 -1.0358  1.2953 -0.9058
 7745SOL     OW34870   1.777   2.829  14.511 -0.1253 -0.5575  0.2864
 7745SOL    HW134871   1.791   2.760  14.446  2.8932  0.9808 -0.7047
 7745SOL    HW234872   1.800   2.908  14.462 -1.8615 -1.7789 -2.4982
 7746SOL     OW34873   4.630   1.359   7.785 -1.3937  0.3794  0.8348
 7746SOL    HW134874   4.713   1.348   7.831 -0.0684  0.1092 -1.6210
 7746SOL    HW234875   4.591   1.276   7.814  2.1557 -1.0402  1.6311
 7747SOL     OW34876   2.187   3.318   6.614 -0.3475 -0.3994 -0.3240
 7747SOL    HW134877   2.157   3.328   6.704  1.4077 -0.0463  0.2227
 7747SOL    HW234878   2.220   3.229   6.627 -1.2997 -0.5649  1.0057
 7748SOL     OW34879   4.543   4.181   5.686 -0.2411  0.2628  0.0291
 7748SOL    HW134880   4.634   4.208   5.673 -0.5823  2.1116  1.4849
 7748SOL    HW234881   4.551   4.087   5.672 -0.3948 -0.0798  2.3476
 7749SOL     OW34882   4.129   2.123  12.686  0.4859 -0.3175 -0.3947
 7749SOL    HW134883   4.187   2.047  12.685 -0.3141 -0.9329 -0.2356
 7749SOL    HW234884   4.100   2.123  12.777 -0.1000  1.1449 -0.5802
 7750SOL     OW34885   3.816   2.634   2.613  0.3473  0.4105  0.1671
 7750SOL    HW134886   3.880   2.674   2.554  0.4680  1.6102  1.1209
 7750SOL    HW234887   3.812   2.546   2.576 -1.3152  1.2375 -1.6491
 7751SOL     OW34888   1.158   0.654   8.156  0.7099 -0.4904  0.4448
 7751SOL    HW134889   1.119   0.649   8.244 -0.4663 -1.0908 -0.1159
 7751SOL    HW234890   1.127   0.572   8.119 -1.7737  0.9059 -0.6005
 7752SOL     OW34891   3.564   0.027  17.657  0.6250 -0.1498  0.4581
 7752SOL    HW134892   3.548   0.029   0.012 -1.2238  1.7214  0.1042
 7752SOL    HW234893   3.613   0.109  17.648 -2.1855  1.5578  0.7856
 7753SOL     OW34894   3.964   3.562   9.243  0.1738  0.2299 -0.1374
 7753SOL    HW134895   3.909   3.512   9.182 -0.3757 -0.2770  0.7768
 7753SOL    HW234896   3.934   3.652   9.232  1.8217  1.0613  2.1147
 7754SOL     OW34897   0.785   3.489   6.618  0.2913 -0.0444 -0.2383
 7754SOL    HW134898   0.856   3.539   6.577 -0.1583 -1.2239 -2.4773
 7754SOL    HW234899   0.840   3.432   6.671 -1.1677 -1.7479 -0.5697
 7755SOL     OW34900   2.683   3.313  14.756  0.4398 -0.2755 -0.1590
 7755SOL    HW134901   2.686   3.309  14.851  0.4006  0.8971 -0.1069
 7755SOL    HW234902   2.762   3.261  14.741  0.4359  0.2274 -1.9573
 7756SOL     OW34903   2.173   1.719  12.927  0.0766 -0.4959 -0.1381
 7756SOL    HW134904   2.184   1.738  13.020 -1.5393 -1.3299  0.2291
 7756SOL    HW234905   2.121   1.639  12.930 -0.9359  0.2679  2.7491
 7757SOL     OW34906   3.959   4.581   1.830  0.3108 -0.0736  0.1469
 7757SOL    HW134907   3.946   4.560   1.922  0.3592 -3.2616 -0.5823
 7757SOL    HW234908   3.999   4.669   1.827 -2.2874  1.1103  0.1164
 7758SOL     OW34909   3.062   2.174   6.844 -0.2098  0.2584  0.1451
 7758SOL    HW134910   3.123   2.107   6.813 -0.6741  0.5654 -1.4582
 7758SOL    HW234911   3.054   2.226   6.764 -0.7549 -0.3851 -0.2281
 7759SOL     OW34912   4.253   4.220   5.122 -0.0120 -0.0366  0.0869
 7759SOL    HW134913   4.341   4.182   5.127  0.5699  1.4883  1.7454
 7759SOL    HW234914   4.192   4.147   5.129 -0.9188  0.8038  0.9131
 7760SOL     OW34915   4.055   2.735  10.967  0.1614  0.4163  0.3205
 7760SOL    HW134916   4.016   2.752  10.881  0.1270 -1.1938  0.0098
 7760SOL    HW234917   4.130   2.683  10.938 -1.3690 -2.1146  0.8960
 7761SOL     OW34918   4.412   1.465   7.374 -0.0914  0.2836 -0.2689
 7761SOL    HW134919   4.353   1.507   7.437  0.2899  1.0126 -0.3884
 7761SOL    HW234920   4.480   1.431   7.432 -1.6255  1.0251  1.9733
 7762SOL     OW34921   0.435   0.089   2.159  0.2564 -0.3671 -0.1927
 7762SOL    HW134922   0.386   0.171   2.167 -2.4337 -2.0170 -0.1168
 7762SOL    HW234923   0.479   0.103   2.075  1.0536 -2.1269 -0.0716
 7763SOL     OW34924   3.219   4.173   8.814 -0.5643  0.2581  0.6195
 7763SOL    HW134925   3.194   4.131   8.896  1.7424  1.2045  1.8213
 7763SOL    HW234926   3.253   4.094   8.772  0.8327  0.7942  0.7376
 7764SOL     OW34927   4.040   1.998   7.224  0.7182 -0.8721 -0.1762
 7764SOL    HW134928   4.068   1.917   7.267 -1.4753 -0.6865  1.6080
 7764SOL    HW234929   4.083   1.991   7.139  2.3561  0.0422  0.5562
 7765SOL     OW34930   0.980   3.605   7.595  0.4711  0.4281 -0.2322
 7765SOL    HW134931   1.041   3.604   7.668 -0.0851  0.7757  0.2328
 7765SOL    HW234932   0.976   3.694   7.560  2.3476  0.1733 -1.0962
 7766SOL     OW34933   2.866   1.657   7.035  0.2990  0.2074 -0.4940
 7766SOL    HW134934   2.777   1.690   7.026 -0.1355 -1.3049 -1.9414
 7766SOL    HW234935   2.854   1.569   6.999  0.0909  1.0084 -2.4030
 7767SOL     OW34936   3.603   1.102   4.369 -0.2014 -0.2067 -0.0124
 7767SOL    HW134937   3.593   1.019   4.416  0.3849 -0.6994 -0.7621
 7767SOL    HW234938   3.523   1.106   4.318 -1.3136 -1.4314  1.6387
 7768SOL     OW34939   3.480   0.949   3.881  0.4733  0.2022 -0.3005
 7768SOL    HW134940   3.486   1.044   3.873 -0.3476  0.0628 -2.5271
 7768SOL    HW234941   3.489   0.908   3.795 -0.5589  0.1823 -0.4016
 7769SOL     OW34942   3.599   2.261   0.706  0.1466  0.4869  0.1572
 7769SOL    HW134943   3.597   2.194   0.637 -0.0421  2.5340 -1.8088
 7769SOL    HW234944   3.691   2.289   0.702 -0.0395  0.7295 -2.9184
 7770SOL     OW34945   2.940   3.856   3.445  0.4800  0.0995 -0.2926
 7770SOL    HW134946   3.011   3.920   3.453  1.4311 -0.7937 -1.4002
 7770SOL    HW234947   3.002   3.785   3.464 -0.7718 -0.5948  1.1551
 7771SOL     OW34948   3.052   3.553   8.412  0.1421 -0.1763  0.3473
 7771SOL    HW134949   2.965   3.524   8.388  0.8253 -0.1657 -2.0911
 7771SOL    HW234950   3.074   3.619   8.346  1.4517  0.9313  1.8541
 7772SOL     OW34951   0.308   1.938   6.879 -0.7776 -0.2369  0.0963
 7772SOL    HW134952   0.224   1.919   6.922 -1.4563  0.5426 -0.9030
 7772SOL    HW234953   0.287   1.910   6.790 -2.2955 -0.6271  0.5891
 7773SOL     OW34954   3.542   0.147  13.342  0.2040  0.3123  0.4849
 7773SOL    HW134955   3.623   0.101  13.364  1.7156  1.7987 -1.9830
 7773SOL    HW234956   3.525   0.127  13.250 -1.6975  0.0272  0.9200
 7774SOL     OW34957   1.713   2.906   7.843  0.2392 -0.0865  0.5392
 7774SOL    HW134958   1.667   2.824   7.862  1.1179 -0.5051  0.8590
 7774SOL    HW234959   1.691   2.924   7.751  1.3146 -2.9481 -0.2916
 7775SOL     OW34960   1.566   0.339   6.098  0.4501 -0.1354 -0.1695
 7775SOL    HW134961   1.492   0.278   6.092 -1.1124  1.8191 -0.4009
 7775SOL    HW234962   1.537   0.403   6.163  2.4638 -0.0760  0.6797
 7776SOL     OW34963   3.033   2.201   4.879  0.3434  0.0173  0.1213
 7776SOL    HW134964   2.952   2.211   4.829  0.3742 -2.0756 -0.3405
 7776SOL    HW234965   3.021   2.287   4.920 -0.0121 -0.3208  0.7343
 7777SOL     OW34966   1.436   3.140  12.874  0.1444 -0.2463 -0.5657
 7777SOL    HW134967   1.514   3.116  12.824  2.1916  0.5969  2.2258
 7777SOL    HW234968   1.392   3.201  12.814  2.1388  1.0841 -0.6890
 7778SOL     OW34969   1.161   3.732   1.330 -0.3837 -0.3534 -0.3289
 7778SOL    HW134970   1.094   3.703   1.392 -2.8695  2.0516 -1.9215
 7778SOL    HW234971   1.148   3.666   1.263 -2.2768 -1.1216  0.7934
 7779SOL     OW34972   2.801   2.015   2.745  0.3874 -0.0615  0.5052
 7779SOL    HW134973   2.792   1.964   2.826 -0.0878 -1.4371 -0.4114
 7779SOL    HW234974   2.881   1.987   2.702  0.3810 -0.9947  1.1076
 7780SOL     OW34975   0.482   1.037   4.974  0.1623  0.5069 -0.1722
 7780SOL    HW134976   0.564   1.082   4.995 -0.3715  1.5620 -0.3640
 7780SOL    HW234977   0.457   1.091   4.899 -0.6884  0.6198  0.2014
 7781SOL     OW34978   1.032   1.641   8.000 -0.0143  0.8447 -0.0371
 7781SOL    HW134979   0.998   1.700   8.067 -2.1413  1.0443 -1.2701
 7781SOL    HW234980   1.008   1.551   8.021 -2.0955  0.6543 -3.1841
 7782SOL     OW34981   2.666   3.189  16.749  0.2451  0.6336  0.7783
 7782SOL    HW134982   2.574   3.187  16.721 -0.0710  3.5219  1.5832
 7782SOL    HW234983   2.692   3.104  16.714  3.4813  2.2708 -0.7813
 7783SOL     OW34984   1.394   1.271   9.866  0.2664  0.1780 -0.7886
 7783SOL    HW134985   1.342   1.310   9.936  2.3968  0.9657  0.3520
 7783SOL    HW234986   1.394   1.178   9.891  4.5802  0.4123  0.0298
 7784SOL     OW34987   1.266   4.512   7.931 -0.3422  0.1366 -0.4620
 7784SOL    HW134988   1.237   4.603   7.938  0.3567  0.3953 -0.8675
 7784SOL    HW234989   1.357   4.529   7.904  0.3346 -0.8667  1.1632
 7785SOL     OW34990   4.251   2.200  10.922  0.0204  0.2339 -0.0973
 7785SOL    HW134991   4.200   2.210  11.002 -0.9984  2.2947 -0.9988
 7785SOL    HW234992   4.335   2.239  10.948  0.1635  0.4456 -0.8750
 7786SOL     OW34993   4.044   4.159   9.394 -0.5167 -0.2676  1.1876
 7786SOL    HW134994   4.073   4.105   9.468  0.4783  0.2302  1.1647
 7786SOL    HW234995   3.968   4.209   9.424 -0.8396  0.1507 -0.3630
 7787SOL     OW34996   4.066   2.523   7.949  0.1089 -0.3486 -0.0144
 7787SOL    HW134997   4.126   2.580   7.901 -1.0980  1.8187  1.0784
 7787SOL    HW234998   3.995   2.586   7.960 -0.3212 -0.7449 -0.5392
 7788SOL     OW34999   1.849   1.886  14.393  0.1335  0.5790 -0.3072
 7788SOL    HW135000   1.909   1.855  14.325 -1.1681  1.8322 -2.0024
 7788SOL    HW235001   1.779   1.924  14.341 -1.1374 -0.5762  0.5549
 7789SOL     OW35002   4.046   3.971   7.710  0.6356 -0.3801 -0.4977
 7789SOL    HW135003   4.134   3.947   7.680  0.7002 -1.0241  0.1947
 7789SOL    HW235004   4.055   4.066   7.703  0.5185 -0.4791 -1.9902
 7790SOL     OW35005   2.038   0.769   8.272 -0.4290  0.6009 -0.1097
 7790SOL    HW135006   2.034   0.703   8.341  0.5397 -0.1906 -0.8148
 7790SOL    HW235007   2.132   0.762   8.253 -0.7046 -0.2790 -1.1226
 7791SOL     OW35008   1.251   0.099   8.842  0.0906  0.7994  0.1664
 7791SOL    HW135009   1.273   0.007   8.830 -0.4268  0.9314 -1.9231
 7791SOL    HW235010   1.157   0.110   8.827 -0.0197 -0.8027 -0.3113
 7792SOL     OW35011   1.184   2.506   7.556 -0.2593  0.5476 -0.1680
 7792SOL    HW135012   1.178   2.600   7.540  0.9378  0.5885 -0.3366
 7792SOL    HW235013   1.138   2.500   7.639 -0.8341 -1.3878 -0.6082
 7793SOL     OW35014   3.651   2.638   9.386  0.0435 -0.4819  0.2953
 7793SOL    HW135015   3.667   2.721   9.340  1.8111 -0.9065  0.1512
 7793SOL    HW235016   3.690   2.659   9.471 -0.5502  0.2812  0.3837
 7794SOL     OW35017   4.143   1.020   6.659 -0.1044  0.1837 -0.2054
 7794SOL    HW135018   4.058   0.979   6.643 -0.4457  0.8521 -0.0961
 7794SOL    HW235019   4.164   0.992   6.748 -0.7488  0.7528  0.1186
 7795SOL     OW35020   2.075   4.348   6.677 -0.3299 -0.1102  0.3052
 7795SOL    HW135021   1.986   4.312   6.679  0.3252 -1.8029 -1.0461
 7795SOL    HW235022   2.133   4.275   6.657  1.0577  0.6684  1.5399
 7796SOL     OW35023   1.703   1.571   5.079  0.0058 -0.2702 -0.2520
 7796SOL    HW135024   1.791   1.556   5.044  0.1061 -0.5518  0.1191
 7796SOL    HW235025   1.661   1.618   5.007 -1.0000 -0.0531  0.4762
 7797SOL     OW35026   3.926   1.262  15.759  0.1300  0.0451 -0.1153
 7797SOL    HW135027   4.005   1.252  15.812 -0.7261 -0.5196  1.0402
 7797SOL    HW235028   3.857   1.265  15.825 -0.6135  1.7157 -0.9460
 7798SOL     OW35029   1.611   1.735   0.651 -0.0217  0.1209  0.0416
 7798SOL    HW135030   1.598   1.811   0.708  1.4076 -0.3624  0.9934
 7798SOL    HW235031   1.524   1.699   0.668  0.0163 -0.1907 -0.4084
 7799SOL     OW35032   2.094   1.473   3.738  0.6154  0.0989 -0.5645
 7799SOL    HW135033   2.072   1.476   3.645 -1.4046 -1.2754 -0.1361
 7799SOL    HW235034   2.110   1.565   3.759  1.0356  0.3438 -1.9860
 7800SOL     OW35035   2.636   0.489   7.013  0.1567 -0.1443  0.4379
 7800SOL    HW135036   2.585   0.495   7.094  0.0049 -1.9728  0.4669
 7800SOL    HW235037   2.625   0.394   7.010  1.4165 -0.2888  0.6012
 7801SOL     OW35038   3.764   1.332   2.825  0.0823  0.5691 -0.1512
 7801SOL    HW135039   3.799   1.380   2.750  0.2149 -0.1593 -0.5592
 7801SOL    HW235040   3.673   1.321   2.799  0.4045 -0.2172 -0.9492
 7802SOL     OW35041   1.784   3.284   1.917 -0.4438 -0.0887 -0.3086
 7802SOL    HW135042   1.841   3.208   1.909  0.1407  0.2203  1.0216
 7802SOL    HW235043   1.835   3.345   1.864 -1.7719  1.6127  0.3479
 7803SOL     OW35044   4.066   2.973   5.562 -0.1738  0.4680  0.1349
 7803SOL    HW135045   4.055   2.913   5.488 -0.3391  0.9768 -0.2494
 7803SOL    HW235046   4.136   3.035   5.541 -0.0767  0.3198  0.0223
 7804SOL     OW35047   4.154   2.424  10.720 -0.1138  0.6885 -0.2444
 7804SOL    HW135048   4.226   2.464  10.768  2.3032 -0.7487 -2.6801
 7804SOL    HW235049   4.080   2.446  10.777 -0.5900 -0.4298 -0.4233
 7805SOL     OW35050   2.764   2.246  12.021  0.5767 -0.6486 -0.0434
 7805SOL    HW135051   2.692   2.305  11.996  0.2176 -0.2403  1.9017
 7805SOL    HW235052   2.798   2.228  11.933  0.2457  0.9302 -0.4964
 7806SOL     OW35053   0.258   2.452   4.811 -0.0919  0.0981  0.4157
 7806SOL    HW135054   0.260   2.478   4.719  5.0647  2.5552  1.2624
 7806SOL    HW235055   0.261   2.357   4.809  2.3307  0.2277 -1.6511
 7807SOL     OW35056   0.790   2.432   1.219  0.2057 -0.2396  0.4405
 7807SOL    HW135057   0.741   2.481   1.153  0.9166 -1.4519 -1.0003
 7807SOL    HW235058   0.729   2.430   1.293  0.6440  1.3516  0.8348
 7808SOL     OW35059   4.042   4.212   3.220 -0.2826 -0.0518  0.6140
 7808SOL    HW135060   3.959   4.231   3.178  0.0145 -0.5553 -0.2002
 7808SOL    HW235061   4.090   4.173   3.147 -1.3641 -1.5526  0.7096
 7809SOL     OW35062   3.176   0.537   5.498 -0.1896  0.1833 -0.0963
 7809SOL    HW135063   3.253   0.566   5.449 -0.5663 -0.5364 -1.0987
 7809SOL    HW235064   3.124   0.511   5.422  1.9956 -2.2948 -0.7432
 7810SOL     OW35065   1.879   1.449   8.648  0.0976 -0.2156 -0.2995
 7810SOL    HW135066   1.831   1.403   8.717  1.6918 -0.4268  0.6787
 7810SOL    HW235067   1.925   1.510   8.706 -1.3290 -0.3710  0.9920
 7811SOL     OW35068   3.805   4.630  14.651 -0.2514 -0.1138  0.3953
 7811SOL    HW135069   3.811   4.719  14.684  0.4870 -0.7783  2.0800
 7811SOL    HW235070   3.874   4.588  14.703  0.3633  1.5445  0.9078
 7812SOL     OW35071   0.002   1.423   6.990 -0.3947 -0.2062 -0.0349
 7812SOL    HW135072   4.698   1.354   7.045 -1.2514  0.6932  0.4827
 7812SOL    HW235073   0.093   1.397   7.001 -0.9869 -2.4207 -0.3994
 7813SOL     OW35074   1.033   3.010   6.182  0.0965  0.0918  0.3126
 7813SOL    HW135075   1.023   3.104   6.196 -1.4605 -0.3171  1.9763
 7813SOL    HW235076   1.100   2.989   6.248 -0.6354 -0.9394  0.7272
 7814SOL     OW35077   0.226   2.186   8.774 -0.3566  0.1294 -0.1904
 7814SOL    HW135078   0.156   2.149   8.720  0.0887 -0.9704 -0.0141
 7814SOL    HW235079   0.183   2.265   8.807  0.3465 -0.1199  1.2745
 7815SOL     OW35080   0.546   0.734   4.254 -0.0065  0.3332  0.2495
 7815SOL    HW135081   0.476   0.794   4.278 -0.0919  0.7219 -0.9920
 7815SOL    HW235082   0.502   0.700   4.176 -1.0680  1.1876  0.4876
 7816SOL     OW35083   3.706   3.316   5.698  0.2368 -0.1419 -0.1955
 7816SOL    HW135084   3.798   3.296   5.714 -0.4702 -2.5056  0.9025
 7816SOL    HW235085   3.719   3.411   5.695 -0.4759 -0.0525 -0.4147
 7817SOL     OW35086   1.989   3.642   0.801  0.2304 -0.4320  0.5753
 7817SOL    HW135087   2.026   3.685   0.878  0.2308 -0.8682  0.8155
 7817SOL    HW235088   1.910   3.692   0.779  1.5976  1.1081 -0.7455
 7818SOL     OW35089   4.634   0.951   6.312 -0.9779  0.0878  0.0828
 7818SOL    HW135090   4.604   0.894   6.242 -0.8576 -0.6085  0.5960
 7818SOL    HW235091   4.597   1.036   6.289  0.0403  0.7421  0.8236
 7819SOL     OW35092   1.207   0.235  16.285  0.5743 -0.0325  0.5272
 7819SOL    HW135093   1.193   0.258  16.377  0.7295  1.5703  0.1642
 7819SOL    HW235094   1.217   0.140  16.291 -1.9613 -0.3356  0.0339
 7820SOL     OW35095   0.871   1.006   6.203 -1.0861 -0.0609 -0.0465
 7820SOL    HW135096   0.901   0.990   6.293 -2.1078  0.0178  0.3129
 7820SOL    HW235097   0.776   1.005   6.216 -1.0419  0.9051  0.2957
 7821SOL     OW35098   2.208   1.504   4.731  0.4002  0.5198 -0.4559
 7821SOL    HW135099   2.170   1.544   4.810 -1.1001  0.5925 -1.2043
 7821SOL    HW235100   2.230   1.577   4.672 -1.2894  2.0654  0.8057
 7822SOL     OW35101   1.021   2.942  12.633 -0.0191  0.4436  0.2192
 7822SOL    HW135102   1.106   2.901  12.650 -1.0430 -2.2045 -1.0091
 7822SOL    HW235103   0.986   2.942  12.722  1.4637 -1.7176  0.8133
 7823SOL     OW35104   2.261   2.011  12.938 -0.4871 -0.5555 -0.5845
 7823SOL    HW135105   2.167   2.026  12.930 -0.2222  1.4353 -0.1045
 7823SOL    HW235106   2.279   1.976  13.025  0.3604  2.4672  0.4680
 7824SOL     OW35107   1.558   2.911   6.699 -0.3846  0.3266 -0.0870
 7824SOL    HW135108   1.462   2.909   6.705 -0.1739 -1.1232  2.7487
 7824SOL    HW235109   1.572   2.839   6.638  0.3609  1.3175 -1.0858
 7825SOL     OW35110   4.682   1.053   7.495  0.0197 -0.1461  0.4030
 7825SOL    HW135111   0.003   1.081   7.423 -2.8020 -2.3539 -2.7465
 7825SOL    HW235112   4.626   0.996   7.441 -0.2419 -1.1645  1.7443
 7826SOL     OW35113   3.621   0.455   6.774  0.0589  0.4700  0.4644
 7826SOL    HW135114   3.594   0.488   6.860  0.0867 -0.5547  0.8601
 7826SOL    HW235115   3.580   0.525   6.722 -0.9133  0.5155  1.2831
 7827SOL     OW35116   2.059   0.740  11.213 -0.2578  0.1997 -0.0358
 7827SOL    HW135117   2.107   0.657  11.207  1.6153  1.3128 -0.5430
 7827SOL    HW235118   1.974   0.720  11.174 -0.4244 -0.1684  0.5303
 7828SOL     OW35119   4.270   1.085   1.724  0.2836  0.4317 -0.1508
 7828SOL    HW135120   4.227   1.014   1.772 -0.4092  1.0857  0.1907
 7828SOL    HW235121   4.296   1.044   1.642  0.8515  0.8103 -0.1613
 7829SOL     OW35122   1.040   1.405   5.386  0.6869 -0.2721  0.1816
 7829SOL    HW135123   0.977   1.365   5.445 -1.2381  2.4056 -0.0547
 7829SOL    HW235124   1.111   1.425   5.447 -0.0941 -1.4937  1.4750
 7830SOL     OW35125   3.123   3.856   1.396 -0.6493 -0.0066 -0.0039
 7830SOL    HW135126   3.170   3.786   1.441 -0.0953 -0.8322 -1.8700
 7830SOL    HW235127   3.166   3.937   1.427 -1.1983 -0.0031  0.7537
 7831SOL     OW35128   1.873   1.501   1.165  0.1454  0.1376  0.3576
 7831SOL    HW135129   1.873   1.539   1.077  1.2611  1.0405  0.7552
 7831SOL    HW235130   1.911   1.571   1.217 -1.7559  0.6708  1.0564
 7832SOL     OW35131   0.577   0.177  13.495 -0.1387 -0.8618 -0.4513
 7832SOL    HW135132   0.525   0.170  13.415 -0.3646 -2.3067 -0.1877
 7832SOL    HW235133   0.582   0.272  13.499  1.1084 -0.9450 -0.0894
 7833SOL     OW35134   1.538   1.693   2.683  0.0643  0.4621  0.0826
 7833SOL    HW135135   1.619   1.652   2.715 -1.4646 -1.5061  1.4146
 7833SOL    HW235136   1.473   1.661   2.746  0.4993 -0.7717 -0.0930
 7834SOL     OW35137   4.220   1.942  10.990  0.1725 -0.6229  0.0887
 7834SOL    HW135138   4.246   2.032  10.974 -3.9535  1.2502  3.9809
 7834SOL    HW235139   4.301   1.898  10.965  0.4480  1.0998 -2.0737
 7835SOL     OW35140   0.806   0.663   8.870 -0.3274 -0.0626 -0.5882
 7835SOL    HW135141   0.888   0.709   8.885  0.1129 -1.1032  0.1881
 7835SOL    HW235142   0.749   0.724   8.823 -0.2674 -0.2661 -0.9249
 7836SOL     OW35143   3.508   4.593  16.330 -0.2152  0.8720  0.0051
 7836SOL    HW135144   3.511   4.619  16.422  1.3165 -0.3182  0.2949
 7836SOL    HW235145   3.507   4.686  16.308 -3.0333  1.3294  2.1228
 7837SOL     OW35146   0.091   4.355  11.946  0.1469  0.6512  0.3774
 7837SOL    HW135147   0.116   4.447  11.935 -0.0418  0.8143  1.3636
 7837SOL    HW235148   0.086   4.330  11.854  1.7579  3.7432 -0.5901
 7838SOL     OW35149   4.430   0.334  11.976 -0.2757 -0.1694 -0.0297
 7838SOL    HW135150   4.427   0.278  11.899  1.3418  1.8851 -1.5910
 7838SOL    HW235151   4.524   0.327  11.992  0.0340  1.9938 -0.9045
 7839SOL     OW35152   1.245   2.546  10.358 -0.5464 -0.0717 -0.5002
 7839SOL    HW135153   1.235   2.500  10.441 -0.1699  0.6902 -0.0359
 7839SOL    HW235154   1.257   2.473  10.296  2.2210 -0.1966  0.1829
 7840SOL     OW35155   3.720   0.886   3.737  0.0975 -0.2680 -0.1363
 7840SOL    HW135156   3.788   0.831   3.699 -0.1836 -1.7711  1.5374
 7840SOL    HW235157   3.706   0.852   3.825 -0.4061 -0.6409 -0.3556
 7841SOL     OW35158   3.906   4.416   1.289 -0.1796  0.3123 -0.5310
 7841SOL    HW135159   3.816   4.440   1.267 -0.5165 -2.0417 -1.6815
 7841SOL    HW235160   3.911   4.462   1.373 -0.8495 -0.2767 -0.1576
 7842SOL     OW35161   4.214   3.103   2.005  0.1027  0.2770 -0.0211
 7842SOL    HW135162   4.224   3.197   2.015 -1.1492  0.4781 -0.6672
 7842SOL    HW235163   4.271   3.061   2.069 -0.4784 -0.3404  0.0961
 7843SOL     OW35164   3.264   2.930   3.655 -0.0806  0.0910 -0.1941
 7843SOL    HW135165   3.318   2.984   3.713  1.1428 -0.2986 -0.9747
 7843SOL    HW235166   3.323   2.858   3.633  1.3457  1.0901  0.3597
 7844SOL     OW35167   4.024   1.719   9.021  0.7200  0.3296  0.1413
 7844SOL    HW135168   4.009   1.814   9.021 -1.1213  0.0423 -1.0725
 7844SOL    HW235169   4.017   1.697   9.113  1.0604  0.3421  0.1685
 7845SOL     OW35170   2.838   1.628  17.172  0.0871  0.4022  0.3557
 7845SOL    HW135171   2.811   1.552  17.121 -1.5437  0.1574  1.5674
 7845SOL    HW235172   2.868   1.583  17.251 -0.6468  0.6690  0.7893
 7846SOL     OW35173   2.127   3.442   7.622 -0.0021  0.0526  0.2833
 7846SOL    HW135174   2.108   3.381   7.693  0.1642  0.0779  0.3489
 7846SOL    HW235175   2.158   3.381   7.555 -0.5533 -2.2750  2.1347
 7847SOL     OW35176   0.481   1.920  12.965 -0.2558  0.1064 -0.3828
 7847SOL    HW135177   0.543   1.985  12.932 -0.8860  0.9281  0.0451
 7847SOL    HW235178   0.399   1.969  12.964  0.2409  0.9869  1.4733
 7848SOL     OW35179   4.608   0.677  16.377  0.4587 -0.7265 -0.0332
 7848SOL    HW135180   4.669   0.703  16.446  2.0038 -1.2303 -1.2241
 7848SOL    HW235181   4.642   0.706  16.293 -0.8327  0.3122 -0.1952
 7849SOL     OW35182   2.153   2.291   2.788 -0.2356 -0.4235  0.5515
 7849SOL    HW135183   2.160   2.234   2.711 -1.2176  0.3384 -0.1100
 7849SOL    HW235184   2.216   2.250   2.847  1.0447  1.4268  0.4914
 7850SOL     OW35185   1.229   3.019   5.561  0.5328  0.8848 -0.1063
 7850SOL    HW135186   1.308   3.022   5.614 -0.6226 -0.5709  1.6852
 7850SOL    HW235187   1.185   2.938   5.587  0.4471  0.9749  0.0291
 7851SOL     OW35188   1.879   4.408   3.554 -0.2349  0.1957 -0.1014
 7851SOL    HW135189   1.836   4.325   3.533 -2.4261  0.9683  1.2901
 7851SOL    HW235190   1.899   4.453   3.472  0.0572 -0.1183 -0.2017
 7852SOL     OW35191   4.402   2.469   5.870 -0.3598  0.2327  0.5397
 7852SOL    HW135192   4.356   2.385   5.859  3.1251 -1.6473  0.2681
 7852SOL    HW235193   4.494   2.453   5.851 -0.8813 -2.2991  0.1069
 7853SOL     OW35194   0.793   2.624   3.911 -0.1333 -0.0027  0.1394
 7853SOL    HW135195   0.710   2.617   3.957 -0.6102  0.4471 -0.6631
 7853SOL    HW235196   0.854   2.662   3.975 -0.4517  0.3593  0.2273
 7854SOL     OW35197   1.096   1.729   2.547 -0.3076  0.1598  0.0195
 7854SOL    HW135198   1.045   1.740   2.627  0.5943  0.1176  0.5953
 7854SOL    HW235199   1.089   1.634   2.537  1.0743  0.0106  0.4638
 7855SOL     OW35200   2.229   2.243   3.128  0.4641  0.3010  0.1320
 7855SOL    HW135201   2.149   2.192   3.123  0.0703  0.9401 -0.0828
 7855SOL    HW235202   2.292   2.202   3.069 -0.9895 -1.4605 -0.1891
 7856SOL     OW35203   2.719   2.150   6.193  0.0240 -0.6596 -0.0921
 7856SOL    HW135204   2.646   2.177   6.139  0.5223  0.4473 -0.2091
 7856SOL    HW235205   2.791   2.161   6.132  0.6814 -0.3826  0.7328
 7857SOL     OW35206   3.522   1.319   7.732 -0.2032 -0.1900  0.1588
 7857SOL    HW135207   3.592   1.292   7.673 -0.1166  0.7215 -0.1407
 7857SOL    HW235208   3.571   1.364   7.801  0.9933 -0.8594 -0.2500
 7858SOL     OW35209   3.319   0.134   7.594  0.1356 -0.1703  0.7455
 7858SOL    HW135210   3.378   0.064   7.622  0.5334 -1.5172 -3.4100
 7858SOL    HW235211   3.322   0.128   7.498  0.2465  0.7559  0.6930
 7859SOL     OW35212   2.445   0.474   1.854 -0.0522 -0.4336  0.4395
 7859SOL    HW135213   2.499   0.464   1.932 -2.0547 -2.0473  1.6190
 7859SOL    HW235214   2.483   0.405   1.799 -1.6616  1.4255 -3.0145
 7860SOL     OW35215   2.918   1.493   2.711 -0.7860  0.0964 -0.0067
 7860SOL    HW135216   2.945   1.499   2.803 -1.2846 -1.1267  0.2193
 7860SOL    HW235217   2.843   1.552   2.709 -1.3572 -0.6863 -1.5865
 7861SOL     OW35218   0.970   0.456   8.987  0.2125  0.1730  0.8612
 7861SOL    HW135219   1.058   0.485   8.963 -0.3464 -0.2583 -1.7080
 7861SOL    HW235220   0.915   0.520   8.942 -0.0897 -1.8704 -1.6806
 7862SOL     OW35221   0.964   2.050   1.436 -0.6853 -0.2416 -0.3460
 7862SOL    HW135222   0.971   2.033   1.342 -0.5765 -3.4676  0.2437
 7862SOL    HW235223   1.054   2.048   1.469 -0.6966  0.8071 -0.2729
 7863SOL     OW35224   0.255   2.347   9.140  0.7207 -0.0145 -0.2606
 7863SOL    HW135225   0.197   2.284   9.097  1.7497  1.4967 -3.8839
 7863SOL    HW235226   0.296   2.284   9.200 -1.5349 -0.5223  0.7396
 7864SOL     OW35227   2.641   2.763  10.904  0.1264 -0.2139 -0.0519
 7864SOL    HW135228   2.654   2.842  10.957  0.5407 -1.1914  1.2951
 7864SOL    HW235229   2.588   2.706  10.960 -0.8296  1.7824  1.0831
 7865SOL     OW35230   2.668   4.337  12.705 -0.4329 -0.3063 -0.1992
 7865SOL    HW135231   2.725   4.412  12.686 -1.7120  1.0232  1.2378
 7865SOL    HW235232   2.738   4.275  12.724  0.5836  0.8229 -0.2316
 7866SOL     OW35233   4.152   2.639   8.722  0.1677 -0.1039  0.3636
 7866SOL    HW135234   4.102   2.589   8.658  1.1588  0.5757 -0.9430
 7866SOL    HW235235   4.141   2.579   8.796 -1.6942 -1.0229 -0.6797
 7867SOL     OW35236   0.007   2.137   8.640 -0.1001  0.0108 -0.6262
 7867SOL    HW135237   4.694   2.079   8.581 -1.1207  0.9091 -0.6869
 7867SOL    HW235238   4.679   2.210   8.642  0.7930  0.7232  0.9420
 7868SOL     OW35239   4.200   3.507  15.753 -0.7871 -0.0789 -0.0482
 7868SOL    HW135240   4.188   3.529  15.846  2.8737  0.9951  0.1915
 7868SOL    HW235241   4.177   3.415  15.758 -0.1244 -0.2691 -0.5773
 7869SOL     OW35242   0.140   3.497  17.206  0.7266 -0.3844  0.0962
 7869SOL    HW135243   0.223   3.545  17.202  0.5577 -0.1018  0.0359
 7869SOL    HW235244   0.091   3.518  17.286  1.4166 -0.3878  0.5192
 7870SOL     OW35245   4.465   3.066   5.691  0.1348 -0.2447  0.4432
 7870SOL    HW135246   4.548   3.112   5.674  0.9461 -1.7424  0.3220
 7870SOL    HW235247   4.497   2.977   5.709 -1.3408 -1.1996 -1.6550
 7871SOL     OW35248   3.412   2.361   9.979 -0.8256  0.6062  0.5885
 7871SOL    HW135249   3.418   2.266   9.988  1.2034  0.6933  0.3129
 7871SOL    HW235250   3.488   2.392  10.029  0.1377 -1.0930  0.1677
 7872SOL     OW35251   1.527   0.415   3.508  0.5371  0.0324  0.1495
 7872SOL    HW135252   1.495   0.329   3.535  1.2081 -0.0880  0.5641
 7872SOL    HW235253   1.622   0.407   3.521  0.1330 -3.4632  1.1220
 7873SOL     OW35254   0.732   0.501   2.590 -0.2764  0.2535  0.2241
 7873SOL    HW135255   0.640   0.524   2.602 -0.8497  0.3171 -4.2568
 7873SOL    HW235256   0.732   0.405   2.584 -0.3601  0.2883 -0.4321
 7874SOL     OW35257   1.249   4.132   2.297 -0.0253  0.0864 -0.1442
 7874SOL    HW135258   1.200   4.049   2.301 -0.4075  0.3880  1.2709
 7874SOL    HW235259   1.297   4.133   2.380 -0.0305 -1.3419 -0.1262
 7875SOL     OW35260   0.886   2.065   5.416  0.0353  0.0503  0.1174
 7875SOL    HW135261   0.809   2.115   5.390 -0.1582 -0.5019 -0.3407
 7875SOL    HW235262   0.958   2.126   5.397  0.0372 -0.1348 -0.4828
 7876SOL     OW35263   4.427   4.186   0.376 -0.7758  0.0283 -0.3035
 7876SOL    HW135264   4.447   4.275   0.346 -0.0603 -0.8438 -2.4045
 7876SOL    HW235265   4.446   4.145   0.292 -0.5877 -0.8930  0.1905
 7877SOL     OW35266   1.634   4.035   8.427 -0.0757 -0.0238 -0.0151
 7877SOL    HW135267   1.576   3.978   8.377  0.4596  1.8488 -2.8003
 7877SOL    HW235268   1.645   3.976   8.502 -3.3745 -0.7695 -0.1421
 7878SOL     OW35269   0.659   2.644   4.952  0.5696 -0.0536 -0.4061
 7878SOL    HW135270   0.640   2.553   4.931  1.2630 -0.5976  1.2787
 7878SOL    HW235271   0.662   2.654   5.047  1.0731 -0.0570 -0.4171
 7879SOL     OW35272   3.398   1.198   3.511 -0.2710  0.1170 -0.5547
 7879SOL    HW135273   3.350   1.149   3.444 -1.6357 -0.3752  0.7836
 7879SOL    HW235274   3.484   1.156   3.512 -0.8791 -1.1158 -0.3850
 7880SOL     OW35275   3.053   4.489  11.394  0.5067 -0.3922 -0.3361
 7880SOL    HW135276   3.060   4.412  11.451 -1.4260 -0.5980 -0.3780
 7880SOL    HW235277   3.096   4.558  11.443 -2.1370 -0.0462  1.4829
 7881SOL     OW35278   1.227   3.926  14.356  0.4333  0.3647 -0.5469
 7881SOL    HW135279   1.300   3.889  14.306  0.2070  0.3843 -0.8967
 7881SOL    HW235280   1.179   3.844  14.368  2.5889 -0.8703 -0.1718
 7882SOL     OW35281   3.048   2.714   7.396  0.0251 -0.2616  0.1474
 7882SOL    HW135282   3.008   2.762   7.323  1.8071  0.3488 -0.4425
 7882SOL    HW235283   3.081   2.633   7.356  2.1163  0.2606  0.8244
 7883SOL     OW35284   2.592   3.846   8.088 -0.3846 -0.0256  0.1582
 7883SOL    HW135285   2.533   3.850   8.163  1.0999 -2.8073  1.4623
 7883SOL    HW235286   2.594   3.936   8.054  0.6431 -0.8072 -1.8470
 7884SOL     OW35287   4.006   1.482  16.599 -0.1946  0.5579  0.4073
 7884SOL    HW135288   3.997   1.572  16.569  0.5691  1.1951  2.1018
 7884SOL    HW235289   4.016   1.437  16.515 -1.2428 -0.0242  0.5915
 7885SOL     OW35290   3.583   0.073  17.320 -1.0576 -0.0306  0.2661
 7885SOL    HW135291   3.508   0.126  17.346  0.8335  2.2444  1.0383
 7885SOL    HW235292   3.588   4.735  17.381 -0.0218  1.1491  1.5910
 7886SOL     OW35293   2.483   1.235   4.266 -0.0476 -0.3288  0.3977
 7886SOL    HW135294   2.518   1.175   4.200  2.8209  0.3441  1.3064
 7886SOL    HW235295   2.551   1.302   4.273 -0.4169  0.3194 -2.2097
 7887SOL     OW35296   2.544   4.436   3.308 -0.8611 -0.0184 -0.1008
 7887SOL    HW135297   2.481   4.382   3.354  1.3300 -0.1698  2.7114
 7887SOL    HW235298   2.555   4.516   3.359  2.0026 -0.0030 -0.7370
 7888SOL     OW35299   0.771   0.270   5.386 -0.0575 -0.3641 -0.3492
 7888SOL    HW135300   0.801   0.241   5.472  1.0083 -0.5023 -0.7674
 7888SOL    HW235301   0.831   0.334   5.347 -2.7572  1.3854 -1.6487
 7889SOL     OW35302   1.219   1.401   1.023  0.1560  0.5931 -0.0392
 7889SOL    HW135303   1.218   1.492   1.052 -2.9415  0.7754 -0.7311
 7889SOL    HW235304   1.239   1.346   1.099  1.4174  0.6222 -0.3527
 7890SOL     OW35305   3.454   0.681   6.654  0.1993 -0.4017  0.3943
 7890SOL    HW135306   3.359   0.685   6.654  0.1588 -1.4182  1.7013
 7890SOL    HW235307   3.484   0.766   6.620 -0.2063 -0.0893  0.8087
 7891SOL     OW35308   2.103   1.573  17.695 -0.0096 -0.4072  0.1279
 7891SOL    HW135309   2.177   1.550   0.013  0.1520  0.4441  0.2564
 7891SOL    HW235310   2.134   1.520  17.621  0.6273  0.1933 -0.0380
 7892SOL     OW35311   3.330   2.766   5.773 -0.1092  0.4293  0.5996
 7892SOL    HW135312   3.421   2.796   5.780  0.2537 -0.4943 -0.1423
 7892SOL    HW235313   3.289   2.827   5.712 -2.4682 -2.6491 -0.8903
 7893SOL     OW35314   0.462   0.666  16.390 -0.3031  0.0790  0.4093
 7893SOL    HW135315   0.413   0.704  16.317  1.3501  1.0089 -0.2158
 7893SOL    HW235316   0.519   0.738  16.416  1.4041 -0.9385 -0.5232
 7894SOL     OW35317   3.195   2.415   3.310  0.5154 -0.3838  0.5074
 7894SOL    HW135318   3.132   2.437   3.241  2.5211  1.4499 -0.7145
 7894SOL    HW235319   3.147   2.342   3.349  0.3655 -1.1629 -1.1534
 7895SOL     OW35320   0.894   3.424   7.367 -0.0270  0.1278  0.8823
 7895SOL    HW135321   0.798   3.416   7.361 -0.0724  1.6347 -0.6611
 7895SOL    HW235322   0.909   3.480   7.443  2.0527  1.6302 -0.6281
 7896SOL     OW35323   4.088   4.580   3.802  0.5006  0.8108 -0.2585
 7896SOL    HW135324   4.146   4.654   3.821 -0.0233  0.8633  1.1315
 7896SOL    HW235325   4.153   4.519   3.767  0.7901  0.8743  0.1726
 7897SOL     OW35326   2.316   1.381   3.951 -0.1478  0.0508 -0.1178
 7897SOL    HW135327   2.323   1.422   4.037  0.0839  1.7176 -0.9411
 7897SOL    HW235328   2.221   1.375   3.945 -0.2145  1.0786 -0.1088
 7898SOL     OW35329   3.540   4.152   4.628 -0.2630  0.0457 -0.3825
 7898SOL    HW135330   3.448   4.152   4.604 -0.7035 -1.0573  1.3498
 7898SOL    HW235331   3.544   4.239   4.669  0.7990 -2.0513  3.9497
 7899SOL     OW35332   2.284   1.907  16.782  0.0906  0.3642 -0.4204
 7899SOL    HW135333   2.343   1.889  16.855 -0.1814 -0.1720 -0.3303
 7899SOL    HW235334   2.200   1.923  16.826 -1.3720 -1.1346 -2.7072
 7900SOL     OW35335   0.604   0.012   8.724  0.5365 -0.0337  0.8774
 7900SOL    HW135336   0.582   0.026   8.816  1.2181 -0.4210  1.0980
 7900SOL    HW235337   0.528   4.696   8.696  1.9386 -2.2774  1.1267
 7901SOL     OW35338   1.295   2.919   6.359 -0.2848  0.0663 -0.1280
 7901SOL    HW135339   1.265   2.882   6.442 -1.0697 -0.5193 -0.6746
 7901SOL    HW235340   1.312   2.835   6.317  1.6060  1.1043 -1.4815
 7902SOL     OW35341   3.952   2.994   3.037  0.0828  0.6075  0.5080
 7902SOL    HW135342   3.983   3.062   3.097  1.3179 -0.2833  0.8911
 7902SOL    HW235343   3.907   3.055   2.979 -1.1496  1.0710  1.9546
 7903SOL     OW35344   1.662   0.788   3.075 -0.0272  0.3407  0.0550
 7903SOL    HW135345   1.664   0.705   3.123 -1.5142 -0.3703 -1.1058
 7903SOL    HW235346   1.699   0.758   2.992  0.3192 -0.5554  0.5269
 7904SOL     OW35347   3.463   1.605   1.571 -0.4823  0.4177  0.0288
 7904SOL    HW135348   3.508   1.533   1.614 -2.2907 -1.4180 -1.1866
 7904SOL    HW235349   3.496   1.601   1.481 -1.9120  0.7031 -0.5177
 7905SOL     OW35350   4.399   4.479   7.444 -0.2071  0.7170  0.2074
 7905SOL    HW135351   4.376   4.477   7.537 -1.0945 -1.0291 -0.0563
 7905SOL    HW235352   4.353   4.560   7.420 -0.1755  1.0860  1.3767
 7906SOL     OW35353   2.496   3.626  15.770  0.3803  0.1319  0.1111
 7906SOL    HW135354   2.589   3.644  15.787  0.3544  0.7325 -0.3732
 7906SOL    HW235355   2.472   3.711  15.731  0.7470 -0.6842 -1.9360
 7907SOL     OW35356   1.070   1.879  10.994  0.1855 -0.1133  0.0823
 7907SOL    HW135357   1.018   1.837  11.064 -3.2876  2.2341 -1.0851
 7907SOL    HW235358   1.001   1.876  10.927  0.0341  0.5741  0.2143
 7908SOL     OW35359   3.014   2.040   1.747 -0.3195 -0.8863 -0.4946
 7908SOL    HW135360   3.041   1.963   1.697  2.3150  0.3517 -0.9616
 7908SOL    HW235361   2.930   2.012   1.783 -0.5675 -1.1355 -1.2664
 7909SOL     OW35362   2.168   3.850   8.003 -0.2931  0.6276  0.1661
 7909SOL    HW135363   2.109   3.880   7.934  0.7103 -1.6451 -1.6936
 7909SOL    HW235364   2.151   3.914   8.071 -0.5597 -0.3247  1.0024
 7910SOL     OW35365   0.587   2.764   1.273 -0.1091 -0.1202 -0.1536
 7910SOL    HW135366   0.499   2.795   1.251  0.1417 -0.2386 -1.3226
 7910SOL    HW235367   0.604   2.720   1.190 -3.5414  0.8650 -1.3442
 7911SOL     OW35368   4.028   3.907   4.092  0.9439  0.0828 -0.0262
 7911SOL    HW135369   4.012   3.842   4.160  0.7032  0.6366  0.4349
 7911SOL    HW235370   3.978   3.983   4.121  0.3772 -0.5049  0.5529
 7912SOL     OW35371   3.610   2.056  12.553  0.5317  0.2932  0.2234
 7912SOL    HW135372   3.579   2.008  12.629  0.8195  0.8924  0.7173
 7912SOL    HW235373   3.605   2.148  12.579 -0.7391  0.0332  0.8751
 7913SOL     OW35374   3.685   0.977   5.672  0.1128 -0.0323  0.0739
 7913SOL    HW135375   3.694   1.021   5.587  0.8515 -1.3404 -0.5219
 7913SOL    HW235376   3.635   0.900   5.646 -1.6022  0.7599  0.9873
 7914SOL     OW35377   3.329   0.346  13.413 -0.5200 -0.6425  0.2872
 7914SOL    HW135378   3.332   0.395  13.331 -0.1091 -0.6419  0.3020
 7914SOL    HW235379   3.388   0.272  13.399  0.4223  0.2832 -0.6549
 7915SOL     OW35380   3.533   3.971  17.085 -0.4702  0.4237  0.0721
 7915SOL    HW135381   3.479   3.946  17.160 -0.0113  1.2959  0.7014
 7915SOL    HW235382   3.619   3.960  17.125  0.1365 -2.6127 -2.1145
 7916SOL     OW35383   1.010   2.389   3.227 -0.2011  0.2917 -0.8734
 7916SOL    HW135384   1.014   2.484   3.225  1.2639  0.2053 -1.9705
 7916SOL    HW235385   1.102   2.365   3.220  0.1071  0.7520  1.5440
 7917SOL     OW35386   2.506   0.632  12.149 -0.0650 -0.3545 -0.7880
 7917SOL    HW135387   2.582   0.670  12.104  0.3815  1.7837  1.7609
 7917SOL    HW235388   2.497   0.703  12.214  0.8638 -0.3197 -0.6942
 7918SOL     OW35389   4.476   2.883   6.231  0.1550 -0.1278 -0.2643
 7918SOL    HW135390   4.387   2.867   6.202 -0.5698  0.9211  1.4079
 7918SOL    HW235391   4.523   2.815   6.182  1.0661  0.1096  0.2766
 7919SOL     OW35392   3.470   0.457   6.501 -0.0485  0.7138  0.1414
 7919SOL    HW135393   3.498   0.486   6.414 -1.3898 -0.8537 -0.8203
 7919SOL    HW235394   3.464   0.537   6.553  0.1482 -0.6089  2.2162
 7920SOL     OW35395   1.578   4.360   2.561  0.0328 -0.0921 -0.0260
 7920SOL    HW135396   1.671   4.369   2.581 -0.2019  1.4041  0.3568
 7920SOL    HW235397   1.577   4.265   2.547 -1.3020 -0.1500  0.4007
 7921SOL     OW35398   2.745   3.048   5.104  0.3431 -0.9581  0.1079
 7921SOL    HW135399   2.697   3.067   5.024 -2.4894 -1.2600  1.7397
 7921SOL    HW235400   2.833   3.029   5.071  1.0793 -1.8065  2.5578
 7922SOL     OW35401   0.192   2.796   8.356  0.3133  0.2257 -0.3321
 7922SOL    HW135402   0.145   2.783   8.274  0.3280  1.3164 -0.5061
 7922SOL    HW235403   0.234   2.710   8.363 -0.0461  0.3898  3.8310
 7923SOL     OW35404   0.612   1.271   6.611 -0.0722  0.1549 -0.0556
 7923SOL    HW135405   0.546   1.219   6.566 -1.2301  1.1090  0.5129
 7923SOL    HW235406   0.637   1.325   6.536 -0.7664  0.2357 -0.2356
 7924SOL     OW35407   1.103   2.327   5.707 -0.5622  0.2567  0.4360
 7924SOL    HW135408   1.011   2.338   5.731 -0.4243  0.0766  1.0373
 7924SOL    HW235409   1.111   2.372   5.622 -2.1750  1.5494  0.9631
 7925SOL     OW35410   0.218   1.800   3.313 -0.3436  0.0619  1.3338
 7925SOL    HW135411   0.128   1.813   3.283  0.5221 -1.9919 -2.1503
 7925SOL    HW235412   0.220   1.713   3.353 -0.8987 -0.6712 -0.2351
 7926SOL     OW35413   1.383   3.272  11.775  0.6040  0.1691 -0.6113
 7926SOL    HW135414   1.450   3.323  11.729  1.7292  0.6034  1.4991
 7926SOL    HW235415   1.406   3.277  11.868 -1.8004  1.0308 -0.0631
 7927SOL     OW35416   2.903   4.311   5.038  0.5425 -0.5912  0.4534
 7927SOL    HW135417   2.954   4.230   5.038  1.3171 -0.1081  0.1710
 7927SOL    HW235418   2.891   4.320   5.133  0.7269 -0.2801  0.4484
 7928SOL     OW35419   3.482   3.381   4.158 -0.2287 -0.5439  0.0943
 7928SOL    HW135420   3.467   3.292   4.125  0.6095 -0.2870 -0.9840
 7928SOL    HW235421   3.412   3.380   4.223 -0.3001 -0.1964  0.0237
 7929SOL     OW35422   0.786   1.389   0.076  0.4787  0.2019 -0.6171
 7929SOL    HW135423   0.771   1.405  17.723 -0.3233  2.3144 -0.1146
 7929SOL    HW235424   0.882   1.389   0.076  0.4815 -0.2590 -0.8991
 7930SOL     OW35425   4.528   0.072   8.332 -0.1955  0.1633  0.6150
 7930SOL    HW135426   4.561   0.143   8.387 -1.8697 -0.7563  2.8431
 7930SOL    HW235427   4.439   0.080   8.367 -0.7478  1.1705 -1.0593
 7931SOL     OW35428   1.495   4.487  15.870 -0.5043 -0.0342 -0.4443
 7931SOL    HW135429   1.519   4.395  15.882  1.2624  0.8669  3.0163
 7931SOL    HW235430   1.531   4.507  15.784  2.4543 -1.6416  0.4280
 7932SOL     OW35431   4.394   0.841   4.341 -0.2699  0.1059 -0.2678
 7932SOL    HW135432   4.404   0.927   4.382  1.6158 -0.3897  0.3067
 7932SOL    HW235433   4.385   0.793   4.424 -2.4605 -0.5019 -0.8562
 7933SOL     OW35434   1.893   1.728   1.312  0.0427 -0.0369  0.2586
 7933SOL    HW135435   1.965   1.776   1.272 -1.4751  1.4189 -0.7562
 7933SOL    HW235436   1.827   1.774   1.260 -0.7811  1.9407  3.1051
 7934SOL     OW35437   0.282   1.470   8.253 -0.0846 -0.3047 -0.6800
 7934SOL    HW135438   0.339   1.416   8.308 -0.4193  0.0007 -0.0293
 7934SOL    HW235439   0.329   1.460   8.170 -0.1369 -1.1928 -0.6067
 7935SOL     OW35440   1.858   3.298   1.573 -0.0580 -0.3869 -0.1635
 7935SOL    HW135441   1.934   3.321   1.626  0.7234 -0.8184 -1.1090
 7935SOL    HW235442   1.808   3.237   1.628 -0.7747  0.6476  0.3230
 7936SOL     OW35443   3.820   3.214  11.973  0.1551 -0.2816 -0.0606
 7936SOL    HW135444   3.910   3.246  11.964  0.7910 -1.9381  0.3753
 7936SOL    HW235445   3.781   3.291  12.014 -1.5230 -1.2803  0.2446
 7937SOL     OW35446   3.931   2.317   9.022  0.4650 -0.2586 -0.4344
 7937SOL    HW135447   3.884   2.367   9.089  0.0786  0.0942 -0.9701
 7937SOL    HW235448   3.990   2.381   8.983  0.7314 -1.0163 -1.2750
 7938SOL     OW35449   0.379   2.912   5.779 -0.7505 -0.0042  0.1461
 7938SOL    HW135450   0.419   2.999   5.775  0.3443 -0.7397 -4.2412
 7938SOL    HW235451   0.324   2.924   5.857  1.8089 -0.2873  1.9983
 7939SOL     OW35452   1.052   3.857   3.391 -0.4296  0.2740  0.0918
 7939SOL    HW135453   1.120   3.908   3.347 -0.5879 -0.3267 -0.8370
 7939SOL    HW235454   0.969   3.885   3.353 -0.3473  0.0260 -0.2571
 7940SOL     OW35455   3.177   2.705   1.347 -0.3720  0.2833  0.6760
 7940SOL    HW135456   3.147   2.623   1.386 -1.6127  0.9828  1.1848
 7940SOL    HW235457   3.240   2.736   1.413  0.8965 -0.3455 -0.2366
 7941SOL     OW35458   1.532   1.849   1.956  0.1440 -0.7127 -0.5177
 7941SOL    HW135459   1.528   1.944   1.948  2.1310 -0.4933  0.7602
 7941SOL    HW235460   1.457   1.826   2.011  1.4198  0.6624  1.8442
 7942SOL     OW35461   1.912   3.098  12.326 -0.4257 -0.4350 -0.1996
 7942SOL    HW135462   1.861   3.064  12.252 -0.5248  0.9413 -0.7611
 7942SOL    HW235463   1.838   3.135  12.374 -0.5879 -0.5735 -0.3438
 7943SOL     OW35464   3.244   3.436   7.090 -0.3609  0.0832  0.0682
 7943SOL    HW135465   3.257   3.531   7.091 -1.5135  0.2607 -1.8015
 7943SOL    HW235466   3.220   3.411   7.179  1.4951  1.4732  0.9821
 7944SOL     OW35467   0.968   1.562   9.530  0.1571 -0.1090  0.1194
 7944SOL    HW135468   0.997   1.653   9.519  0.2183 -0.0965  0.3907
 7944SOL    HW235469   1.004   1.535   9.614  1.5810  0.7014 -0.2225
 7945SOL     OW35470   0.436   2.762   2.877 -0.4415  0.3153 -0.7166
 7945SOL    HW135471   0.434   2.733   2.968 -3.1320  3.8241  0.3147
 7945SOL    HW235472   0.343   2.754   2.858 -0.1747 -2.1379 -1.0422
 7946SOL     OW35473   0.505   3.620  14.961  0.0342 -0.0866  0.4945
 7946SOL    HW135474   0.538   3.696  15.009 -0.8213  0.5414  0.0991
 7946SOL    HW235475   0.508   3.565  15.039  0.1854  0.0431  0.5795
 7947SOL     OW35476   0.892   3.979   2.089  0.3164  0.2980 -0.2703
 7947SOL    HW135477   0.835   3.902   2.092  2.5395 -1.2257  2.7908
 7947SOL    HW235478   0.974   3.937   2.063  1.2212  0.9132  1.6215
 7948SOL     OW35479   3.987   0.811  12.190  0.0159 -0.0152 -0.1011
 7948SOL    HW135480   3.930   0.885  12.208  3.2703  2.0464  1.6222
 7948SOL    HW235481   4.001   0.774  12.277 -2.6078 -1.1225 -0.1335
 7949SOL     OW35482   3.016   4.314   3.092  0.2862 -0.0845  0.0827
 7949SOL    HW135483   2.922   4.311   3.076  0.0485 -0.6464  1.5949
 7949SOL    HW235484   3.022   4.302   3.186 -0.5307  3.0380  0.5148
 7950SOL     OW35485   2.160   0.961   2.062 -0.2154  0.0338  0.0516
 7950SOL    HW135486   2.213   0.966   1.983 -0.8368 -0.7563 -0.4154
 7950SOL    HW235487   2.173   1.047   2.103 -1.3577  1.1447 -1.8934
 7951SOL     OW35488   4.672   0.247  12.649 -0.3650  0.4370  0.2332
 7951SOL    HW135489   4.634   0.159  12.644 -2.9066  1.4445  1.8741
 7951SOL    HW235490   0.011   0.238  12.589 -0.7159  2.3369 -0.4733
 7952SOL     OW35491   0.370   3.965  14.155  0.0302 -0.0410 -0.2305
 7952SOL    HW135492   0.396   3.996  14.241 -0.6644  0.3869 -0.1718
 7952SOL    HW235493   0.454   3.947  14.113 -0.6684  1.3075 -2.2469
 7953SOL     OW35494   2.310   4.519   8.800  0.3374  0.4398 -0.4119
 7953SOL    HW135495   2.367   4.594   8.779 -0.5194  0.9358 -0.9675
 7953SOL    HW235496   2.256   4.508   8.722  0.2902 -0.2267 -0.2781
 7954SOL     OW35497   2.362   0.424   1.275  0.3019  0.1102 -0.4346
 7954SOL    HW135498   2.338   0.485   1.205 -1.1281 -0.7153 -0.6772
 7954SOL    HW235499   2.411   0.483   1.332  0.0449  1.2593 -1.3982
 7955SOL     OW35500   1.362   2.436   3.464 -0.6855  0.7911  0.5091
 7955SOL    HW135501   1.361   2.505   3.398 -2.0955  0.7386  0.4746
 7955SOL    HW235502   1.267   2.426   3.469 -0.7221  0.7624 -0.2226
 7956SOL     OW35503   0.259   2.088  12.912  0.0288  0.1535  0.1410
 7956SOL    HW135504   0.252   2.159  12.848 -0.0186 -1.8293 -2.0506
 7956SOL    HW235505   0.176   2.085  12.960  0.2368 -0.2527  0.4723
 7957SOL     OW35506   3.612   1.397   6.373  0.4449 -0.7334  0.2078
 7957SOL    HW135507   3.632   1.489   6.355  0.3891 -0.3682  2.0278
 7957SOL    HW235508   3.612   1.357   6.286 -0.9236 -0.3713  0.0412
 7958SOL     OW35509   4.361   1.797   3.736  0.5623 -0.1387 -0.4779
 7958SOL    HW135510   4.365   1.873   3.677 -2.6606  1.2046  1.0075
 7958SOL    HW235511   4.322   1.731   3.678 -0.4515  0.9530 -1.0554
 7959SOL     OW35512   0.387   0.352   8.755  0.0489  0.0943  0.1618
 7959SOL    HW135513   0.324   0.410   8.714 -1.1469  0.8789  3.1222
 7959SOL    HW235514   0.339   0.330   8.835 -0.5630  1.5068  0.1830
 7960SOL     OW35515   0.542   2.731   6.097  0.1986  0.2291  0.5627
 7960SOL    HW135516   0.577   2.813   6.063 -0.3834  0.7585  1.2287
 7960SOL    HW235517   0.574   2.743   6.187  1.4404 -0.5007  0.2195
 7961SOL     OW35518   2.046   0.917   2.883 -1.0471 -0.2088 -0.4736
 7961SOL    HW135519   1.979   0.953   2.826 -1.5367  0.5406  0.5625
 7961SOL    HW235520   2.075   0.844   2.828 -5.1897 -2.7219  0.6933
 7962SOL     OW35521   0.803   3.197   7.636 -0.2383 -0.2426  0.2800
 7962SOL    HW135522   0.744   3.239   7.699  0.2327  0.5318  0.2080
 7962SOL    HW235523   0.882   3.166   7.681 -1.0241 -1.1559  1.0319
 7963SOL     OW35524   4.074   1.065   4.229 -0.2972  0.0611  0.6155
 7963SOL    HW135525   3.996   1.105   4.269 -0.7282 -0.2772  0.1156
 7963SOL    HW235526   4.048   1.068   4.137 -0.5706  1.1962  0.7333
 7964SOL     OW35527   2.307   2.326   1.767 -0.3505 -0.5568 -0.2330
 7964SOL    HW135528   2.267   2.405   1.805  0.9660 -0.6885  1.4302
 7964SOL    HW235529   2.359   2.296   1.841 -1.4645 -3.1866 -0.5330
 7965SOL     OW35530   3.045   3.196  17.543 -0.1984 -0.0492  0.0557
 7965SOL    HW135531   3.124   3.193  17.596 -0.5914  0.6890  0.6848
 7965SOL    HW235532   2.982   3.146  17.595 -0.2406 -0.0770 -0.0216
 7966SOL     OW35533   2.277   2.013   4.839 -0.3472  0.4457 -0.2106
 7966SOL    HW135534   2.188   1.987   4.816  0.2070 -3.7673  2.4105
 7966SOL    HW235535   2.303   2.067   4.765  0.4472 -2.1772 -1.8179
 7967SOL     OW35536   3.483   1.986   3.963  0.0807  0.2994 -0.0493
 7967SOL    HW135537   3.475   2.071   4.006 -1.5063  1.4883 -2.7088
 7967SOL    HW235538   3.399   1.947   3.988 -0.8673  2.1686 -0.3435
 7968SOL     OW35539   1.310   4.721   2.748 -0.5030 -0.1028  0.3687
 7968SOL    HW135540   1.339   4.642   2.701 -1.1293  0.1437 -0.4373
 7968SOL    HW235541   1.220   4.692   2.763 -0.2805 -1.0866 -0.1740
 7969SOL     OW35542   2.304   3.018   8.208  0.2963 -0.5131 -0.1690
 7969SOL    HW135543   2.293   3.111   8.227  0.0784 -0.4628 -0.5280
 7969SOL    HW235544   2.260   2.987   8.287 -0.7115  1.4564  0.0353
 7970SOL     OW35545   0.953   4.188   8.674 -0.7225  0.2764 -0.3089
 7970SOL    HW135546   1.026   4.133   8.647 -0.1232  0.4540  0.9424
 7970SOL    HW235547   0.949   4.245   8.598 -0.3936 -0.4279 -0.8540
 7971SOL     OW35548   0.524   0.296   1.768  0.0470  0.1970 -0.4525
 7971SOL    HW135549   0.440   0.257   1.791  0.3945 -0.4070 -0.2345
 7971SOL    HW235550   0.583   0.239   1.817 -0.1036  0.0576 -0.4320
 7972SOL     OW35551   3.691   2.739   1.959 -0.4416  0.2723 -0.3559
 7972SOL    HW135552   3.729   2.671   2.015 -0.6107 -0.3763 -1.0387
 7972SOL    HW235553   3.693   2.698   1.873 -0.1733  1.2343 -0.8124
 7973SOL     OW35554   0.860   1.806   1.181 -0.0719 -0.5847  0.4518
 7973SOL    HW135555   0.866   1.796   1.276  0.2782 -1.4657  0.3336
 7973SOL    HW235556   0.866   1.714   1.154 -1.2651 -1.4383  3.0103
 7974SOL     OW35557   3.190   1.710  14.223 -0.2019  0.2587  0.2113
 7974SOL    HW135558   3.276   1.667  14.223 -0.6156 -0.5300 -2.9163
 7974SOL    HW235559   3.203   1.775  14.292  1.3290 -0.9504  1.0548
 7975SOL     OW35560   3.423   4.163  11.090 -0.3891  0.3304 -0.8182
 7975SOL    HW135561   3.348   4.187  11.036  0.6426 -0.5793 -2.6743
 7975SOL    HW235562   3.481   4.232  11.058 -1.4527  1.5214 -0.1469
 7976SOL     OW35563   3.470   0.615  12.798  0.1568 -0.2471 -0.1338
 7976SOL    HW135564   3.542   0.552  12.798 -1.4156 -2.0615 -1.1673
 7976SOL    HW235565   3.410   0.571  12.737 -1.9663  0.4960  1.3865
 7977SOL     OW35566   0.579   1.657   5.209  0.2048  0.0468  0.1554
 7977SOL    HW135567   0.561   1.600   5.134 -1.2167  2.7690 -1.5745
 7977SOL    HW235568   0.673   1.674   5.200  0.5932 -2.4346 -0.4621
 7978SOL     OW35569   4.277   4.677   9.674  0.1115  0.0036  0.6877
 7978SOL    HW135570   4.323   4.593   9.684 -1.1983 -0.7610  0.2264
 7978SOL    HW235571   4.347   0.007   9.681 -1.9865  2.3666 -0.3355
 7979SOL     OW35572   4.621   4.137   7.264  0.0314 -0.6405 -0.6317
 7979SOL    HW135573   4.533   4.173   7.272  1.6876  3.5794 -1.5259
 7979SOL    HW235574   4.645   4.183   7.184 -1.0414  1.0900  0.0478
 7980SOL     OW35575   0.218   2.999   2.524  0.0035 -0.6049  0.0832
 7980SOL    HW135576   0.175   2.918   2.497 -0.8761  0.8533 -2.9411
 7980SOL    HW235577   0.228   3.049   2.443  1.3480  0.2339  0.7776
 7981SOL     OW35578   2.242   3.638   8.862  0.4429  0.3393 -0.5369
 7981SOL    HW135579   2.309   3.618   8.797  1.3395  0.3532  0.3882
 7981SOL    HW235580   2.283   3.605   8.942  1.0719 -0.7184 -1.2925
 7982SOL     OW35581   3.590   0.461  13.214 -0.0556 -0.0459  0.0591
 7982SOL    HW135582   3.497   0.483  13.211 -0.9465 -3.9365 -0.5717
 7982SOL    HW235583   3.586   0.366  13.212 -0.4004 -0.0037 -1.4442
 7983SOL     OW35584   0.710   3.842  11.865 -0.7621 -0.2392 -0.2262
 7983SOL    HW135585   0.616   3.857  11.879 -0.9657 -3.2171  1.5949
 7983SOL    HW235586   0.735   3.808  11.951 -0.0324  1.1479  0.1191
 7984SOL     OW35587   3.243   1.769   6.389 -0.5377 -0.1093  0.0588
 7984SOL    HW135588   3.335   1.761   6.365 -0.4895  2.6681 -0.7425
 7984SOL    HW235589   3.232   1.694   6.448 -0.6214  0.8130  1.2260
 7985SOL     OW35590   4.498   4.217   4.394 -0.8570  0.5535 -0.0012
 7985SOL    HW135591   4.486   4.177   4.308 -1.8913  1.2799 -0.1899
 7985SOL    HW235592   4.416   4.265   4.398 -0.3868  1.5704 -2.3927
 7986SOL     OW35593   3.761   3.042   4.855  0.0434  0.0163 -0.0510
 7986SOL    HW135594   3.824   3.093   4.907 -0.3734 -0.5269  0.9905
 7986SOL    HW235595   3.695   3.046   4.925  0.7218 -2.1650  0.6977
 7987SOL     OW35596   3.479   4.587   5.123 -0.1511 -0.8023  0.0392
 7987SOL    HW135597   3.525   4.605   5.205  1.6209  0.5354 -1.2399
 7987SOL    HW235598   3.528   4.513   5.086 -0.1237  0.3874 -2.3253
 7988SOL     OW35599   0.820   1.908  10.814 -0.5267  0.4668  0.4589
 7988SOL    HW135600   0.778   1.822  10.816 -1.4918  0.8953 -1.1291
 7988SOL    HW235601   0.745   1.962  10.840 -1.5439 -0.0681 -1.3657
 7989SOL     OW35602   4.697   0.955   6.869  0.0319 -0.6142  0.2972
 7989SOL    HW135603   4.684   0.886   6.804  0.2908  0.2413 -0.6559
 7989SOL    HW235604   4.613   0.990   6.842  0.5698 -0.2221 -0.8650
 7990SOL     OW35605   4.406   2.512   6.927  0.2909 -0.0507 -0.0370
 7990SOL    HW135606   4.456   2.526   7.007 -0.2101 -1.4301  0.5142
 7990SOL    HW235607   4.414   2.417   6.922  1.2470 -0.0266  0.9422
 7991SOL     OW35608   4.636   2.621  16.569  0.0403  0.5656  0.3622
 7991SOL    HW135609   4.669   2.589  16.653 -0.6063 -1.3797 -0.1347
 7991SOL    HW235610   4.560   2.673  16.595 -0.1449 -0.7948  2.5083
 7992SOL     OW35611   1.115   2.653   5.780 -0.1448  0.2843 -0.4197
 7992SOL    HW135612   1.024   2.680   5.777 -0.6168 -1.6086 -3.1926
 7992SOL    HW235613   1.118   2.630   5.873 -0.2371 -2.1763 -1.0419
 7993SOL     OW35614   3.890   3.265   9.711 -0.2460  0.0170 -0.4857
 7993SOL    HW135615   3.914   3.284   9.620  3.2082 -3.9713 -0.4300
 7993SOL    HW235616   3.796   3.278   9.705  0.1406  1.9946 -2.3326
 7994SOL     OW35617   3.730   1.828   4.934 -0.1094  0.5382 -0.1449
 7994SOL    HW135618   3.776   1.852   5.015  0.2159  2.1677 -0.8203
 7994SOL    HW235619   3.805   1.836   4.875  1.0599 -0.7812  1.1327
 7995SOL     OW35620   3.643   3.156   2.011 -0.2384 -0.0189  0.2254
 7995SOL    HW135621   3.720   3.136   2.063  0.4307  0.2405 -0.6662
 7995SOL    HW235622   3.618   3.247   2.025 -0.4289 -0.0855  0.3229
 7996SOL     OW35623   4.382   1.463   8.457 -0.5670 -0.2738  0.1880
 7996SOL    HW135624   4.423   1.406   8.522 -0.0734 -1.9001 -1.5617
 7996SOL    HW235625   4.302   1.416   8.431  0.7982 -1.3754 -2.0171
 7997SOL     OW35626   0.755   2.130  12.603 -0.1106 -0.2259 -0.1524
 7997SOL    HW135627   0.730   2.162  12.689  2.5424  2.9181 -0.5378
 7997SOL    HW235628   0.756   2.035  12.616 -0.1277 -0.4318 -1.5733
 7998SOL     OW35629   4.561   3.611  17.074 -0.6326 -0.3007 -0.5215
 7998SOL    HW135630   4.521   3.582  17.156 -0.2000 -1.2470 -0.6551
 7998SOL    HW235631   4.502   3.570  17.011 -1.7798 -2.2140  1.8313
 7999SOL     OW35632   2.468   2.940  11.144 -0.4560  0.0450  0.0305
 7999SOL    HW135633   2.534   2.982  11.089 -1.6104 -0.3223 -1.6547
 7999SOL    HW235634   2.527   2.872  11.175 -0.4715 -0.7414 -1.6741
 8000SOL     OW35635   0.824   3.042   7.406 -0.0150  0.4007  0.3901
 8000SOL    HW135636   0.826   3.105   7.478  0.4224  0.5818  0.2216
 8000SOL    HW235637   0.734   3.040   7.375 -0.1133  1.4309  0.6109
 8001SOL     OW35638   2.866   2.088   4.649 -0.1637 -0.2306 -0.1897
 8001SOL    HW135639   2.783   2.041   4.659 -0.8182  0.6542 -1.4064
 8001SOL    HW235640   2.930   2.036   4.697 -0.4983  1.2356  1.8759
 8002SOL     OW35641   3.792   1.914  12.845  0.1219  0.1335  0.1264
 8002SOL    HW135642   3.751   2.000  12.857 -0.4094 -0.0035 -0.6999
 8002SOL    HW235643   3.770   1.878  12.931 -0.2433  1.2335  0.4858
 8003SOL     OW35644   3.155   3.284   1.060 -0.2315  0.1330 -0.6819
 8003SOL    HW135645   3.213   3.235   1.002  0.0880 -1.1328  0.7219
 8003SOL    HW235646   3.087   3.314   1.000 -1.3862  2.8463  2.0035
 8004SOL     OW35647   0.086   4.372   1.294  0.3842 -0.0052  0.1080
 8004SOL    HW135648   0.115   4.447   1.347 -0.5553 -0.3467  1.1035
 8004SOL    HW235649   0.120   4.380   1.205  2.2937 -0.0217  0.8365
 8005SOL     OW35650   2.130   2.350   8.961 -0.0167 -0.0482 -0.1920
 8005SOL    HW135651   2.209   2.327   9.009 -0.1255  2.6258  1.2078
 8005SOL    HW235652   2.167   2.399   8.888 -0.2437  3.0619  1.8179
 8006SOL     OW35653   3.578   1.715   8.858 -0.3080 -0.2290 -0.0184
 8006SOL    HW135654   3.550   1.794   8.906  0.5206 -0.2284  0.4606
 8006SOL    HW235655   3.543   1.736   8.771 -1.5030 -2.1308  0.0095
 8007SOL     OW35656   0.376   1.953   5.724  0.2328 -0.1419 -0.2743
 8007SOL    HW135657   0.437   1.882   5.746 -1.3275 -1.5643 -0.5916
 8007SOL    HW235658   0.318   1.909   5.662  0.4575  0.4506 -0.9049
 8008SOL     OW35659   4.034   2.627   7.145 -0.2258  0.2213  0.1133
 8008SOL    HW135660   3.939   2.615   7.137 -0.0232 -1.3927  0.1437
 8008SOL    HW235661   4.054   2.547   7.193 -2.2822 -0.4505 -0.1460
 8009SOL     OW35662   0.300   2.272   3.054 -0.5283 -0.4225 -0.1658
 8009SOL    HW135663   0.328   2.288   3.144 -1.1877 -1.1303  0.1667
 8009SOL    HW235664   0.252   2.352   3.033  0.1740  0.4193  1.4641
 8010SOL     OW35665   2.788   4.564  11.401  0.2454  0.0082  0.1826
 8010SOL    HW135666   2.781   4.508  11.479  1.2493  1.7339  1.5159
 8010SOL    HW235667   2.883   4.570  11.396  0.2353  0.9706  1.1327
 8011SOL     OW35668   2.627   1.911  12.532  0.0050 -0.0001  0.0087
 8011SOL    HW135669   2.565   1.961  12.585 -1.5620 -2.4860  0.4848
 8011SOL    HW235670   2.648   1.848  12.600 -1.8473 -0.0328  0.5410
 8012SOL     OW35671   3.632   1.301   3.796  0.0310  0.6320 -0.1770
 8012SOL    HW135672   3.708   1.338   3.752 -0.0728 -0.1519 -1.0154
 8012SOL    HW235673   3.569   1.354   3.746  0.4027  0.3972 -0.8909
 8013SOL     OW35674   2.219   2.701   2.539 -0.5283 -0.1679 -0.0651
 8013SOL    HW135675   2.216   2.642   2.614 -0.0467 -1.5891 -1.1885
 8013SOL    HW235676   2.173   2.777   2.576 -0.0514  0.8468 -1.5233
 8014SOL     OW35677   2.130   0.083  11.407 -0.0350  0.3480 -0.0140
 8014SOL    HW135678   2.119   0.177  11.392 -1.2267  0.3388  0.7564
 8014SOL    HW235679   2.048   0.067  11.454  0.6197 -1.3909  0.5584
 8015SOL     OW35680   0.526   4.565  12.302  1.0967 -0.9810 -0.3186
 8015SOL    HW135681   0.604   4.556  12.356 -0.1445 -3.6810  1.0324
 8015SOL    HW235682   0.467   4.601  12.368  1.2688 -0.2641 -0.5558
 8016SOL     OW35683   0.243   0.944  14.485  0.0455 -0.3263 -0.3083
 8016SOL    HW135684   0.243   1.038  14.504  1.8670 -0.7597  1.7631
 8016SOL    HW235685   0.332   0.910  14.471  0.4218  1.2035 -1.6843
 8017SOL     OW35686   2.125   2.263  12.790  0.2662 -0.4309 -0.2460
 8017SOL    HW135687   2.072   2.184  12.779 -2.3553  1.0450  1.9834
 8017SOL    HW235688   2.069   2.320  12.843  1.1440  0.3180 -0.1275
 8018SOL     OW35689   1.625   1.528   3.423  0.1970  0.0267  0.1513
 8018SOL    HW135690   1.609   1.622   3.434 -1.4028 -0.3841  1.3449
 8018SOL    HW235691   1.620   1.494   3.512 -1.1976 -1.9150 -0.6566
 8019SOL     OW35692   2.194   3.955   7.237 -0.5440  0.0033  0.0372
 8019SOL    HW135693   2.220   3.954   7.329 -4.4355 -1.9938  1.0780
 8019SOL    HW235694   2.111   3.907   7.236 -0.1776 -0.6097 -1.6912
 8020SOL     OW35695   4.676   3.059  12.013  0.0273 -0.0527  0.9008
 8020SOL    HW135696   0.031   3.049  12.045  0.1073  0.6009  0.8734
 8020SOL    HW235697   4.690   3.037  11.921  0.4741 -1.1467  1.2237
 8021SOL     OW35698   1.091   2.741   5.479 -0.3999 -0.1473 -0.1298
 8021SOL    HW135699   1.128   2.708   5.561 -1.0696 -1.1949 -0.2483
 8021SOL    HW235700   1.172   2.729   5.429  0.0549  0.7593  0.3914
 8022SOL     OW35701   1.824   2.257   2.262  0.3448  0.8447  0.1215
 8022SOL    HW135702   1.764   2.219   2.198 -1.2401  0.9030  1.5690
 8022SOL    HW235703   1.830   2.343   2.222 -2.1937  0.3585 -1.2709
 8023SOL     OW35704   1.395   4.089   2.074 -0.0494  0.0298  0.4028
 8023SOL    HW135705   1.323   4.129   2.122 -0.4334  0.2460 -0.3501
 8023SOL    HW235706   1.441   4.060   2.153 -0.3457 -2.3933 -0.2964
 8024SOL     OW35707   1.523   3.486  12.717 -0.3385  0.2350  0.0300
 8024SOL    HW135708   1.514   3.508  12.810  2.0327 -1.4544  0.6656
 8024SOL    HW235709   1.435   3.454  12.699  0.7067 -1.8076 -1.3827
 8025SOL     OW35710   3.974   1.135   2.614 -0.1388 -0.1043  0.2689
 8025SOL    HW135711   4.019   1.219   2.606  2.7876 -1.6561  0.3069
 8025SOL    HW235712   4.037   1.070   2.584  2.4451  1.6570  1.9087
 8026SOL     OW35713   2.837   3.233   2.675 -0.0955  0.1360 -0.0047
 8026SOL    HW135714   2.808   3.278   2.755 -0.9136 -0.3333 -0.0308
 8026SOL    HW235715   2.782   3.155   2.668 -0.4799  0.7649 -4.3011
 8027SOL     OW35716   3.756   1.738   2.990 -0.2078  0.0786 -0.0029
 8027SOL    HW135717   3.686   1.675   3.000  0.3193 -0.4333  0.4592
 8027SOL    HW235718   3.710   1.816   2.958  1.4670  1.3338  0.6391
 8028SOL     OW35719   1.718   0.411   0.798  0.2119  0.2339 -0.2695
 8028SOL    HW135720   1.787   0.373   0.744 -1.4480  0.5732 -2.6140
 8028SOL    HW235721   1.684   0.336   0.846 -1.2286  0.7655 -0.4794
 8029SOL     OW35722   0.437   0.078  16.964 -0.2216 -0.4696 -0.4263
 8029SOL    HW135723   0.369   0.114  17.021  0.6302  0.8023 -0.2012
 8029SOL    HW235724   0.485   0.025  17.027  0.2549  0.0928 -0.3141
 8030SOL     OW35725   0.569   3.029   7.293 -0.9024 -0.3500  0.1184
 8030SOL    HW135726   0.520   2.985   7.225  1.2361 -1.4706 -0.6860
 8030SOL    HW235727   0.506   3.031   7.365 -1.4447 -3.4240 -0.2747
 8031SOL     OW35728   2.130   3.752   5.381 -0.1558  0.0082  0.1755
 8031SOL    HW135729   2.088   3.741   5.296  0.3017  0.0894 -0.0616
 8031SOL    HW235730   2.210   3.798   5.355  0.2176  0.6797  2.4686
 8032SOL     OW35731   2.179   1.765   2.607  0.3173  0.4077  0.1596
 8032SOL    HW135732   2.272   1.754   2.589 -0.0543  0.1545 -1.6187
 8032SOL    HW235733   2.147   1.809   2.528 -0.5046  0.8885  0.7522
 8033SOL     OW35734   1.029   0.744  10.774 -0.4174 -0.1770  0.0695
 8033SOL    HW135735   1.017   0.748  10.679  0.4874 -0.5365 -0.0617
 8033SOL    HW235736   0.941   0.754  10.811 -0.8013 -0.7215 -0.6928
 8034SOL     OW35737   0.332   2.691   6.855  0.4164 -0.5436 -0.1804
 8034SOL    HW135738   0.260   2.644   6.897 -2.4430  0.7540 -3.6658
 8034SOL    HW235739   0.287   2.756   6.802  2.2187  0.8228 -0.0309
 8035SOL     OW35740   2.956   0.398   5.777 -0.3518  0.1397  0.5010
 8035SOL    HW135741   2.935   0.330   5.713  0.0038  1.7328 -1.3045
 8035SOL    HW235742   2.926   0.477   5.731  0.3626 -0.6318 -1.3142
 8036SOL     OW35743   0.661   4.213   6.178  0.7550  0.5268 -0.3599
 8036SOL    HW135744   0.595   4.272   6.141 -1.8411 -3.1995 -1.6534
 8036SOL    HW235745   0.685   4.265   6.255  2.8661 -0.6812 -0.1878
 8037SOL     OW35746   0.588   3.432   7.380 -0.2541 -0.4409  0.4200
 8037SOL    HW135747   0.596   3.395   7.292  1.0611  0.0927  0.3039
 8037SOL    HW235748   0.578   3.525   7.361  0.2107 -0.3244  0.7264
 8038SOL     OW35749   2.938   3.082  10.920  0.2415  0.1750  0.1413
 8038SOL    HW135750   2.955   3.167  10.961  1.3829 -0.3619  0.7728
 8038SOL    HW235751   2.923   3.106  10.828 -0.9491  1.2292  0.6064
 8039SOL     OW35752   0.603   1.842   6.804  0.4921 -0.6518 -0.5406
 8039SOL    HW135753   0.564   1.907   6.863  0.4185 -0.4557 -0.8039
 8039SOL    HW235754   0.690   1.839   6.842 -0.2279  1.8149  1.2831
 8040SOL     OW35755   4.113   1.493  16.867 -0.5377 -0.0266  0.5366
 8040SOL    HW135756   4.190   1.549  16.873 -0.5044 -0.1303  1.0104
 8040SOL    HW235757   4.101   1.479  16.773 -1.6188  2.2896  0.3242
 8041SOL     OW35758   2.366   2.113   8.840  0.0025  0.7895 -0.8109
 8041SOL    HW135759   2.423   2.188   8.860  0.3381  0.7487 -1.6492
 8041SOL    HW235760   2.301   2.141   8.776  1.7205  3.9592 -1.2224
 8042SOL     OW35761   4.484   1.866   2.133 -0.3037 -0.2016 -0.2726
 8042SOL    HW135762   4.461   1.827   2.048 -0.4709  1.9148 -1.2043
 8042SOL    HW235763   4.564   1.826   2.168  0.0444  1.1380  0.4644
 8043SOL     OW35764   1.930   0.174   7.866  0.2214  0.1517  0.0776
 8043SOL    HW135765   1.963   0.228   7.794 -2.5355  0.8074 -0.7084
 8043SOL    HW235766   1.981   0.094   7.857 -1.0591 -0.8219  1.6714
 8044SOL     OW35767   2.103   2.008   4.322 -0.4284  0.1384 -0.0273
 8044SOL    HW135768   2.037   2.054   4.374  0.3106  1.0825  0.0743
 8044SOL    HW235769   2.045   1.963   4.261 -1.6698  0.6700  0.7707
 8045SOL     OW35770   3.667   1.990   7.520  0.7102 -0.1276 -1.1232
 8045SOL    HW135771   3.760   1.999   7.542  1.0148 -1.8871 -1.6859
 8045SOL    HW235772   3.632   2.074   7.549 -0.1937 -0.6727 -0.6203
 8046SOL     OW35773   3.674   2.943   1.372  0.1684  0.0515  0.4498
 8046SOL    HW135774   3.659   2.919   1.280 -1.8398  0.3433  0.6946
 8046SOL    HW235775   3.588   2.981   1.389  0.6945  1.3655  0.1872
 8047SOL     OW35776   4.688   3.935   1.112 -0.7517  0.2001 -0.7944
 8047SOL    HW135777   4.641   4.008   1.152  0.2029  0.3760  0.0132
 8047SOL    HW235778   0.024   3.923   1.176 -1.3024  4.1905  0.5434
 8048SOL     OW35779   3.818   1.776   1.016 -0.6280 -0.2812 -0.0865
 8048SOL    HW135780   3.841   1.776   1.109 -0.5946 -1.0732 -0.0944
 8048SOL    HW235781   3.762   1.852   1.004 -0.6825 -0.3712 -0.3863
 8049SOL     OW35782   3.879   1.548  14.358  0.1431 -0.7566  0.3200
 8049SOL    HW135783   3.833   1.527  14.277 -0.6566 -1.9969  1.0876
 8049SOL    HW235784   3.839   1.481  14.415  0.6457  0.3566  1.9768
 8050SOL     OW35785   0.870   0.738   3.985 -0.1000 -0.2653  0.4754
 8050SOL    HW135786   0.898   0.820   3.944  1.4526 -0.4418  1.1745
 8050SOL    HW235787   0.929   0.734   4.060  2.8163  1.7501 -1.7180
 8051SOL     OW35788   4.020   3.638   5.188  0.0398 -0.5075 -0.4948
 8051SOL    HW135789   4.029   3.700   5.116  1.2058 -1.6089 -1.2841
 8051SOL    HW235790   3.964   3.694   5.243 -0.0327  0.2694 -1.3628
 8052SOL     OW35791   3.027   3.142   3.490 -0.5279  0.7376  0.0831
 8052SOL    HW135792   2.947   3.137   3.438 -1.0200 -1.0174  0.9771
 8052SOL    HW235793   3.087   3.079   3.451  2.6546  2.5207  2.1265
 8053SOL     OW35794   0.286   0.903   7.022  0.1972 -0.3272  0.6358
 8053SOL    HW135795   0.362   0.960   7.017  0.7983 -1.1348  0.4292
 8053SOL    HW235796   0.322   0.814   7.031 -1.0787 -1.0160 -0.9095
 8054SOL     OW35797   2.330   2.981   6.103  0.1339  0.1232  0.2640
 8054SOL    HW135798   2.246   2.972   6.148 -0.4437  0.4711 -0.7438
 8054SOL    HW235799   2.378   3.040   6.162  1.4598 -0.2122 -0.4799
 8055SOL     OW35800   2.299   0.605  15.482  0.5619  0.3814  0.4841
 8055SOL    HW135801   2.380   0.615  15.532  1.8963 -2.3193 -1.1240
 8055SOL    HW235802   2.322   0.657  15.404  1.9871 -1.1235 -0.0883
 8056SOL     OW35803   0.635   0.603  12.784  0.0317 -0.7147  0.2518
 8056SOL    HW135804   0.616   0.689  12.747  2.5331  0.3322  1.4613
 8056SOL    HW235805   0.720   0.616  12.826 -0.0946  1.4792 -0.1540
 8057SOL     OW35806   4.640   1.138   8.186 -0.2416 -0.3042  0.0822
 8057SOL    HW135807   4.585   1.131   8.264  2.2907  0.3185  1.9226
 8057SOL    HW235808   4.720   1.180   8.217 -0.0716 -0.3456 -0.2886
 8058SOL     OW35809   3.931   3.337   3.652  0.4071 -0.4818  0.3633
 8058SOL    HW135810   3.837   3.337   3.633  0.4471  1.4098  0.2034
 8058SOL    HW235811   3.960   3.377   3.570  2.5033 -1.6597  0.5384
 8059SOL     OW35812   3.626   0.273   4.277  0.3958 -0.6513  0.0783
 8059SOL    HW135813   3.642   0.189   4.234  1.3464 -0.2362 -0.3895
 8059SOL    HW235814   3.621   0.240   4.366  3.7187  2.4994  1.4626
 8060SOL     OW35815   2.144   2.790   8.044 -0.0348 -0.1014  0.0853
 8060SOL    HW135816   2.238   2.804   8.038  0.1391 -0.6550  1.6047
 8060SOL    HW235817   2.133   2.722   8.111  0.2446 -0.6769 -0.4461
 8061SOL     OW35818   3.689   3.251   8.784  0.2627  0.0729  0.2194
 8061SOL    HW135819   3.624   3.309   8.744  2.4072  2.6815  0.5366
 8061SOL    HW235820   3.765   3.305   8.762 -0.1153 -0.0766 -1.4920
 8062SOL     OW35821   3.632   1.078   8.051 -0.4939  0.2169  0.4459
 8062SOL    HW135822   3.554   1.082   7.996  1.4767  0.8602 -2.2983
 8062SOL    HW235823   3.659   1.167   8.075  3.5662 -1.4482  2.0543
 8063SOL     OW35824   0.737   4.035   7.542  0.3169 -0.0793  0.0743
 8063SOL    HW135825   0.657   4.075   7.575  0.0519 -0.4629 -0.0925
 8063SOL    HW235826   0.766   4.101   7.480 -1.2215 -1.5592 -2.2365
 8064SOL     OW35827   3.848   0.065  14.920  0.2137  0.0849 -0.0805
 8064SOL    HW135828   3.911   0.094  14.986  0.6918 -0.6023 -0.2354
 8064SOL    HW235829   3.896   4.720  14.899  2.1619  1.1213  0.3774
 8065SOL     OW35830   1.370   3.930  16.257 -0.3443 -0.4279 -0.0687
 8065SOL    HW135831   1.418   4.003  16.218 -0.3443 -0.0590  0.6305
 8065SOL    HW235832   1.292   3.923  16.202  0.8884  1.0625 -2.0111
 8066SOL     OW35833   4.071   2.362   9.847 -0.0622 -0.0758  0.7407
 8066SOL    HW135834   4.045   2.335   9.759  0.2630 -2.8869  1.5083
 8066SOL    HW235835   4.166   2.365   9.842  0.0344 -1.5576  1.5792
 8067SOL     OW35836   1.582   4.729  16.900 -0.3822 -0.4900 -0.1221
 8067SOL    HW135837   1.641   0.042  16.958 -2.8904  2.8150 -0.3285
 8067SOL    HW235838   1.504   0.027  16.945 -0.3463  0.6273 -0.8643
 8068SOL     OW35839   4.002   1.659   9.327  0.3904 -0.7818  0.2533
 8068SOL    HW135840   4.091   1.625   9.312  1.4559  1.6336  1.0373
 8068SOL    HW235841   3.994   1.621   9.414 -0.5955 -0.6826  0.2070
 8069SOL     OW35842   4.718   1.334  13.357  0.1821  0.0631  0.5650
 8069SOL    HW135843   0.065   1.296  13.326  1.4018  2.2439  1.0868
 8069SOL    HW235844   0.017   1.413  13.399  0.9042  1.3245 -2.3420
 8070SOL     OW35845   3.555   1.375   9.047 -0.0810 -0.4082 -0.3223
 8070SOL    HW135846   3.493   1.332   9.106  0.7413  0.2979  1.0707
 8070SOL    HW235847   3.504   1.381   8.966 -0.0707  2.2270 -0.1460
 8071SOL     OW35848   1.671   1.429  12.056 -0.4222  0.4343  0.5412
 8071SOL    HW135849   1.746   1.377  12.084 -1.3701 -1.1954  0.0720
 8071SOL    HW235850   1.628   1.367  11.998  1.2103  0.7801 -1.0497
 8072SOL     OW35851   0.946   4.713  16.383 -0.1807 -0.1842  0.3117
 8072SOL    HW135852   0.952   4.644  16.318  2.3043  1.3053 -1.0162
 8072SOL    HW235853   0.885   4.681  16.450 -0.5821  0.6620  0.3598
 8073SOL     OW35854   0.711   3.949   8.954  0.7382  0.2991 -0.4898
 8073SOL    HW135855   0.796   3.973   8.991  1.6737 -2.2126 -1.0037
 8073SOL    HW235856   0.653   3.928   9.027  0.2221 -1.5390 -1.4090
 8074SOL     OW35857   0.071   4.434  13.864 -0.1417 -0.4753  0.0010
 8074SOL    HW135858   0.053   4.438  13.957  0.6427 -1.3297  0.1930
 8074SOL    HW235859   0.097   4.524  13.844  0.2990 -0.5138  0.3992
 8075SOL     OW35860   3.279   4.346   4.123 -0.3255  0.2929  0.4123
 8075SOL    HW135861   3.329   4.421   4.156 -1.7620  0.5952  1.9363
 8075SOL    HW235862   3.343   4.275   4.124 -1.1742 -0.4526  1.3095
 8076SOL     OW35863   3.615   0.479   2.769  0.1854  0.2657  0.3654
 8076SOL    HW135864   3.629   0.571   2.745  1.0942  0.5291  1.9123
 8076SOL    HW235865   3.524   0.462   2.745  1.5282 -2.1560 -3.0538
 8077SOL     OW35866   0.643   3.823   8.736  0.5311  0.2147 -0.6000
 8077SOL    HW135867   0.671   3.873   8.813  2.0692 -0.3784 -0.7743
 8077SOL    HW235868   0.567   3.780   8.774 -0.8946  2.8602 -0.4273
 8078SOL     OW35869   0.717   3.481  16.136 -0.1970  0.5541  0.2937
 8078SOL    HW135870   0.762   3.436  16.207 -0.5006 -0.6966 -0.3035
 8078SOL    HW235871   0.784   3.494  16.070  0.2052  2.8897  1.1673
 8079SOL     OW35872   3.491   2.886   3.307  0.4690 -0.3069  0.2766
 8079SOL    HW135873   3.491   2.966   3.254  1.1960  0.4626  1.4416
 8079SOL    HW235874   3.460   2.816   3.251  1.9272 -0.0038 -0.9106
 8080SOL     OW35875   1.423   4.254   5.019 -0.4036  0.6854 -0.4235
 8080SOL    HW135876   1.448   4.275   4.929  1.6293  0.2202  0.0333
 8080SOL    HW235877   1.397   4.162   5.011 -0.9117  0.5753  2.4130
 8081SOL     OW35878   0.440   1.852   7.418  0.1473 -0.0767 -0.7639
 8081SOL    HW135879   0.468   1.761   7.425  1.5425  0.4043 -0.0511
 8081SOL    HW235880   0.354   1.836   7.379 -0.6764  1.3672  0.4584
 8082SOL     OW35881   1.454   4.208  11.691 -0.5101  0.3844 -0.5412
 8082SOL    HW135882   1.367   4.219  11.651 -1.6271 -2.3960  1.0903
 8082SOL    HW235883   1.484   4.154  11.618 -0.6637 -0.6749  0.1833
 8083SOL     OW35884   2.603   2.073  16.464  0.0441  0.5498 -0.6653
 8083SOL    HW135885   2.525   2.093  16.517  1.2839  1.2315  0.8778
 8083SOL    HW235886   2.593   1.977  16.464 -0.8095  0.6349 -1.2498
 8084SOL     OW35887   0.352   2.348   3.308  0.0642 -0.5534  0.0807
 8084SOL    HW135888   0.309   2.315   3.387  0.9659 -1.3481  0.2448
 8084SOL    HW235889   0.360   2.442   3.322 -0.4107 -0.2928 -1.3975
 8085SOL     OW35890   3.221   4.324   0.466  0.3629 -0.1125  0.1668
 8085SOL    HW135891   3.235   4.307   0.373 -1.0957  0.9014 -0.2410
 8085SOL    HW235892   3.310   4.334   0.501  0.9236 -1.1044 -0.9937
 8086SOL     OW35893   0.250   0.453  12.362 -0.0508 -0.6118  0.0651
 8086SOL    HW135894   0.165   0.421  12.334  0.4239 -2.0575  0.3135
 8086SOL    HW235895   0.294   0.482  12.282  0.0609  1.2072  0.7648
 8087SOL     OW35896   4.196   3.855   2.857 -0.6294  0.0914 -0.4296
 8087SOL    HW135897   4.258   3.783   2.867 -1.8440 -0.7933  0.7169
 8087SOL    HW235898   4.170   3.850   2.766 -0.8336 -2.5175 -0.2169
 8088SOL     OW35899   3.816   0.139   6.913  0.1467  0.4255 -0.2918
 8088SOL    HW135900   3.889   0.107   6.965  0.1952  1.0491  0.0326
 8088SOL    HW235901   3.835   0.233   6.918 -0.8465  0.6230 -0.1778
 8089SOL     OW35902   2.805   2.627   4.106  0.4685  0.2799 -0.5657
 8089SOL    HW135903   2.760   2.692   4.052 -1.1968 -0.4489 -0.0473
 8089SOL    HW235904   2.888   2.676   4.107  0.5856  0.0974 -1.1012
 8090SOL     OW35905   2.581   2.692  16.013 -0.1986  0.0429 -0.5908
 8090SOL    HW135906   2.662   2.685  15.963  0.3429 -1.5372  0.4730
 8090SOL    HW235907   2.611   2.720  16.100  2.0039 -0.7275 -1.0841
 8091SOL     OW35908   1.713   3.402   7.486 -0.3175  0.0996  0.8046
 8091SOL    HW135909   1.788   3.345   7.501 -0.6574 -0.8111 -0.9505
 8091SOL    HW235910   1.688   3.425   7.575  0.7023 -0.9151  1.3486
 8092SOL     OW35911   0.094   3.017   0.951  0.4619  0.8366  0.0824
 8092SOL    HW135912   0.134   3.085   1.005  0.8534 -0.0534  0.9113
 8092SOL    HW235913   4.735   3.020   0.968  0.1219 -0.5671 -1.5811
 8093SOL     OW35914   3.841   2.488   5.699 -0.4603  0.4334 -0.1131
 8093SOL    HW135915   3.869   2.511   5.611  0.7649 -1.2124 -0.1627
 8093SOL    HW235916   3.746   2.493   5.694 -0.4957 -0.1293 -0.0205
 8094SOL     OW35917   0.611   2.042   3.582 -0.1944  0.5918  0.3189
 8094SOL    HW135918   0.573   1.963   3.545  2.6320 -1.4919  1.8716
 8094SOL    HW235919   0.592   2.102   3.510 -0.7466  1.0349  0.8320
 8095SOL     OW35920   0.783   1.919  16.647  0.5567 -0.6402 -0.4413
 8095SOL    HW135921   0.775   1.963  16.562  0.3980  1.4896  0.6733
 8095SOL    HW235922   0.704   1.964  16.678  2.0424  0.9958  0.9064
 8096SOL     OW35923   4.283   1.954   3.432  0.4487  0.0307 -0.1345
 8096SOL    HW135924   4.351   2.013   3.464  1.5413 -0.2362 -1.9511
 8096SOL    HW235925   4.323   1.938   3.346 -0.9014 -0.0570 -0.7526
 8097SOL     OW35926   2.771   3.605   4.798 -0.4637 -0.5112 -0.8419
 8097SOL    HW135927   2.743   3.692   4.770  1.7767  0.1659 -0.9451
 8097SOL    HW235928   2.867   3.609   4.796 -0.4576 -0.9514 -1.8372
 8098SOL     OW35929   1.497   1.998  16.900 -0.1380 -0.3162  0.3181
 8098SOL    HW135930   1.454   2.079  16.926 -0.5082 -0.0061 -1.2272
 8098SOL    HW235931   1.425   1.942  16.869 -1.3118  1.0936  0.5113
 8099SOL     OW35932   0.655   3.134  16.709  0.8313 -0.2908  0.1871
 8099SOL    HW135933   0.603   3.152  16.788  0.6534 -2.8725  0.6468
 8099SOL    HW235934   0.633   3.041  16.702  0.6608 -0.1208 -1.3383
 8100SOL     OW35935   1.180   2.508   6.602 -0.0152  0.6741 -0.0951
 8100SOL    HW135936   1.179   2.602   6.581 -1.4281 -0.0941 -3.3541
 8100SOL    HW235937   1.153   2.511   6.694  0.0505 -0.9716 -0.0277
 8101SOL     OW35938   3.259   2.073   4.178 -0.2379  0.1407  1.0311
 8101SOL    HW135939   3.167   2.102   4.178 -0.8798 -1.9083 -1.0474
 8101SOL    HW235940   3.304   2.153   4.206  1.3392 -0.6758  0.8001
 8102SOL     OW35941   2.085   3.983  12.576 -0.5016  0.5389  0.3890
 8102SOL    HW135942   2.172   3.943  12.573 -0.6138  0.4655 -2.0824
 8102SOL    HW235943   2.120   4.071  12.590 -2.0029  1.5034 -1.9700
 8103SOL     OW35944   0.840   0.350   5.699 -0.2694  0.2811 -0.0218
 8103SOL    HW135945   0.773   0.418   5.685 -0.7122 -0.0875  0.2948
 8103SOL    HW235946   0.851   0.360   5.794 -2.2147 -1.0271  0.3378
 8104SOL     OW35947   3.386   3.917  10.023 -0.1611 -0.2553 -0.5153
 8104SOL    HW135948   3.455   3.948  10.081 -1.0206  0.1108  0.3086
 8104SOL    HW235949   3.400   3.822  10.024  1.9881  0.0561 -1.1531
 8105SOL     OW35950   3.494   0.804   6.956 -0.3046 -0.1714  0.0658
 8105SOL    HW135951   3.533   0.717   6.966  0.9567  0.4310  0.4438
 8105SOL    HW235952   3.475   0.822   7.049  2.1599 -0.3322  0.5929
 8106SOL     OW35953   2.035   2.831   5.962  0.2672  0.2637  0.5027
 8106SOL    HW135954   1.955   2.840   6.014  2.1290 -1.9680  3.7905
 8106SOL    HW235955   2.095   2.817   6.035 -0.2983 -0.8917  0.7457
 8107SOL     OW35956   0.737   0.922   2.842 -0.8045 -0.0862  0.1905
 8107SOL    HW135957   0.782   0.844   2.810  0.0971  1.6259 -2.7737
 8107SOL    HW235958   0.688   0.889   2.917 -0.1081 -0.9068  0.2777
 8108SOL     OW35959   1.827   3.291   5.637  0.0399  0.2044 -0.2625
 8108SOL    HW135960   1.772   3.334   5.702 -0.1998  1.0768 -1.0364
 8108SOL    HW235961   1.766   3.232   5.593 -0.6078 -0.2246  1.2489
 8109SOL     OW35962   4.002   3.593  14.126  0.2763  0.0829 -0.5394
 8109SOL    HW135963   3.966   3.654  14.062 -0.2482  0.1923 -0.1320
 8109SOL    HW235964   4.087   3.631  14.148  0.3679 -1.0610  1.0382
 8110SOL     OW35965   0.477   1.973   8.751  0.0904  0.0458 -0.4622
 8110SOL    HW135966   0.473   1.993   8.844 -2.2631  1.2562 -0.8175
 8110SOL    HW235967   0.389   1.947   8.725 -0.0980 -0.1901  0.4143
 8111SOL     OW35968   3.560   0.778  13.199 -0.1714 -0.1569 -0.7291
 8111SOL    HW135969   3.488   0.768  13.138  0.9137  0.9290 -2.1764
 8111SOL    HW235970   3.555   0.692  13.242  2.3517  0.3325  0.5228
 8112SOL     OW35971   2.302   2.397   0.292 -0.1738  0.1146  0.5028
 8112SOL    HW135972   2.217   2.374   0.330 -1.8444  0.8009 -2.7846
 8112SOL    HW235973   2.287   2.414   0.199  2.2058  0.1675  0.1249
 8113SOL     OW35974   4.566   1.321   6.765  0.1052  0.5932 -0.4409
 8113SOL    HW135975   4.630   1.326   6.836 -2.6543  2.1015  1.9657
 8113SOL    HW235976   4.631   1.287   6.704 -0.1631 -0.2502 -0.2531
 8114SOL     OW35977   4.353   1.977  13.058 -0.0364  0.3784 -0.5256
 8114SOL    HW135978   4.258   1.962  13.061 -0.2525  1.9920  0.8247
 8114SOL    HW235979   4.367   2.049  13.119  1.1825  1.0645 -1.6073
 8115SOL     OW35980   3.806   3.919   8.046 -0.0795  0.1614 -0.1574
 8115SOL    HW135981   3.768   3.934   8.133 -1.9944 -0.0900 -0.9643
 8115SOL    HW235982   3.730   3.931   7.990 -1.0513  0.0220  1.1281
 8116SOL     OW35983   1.018   1.347   3.708 -0.0005 -0.2119 -0.2793
 8116SOL    HW135984   0.931   1.340   3.748  0.8673 -0.5872  1.5014
 8116SOL    HW235985   1.028   1.440   3.690 -1.3449 -0.2188 -1.1232
 8117SOL     OW35986   1.201   2.434   5.413 -0.0023 -0.1896 -0.1389
 8117SOL    HW135987   1.162   2.488   5.344 -2.0068 -0.8213  0.4737
 8117SOL    HW235988   1.293   2.458   5.415  0.4842 -2.0777 -0.5043
 8118SOL     OW35989   2.575   2.695  11.167  0.1064 -0.1293 -0.4092
 8118SOL    HW135990   2.553   2.655  11.252  1.9365  0.6949  0.4468
 8118SOL    HW235991   2.653   2.641  11.157 -0.6433 -1.4796  0.9916
 8119SOL     OW35992   0.865   3.899   1.112 -0.0718  0.1321  0.1662
 8119SOL    HW135993   0.873   3.902   1.017 -0.2133 -0.8060  0.1236
 8119SOL    HW235994   0.949   3.942   1.128  0.4081 -0.4770 -0.7199
 8120SOL     OW35995   2.937   3.356   8.167 -0.1417 -0.3438  0.1040
 8120SOL    HW135996   2.930   3.440   8.122  1.8663 -0.6774 -0.8309
 8120SOL    HW235997   2.876   3.372   8.239 -2.8509 -3.1309 -1.5695
 8121SOL     OW35998   4.387   2.803   8.454  0.2122  0.1102  0.0793
 8121SOL    HW135999   4.387   2.789   8.548 -1.4751  0.0552  0.0790
 8121SOL    HW236000   4.294   2.828   8.456  0.1151 -0.3631  1.4666
 8122SOL     OW36001   1.377   3.479   4.030 -0.2745 -0.0132  0.1884
 8122SOL    HW136002   1.384   3.523   4.114  3.9706  1.9477 -1.2247
 8122SOL    HW236003   1.430   3.534   3.972  1.7904 -1.3366  0.8376
 8123SOL     OW36004   1.666   1.087   5.932 -0.2868 -0.4099  0.4608
 8123SOL    HW136005   1.600   1.117   5.995 -0.0662  0.2516  0.3820
 8123SOL    HW236006   1.734   1.151   5.957  0.5196 -0.7930 -0.7588
 8124SOL     OW36007   0.254   1.082   9.116 -0.1482  0.1214 -0.6962
 8124SOL    HW136008   0.329   1.114   9.167  0.6672 -0.7783 -1.3230
 8124SOL    HW236009   0.261   0.987   9.114  1.3123  0.2055 -0.1344
 8125SOL     OW36010   1.832   2.584   8.325 -0.1572  0.1445  0.3617
 8125SOL    HW136011   1.832   2.650   8.255 -0.5009 -1.6183 -1.3136
 8125SOL    HW236012   1.812   2.506   8.273 -0.6427  1.0048 -0.7409
 8126SOL     OW36013   4.581   0.259   6.557  0.4426 -0.2455  0.5845
 8126SOL    HW136014   4.667   0.274   6.519  0.2379  2.2098  1.1131
 8126SOL    HW236015   4.525   0.271   6.481  0.2343  1.1154  0.9416
 8127SOL     OW36016   3.083   2.152   9.596  0.4283  0.4157 -0.0799
 8127SOL    HW136017   3.040   2.165   9.681  0.4488 -0.6578  0.0936
 8127SOL    HW236018   3.148   2.085   9.615  0.3130  0.5331  0.7525
 8128SOL     OW36019   4.544   3.147   4.183 -0.2811 -0.1700  0.0065
 8128SOL    HW136020   4.540   3.052   4.194 -2.4995 -0.1825 -0.9567
 8128SOL    HW236021   4.629   3.170   4.144 -1.6005  0.2419 -2.6612
 8129SOL     OW36022   4.432   4.019  10.228 -0.1954 -0.4512 -0.6790
 8129SOL    HW136023   4.469   4.107  10.235  0.7074 -0.8451 -0.5694
 8129SOL    HW236024   4.436   4.008  10.323  1.0775 -2.8698 -0.9988
 8130SOL     OW36025   2.726   1.478   1.773  0.3676  0.3768  0.1834
 8130SOL    HW136026   2.746   1.402   1.828  0.9760  0.1269 -0.3854
 8130SOL    HW236027   2.799   1.471   1.712 -0.9702  1.5927 -1.5552
 8131SOL     OW36028   3.866   3.613   0.285  0.1372  0.3561  0.5891
 8131SOL    HW136029   3.872   3.531   0.236 -1.1892 -0.1770  1.3175
 8131SOL    HW236030   3.941   3.616   0.345  0.9571 -1.3973 -0.3168
 8132SOL     OW36031   2.241   3.426  17.131  0.3257  0.0302  0.3798
 8132SOL    HW136032   2.222   3.502  17.076  0.3239  0.4964  1.0162
 8132SOL    HW236033   2.302   3.466  17.194  0.2749  2.5196 -1.1352
 8133SOL     OW36034   2.045   3.201   2.633 -0.4243 -0.3662  0.1289
 8133SOL    HW136035   1.980   3.183   2.566  1.5395  2.1480 -2.4554
 8133SOL    HW236036   2.112   3.259   2.595  0.6039  0.2552  2.8786
 8134SOL     OW36037   2.804   0.091  16.631 -0.2572 -0.2002  0.0148
 8134SOL    HW136038   2.805   0.031  16.557 -1.0616 -0.3721  0.1471
 8134SOL    HW236039   2.832   0.174  16.593 -0.3447  0.2081  0.8366
 8135SOL     OW36040   4.015   4.037  17.100  0.4476 -0.7184 -0.3232
 8135SOL    HW136041   4.015   3.973  17.030  0.3239  0.5531 -1.4833
 8135SOL    HW236042   3.989   4.117  17.055  0.9024 -0.2763  0.1936
 8136SOL     OW36043   4.462   3.006  13.884 -0.2176 -0.3260 -0.2092
 8136SOL    HW136044   4.504   2.985  13.967  1.5951  2.2623 -0.4616
 8136SOL    HW236045   4.522   3.067  13.840 -0.1878  0.3422  0.7648
 8137SOL     OW36046   1.283   3.943  15.110 -0.3032  0.3928 -0.6783
 8137SOL    HW136047   1.232   4.018  15.079  1.2063  0.3338 -3.2395
 8137SOL    HW236048   1.329   3.920  15.030  3.2013 -0.0081  1.4620
 8138SOL     OW36049   2.068   1.321  14.545  0.5144  0.2857  0.5406
 8138SOL    HW136050   1.997   1.375  14.511 -0.0330 -0.1183  1.0582
 8138SOL    HW236051   2.040   1.240  14.504 -0.1049  1.3926 -1.2396
 8139SOL     OW36052   0.085   4.032   5.102  0.1464 -0.1463 -0.1350
 8139SOL    HW136053   0.157   3.970   5.103  0.4533  0.2276  1.0412
 8139SOL    HW236054   0.071   4.047   5.195  0.2477 -0.9649  0.0072
 8140SOL     OW36055   4.057   0.442   5.265  0.1233  0.3648 -0.3446
 8140SOL    HW136056   4.039   0.405   5.352  0.0624 -0.6692 -0.7860
 8140SOL    HW236057   4.102   0.520   5.295  0.5910  0.1601 -0.5105
 8141SOL     OW36058   0.464   3.024   5.398  0.0572  0.2429 -0.3535
 8141SOL    HW136059   0.458   3.120   5.397 -0.3702  0.2417  3.1429
 8141SOL    HW236060   0.549   3.013   5.441 -0.8969  0.2549  1.5028
 8142SOL     OW36061   3.503   4.076  13.373 -0.1095  0.4777 -0.2054
 8142SOL    HW136062   3.587   4.060  13.417 -0.0271  1.0760 -0.1537
 8142SOL    HW236063   3.457   3.996  13.400  0.5549  0.4121  0.7187
 8143SOL     OW36064   2.105   1.743   1.551 -0.0119 -0.5533 -0.0111
 8143SOL    HW136065   2.099   1.826   1.503  1.8047 -0.7903 -0.6323
 8143SOL    HW236066   2.161   1.693   1.492 -0.8355 -1.9555  0.4084
 8144SOL     OW36067   3.295   0.972   6.358 -0.0935 -0.1728 -0.0043
 8144SOL    HW136068   3.349   0.996   6.283 -1.2128  1.5851 -0.2510
 8144SOL    HW236069   3.351   1.020   6.420  0.2175 -1.2802  0.5664
 8145SOL     OW36070   2.026   0.823   5.763  0.1993  0.2402 -0.9526
 8145SOL    HW136071   2.013   0.909   5.722 -0.4904  0.2338 -0.7362
 8145SOL    HW236072   1.965   0.834   5.836 -0.7241 -0.8393 -1.5661
 8146SOL     OW36073   0.006   0.395   1.860  0.3742 -0.2755 -0.4336
 8146SOL    HW136074   0.032   0.353   1.777  2.6840 -1.0848  0.7172
 8146SOL    HW236075   0.064   0.460   1.898 -0.0060 -0.0003 -0.3245
 8147SOL     OW36076   0.832   4.147   7.274 -0.0764  0.1033  0.1618
 8147SOL    HW136077   0.790   4.231   7.253 -0.6432 -0.5383 -1.2463
 8147SOL    HW236078   0.866   4.112   7.192 -0.4392  0.8065 -0.2976
 8148SOL     OW36079   2.271   0.211   5.442 -0.5767  0.0183 -0.0988
 8148SOL    HW136080   2.194   0.261   5.470 -1.7307 -2.6371  1.3484
 8148SOL    HW236081   2.276   0.257   5.358 -3.6484 -0.3383 -0.4906
 8149SOL     OW36082   3.415   4.042   7.408  0.1759  0.5500  0.8119
 8149SOL    HW136083   3.377   3.956   7.423 -0.6391  0.8277  0.3446
 8149SOL    HW236084   3.469   4.017   7.333 -1.7455 -1.6495  0.1811
 8150SOL     OW36085   3.677   2.477  12.058  0.4340  0.5354 -0.4369
 8150SOL    HW136086   3.646   2.471  11.967 -1.4122 -1.2946  0.3308
 8150SOL    HW236087   3.680   2.572  12.070 -2.7381  0.9276 -2.7949
 8151SOL     OW36088   1.191   0.959   2.082  0.1873 -0.1839 -0.4346
 8151SOL    HW136089   1.206   0.935   2.174 -0.6932  1.6226  0.1753
 8151SOL    HW236090   1.266   0.924   2.033  1.2074 -0.4799  1.3231
 8152SOL     OW36091   3.201   3.350  14.584  0.0065  0.1708 -1.3296
 8152SOL    HW136092   3.254   3.291  14.531  2.3022  0.2386  0.8177
 8152SOL    HW236093   3.274   3.375  14.642  0.9932 -1.8361 -1.6974
 8153SOL     OW36094   0.198   0.505   8.186 -0.1987  0.2354  0.3219
 8153SOL    HW136095   0.114   0.526   8.227 -2.1812 -0.5104 -3.4156
 8153SOL    HW236096   0.190   0.412   8.166  2.7964  0.1272 -0.3588
 8154SOL     OW36097   1.590   1.976   4.192  0.0574  0.0507 -0.4957
 8154SOL    HW136098   1.566   2.058   4.149  2.9996  0.3931 -1.4502
 8154SOL    HW236099   1.533   1.916   4.144  0.8975 -1.1758  0.0561
 8155SOL     OW36100   3.825   3.687   8.663 -0.5015 -0.4237 -0.7729
 8155SOL    HW136101   3.810   3.772   8.704  0.2680  0.1429 -1.6955
 8155SOL    HW236102   3.786   3.697   8.576  1.0963 -0.4643 -1.4931
 8156SOL     OW36103   0.487   3.719   3.169  0.1884 -0.1815  0.0383
 8156SOL    HW136104   0.480   3.644   3.109  3.1369  0.2430 -0.8374
 8156SOL    HW236105   0.394   3.743   3.171  0.2203 -0.1528  0.9257
 8157SOL     OW36106   0.205   4.466  10.972 -0.2557 -0.7115 -0.5023
 8157SOL    HW136107   0.266   4.464  11.046 -1.4248 -0.5705  0.4679
 8157SOL    HW236108   0.233   4.551  10.937 -1.9453 -0.1544 -0.5107
 8158SOL     OW36109   3.385   1.326  16.692 -0.2307  0.1630  0.1680
 8158SOL    HW136110   3.417   1.238  16.671 -0.1943  0.4419 -0.9030
 8158SOL    HW236111   3.468   1.370  16.710  0.0565 -0.8334  1.3400
 8159SOL     OW36112   1.626   1.330  10.233  0.0438 -0.4530  0.1863
 8159SOL    HW136113   1.687   1.258  10.251 -1.0851 -1.1233  1.3415
 8159SOL    HW236114   1.663   1.404  10.282 -1.7319  0.8852 -0.5083
 8160SOL     OW36115   0.237   4.213   8.763 -0.1512 -0.1629 -0.2550
 8160SOL    HW136116   0.235   4.124   8.799 -0.2138  0.2210  0.7019
 8160SOL    HW236117   0.214   4.206   8.670 -0.1778 -2.9149 -0.0283
 8161SOL     OW36118   2.578   2.465   4.244  0.3585  0.1949  0.1569
 8161SOL    HW136119   2.535   2.466   4.159 -0.4194  2.3680  0.5607
 8161SOL    HW236120   2.649   2.527   4.226 -1.3635  2.4073  0.9082
 8162SOL     OW36121   1.825   0.451  11.507  0.1145 -0.5690 -0.5195
 8162SOL    HW136122   1.768   0.495  11.444  1.1572  0.2719 -0.8667
 8162SOL    HW236123   1.867   0.527  11.547  2.1930 -1.7538 -0.4675
 8163SOL     OW36124   3.079   1.197  15.617  0.3548  0.0140 -0.0147
 8163SOL    HW136125   3.087   1.148  15.535  1.0414  0.5039 -0.2419
 8163SOL    HW236126   3.005   1.255  15.598  0.9121  1.0725  1.0498
 8164SOL     OW36127   3.829   2.455   2.008  0.2657  0.8316  0.2900
 8164SOL    HW136128   3.778   2.482   2.085  1.1912 -1.5644  1.7542
 8164SOL    HW236129   3.899   2.411   2.057  0.8014  2.2421  0.7879
 8165SOL     OW36130   2.238   0.898  12.287  0.5275  0.2023 -0.2531
 8165SOL    HW136131   2.199   0.854  12.362 -1.7195  1.2657 -0.7920
 8165SOL    HW236132   2.328   0.895  12.321  0.5596  0.7432 -0.2880
 8166SOL     OW36133   1.617   0.586  13.609 -0.5312  0.5062  0.1245
 8166SOL    HW136134   1.543   0.612  13.664  0.7817  1.0846  1.6478
 8166SOL    HW236135   1.610   0.492  13.595  0.3942  0.3009  1.0102
 8167SOL     OW36136   3.298   3.326   1.284  0.5810  0.6142 -0.2392
 8167SOL    HW136137   3.387   3.318   1.248  0.6640 -2.9178  0.7949
 8167SOL    HW236138   3.251   3.309   1.203  0.0102  2.5824 -0.3172
 8168SOL     OW36139   2.108   4.258   3.587 -0.0241  0.2817 -0.3485
 8168SOL    HW136140   2.032   4.316   3.594 -0.1850 -0.0379  0.5525
 8168SOL    HW236141   2.074   4.186   3.641  0.6782  0.8388  0.8301
 8169SOL     OW36142   2.033   2.800   9.756  0.1268 -0.2136  0.2635
 8169SOL    HW136143   1.999   2.749   9.683 -0.5038 -0.5321  0.7763
 8169SOL    HW236144   2.014   2.749   9.834 -1.0694  0.2434  0.2721
 8170SOL     OW36145   3.602   4.088   3.607  0.3346  0.0035  0.5315
 8170SOL    HW136146   3.650   4.167   3.579 -1.0755  0.6819  0.0269
 8170SOL    HW236147   3.675   4.026   3.603 -0.2463 -0.5210 -1.7072
 8171SOL     OW36148   3.284   2.723   7.595  0.0315 -0.4206 -0.2643
 8171SOL    HW136149   3.216   2.713   7.528 -1.1838 -0.6645  1.0307
 8171SOL    HW236150   3.318   2.634   7.591  1.1211 -0.0540  0.9144
 8172SOL     OW36151   2.061   1.516   8.024 -0.8004  0.1657 -0.3783
 8172SOL    HW136152   2.072   1.421   8.028  1.4450  0.3909 -1.2880
 8172SOL    HW236153   1.983   1.524   7.971 -1.3538  0.8673  0.5397
 8173SOL     OW36154   2.582   1.200   5.380 -0.0716  0.1372  0.1015
 8173SOL    HW136155   2.674   1.180   5.367 -0.4508 -0.9877 -0.8950
 8173SOL    HW236156   2.558   1.231   5.293 -1.7748 -1.1664  0.1118
 8174SOL     OW36157   2.107   2.215  13.191 -0.3190  0.4141  0.6687
 8174SOL    HW136158   2.128   2.124  13.172  0.2246  0.8299 -0.7221
 8174SOL    HW236159   2.183   2.234  13.246  0.1055  0.8802 -0.0711
 8175SOL     OW36160   2.707   2.838   6.531  0.0155 -0.8800 -0.2031
 8175SOL    HW136161   2.705   2.834   6.435  1.3501 -0.7932 -0.2235
 8175SOL    HW236162   2.647   2.766   6.551 -1.2537 -0.1604 -1.4043
 8176SOL     OW36163   1.775   4.264   3.832  0.0690 -0.1554 -0.5800
 8176SOL    HW136164   1.767   4.179   3.876 -1.0481 -0.6630 -1.7574
 8176SOL    HW236165   1.862   4.243   3.799  0.3103  1.7274 -1.1343
 8177SOL     OW36166   1.565   3.243   5.278  0.0317  0.1111  0.1210
 8177SOL    HW136167   1.580   3.195   5.197  3.4742 -0.7930  1.2712
 8177SOL    HW236168   1.500   3.310   5.258 -0.0363  0.4164  1.3470
 8178SOL     OW36169   4.383   3.850   6.863  0.8737  0.1895 -0.4557
 8178SOL    HW136170   4.475   3.823   6.871  0.0948 -1.5294  2.6793
 8178SOL    HW236171   4.399   3.911   6.791 -2.4145 -0.3669 -1.6483
 8179SOL     OW36172   2.455   0.460   3.019 -0.2584  0.2970  0.5515
 8179SOL    HW136173   2.370   0.466   2.976 -0.0710 -0.8472  0.0433
 8179SOL    HW236174   2.487   0.378   2.983 -2.7827 -0.2621 -0.3965
 8180SOL     OW36175   0.995   0.263   8.604  0.2182  0.0513  0.4234
 8180SOL    HW136176   0.970   0.222   8.687 -0.2689  3.3733  1.8880
 8180SOL    HW236177   0.924   0.236   8.545 -0.0355  0.6178  0.4682
 8181SOL     OW36178   2.730   3.658   0.325  0.2210  0.3411  0.1182
 8181SOL    HW136179   2.789   3.704   0.385  0.9618 -0.5944  0.1059
 8181SOL    HW236180   2.766   3.684   0.241 -0.4849 -0.1516 -0.3368
 8182SOL     OW36181   2.534   0.178  10.434  0.1656 -0.4773 -0.3452
 8182SOL    HW136182   2.534   0.084  10.449  1.8695 -0.6532 -1.5155
 8182SOL    HW236183   2.602   0.193  10.499  0.9282 -3.8086 -0.3931
 8183SOL     OW36184   2.182   3.651   7.426 -0.1155  0.3719  0.0926
 8183SOL    HW136185   2.138   3.731   7.452 -1.1811 -0.8125  1.8946
 8183SOL    HW236186   2.154   3.595   7.498 -0.8854 -0.1504 -0.6034
 8184SOL     OW36187   1.535   2.381   5.901  0.2185 -0.4376 -0.5807
 8184SOL    HW136188   1.465   2.351   5.843 -1.4552  0.5133  0.9568
 8184SOL    HW236189   1.586   2.442   5.848  0.0340 -0.9507 -1.3388
 8185SOL     OW36190   0.998   2.203   2.511  0.0968 -0.3708  0.1682
 8185SOL    HW136191   1.050   2.256   2.451  0.0690 -0.5408 -0.0062
 8185SOL    HW236192   1.057   2.129   2.525  2.2698  1.1837 -0.7354
 8186SOL     OW36193   1.054   1.328   4.471 -0.7167  0.0314  0.4175
 8186SOL    HW136194   1.145   1.355   4.456 -0.5699  0.3212  1.7606
 8186SOL    HW236195   1.062   1.288   4.557 -1.1853  1.9063  1.3498
 8187SOL     OW36196   4.542   1.850   2.561  0.6056  0.1702  0.2967
 8187SOL    HW136197   4.564   1.906   2.636 -0.3300  0.0374  0.6679
 8187SOL    HW236198   4.612   1.860   2.497 -1.1246  2.8734 -1.2042
 8188SOL     OW36199   2.665   2.565   0.100 -0.5271 -0.3104  0.1073
 8188SOL    HW136200   2.585   2.599   0.141 -1.2482  1.8671 -3.0524
 8188SOL    HW236201   2.718   2.560   0.180 -1.4182  1.1021  0.7889
 8189SOL     OW36202   0.451   0.369   7.694 -0.4003  0.2498 -0.0060
 8189SOL    HW136203   0.389   0.428   7.738  0.9420  0.9219  0.9953
 8189SOL    HW236204   0.417   0.397   7.610 -1.7061 -1.1769  0.0542
 8190SOL     OW36205   2.102   1.146   2.267  0.1748 -0.3391  0.1561
 8190SOL    HW136206   2.196   1.159   2.280  0.1558  0.5508 -0.6168
 8190SOL    HW236207   2.089   1.192   2.184  1.3796 -0.5970 -0.1734
 8191SOL     OW36208   1.350   1.803   9.891 -0.3534 -0.1012  0.1996
 8191SOL    HW136209   1.444   1.791   9.904  0.0215  2.4264 -0.1421
 8191SOL    HW236210   1.315   1.721   9.926  0.3673 -0.1563  0.7834
 8192SOL     OW36211   3.906   0.758   7.618  0.3583  0.4232 -0.0331
 8192SOL    HW136212   3.846   0.691   7.649 -2.1619  1.6105 -2.2858
 8192SOL    HW236213   3.896   0.819   7.691 -2.3069 -0.9631  0.7617
 8193SOL     OW36214   2.288   0.059   6.891  0.1574 -0.0108  0.2283
 8193SOL    HW136215   2.372   0.032   6.854 -1.0585 -4.1469  0.3962
 8193SOL    HW236216   2.316   0.093   6.976  0.9150 -0.1925  0.0524
 8194SOL     OW36217   0.577   0.474   4.960 -0.5395  0.4461  0.2277
 8194SOL    HW136218   0.526   0.424   5.025  2.2567 -1.4968  0.9018
 8194SOL    HW236219   0.510   0.539   4.940 -0.7900  0.8735  2.4855
 8195SOL     OW36220   1.976   3.689   9.355  0.5674  0.2831  0.6950
 8195SOL    HW136221   1.916   3.756   9.387 -0.7377  0.6786 -2.5805
 8195SOL    HW236222   1.948   3.665   9.267  0.9977  1.7376  0.1642
 8196SOL     OW36223   1.148   0.426   7.974 -0.3433 -0.0536  0.4752
 8196SOL    HW136224   1.174   0.435   7.883 -2.3181 -1.5389 -0.2467
 8196SOL    HW236225   1.237   0.417   8.006 -0.0936  1.5751  0.2355
 8197SOL     OW36226   4.082   3.595   7.214  0.1491 -0.1946  0.3019
 8197SOL    HW136227   3.992   3.584   7.185 -0.3937  1.6852  1.2525
 8197SOL    HW236228   4.122   3.511   7.191  2.7709  0.5761  2.0397
 8198SOL     OW36229   3.105   4.683   4.670  0.9319  1.0112 -0.0748
 8198SOL    HW136230   3.149   4.644   4.595  0.4500 -1.2910  0.8284
 8198SOL    HW236231   3.019   4.644   4.655  1.1805 -0.0240  1.1893
 8199SOL     OW36232   3.210   4.106   3.071 -0.4255 -0.2234  0.2244
 8199SOL    HW136233   3.166   4.191   3.068  0.5768  0.2337 -1.3581
 8199SOL    HW236234   3.303   4.126   3.079 -0.3557 -0.3459 -0.2803
 8200SOL     OW36235   3.996   2.837   5.317 -0.3305 -0.2980 -0.3937
 8200SOL    HW136236   4.037   2.777   5.254 -2.6701 -0.8745 -1.3585
 8200SOL    HW236237   3.934   2.878   5.257  0.4931 -1.0985 -1.8080
 8201SOL     OW36238   2.243   3.487   4.070 -0.4971 -0.2527 -0.1661
 8201SOL    HW136239   2.215   3.397   4.091 -2.2432  0.1945 -0.5757
 8201SOL    HW236240   2.156   3.527   4.072 -0.0689  0.6644 -0.0327
 8202SOL     OW36241   4.353   2.128   2.014  0.0349  0.3932  0.1569
 8202SOL    HW136242   4.408   2.070   2.066 -0.6106 -1.8169 -1.6250
 8202SOL    HW236243   4.382   2.212   2.048 -0.9027  0.7896 -0.0268
 8203SOL     OW36244   1.634   4.596   9.766  0.7461 -0.3033 -0.1077
 8203SOL    HW136245   1.541   4.593   9.786  0.8810  0.1223  0.5954
 8203SOL    HW236246   1.656   4.685   9.796  2.7064 -0.9231  0.2844
 8204SOL     OW36247   4.276   0.407   6.773  0.2732  0.2774  0.1582
 8204SOL    HW136248   4.296   0.313   6.766 -0.3644  0.1919 -0.4112
 8204SOL    HW236249   4.251   0.425   6.683  0.8847  1.9863  0.3359
 8205SOL     OW36250   2.434   1.999   5.989  0.4618 -0.2579 -0.1498
 8205SOL    HW136251   2.456   2.080   6.033 -2.5303  1.3139 -1.5655
 8205SOL    HW236252   2.345   1.978   6.019  1.6584 -2.4031  1.9256
 8206SOL     OW36253   0.879   0.991   4.493  0.7296 -0.6052 -0.5623
 8206SOL    HW136254   0.889   1.016   4.401  1.0593 -1.3190 -0.7216
 8206SOL    HW236255   0.965   0.991   4.536 -0.0308 -2.0412  0.9472
 8207SOL     OW36256   4.275   1.348   2.445  0.2497 -0.3476  0.4106
 8207SOL    HW136257   4.217   1.350   2.522 -0.7872 -0.6934 -0.3552
 8207SOL    HW236258   4.207   1.304   2.393  1.8775 -1.4375 -0.7829
 8208SOL     OW36259   3.522   1.909   4.489  0.3506 -0.7781 -0.1766
 8208SOL    HW136260   3.542   1.828   4.443  3.0065  0.0527 -0.4425
 8208SOL    HW236261   3.432   1.885   4.511 -0.3240  0.6657 -1.3926
 8209SOL     OW36262   1.365   3.130   3.700 -0.2297  0.3909 -0.2956
 8209SOL    HW136263   1.368   3.153   3.792  2.4679  0.4366 -0.3869
 8209SOL    HW236264   1.386   3.036   3.700  1.3037  0.7272 -0.1682
 8210SOL     OW36265   1.936   0.414   9.731 -0.4899 -0.3907 -0.4977
 8210SOL    HW136266   1.985   0.334   9.714  0.2160  0.2356 -1.3962
 8210SOL    HW236267   1.845   0.384   9.724 -0.4514 -0.2047 -1.7759
 8211SOL     OW36268   0.711   4.550   1.851  0.3218  0.1385 -0.3020
 8211SOL    HW136269   0.803   4.530   1.865  0.8279  2.6551  0.1055
 8211SOL    HW236270   0.709   4.530   1.758  0.8456  0.2709 -0.3432
 8212SOL     OW36271   1.694   0.575   7.198  0.2626  0.0868 -0.1826
 8212SOL    HW136272   1.785   0.599   7.181  0.3699 -1.0286 -1.1952
 8212SOL    HW236273   1.665   0.655   7.241 -0.6113  0.5319 -1.6118
 8213SOL     OW36274   0.576   4.206   0.321  0.1256  0.0123  0.1576
 8213SOL    HW136275   0.617   4.155   0.251 -2.4933  0.7427 -1.9563
 8213SOL    HW236276   0.504   4.145   0.339 -1.8839  1.6002 -2.5353
 8214SOL     OW36277   4.609   4.180  16.501  0.1798 -0.0821  0.0139
 8214SOL    HW136278   4.585   4.253  16.558 -0.4976  1.2934 -2.0049
 8214SOL    HW236279   4.532   4.182  16.443 -1.2943 -1.2454  1.9100
 8215SOL     OW36280   3.068   0.422   6.253  0.0787 -0.2572 -0.2021
 8215SOL    HW136281   3.023   0.500   6.222 -0.0261 -0.2631 -0.0661
 8215SOL    HW236282   2.991   0.366   6.260  2.1415 -2.6907  3.0241
 8216SOL     OW36283   1.881   0.519  10.710 -0.0851 -0.5106 -0.3934
 8216SOL    HW136284   1.974   0.509  10.687 -0.5120 -2.4113 -1.2686
 8216SOL    HW236285   1.861   0.456  10.779  3.5081 -1.1362  0.0776
 8217SOL     OW36286   3.388   0.101  17.044  0.1123 -0.0369  0.3867
 8217SOL    HW136287   3.376   0.009  17.069  1.2727 -0.5865 -1.0943
 8217SOL    HW236288   3.368   0.143  17.127 -0.6192 -0.1279  0.2619
 8218SOL     OW36289   0.321   1.730   9.171 -0.2149 -0.2476 -0.3947
 8218SOL    HW136290   0.280   1.816   9.179  4.7525  2.2211 -1.0614
 8218SOL    HW236291   0.384   1.745   9.100  0.3114 -0.2870  0.0601
 8219SOL     OW36292   2.438   0.705   7.346  0.3399  0.5916  0.0658
 8219SOL    HW136293   2.445   0.730   7.438  0.0526  1.1079 -0.0559
 8219SOL    HW236294   2.485   0.774   7.299  1.9712 -1.3235 -1.1394
 8220SOL     OW36295   0.427   3.519   0.457 -0.2049 -0.6698  0.2275
 8220SOL    HW136296   0.422   3.468   0.538 -0.9659 -0.4817  0.3053
 8220SOL    HW236297   0.488   3.467   0.405  0.0690 -0.1731  0.0575
 8221SOL     OW36298   3.045   0.581   6.759 -0.3994 -0.5301 -0.1304
 8221SOL    HW136299   3.099   0.570   6.681  0.9144 -0.5967  0.7791
 8221SOL    HW236300   3.019   0.489   6.765  0.5301 -0.7747  0.1095
 8222SOL     OW36301   4.424   4.011   1.001  0.2226 -0.0394 -0.4316
 8222SOL    HW136302   4.399   3.934   1.053 -0.1682  2.0930  2.5224
 8222SOL    HW236303   4.351   4.020   0.941 -0.6636  0.5253  0.7450
 8223SOL     OW36304   0.054   2.719   0.748  0.1497 -0.1283 -0.2518
 8223SOL    HW136305   0.017   2.635   0.721  1.1523  0.5060 -3.6504
 8223SOL    HW236306   0.063   2.717   0.843  3.5675 -0.5645 -0.5663
 8224SOL     OW36307   3.594   0.394   9.795 -0.4254 -0.2735  0.3453
 8224SOL    HW136308   3.524   0.456   9.818  0.0133 -0.3448  1.9114
 8224SOL    HW236309   3.668   0.454   9.785 -0.8135 -0.3354 -2.8413
 8225SOL     OW36310   0.788   2.117   7.150  0.0639 -0.0502  0.0387
 8225SOL    HW136311   0.795   2.197   7.203 -2.9247 -0.3931  0.9665
 8225SOL    HW236312   0.698   2.123   7.117  0.4539  2.9574 -0.5006
 8226SOL     OW36313   0.303   1.655   5.276  0.2874  0.2142 -0.0229
 8226SOL    HW136314   0.275   1.639   5.186 -1.1600 -0.8290  0.6145
 8226SOL    HW236315   0.390   1.688   5.255 -0.5944  2.4366 -0.1171
 8227SOL     OW36316   2.403   0.768   7.627 -0.1889 -0.0699  0.6262
 8227SOL    HW136317   2.334   0.743   7.689 -1.4861 -0.6713 -1.0547
 8227SOL    HW236318   2.476   0.757   7.688  0.7828 -1.0589 -0.7264
 8228SOL     OW36319   1.665   0.064   6.359 -0.0647  0.4287 -0.5400
 8228SOL    HW136320   1.653   0.095   6.449  0.3458 -1.2788  0.1187
 8228SOL    HW236321   1.647   4.705   6.366 -1.2933  0.7951  1.2792
 8229SOL     OW36322   4.432   1.940   4.427 -0.1927 -0.0563  0.2908
 8229SOL    HW136323   4.366   1.920   4.493 -1.3053  1.3824 -0.3802
 8229SOL    HW236324   4.402   1.877   4.363  0.3528  0.0846 -0.0980
 8230SOL     OW36325   4.173   2.466  14.662 -0.1883 -0.7209  0.0933
 8230SOL    HW136326   4.220   2.476  14.579 -0.7630  0.2510 -0.1224
 8230SOL    HW236327   4.081   2.470  14.635 -0.1811  0.9738  0.3058
 8231SOL     OW36328   1.729   1.563   2.187  0.3165 -1.1467 -0.3711
 8231SOL    HW136329   1.680   1.500   2.134 -1.6346  0.7645 -0.8770
 8231SOL    HW236330   1.654   1.596   2.237  1.0103 -0.4241  0.1855
 8232SOL     OW36331   1.313   2.612   7.263  0.4828 -0.2976  0.0030
 8232SOL    HW136332   1.313   2.564   7.180  0.8562 -3.1437  1.6383
 8232SOL    HW236333   1.332   2.536   7.318  0.0303  0.4773  1.2220
 8233SOL     OW36334   0.885   2.145  10.582  0.5138 -0.4694 -0.2923
 8233SOL    HW136335   0.940   2.198  10.639  0.3354 -0.7218  0.1113
 8233SOL    HW236336   0.873   2.086  10.656  2.2617 -1.1719 -0.5524
 8234SOL     OW36337   1.341   3.694   7.618  0.3996  0.9134 -0.5857
 8234SOL    HW136338   1.362   3.605   7.647 -0.7912  0.8824  0.1604
 8234SOL    HW236339   1.247   3.688   7.636  0.3625 -0.5895 -1.2483
 8235SOL     OW36340   3.885   2.246   8.074 -0.3144 -0.7242  0.6486
 8235SOL    HW136341   3.827   2.315   8.040  1.8709  1.5698  1.5340
 8235SOL    HW236342   3.918   2.284   8.155 -2.3637  0.9402  0.7288
 8236SOL     OW36343   1.530   0.491  14.355  0.9007 -0.3753  0.0221
 8236SOL    HW136344   1.475   0.416  14.332  2.7724 -2.0043  0.9061
 8236SOL    HW236345   1.550   0.490  14.449 -1.2302  1.4367  0.4959
 8237SOL     OW36346   3.407   0.345   5.164 -0.5441 -0.5866 -0.2522
 8237SOL    HW136347   3.483   0.341   5.107 -0.2595 -1.7705  0.2066
 8237SOL    HW236348   3.331   0.349   5.106  0.8870  0.9177 -1.9862
 8238SOL     OW36349   1.747   0.326   8.011 -0.0095 -0.6628  0.4437
 8238SOL    HW136350   1.803   0.273   7.953  0.0359  1.9309 -1.8818
 8238SOL    HW236351   1.698   0.263   8.064  0.1284  0.9909  2.5163
 8239SOL     OW36352   3.265   2.612   8.410 -0.2750 -0.2659 -0.0165
 8239SOL    HW136353   3.226   2.651   8.332 -0.6177  0.3394  0.4583
 8239SOL    HW236354   3.313   2.685   8.449 -0.8566 -0.9246  1.9677
 8240SOL     OW36355   3.671   1.520  11.104  0.6229  0.6375 -0.5022
 8240SOL    HW136356   3.700   1.609  11.086 -0.5920  0.5632 -2.8683
 8240SOL    HW236357   3.741   1.473  11.059 -1.7538 -0.4134 -3.1102
 8241SOL     OW36358   4.681   3.230   7.808  0.7078 -0.2243  0.3766
 8241SOL    HW136359   0.024   3.266   7.766 -0.5912  1.9232 -0.2115
 8241SOL    HW236360   4.637   3.309   7.840 -0.6085 -0.5047 -0.7471
 8242SOL     OW36361   0.272   1.160   8.300  0.5320 -0.1196  0.3462
 8242SOL    HW136362   0.309   1.218   8.366  0.5960 -0.5877  0.7221
 8242SOL    HW236363   0.269   1.074   8.342  1.1441  0.2966  1.2421
 8243SOL     OW36364   3.343   2.787   6.044 -0.5724  0.2683 -0.2515
 8243SOL    HW136365   3.336   2.790   5.948  0.3590  0.7150 -0.3034
 8243SOL    HW236366   3.433   2.759   6.059 -1.1460 -1.8626 -0.8344
 8244SOL     OW36367   1.160   2.346  10.529  0.4188 -0.4201 -0.1464
 8244SOL    HW136368   1.173   2.253  10.509  0.5567 -0.4456  0.0554
 8244SOL    HW236369   1.179   2.355  10.623 -2.3612  0.0002  0.3566
 8245SOL     OW36370   3.013   1.722   0.783  0.1610  0.1287  0.4486
 8245SOL    HW136371   3.007   1.759   0.872  0.7912  1.6120 -0.1279
 8245SOL    HW236372   2.948   1.653   0.800  0.5851  0.0854  1.9493
 8246SOL     OW36373   0.535   2.208  15.447 -0.1928 -0.0756  0.4195
 8246SOL    HW136374   0.608   2.240  15.395 -0.3392 -0.0007  0.2594
 8246SOL    HW236375   0.474   2.282  15.445 -0.0555  0.0876  2.5583
 8247SOL     OW36376   1.787   1.812   4.431  0.5044  0.0480  0.1272
 8247SOL    HW136377   1.801   1.866   4.508  0.2232  1.4987 -0.8358
 8247SOL    HW236378   1.699   1.775   4.438  0.3302  0.5199  0.4602
 8248SOL     OW36379   3.460   2.108   9.991 -0.3331 -0.9075  0.0685
 8248SOL    HW136380   3.397   2.051  10.035 -1.9990  1.4651  0.7793
 8248SOL    HW236381   3.481   2.048   9.920 -0.8788  0.4486 -1.2642
 8249SOL     OW36382   3.372   0.707   7.601  0.7728  0.0861  0.4925
 8249SOL    HW136383   3.416   0.793   7.603  2.0512 -0.5687  0.6152
 8249SOL    HW236384   3.430   0.649   7.552 -1.0500 -2.3054  1.2204
 8250SOL     OW36385   3.085   0.706  17.550  0.1524 -0.5973  0.2515
 8250SOL    HW136386   3.010   0.664  17.593 -0.1179  0.3329  0.7063
 8250SOL    HW236387   3.086   0.795  17.586  1.9875 -0.0358 -1.2441
 8251SOL     OW36388   1.482   0.475   8.609 -0.1118 -0.2888 -0.3273
 8251SOL    HW136389   1.472   0.535   8.683 -0.1917  1.0094 -1.3778
 8251SOL    HW236390   1.405   0.422   8.628  0.1227  0.2022  1.9416
 8252SOL     OW36391   2.460   0.743   4.064  0.2862 -0.0690 -0.2203
 8252SOL    HW136392   2.395   0.742   4.134  0.3983 -2.7525 -0.1292
 8252SOL    HW236393   2.542   0.730   4.113  0.7924  1.8774 -0.5483
 8253SOL     OW36394   1.385   2.860   2.999  0.3459  0.2937  0.5970
 8253SOL    HW136395   1.300   2.827   2.973  0.8921 -0.5801 -0.0650
 8253SOL    HW236396   1.384   2.872   3.094 -1.2221  2.5591  0.3050
 8254SOL     OW36397   0.920   1.684   4.995  0.7145  0.0307  0.0065
 8254SOL    HW136398   0.949   1.760   5.046  0.8454 -0.3793  0.5443
 8254SOL    HW236399   0.900   1.619   5.063 -0.0599  0.4883  0.2162
 8255SOL     OW36400   2.571   4.574   6.891  0.3436 -0.1680 -0.1702
 8255SOL    HW136401   2.660   4.587   6.923 -0.3777 -0.0483  1.7657
 8255SOL    HW236402   2.571   4.484   6.858  0.2474 -0.1749 -0.1511
 8256SOL     OW36403   2.710   2.977   7.060 -0.3028  0.8096 -0.4913
 8256SOL    HW136404   2.741   3.047   7.004  1.9598  0.9114  0.8863
 8256SOL    HW236405   2.651   2.926   7.005 -0.9152 -0.7815  1.6209
 8257SOL     OW36406   1.398   0.013   8.532 -0.6189 -0.1792  0.1806
 8257SOL    HW136407   1.390   4.654   8.546 -0.4213 -0.3583 -0.9401
 8257SOL    HW236408   1.457   0.034   8.604  1.4301 -1.7581 -1.0599
 8258SOL     OW36409   2.405   4.695   2.477  0.5711 -0.2840 -0.3721
 8258SOL    HW136410   2.399   0.000   2.391  2.4482  2.0391  0.5974
 8258SOL    HW236411   2.474   4.631   2.462 -1.3055 -1.9676 -1.7402
 8259SOL     OW36412   0.147   1.375   7.983 -0.3220  0.2633 -0.3713
 8259SOL    HW136413   0.109   1.391   8.069  1.2655  2.6117 -0.1082
 8259SOL    HW236414   0.191   1.291   7.992  2.8079  1.8338 -1.1457
 8260SOL     OW36415   1.095   2.240   5.281 -0.2643 -0.2651  0.0342
 8260SOL    HW136416   1.172   2.187   5.262 -1.4968 -2.3382  0.8616
 8260SOL    HW236417   1.130   2.319   5.324  2.9153 -1.2964 -0.6452
 8261SOL     OW36418   3.679   3.351  14.887 -0.4541 -0.0181  0.2000
 8261SOL    HW136419   3.756   3.343  14.943 -1.1142  1.6857  1.3763
 8261SOL    HW236420   3.703   3.274  14.835 -1.6017 -0.2772  0.0603
 8262SOL     OW36421   0.248   1.643  11.380  0.3175 -0.0720  0.0523
 8262SOL    HW136422   0.248   1.548  11.371  1.0336  0.0422 -1.0688
 8262SOL    HW236423   0.338   1.662  11.407  0.8231 -0.3670 -1.4533
 8263SOL     OW36424   4.376   4.132   4.167 -0.1059  0.8269 -0.6187
 8263SOL    HW136425   4.314   4.188   4.119 -0.1636  0.3581 -1.0877
 8263SOL    HW236426   4.366   4.048   4.123  0.4556 -0.5949  2.0340
 8264SOL     OW36427   2.377   2.071   5.079  0.3366 -0.1761 -0.0957
 8264SOL    HW136428   2.337   2.158   5.072 -0.8506 -0.9747 -2.8668
 8264SOL    HW236429   2.344   2.034   4.998 -1.1334  1.1598 -0.1106
 8265SOL     OW36430   0.831   1.511   3.987 -0.1553 -0.2256 -0.1259
 8265SOL    HW136431   0.822   1.605   3.972 -2.6295 -0.3288  0.7300
 8265SOL    HW236432   0.846   1.506   4.081  0.8676 -0.2436 -0.2913
 8266SOL     OW36433   2.576   1.220   7.061 -0.6291 -0.0169  0.5867
 8266SOL    HW136434   2.586   1.243   7.153  1.2491  1.1629  0.1015
 8266SOL    HW236435   2.485   1.244   7.044  0.0421  0.4308 -2.5107
 8267SOL     OW36436   0.392   1.134   6.495 -0.0212  0.8215 -0.1854
 8267SOL    HW136437   0.357   1.124   6.406 -0.9398 -2.1281  0.5073
 8267SOL    HW236438   0.312   1.117   6.544  0.3027 -0.8494 -0.2307
 8268SOL     OW36439   0.959   3.301   6.749  0.7343 -0.5557  0.0761
 8268SOL    HW136440   0.949   3.228   6.810  1.2636 -0.5855  0.1245
 8268SOL    HW236441   0.998   3.366   6.807 -0.8638  0.3967  0.0726
 8269SOL     OW36442   3.368   1.054   4.249 -0.9972 -0.2068  0.0692
 8269SOL    HW136443   3.365   1.128   4.188  0.5689 -0.3756 -0.2215
 8269SOL    HW236444   3.278   1.026   4.263 -0.6195 -0.7124  1.4613
 8270SOL     OW36445   1.831   3.885   8.868  0.6215 -0.5871 -0.1562
 8270SOL    HW136446   1.882   3.964   8.851 -2.6866  1.2173 -1.7309
 8270SOL    HW236447   1.804   3.888   8.960 -2.4083 -0.1617 -1.0379
 8271SOL     OW36448   3.603   3.668   1.849 -0.6053  0.5655 -0.1245
 8271SOL    HW136449   3.565   3.587   1.813  1.7880 -1.2157  1.3104
 8271SOL    HW236450   3.682   3.640   1.897 -0.8899  0.1224  0.0958
 8272SOL     OW36451   1.261   2.868   1.263  0.2752  0.6634 -0.3245
 8272SOL    HW136452   1.254   2.914   1.180 -0.8384  1.3247  0.1261
 8272SOL    HW236453   1.170   2.848   1.285  0.5885  1.1997  1.5352
 8273SOL     OW36454   2.386   1.573   8.589  0.2304  0.4105 -0.1695
 8273SOL    HW136455   2.358   1.663   8.603 -0.4221  0.0910  0.5623
 8273SOL    HW236456   2.305   1.523   8.577 -0.3282  1.4428 -0.6786
 8274SOL     OW36457   0.482   0.617   8.591  0.3773 -0.3830 -0.1281
 8274SOL    HW136458   0.506   0.598   8.501  0.5554 -1.7223  0.1964
 8274SOL    HW236459   0.533   0.555   8.644 -1.3935 -0.1276  1.9143
 8275SOL     OW36460   1.100   2.432   3.514 -0.2585  0.1555 -0.2304
 8275SOL    HW136461   1.070   2.496   3.579  0.5108  1.7055 -1.4138
 8275SOL    HW236462   1.030   2.437   3.449  0.2591 -1.9116 -0.9402
 8276SOL     OW36463   2.073   0.393   2.335 -0.5417  0.0524  0.9662
 8276SOL    HW136464   2.014   0.469   2.330 -0.3385  0.0589 -1.6904
 8276SOL    HW236465   2.158   0.428   2.309  0.1782 -0.4473  2.7146
 8277SOL     OW36466   3.241   0.589  17.064  0.5069 -0.3167  0.2751
 8277SOL    HW136467   3.263   0.632  17.146  0.6667 -0.8353  0.5045
 8277SOL    HW236468   3.170   0.639  17.024  1.0535  0.4950  0.3258
 8278SOL     OW36469   1.964   4.404   1.901  0.0355  0.2138 -0.2296
 8278SOL    HW136470   1.995   4.460   1.829 -2.2371  4.0532  1.7740
 8278SOL    HW236471   2.049   4.363   1.919  0.3925  1.7409  1.6066
 8279SOL     OW36472   2.907   0.863   7.005 -0.4387  0.4042 -0.7038
 8279SOL    HW136473   2.989   0.845   7.049  0.2248 -2.2964 -3.0469
 8279SOL    HW236474   2.843   0.828   7.066  0.9422 -0.5098  0.1943
 8280SOL     OW36475   1.011   2.140   9.273 -0.1514 -0.4321 -0.0928
 8280SOL    HW136476   1.079   2.153   9.207 -0.0388 -0.9826 -0.0836
 8280SOL    HW236477   1.057   2.169   9.352 -0.3825  0.0751 -0.1418
 8281SOL     OW36478   3.580   2.530   5.601 -0.1983 -0.7499 -0.3956
 8281SOL    HW136479   3.485   2.521   5.601 -0.4466  1.8227 -1.8926
 8281SOL    HW236480   3.591   2.622   5.579  3.1842 -1.1206 -0.2349
 8282SOL     OW36481   1.185   4.680   2.370 -0.5561 -0.3798  0.2207
 8282SOL    HW136482   1.232   4.604   2.405 -0.0976 -0.5481 -0.7676
 8282SOL    HW236483   1.242   0.011   2.409  1.9878 -2.3975 -0.0762
 8283SOL     OW36484   0.911   0.819   9.907 -0.1408  0.4910  0.2049
 8283SOL    HW136485   0.948   0.854   9.988  1.4665 -0.1183 -0.2554
 8283SOL    HW236486   0.996   0.800   9.867  0.7707  0.6836  2.0708
 8284SOL     OW36487   2.446   1.887   6.355 -0.4855  0.7082  0.0693
 8284SOL    HW136488   2.425   1.959   6.296  0.6922 -1.3876 -2.9318
 8284SOL    HW236489   2.394   1.906   6.433 -0.1119  0.6358  0.3365
 8285SOL     OW36490   4.288   1.866   6.567  0.0821  0.8582 -0.1191
 8285SOL    HW136491   4.270   1.787   6.517  1.7642  0.5177 -0.2080
 8285SOL    HW236492   4.323   1.918   6.495  2.1126 -0.4643 -0.0974
 8286SOL     OW36493   3.665   4.586  14.111  0.0730 -0.4376 -0.7403
 8286SOL    HW136494   3.626   4.649  14.050  0.7952  0.2277 -0.5151
 8286SOL    HW236495   3.759   4.606  14.106  0.0694  0.0340  0.9766
 8287SOL     OW36496   4.276   3.741   0.468  0.2045 -0.4172 -0.5426
 8287SOL    HW136497   4.367   3.756   0.493  0.2517 -0.4391 -0.7043
 8287SOL    HW236498   4.264   3.802   0.396 -0.8260  0.3184  0.2390
 8288SOL     OW36499   2.266   1.129  12.433 -0.5319  0.0309 -0.1022
 8288SOL    HW136500   2.269   1.060  12.367  1.5636  1.2599 -1.3073
 8288SOL    HW236501   2.175   1.160  12.436 -0.9290 -1.3853  2.4510
 8289SOL     OW36502   0.087   3.498   1.660 -0.2228 -0.2911  0.3016
 8289SOL    HW136503   0.115   3.523   1.572  0.9266 -2.6823 -0.0116
 8289SOL    HW236504   0.146   3.423   1.671  0.3803 -0.0839 -1.4621
 8290SOL     OW36505   3.822   2.024   4.598 -0.1989 -0.2524  0.0032
 8290SOL    HW136506   3.892   2.015   4.533 -0.0187  1.6915 -0.0831
 8290SOL    HW236507   3.842   1.952   4.657 -0.6752  0.0963  0.5958
 8291SOL     OW36508   1.344   0.964   9.421  0.1185  0.5516 -0.1645
 8291SOL    HW136509   1.417   0.968   9.483  0.3046  1.2677 -0.4323
 8291SOL    HW236510   1.375   0.881   9.387  1.4605  1.1783 -0.4713
 8292SOL     OW36511   4.217   3.203   7.820  0.3794  0.2377 -0.0820
 8292SOL    HW136512   4.294   3.217   7.875  0.9308  0.8820 -1.0060
 8292SOL    HW236513   4.196   3.292   7.791 -0.1137  0.7169  1.7789
 8293SOL     OW36514   0.054   3.896   3.326  0.7153 -0.2709  0.3148
 8293SOL    HW136515   0.029   3.820   3.378  0.8939 -0.8127 -0.3737
 8293SOL    HW236516   0.007   3.965   3.372  2.3012  1.5245 -0.7268
 8294SOL     OW36517   2.753   4.501   2.024  0.3042 -0.3228  0.1464
 8294SOL    HW136518   2.789   4.510   1.935 -0.7616 -0.6015 -0.3029
 8294SOL    HW236519   2.764   4.407   2.039  2.6075  0.5078  3.5239
 8295SOL     OW36520   4.488   1.165  12.875 -0.1387 -0.0119 -0.2149
 8295SOL    HW136521   4.465   1.216  12.953 -1.4139  1.0162 -1.2711
 8295SOL    HW236522   4.416   1.104  12.860 -0.2803 -0.2129  1.2464
 8296SOL     OW36523   4.612   4.096   6.050 -0.0951  0.1362  0.2498
 8296SOL    HW136524   4.650   4.051   6.125 -0.8516  0.1609  0.6417
 8296SOL    HW236525   4.541   4.147   6.089 -0.5174 -0.5975  0.4395
 8297SOL     OW36526   2.023   1.251   5.147 -0.3711 -0.6191 -0.1923
 8297SOL    HW136527   2.003   1.290   5.232  0.4132  0.7467 -0.6223
 8297SOL    HW236528   1.936   1.253   5.108 -0.3377 -2.9286 -0.3954
 8298SOL     OW36529   4.078   0.219  17.258 -0.1220  0.0947 -0.1286
 8298SOL    HW136530   4.036   0.159  17.196 -1.8390 -0.8521  1.9420
 8298SOL    HW236531   4.017   0.206  17.330 -1.2521  0.9239 -0.9372
 8299SOL     OW36532   1.032   3.132  14.473  0.3485 -0.1133 -0.2551
 8299SOL    HW136533   1.088   3.146  14.397 -1.0263 -1.3891 -1.5115
 8299SOL    HW236534   0.946   3.159  14.442  1.0100 -1.6729 -3.3982
 8300SOL     OW36535   1.454   3.775   8.829 -0.5803 -0.4654  0.1459
 8300SOL    HW136536   1.466   3.712   8.899  1.3468  0.8550  1.0130
 8300SOL    HW236537   1.425   3.719   8.756  0.4819  0.1472 -0.7553
 8301SOL     OW36538   0.279   2.514  10.296 -0.1539 -0.0095 -0.0638
 8301SOL    HW136539   0.375   2.514  10.306  0.2411  0.1514 -3.9904
 8301SOL    HW236540   0.262   2.444  10.359 -1.2146 -0.5841 -0.9890
 8302SOL     OW36541   1.733   3.278   2.935 -0.0428  0.1048  0.3292
 8302SOL    HW136542   1.676   3.330   2.992 -1.3365  0.4871 -1.3003
 8302SOL    HW236543   1.707   3.305   2.847  0.0423 -0.1656  0.2236
 8303SOL     OW36544   1.873   1.927   4.189 -0.4054 -0.0027 -0.0150
 8303SOL    HW136545   1.837   1.887   4.269 -2.3041  1.1465 -0.2797
 8303SOL    HW236546   1.800   1.985   4.165 -0.8612 -0.9509 -0.9110
 8304SOL     OW36547   4.663   1.165   4.544 -0.3703  0.4289 -0.1447
 8304SOL    HW136548   4.731   1.099   4.525  0.5000  1.3361 -0.1797
 8304SOL    HW236549   4.653   1.195   4.454 -2.4791 -1.8497 -0.6588
 8305SOL     OW36550   2.448   4.415   2.133 -0.4768  0.6685 -0.4052
 8305SOL    HW136551   2.435   4.510   2.127 -0.8059  0.5917 -0.8301
 8305SOL    HW236552   2.478   4.388   2.046 -0.9933  0.9174 -0.6601
 8306SOL     OW36553   3.322   2.919  16.429 -0.4586  0.2351 -0.1171
 8306SOL    HW136554   3.416   2.927  16.444 -0.4745  0.2758 -0.0385
 8306SOL    HW236555   3.296   2.831  16.456 -0.0448  0.5605  1.3594
 8307SOL     OW36556   0.681   3.420   3.914  0.3719  0.0558  0.3051
 8307SOL    HW136557   0.602   3.418   3.968  0.2933  2.3739  0.2566
 8307SOL    HW236558   0.699   3.514   3.916 -3.9781  0.8835  0.0322
 8308SOL     OW36559   1.726   2.449  11.505  0.7680 -0.0995 -0.5889
 8308SOL    HW136560   1.665   2.398  11.559 -0.2676  0.1636 -1.5106
 8308SOL    HW236561   1.670   2.518  11.468  0.7305  0.3021  0.2232
 8309SOL     OW36562   1.450   3.157   2.874  0.0843  0.0276 -0.1124
 8309SOL    HW136563   1.442   3.235   2.929 -0.0214 -1.3137  1.7519
 8309SOL    HW236564   1.364   3.114   2.875 -0.3888  0.9124 -1.4408
 8310SOL     OW36565   0.581   0.723  13.941 -0.0931  0.1482 -0.3193
 8310SOL    HW136566   0.598   0.793  14.005  0.6019 -0.1155 -0.2235
 8310SOL    HW236567   0.504   0.763  13.901 -1.2863 -1.4628  0.3655
 8311SOL     OW36568   1.662   3.416   9.710  0.4076 -0.4996 -0.0980
 8311SOL    HW136569   1.694   3.333   9.744 -0.1961 -1.0239 -0.8151
 8311SOL    HW236570   1.675   3.480   9.780  1.3791  1.1413 -1.7643
 8312SOL     OW36571   1.565   1.096   8.455 -0.2102 -0.0176 -0.1510
 8312SOL    HW136572   1.621   1.174   8.452  0.5730 -0.5168  1.2726
 8312SOL    HW236573   1.630   1.033   8.421 -0.6443  0.5865 -2.0965
 8313SOL     OW36574   4.552   4.417   6.811 -0.0218 -0.7334 -0.3105
 8313SOL    HW136575   4.536   4.482   6.880 -1.0400  1.2655 -2.4758
 8313SOL    HW236576   4.460   4.392   6.800 -0.3841  0.7421 -0.5545
 8314SOL     OW36577   0.646   2.403   8.758  0.2420  0.2146  0.6898
 8314SOL    HW136578   0.574   2.365   8.709  1.0589 -1.1012  0.4940
 8314SOL    HW236579   0.594   2.481   8.777  1.9166  1.7646 -1.0726
 8315SOL     OW36580   1.476   1.509   0.205  0.1046  0.4475  0.1243
 8315SOL    HW136581   1.440   1.420   0.209  2.1501 -0.2666  1.9507
 8315SOL    HW236582   1.538   1.504   0.132  1.6560  1.7054  1.3739
 8316SOL     OW36583   1.309   4.189  12.880 -0.4429  0.6205  0.4923
 8316SOL    HW136584   1.381   4.251  12.875  0.5673 -0.6207 -0.2975
 8316SOL    HW236585   1.274   4.217  12.965 -1.1055 -1.0150  0.7581
 8317SOL     OW36586   2.453   0.737  10.545 -0.1092 -0.0353 -0.1635
 8317SOL    HW136587   2.503   0.701  10.472  0.7179 -1.2695  1.0246
 8317SOL    HW236588   2.489   0.825  10.557  1.0956 -0.9153  2.7436
 8318SOL     OW36589   0.874   2.741   5.806  0.3778 -0.0580  0.3672
 8318SOL    HW136590   0.781   2.741   5.783  1.0000 -0.3196 -2.1542
 8318SOL    HW236591   0.873   2.836   5.809 -0.3256 -0.0996  1.5998
 8319SOL     OW36592   2.874   2.601  10.197  0.4479 -0.1638 -0.7138
 8319SOL    HW136593   2.873   2.581  10.104  0.5789 -0.4855 -0.6476
 8319SOL    HW236594   2.832   2.687  10.197 -2.1397 -1.4287 -1.1076
 8320SOL     OW36595   1.911   3.304  13.425  0.4700 -0.3062  0.6292
 8320SOL    HW136596   1.941   3.234  13.366 -1.0800 -2.2409  2.1831
 8320SOL    HW236597   1.928   3.381  13.370  0.4391 -0.6383  0.1580
 8321SOL     OW36598   4.216   3.873  17.162 -0.4128 -0.0400  0.0750
 8321SOL    HW136599   4.272   3.947  17.139 -0.2633  0.0381  0.7017
 8321SOL    HW236600   4.134   3.919  17.180 -0.2995 -0.7004  2.3050
 8322SOL     OW36601   4.129   4.067   4.392 -0.0466  0.3352  0.4255
 8322SOL    HW136602   4.180   4.121   4.452 -0.5289  0.7580  0.4566
 8322SOL    HW236603   4.056   4.039   4.447 -1.2276 -0.2419 -1.4501
 8323SOL     OW36604   2.160   1.351   6.598  0.2650 -0.1029 -0.7771
 8323SOL    HW136605   2.244   1.396   6.600  0.2789 -0.1990  0.4419
 8323SOL    HW236606   2.168   1.291   6.523  0.3027  0.8109 -1.5064
 8324SOL     OW36607   2.354   2.961   5.375  0.4198  0.6180  0.3245
 8324SOL    HW136608   2.323   3.014   5.449 -0.0454  0.5226  0.1974
 8324SOL    HW236609   2.299   2.882   5.379  2.0802 -0.5558 -0.3879
 8325SOL     OW36610   2.026   4.530   3.308 -0.0198 -0.7186 -0.4773
 8325SOL    HW136611   2.114   4.557   3.283  1.5182 -3.3279  2.2045
 8325SOL    HW236612   1.978   4.539   3.226 -0.4496 -1.8837 -0.3517
 8326SOL     OW36613   3.305   0.902  10.873  0.1971  0.2817 -0.0289
 8326SOL    HW136614   3.324   0.924  10.965  2.8477  1.6064 -0.8675
 8326SOL    HW236615   3.383   0.863  10.833  0.2611  0.3342  0.0428
 8327SOL     OW36616   3.548   0.278   8.983  0.3807  0.1191  0.3204
 8327SOL    HW136617   3.453   0.278   8.970  0.2559  0.8450  1.1484
 8327SOL    HW236618   3.582   0.198   8.943 -3.8966 -1.0457 -0.9542
 8328SOL     OW36619   2.697   0.666   4.184  0.5052  0.5659  0.2331
 8328SOL    HW136620   2.712   0.580   4.223  0.6286 -0.5414 -2.2283
 8328SOL    HW236621   2.784   0.682   4.146  0.6969  3.1587  1.7841
 8329SOL     OW36622   3.355   3.654  10.049 -0.0951  0.2028 -0.2016
 8329SOL    HW136623   3.392   3.594  10.114 -1.1438 -0.5688 -0.3091
 8329SOL    HW236624   3.260   3.643  10.058  0.2289 -0.8464  1.8733
 8330SOL     OW36625   0.984   3.621   0.041  0.3857 -0.4077  0.4834
 8330SOL    HW136626   1.075   3.592   0.029  0.2541 -0.7699  0.3419
 8330SOL    HW236627   0.983   3.704  17.733  1.2804 -1.9520 -2.2285
 8331SOL     OW36628   0.037   3.414   6.328 -0.2667 -0.3163  0.0967
 8331SOL    HW136629   4.705   3.347   6.321 -0.4818 -0.4075  2.7527
 8331SOL    HW236630   0.115   3.359   6.338  0.4773  0.8830  1.0712
 8332SOL     OW36631   3.994   3.177   4.972  0.0403  0.4551 -0.2595
 8332SOL    HW136632   4.082   3.140   4.964 -0.4906 -0.7886 -0.2023
 8332SOL    HW236633   4.001   3.202   5.065  1.2599 -0.7265 -0.0450
 8333SOL     OW36634   4.262   0.296  14.230  0.0860 -0.4978 -0.2086
 8333SOL    HW136635   4.223   0.331  14.310 -0.7479 -1.5915 -0.1405
 8333SOL    HW236636   4.264   0.202  14.246  1.0574 -0.3025  0.8042
 8334SOL     OW36637   2.529   2.248   3.992  0.1140 -0.1618  0.3909
 8334SOL    HW136638   2.509   2.170   3.941  1.8444  0.7244 -1.6046
 8334SOL    HW236639   2.453   2.245   4.050 -1.0321 -0.9197 -1.1550
 8335SOL     OW36640   3.281   2.049   7.634 -0.7317  0.0246 -0.4557
 8335SOL    HW136641   3.216   2.096   7.583 -0.8378 -0.3281 -0.6420
 8335SOL    HW236642   3.357   2.101   7.607 -2.9446  2.4195 -2.0028
 8336SOL     OW36643   4.441   2.023   6.330 -0.2995 -0.2241  0.1285
 8336SOL    HW136644   4.527   2.053   6.357  0.3332 -1.9792  0.0754
 8336SOL    HW236645   4.397   2.107   6.319  0.2735 -0.0405 -0.7012
 8337SOL     OW36646   3.483   4.483  12.434  0.3049  0.2306 -0.2589
 8337SOL    HW136647   3.487   4.437  12.518 -0.8655  1.3496  0.4087
 8337SOL    HW236648   3.401   4.532  12.442 -0.0158 -0.0437 -1.8659
 8338SOL     OW36649   2.022   1.975   5.261  0.0982 -0.0239 -0.3979
 8338SOL    HW136650   2.014   1.925   5.180  1.0495 -2.9454  1.2897
 8338SOL    HW236651   2.106   1.943   5.296  0.8108  3.6036  1.1765
 8339SOL     OW36652   1.782   2.351   5.519 -0.4820  0.0500  0.2442
 8339SOL    HW136653   1.724   2.383   5.588  0.7257  0.6616  0.9746
 8339SOL    HW236654   1.751   2.260   5.524 -0.8003  0.1004 -0.7897
 8340SOL     OW36655   0.123   4.331   3.085  0.4297 -0.6146 -0.5266
 8340SOL    HW136656   0.191   4.336   3.153  0.3949  0.7178 -0.5984
 8340SOL    HW236657   0.057   4.327   3.154 -1.5296 -0.0240 -2.3798
 8341SOL     OW36658   3.255   2.478   6.319 -0.0453  0.0895  0.4404
 8341SOL    HW136659   3.243   2.468   6.413 -2.2679  1.8795  0.3489
 8341SOL    HW236660   3.171   2.441   6.291  0.2053 -0.3394  0.2588
 8342SOL     OW36661   2.980   2.436   9.754  0.1473  0.1548  0.5950
 8342SOL    HW136662   2.928   2.358   9.777 -1.5832  1.2911  0.5506
 8342SOL    HW236663   2.951   2.456   9.665  0.5307  0.9366  0.6466
 8343SOL     OW36664   2.056   1.255   2.038 -0.2196 -0.1618  0.2239
 8343SOL    HW136665   2.046   1.264   1.944 -1.7682 -1.4525  0.2577
 8343SOL    HW236666   2.061   1.346   2.067  0.9169 -0.5322  1.2068
 8344SOL     OW36667   2.743   0.362   7.383  0.2466  0.3943  0.0746
 8344SOL    HW136668   2.717   0.278   7.419  0.1480  0.4340  0.0978
 8344SOL    HW236669   2.832   0.355   7.416  0.9662 -1.9751 -2.3992
 8345SOL     OW36670   2.796   2.881  14.053 -0.0217 -0.2226 -0.1970
 8345SOL    HW136671   2.864   2.856  14.116  1.2151 -0.0449 -1.4805
 8345SOL    HW236672   2.725   2.824  14.083  1.3945 -2.1402 -0.4834
 8346SOL     OW36673   1.464   4.281   1.897  0.2230 -0.2063  0.1120
 8346SOL    HW136674   1.559   4.292   1.907  0.2580  0.3379 -0.9010
 8346SOL    HW236675   1.450   4.198   1.943  2.6173 -0.6779  0.0081
 8347SOL     OW36676   4.022   4.015  14.579  0.4175  0.2771 -0.3126
 8347SOL    HW136677   4.045   4.015  14.486  2.0777 -0.1739  0.1142
 8347SOL    HW236678   3.947   4.075  14.583 -0.2684 -0.5231 -1.1815
 8348SOL     OW36679   3.314   3.964   2.641 -0.7539  0.0438 -0.0799
 8348SOL    HW136680   3.347   4.023   2.572 -2.8501  0.7045 -0.4971
 8348SOL    HW236681   3.253   3.907   2.596  0.1994 -1.4510  0.5390
 8349SOL     OW36682   4.431   2.306  16.795  0.2940 -0.5765 -0.3228
 8349SOL    HW136683   4.394   2.389  16.824 -0.7378 -1.3053  0.4296
 8349SOL    HW236684   4.512   2.333  16.752  0.4210 -0.6401 -0.1278
 8350SOL     OW36685   0.242   1.065   0.615 -0.0041  0.4786 -0.9120
 8350SOL    HW136686   0.253   1.148   0.660  3.7722  0.9006 -2.5432
 8350SOL    HW236687   0.319   1.021   0.652 -0.1223  0.9019 -0.1801
 8351SOL     OW36688   1.690   3.000   0.856 -0.2777  0.0493  0.3505
 8351SOL    HW136689   1.668   3.060   0.785  1.8756  1.9308  1.2720
 8351SOL    HW236690   1.774   3.034   0.886  0.4519  0.8801 -2.6227
 8352SOL     OW36691   3.471   4.267  12.141 -0.6584  0.0040  0.5493
 8352SOL    HW136692   3.405   4.259  12.072  1.0758 -2.6306 -0.8159
 8352SOL    HW236693   3.538   4.322  12.100  0.0288 -1.3729 -0.1974
 8353SOL     OW36694   0.659   3.838   0.119 -0.1292 -0.1583 -0.3278
 8353SOL    HW136695   0.672   3.820   0.026  0.7733 -2.3989  0.2275
 8353SOL    HW236696   0.667   3.932   0.103 -0.0948 -0.1468 -0.2452
 8354SOL     OW36697   2.067   3.715   4.112 -0.1413 -0.3786  0.2922
 8354SOL    HW136698   2.141   3.750   4.161 -1.7365  0.9995  1.6863
 8354SOL    HW236699   2.016   3.794   4.092 -0.2575 -0.2258  1.1921
 8355SOL     OW36700   3.796   2.515   3.267  0.0372  0.0701  0.2160
 8355SOL    HW136701   3.791   2.610   3.261 -0.8623 -0.0185 -0.4495
 8355SOL    HW236702   3.739   2.503   3.343  1.6480 -1.3099  1.1981
 8356SOL     OW36703   4.314   3.473  16.298 -0.0603  0.2961  0.9039
 8356SOL    HW136704   4.306   3.453  16.391  1.3372  0.8216  1.1433
 8356SOL    HW236705   4.395   3.428  16.274 -0.6336 -0.7352  0.9153
 8357SOL     OW36706   3.815   2.318   5.958 -0.1827  0.1556  0.3956
 8357SOL    HW136707   3.828   2.372   6.036 -1.1716 -0.1267  0.7548
 8357SOL    HW236708   3.722   2.325   5.937 -0.1203  1.2473  0.4854
 8358SOL     OW36709   4.076   3.456  14.655  1.0597 -0.3809 -0.4766
 8358SOL    HW136710   4.110   3.452  14.566  0.7115  1.5383 -0.6941
 8358SOL    HW236711   3.983   3.440  14.638  0.6754  1.5391 -0.2348
 8359SOL     OW36712   0.996   2.593   3.714  0.4634  0.7190 -0.3377
 8359SOL    HW136713   0.928   2.578   3.779  0.1188 -1.3404 -1.1659
 8359SOL    HW236714   1.073   2.622   3.764  0.6286 -3.5182  1.8662
 8360SOL     OW36715   2.337   4.688   7.506  0.0145 -0.0075 -0.2336
 8360SOL    HW136716   2.316   4.631   7.431  0.9140 -1.3333  0.5229
 8360SOL    HW236717   2.308   0.036   7.467  1.6413  1.2560  1.2776
 8361SOL     OW36718   2.219   4.340   9.557  0.0332  0.3349 -0.3687
 8361SOL    HW136719   2.261   4.414   9.512  1.2307  0.3880  0.8159
 8361SOL    HW236720   2.157   4.387   9.613  3.4790  1.0524  2.8901
 8362SOL     OW36721   1.324   0.301   2.258 -1.1969 -0.1209  0.0384
 8362SOL    HW136722   1.304   0.242   2.331  0.0378 -1.2523 -0.5330
 8362SOL    HW236723   1.327   0.386   2.303  0.2625 -0.7523  1.1757
 8363SOL     OW36724   3.975   2.721  15.268  0.0804 -0.1223  0.3301
 8363SOL    HW136725   4.013   2.634  15.278  1.0462  0.1180 -1.2291
 8363SOL    HW236726   3.898   2.712  15.213  0.4974 -2.3656  0.1312
 8364SOL     OW36727   3.870   3.621   1.913 -0.2675 -0.3485 -0.1902
 8364SOL    HW136728   3.884   3.606   2.007 -0.9267  0.6638  0.0578
 8364SOL    HW236729   3.902   3.540   1.871  2.0043  0.8070 -0.7003
 8365SOL     OW36730   1.517   4.305   4.385  0.2568  0.0643 -0.2807
 8365SOL    HW136731   1.547   4.348   4.465 -1.3661  1.2267 -0.2921
 8365SOL    HW236732   1.519   4.386   4.334 -1.6097  0.1784 -0.1940
 8366SOL     OW36733   3.775   3.579   4.354  0.2120 -0.2779 -0.1005
 8366SOL    HW136734   3.689   3.601   4.390  0.4200 -1.3993  1.0898
 8366SOL    HW236735   3.815   3.666   4.353 -2.7625  1.0720  0.7815
 8367SOL     OW36736   1.270   2.349   3.134 -0.5074  0.3118 -0.0736
 8367SOL    HW136737   1.324   2.288   3.083 -1.2367  1.2574 -2.0150
 8367SOL    HW236738   1.335   2.382   3.195 -1.5504  0.7951  0.7802
 8368SOL     OW36739   1.648   2.331   6.744  0.7516 -0.0836 -0.2401
 8368SOL    HW136740   1.716   2.283   6.790  0.3453 -0.6720 -0.2474
 8368SOL    HW236741   1.621   2.391   6.813  1.7560  1.0013 -0.7949
 8369SOL     OW36742   4.096   2.049   5.987 -0.2211  0.1935  0.1031
 8369SOL    HW136743   4.170   2.005   5.947 -1.5934 -1.9745 -0.0654
 8369SOL    HW236744   4.146   2.107   6.046 -0.1106  0.5869 -0.3781
 8370SOL     OW36745   4.609   0.670   3.949  0.3206  0.1999  0.2353
 8370SOL    HW136746   4.640   0.684   4.038  0.1081  0.4875  0.2643
 8370SOL    HW236747   4.517   0.694   3.962  0.5805 -0.2367  2.8211
 8371SOL     OW36748   4.641   1.136   0.852 -0.6057  0.3215 -0.2441
 8371SOL    HW136749   4.656   1.042   0.862  0.3883  0.5866  0.7840
 8371SOL    HW236750   4.645   1.142   0.757  0.5560 -1.2180 -0.3042
 8372SOL     OW36751   0.500   3.414   9.443 -0.2389 -0.1551 -0.0409
 8372SOL    HW136752   0.561   3.487   9.435  2.3073 -2.1191  1.6224
 8372SOL    HW236753   0.440   3.434   9.371 -0.6040 -1.7633 -0.1768
 8373SOL     OW36754   4.307   3.314   1.494  0.0285  0.6350  0.4256
 8373SOL    HW136755   4.323   3.268   1.412  1.0196  2.5880 -0.4805
 8373SOL    HW236756   4.256   3.249   1.542 -1.9363 -0.9706 -3.8288
 8374SOL     OW36757   2.447   1.085   9.001 -0.1758 -0.6883  0.2323
 8374SOL    HW136758   2.512   1.015   8.987  0.4218 -0.4312  1.7074
 8374SOL    HW236759   2.391   1.043   9.066 -1.7110  1.4017  0.2354
 8375SOL     OW36760   4.038   2.743   2.472  0.1195 -0.5632  0.3421
 8375SOL    HW136761   4.047   2.738   2.377 -0.9876  0.9876  0.1582
 8375SOL    HW236762   4.093   2.668   2.494 -0.1009 -0.5394  0.9752
 8376SOL     OW36763   0.059   0.423   3.855 -0.3126 -0.4414  0.6196
 8376SOL    HW136764   0.054   0.397   3.947 -1.0548  0.9832  0.9734
 8376SOL    HW236765   0.147   0.459   3.858 -0.9879  1.2874 -0.3649
 8377SOL     OW36766   2.463   2.290   1.230 -0.3012  0.8529  0.6643
 8377SOL    HW136767   2.467   2.351   1.304 -1.2986 -0.0827  1.4820
 8377SOL    HW236768   2.496   2.352   1.164  1.0596  0.8508  1.3257
 8378SOL     OW36769   2.707   3.796   9.497  0.2602  0.1575 -0.1558
 8378SOL    HW136770   2.642   3.856   9.533  0.7063  1.1128 -0.9290
 8378SOL    HW236771   2.679   3.705   9.504  0.2227  0.3153  1.8054
 8379SOL     OW36772   4.611   4.465  16.143 -0.0206  0.0697 -0.4838
 8379SOL    HW136773   4.611   4.554  16.177 -1.4882  0.2995 -1.0674
 8379SOL    HW236774   4.704   4.447  16.137  0.2738  1.4725 -0.0924
 8380SOL     OW36775   2.725   2.957  11.067  0.1505 -0.1168  0.2199
 8380SOL    HW136776   2.756   2.966  11.158  0.0262  1.0930  0.1383
 8380SOL    HW236777   2.794   2.989  11.009 -0.3036 -0.8094 -0.6961
 8381SOL     OW36778   4.189   3.574  12.882 -0.1017  0.0739 -0.1710
 8381SOL    HW136779   4.208   3.486  12.912 -3.4007 -0.5652  0.0233
 8381SOL    HW236780   4.114   3.592  12.939 -0.4104  0.8024 -0.7957
 8382SOL     OW36781   1.373   1.238   0.245 -0.6122 -0.3486 -0.3721
 8382SOL    HW136782   1.312   1.164   0.245 -0.6716 -0.2962 -0.6231
 8382SOL    HW236783   1.401   1.244   0.337 -1.0683  0.0026 -0.2577
 8383SOL     OW36784   4.564   0.951  13.391  0.3839 -0.6292  0.2506
 8383SOL    HW136785   4.657   0.973  13.392 -0.0100  0.9046  2.1675
 8383SOL    HW236786   4.552   0.932  13.298 -2.9365 -0.4584  0.6559
 8384SOL     OW36787   1.660   3.926   3.857 -0.5286  0.2436  0.4064
 8384SOL    HW136788   1.722   3.904   3.927 -2.0919  0.8097  1.9519
 8384SOL    HW236789   1.711   3.900   3.780 -1.4913 -0.7677  0.1156
 8385SOL     OW36790   0.585   3.655   5.015 -1.0451 -0.0773 -0.3908
 8385SOL    HW136791   0.510   3.680   4.960 -0.9565  0.0246 -0.4648
 8385SOL    HW236792   0.604   3.565   4.988 -1.0054 -0.5773  1.3164
 8386SOL     OW36793   0.288   2.587   3.441 -0.1460  0.2071 -0.4036
 8386SOL    HW136794   0.307   2.675   3.408  1.0128 -1.2378 -3.6442
 8386SOL    HW236795   0.300   2.600   3.535 -0.7610  1.1435 -0.4619
 8387SOL     OW36796   1.995   1.005  12.132  0.6210 -0.4088 -0.5612
 8387SOL    HW136797   2.054   0.980  12.202 -0.4194  0.0601  0.4805
 8387SOL    HW236798   1.922   0.943  12.140  0.1333  0.0350 -1.4880
 8388SOL     OW36799   4.500   4.370   4.859 -0.2812 -0.0070  0.0219
 8388SOL    HW136800   4.571   4.384   4.796 -1.6002  4.4532 -0.4436
 8388SOL    HW236801   4.439   4.442   4.845  0.2260  0.3117 -0.5347
 8389SOL     OW36802   0.373   3.207  10.205 -0.7012  0.0303 -0.1815
 8389SOL    HW136803   0.440   3.241  10.264 -0.5498  0.3291 -0.5223
 8389SOL    HW236804   0.422   3.133  10.168  1.2621 -0.0718  2.6386
 8390SOL     OW36805   0.400   0.068   5.037  0.1685 -0.4706  0.0911
 8390SOL    HW136806   0.422   0.020   5.116  2.1500 -3.1136 -2.0861
 8390SOL    HW236807   0.486   0.104   5.015  0.3385  0.3838  2.1707
 8391SOL     OW36808   2.190   4.433   5.688  0.1668 -0.2481  0.3108
 8391SOL    HW136809   2.251   4.360   5.702 -0.0338 -0.2246  1.3082
 8391SOL    HW236810   2.203   4.469   5.600  1.5778  0.4376  0.7991
 8392SOL     OW36811   3.261   4.136  15.120  0.0499 -0.7676 -0.0672
 8392SOL    HW136812   3.279   4.218  15.073 -0.6341  0.1290  1.2188
 8392SOL    HW236813   3.253   4.076  15.046 -0.3098 -1.3966  0.4868
 8393SOL     OW36814   3.386   4.006   8.197  0.1475 -0.1211 -0.1817
 8393SOL    HW136815   3.299   4.045   8.208  0.5653  0.1107  2.2039
 8393SOL    HW236816   3.413   4.017   8.288 -0.6846 -0.8459  0.1570
 8394SOL     OW36817   0.224   4.645   7.366 -0.4817  0.3042  0.2370
 8394SOL    HW136818   0.319   4.644   7.366 -0.4926 -0.8558 -0.3056
 8394SOL    HW236819   0.198   4.733   7.392 -1.6455  1.0054 -3.4055
 8395SOL     OW36820   1.821   3.356   2.170 -0.7438  0.1677  0.6138
 8395SOL    HW136821   1.807   3.331   2.079 -0.4372 -0.3989  0.7201
 8395SOL    HW236822   1.798   3.448   2.172 -0.9896  0.0963  1.1980
 8396SOL     OW36823   3.874   3.161   2.608 -0.5174 -0.0338 -0.1940
 8396SOL    HW136824   3.946   3.223   2.599  0.0839 -0.6517  0.3517
 8396SOL    HW236825   3.841   3.158   2.518  0.9231 -2.4375 -0.6340
 8397SOL     OW36826   4.686   1.335   6.339  0.3320 -0.1443  0.1544
 8397SOL    HW136827   4.666   1.417   6.384 -1.5656 -1.2046  1.2213
 8397SOL    HW236828   4.657   1.359   6.251 -0.5766 -0.2779  0.4229
 8398SOL     OW36829   1.871   2.297   8.802 -0.3938 -0.2508 -0.3277
 8398SOL    HW136830   1.815   2.374   8.815 -0.9052 -0.7027  0.1134
 8398SOL    HW236831   1.930   2.319   8.873 -0.4865  0.6345 -0.5227
 8399SOL     OW36832   4.572   4.693  16.661 -0.3669  0.0804 -0.3789
 8399SOL    HW136833   4.585   0.040  16.708 -0.2188  0.1894 -0.6139
 8399SOL    HW236834   4.655   4.649  16.683 -0.1539  0.3977 -0.5473
 8400SOL     OW36835   3.034   2.396   8.525  0.1695 -0.2610  0.4803
 8400SOL    HW136836   2.959   2.438   8.568  1.3862  0.9964  1.3954
 8400SOL    HW236837   3.082   2.466   8.482  0.0304  0.4715  1.5220
 8401SOL     OW36838   1.692   1.838   2.908 -0.2782 -0.5647  0.4830
 8401SOL    HW136839   1.631   1.847   2.835 -1.4276  0.5375  1.5671
 8401SOL    HW236840   1.738   1.757   2.889 -0.8666 -0.6745 -0.4488
 8402SOL     OW36841   1.003   0.556   8.328 -0.4262  0.3441 -0.3382
 8402SOL    HW136842   0.979   0.545   8.419  1.9738  1.3281  0.4143
 8402SOL    HW236843   0.925   0.520   8.286 -0.0483 -0.2978 -0.4958
 8403SOL     OW36844   2.330   2.611   8.788  0.3585 -0.3705  0.3250
 8403SOL    HW136845   2.309   2.705   8.790  0.3604 -0.3798  0.8603
 8403SOL    HW236846   2.301   2.589   8.700 -2.7723 -0.8068  1.4595
 8404SOL     OW36847   2.003   0.964   3.722 -0.0955  0.4238  0.4869
 8404SOL    HW136848   1.966   0.907   3.655 -0.1153  0.1841  0.7019
 8404SOL    HW236849   1.925   0.955   3.777  1.5491  0.9750  2.9168
 8405SOL     OW36850   2.904   2.639  16.045 -0.3828  0.3937 -0.3493
 8405SOL    HW136851   2.903   2.705  16.114  0.9776  1.3240 -1.2294
 8405SOL    HW236852   2.873   2.692  15.972 -0.7543 -0.8541 -1.0906
 8406SOL     OW36853   1.949   3.975   3.031 -0.3249 -0.3990  0.6572
 8406SOL    HW136854   1.987   3.903   3.082 -0.3441 -0.5918  0.3983
 8406SOL    HW236855   1.924   3.934   2.949 -2.3042  0.0301  1.0326
 8407SOL     OW36856   1.832   4.419   2.612 -0.1844 -0.6978  0.1749
 8407SOL    HW136857   1.838   4.498   2.558 -1.4682 -0.4444  0.3996
 8407SOL    HW236858   1.915   4.376   2.591 -1.7093 -2.9200 -1.3129
 8408SOL     OW36859   2.616   1.338   2.096 -0.6225  0.3274 -0.8495
 8408SOL    HW136860   2.619   1.253   2.139  1.7528  0.1621 -1.3247
 8408SOL    HW236861   2.535   1.345   2.045 -0.6988 -0.2001 -0.7955
 8409SOL     OW36862   2.971   3.416   1.280  0.5919  0.0862 -0.2105
 8409SOL    HW136863   2.883   3.434   1.249  0.6852  1.1191  0.1250
 8409SOL    HW236864   3.024   3.394   1.204 -2.5948  1.2121 -2.7075
 8410SOL     OW36865   2.001   3.037   6.496  0.6778  0.0591  0.4678
 8410SOL    HW136866   1.924   3.040   6.554 -0.1704 -2.0450 -0.5601
 8410SOL    HW236867   2.032   3.128   6.504 -0.3032  0.4866 -0.6134
 8411SOL     OW36868   3.489   0.318  12.182 -0.4881  0.1351  0.0809
 8411SOL    HW136869   3.469   0.289  12.271  1.0952  0.2770  0.4800
 8411SOL    HW236870   3.414   0.375  12.167  0.3021  1.3713  0.7645
 8412SOL     OW36871   0.202   2.739  13.372  0.1927 -0.2209  0.1282
 8412SOL    HW136872   0.116   2.780  13.365 -0.7981 -2.0377  1.6931
 8412SOL    HW236873   0.172   2.677  13.438 -0.2948 -0.5274 -0.3879
 8413SOL     OW36874   2.295   3.792   7.033  0.1637 -0.6495  0.3738
 8413SOL    HW136875   2.273   3.833   6.949 -2.3477 -4.8631 -1.0328
 8413SOL    HW236876   2.280   3.857   7.102  0.8035 -0.5544  0.4179
 8414SOL     OW36877   0.981   2.054   6.977 -0.1708 -0.7527 -0.3144
 8414SOL    HW136878   0.895   2.084   7.008 -0.5570  0.1470 -2.2382
 8414SOL    HW236879   1.026   2.139   6.971 -1.4535  0.0017  0.5045
 8415SOL     OW36880   0.803   4.554   8.723 -0.6018  0.8102 -0.1712
 8415SOL    HW136881   0.778   4.517   8.639 -0.3645  0.6574 -0.1741
 8415SOL    HW236882   0.730   4.616   8.721 -0.1858  1.2499 -1.8151
 8416SOL     OW36883   2.084   3.651   1.738 -0.1375 -0.0618 -0.3557
 8416SOL    HW136884   2.115   3.707   1.810 -0.8642 -0.0316 -0.0663
 8416SOL    HW236885   2.083   3.714   1.666  0.6362  0.4705  0.0893
 8417SOL     OW36886   0.490   1.591   7.405  0.0330 -0.2941 -0.5319
 8417SOL    HW136887   0.462   1.519   7.461  1.4537  0.3907  1.0980
 8417SOL    HW236888   0.461   1.557   7.320 -1.8749  1.7190 -0.6642
 8418SOL     OW36889   4.041   0.339   3.343  0.2421  0.0490 -0.0638
 8418SOL    HW136890   4.129   0.307   3.323  0.7119  1.1006  0.3930
 8418SOL    HW236891   3.990   0.268   3.303  1.2229  0.2394 -1.6506
 8419SOL     OW36892   0.099   3.330   6.713  0.2940 -0.5249 -0.2010
 8419SOL    HW136893   0.133   3.380   6.639  1.0765 -0.4228  0.2308
 8419SOL    HW236894   0.036   3.278   6.662  0.8343 -0.7631 -0.6278
 8420SOL     OW36895   3.125   3.942   6.717 -0.3993 -0.3896  0.3213
 8420SOL    HW136896   3.202   3.973   6.764 -0.4370 -0.7479  0.6141
 8420SOL    HW236897   3.051   3.944   6.779 -0.7976  2.5639 -0.2319
 8421SOL     OW36898   1.505   2.014   9.131  0.1994 -0.8525  0.0155
 8421SOL    HW136899   1.477   2.104   9.144 -0.7266 -1.0539 -0.5643
 8421SOL    HW236900   1.595   2.024   9.100  0.2361  1.1538  0.7592
 8422SOL     OW36901   3.747   2.590   7.097  0.4522 -0.1190  0.2659
 8422SOL    HW136902   3.745   2.588   7.193 -1.9271 -0.1961  0.2034
 8422SOL    HW236903   3.689   2.515   7.082 -0.2117  0.2061  1.1895
 8423SOL     OW36904   1.646   3.027   9.446  0.0026  0.2005 -0.2195
 8423SOL    HW136905   1.638   3.052   9.538  1.4770  0.5881 -0.1882
 8423SOL    HW236906   1.557   2.999   9.423  0.3225  0.5819 -1.9698
 8424SOL     OW36907   2.553   3.068   6.243 -0.2611 -0.0214  0.4565
 8424SOL    HW136908   2.542   2.976   6.267 -1.4789 -0.0682 -0.2656
 8424SOL    HW236909   2.550   3.115   6.326  1.1412 -0.5491  0.7973
 8425SOL     OW36910   3.329   3.170   7.717 -0.3275 -0.0262 -0.1282
 8425SOL    HW136911   3.359   3.122   7.641  1.4242  1.7229 -0.5240
 8425SOL    HW236912   3.247   3.123   7.733  1.9598 -3.2977  1.8500
 8426SOL     OW36913   1.019   1.622   8.597  0.0920  0.1773  0.2990
 8426SOL    HW136914   1.079   1.554   8.626 -0.0595 -0.4683 -0.9124
 8426SOL    HW236915   1.072   1.700   8.585 -2.7195  1.8457 -1.3751
 8427SOL     OW36916   1.309   1.824  16.451  0.2822 -0.1480 -0.1262
 8427SOL    HW136917   1.222   1.859  16.429 -0.8490 -1.5882  2.0289
 8427SOL    HW236918   1.369   1.898  16.456 -0.7650  0.8152 -1.8163
 8428SOL     OW36919   4.246   4.207   4.855  0.3535 -0.5153  0.7305
 8428SOL    HW136920   4.341   4.219   4.854 -0.0496  2.9621  2.6474
 8428SOL    HW236921   4.228   4.249   4.939  2.3466 -0.7154  1.2614
 8429SOL     OW36922   2.028   3.283  17.050  0.3608  0.2654  0.3159
 8429SOL    HW136923   2.006   3.307  17.140 -2.3546 -1.0000 -0.0121
 8429SOL    HW236924   2.109   3.334  17.048  0.8042 -0.4976 -2.0190
 8430SOL     OW36925   2.442   2.813   2.134 -0.4889 -0.0513 -0.3927
 8430SOL    HW136926   2.469   2.722   2.149  1.0098  0.7167  1.5294
 8430SOL    HW236927   2.428   2.840   2.224 -2.8029  0.4000 -0.8852
 8431SOL     OW36928   2.806   0.405   8.920  0.0678  0.1790  0.1205
 8431SOL    HW136929   2.864   0.451   8.980  1.5690 -1.3610 -0.1612
 8431SOL    HW236930   2.863   0.358   8.859 -3.1361 -2.3070 -0.9840
 8432SOL     OW36931   2.889   2.228   2.927 -0.2578  0.1608  0.2164
 8432SOL    HW136932   2.914   2.137   2.914 -1.5977 -0.0451 -0.8840
 8432SOL    HW236933   2.945   2.273   2.865  1.3262  1.0766  2.3141
 8433SOL     OW36934   4.284   4.322   2.518 -0.0752  0.0789  0.1362
 8433SOL    HW136935   4.344   4.273   2.574  0.4757 -0.4439 -0.9213
 8433SOL    HW236936   4.352   4.371   2.473 -1.7086  0.6339 -1.7238
 8434SOL     OW36937   1.133   4.704   6.516 -0.9881 -0.6710  0.2964
 8434SOL    HW136938   1.144   0.050   6.565 -0.4690  0.3773 -1.5511
 8434SOL    HW236939   1.110   0.003   6.429  2.5691  1.2381  0.0768
 8435SOL     OW36940   0.516   2.920   8.941  0.4124 -0.1145 -0.6400
 8435SOL    HW136941   0.539   2.980   9.012 -3.1842  0.3461  0.1375
 8435SOL    HW236942   0.474   2.982   8.881 -2.8301 -2.2667 -0.6266
 8436SOL     OW36943   0.100   2.949   9.877  0.5576 -0.3146  0.2758
 8436SOL    HW136944   0.095   3.022   9.814 -5.7809 -2.2472 -1.5418
 8436SOL    HW236945   0.150   2.889   9.822  2.2317 -0.4895  2.0060
 8437SOL     OW36946   0.360   3.100   7.878 -0.6773 -0.6236 -0.0390
 8437SOL    HW136947   0.315   3.139   7.953 -0.7902 -0.9613  0.0710
 8437SOL    HW236948   0.431   3.162   7.860 -0.0230 -1.0720  0.9884
 8438SOL     OW36949   3.006   1.822   2.322 -0.0132  0.4137  0.3268
 8438SOL    HW136950   3.049   1.902   2.292 -3.3889  1.4562 -1.7544
 8438SOL    HW236951   2.918   1.859   2.330 -0.2725  0.0982 -0.9206
 8439SOL     OW36952   0.623   2.539   5.224  0.0858  0.0753 -0.2461
 8439SOL    HW136953   0.532   2.520   5.202 -0.5976  2.8954  0.1566
 8439SOL    HW236954   0.643   2.460   5.274 -2.9338  0.6640  1.8967
 8440SOL     OW36955   0.359   4.685  11.522  0.8602 -0.4807 -0.2261
 8440SOL    HW136956   0.375   4.597  11.556  0.6895  0.5665  2.5932
 8440SOL    HW236957   0.273   4.683  11.482  0.2698 -3.1251  1.1923
 8441SOL     OW36958   3.461   4.359   0.530  0.3020  0.4324 -0.4070
 8441SOL    HW136959   3.504   4.323   0.607 -1.5131  0.6317  0.7035
 8441SOL    HW236960   3.529   4.340   0.466  0.7242 -3.7206  1.2509
 8442SOL     OW36961   3.281   3.595   1.421  0.1826  0.8986 -0.5346
 8442SOL    HW136962   3.273   3.542   1.341  3.1215  0.6778 -0.6703
 8442SOL    HW236963   3.376   3.608   1.420  0.2344  0.5095 -0.8497
 8443SOL     OW36964   3.208   3.349   7.351  0.6502 -0.0195 -0.4170
 8443SOL    HW136965   3.144   3.281   7.332  0.7591  0.0374 -0.9802
 8443SOL    HW236966   3.290   3.316   7.315 -0.3887 -0.5824 -2.2504
 8444SOL     OW36967   2.355   2.996   5.793 -0.0597  0.5336 -0.2640
 8444SOL    HW136968   2.404   3.025   5.870  0.7105  1.5852 -1.1544
 8444SOL    HW236969   2.279   3.053   5.803 -0.1564  0.5490 -1.1218
 8445SOL     OW36970   0.623   4.012  14.070 -0.2104  0.1944  0.3813
 8445SOL    HW136971   0.611   4.082  14.006 -2.1808 -0.2291  0.2622
 8445SOL    HW236972   0.676   4.051  14.140  1.8558  0.6022 -1.4170
 8446SOL     OW36973   3.955   2.278   3.307  0.4828  0.5718  0.1871
 8446SOL    HW136974   3.885   2.254   3.368 -0.4699 -0.4237 -1.2970
 8446SOL    HW236975   3.912   2.351   3.264  1.5705  1.1755  0.1343
 8447SOL     OW36976   1.269   0.196   5.825  0.3705  0.4968 -0.5381
 8447SOL    HW136977   1.215   0.221   5.901 -0.8462 -2.5939 -0.3648
 8447SOL    HW236978   1.317   0.119   5.857 -1.2452 -0.8721 -1.4231
 8448SOL     OW36979   4.673   0.476   3.284 -0.4507  0.1770  0.2070
 8448SOL    HW136980   4.683   0.485   3.379 -2.9363  4.1901  0.1136
 8448SOL    HW236981   0.031   0.475   3.263 -0.0142  0.3428  2.0707
 8449SOL     OW36982   3.246   0.101  14.632 -0.1516  0.2554  0.6814
 8449SOL    HW136983   3.325   0.142  14.596 -1.9837  1.5648 -1.7877
 8449SOL    HW236984   3.285   0.043  14.698  1.6031  1.2836  0.5746
 8450SOL     OW36985   1.458   3.624   7.097 -0.3212 -0.1647  0.4731
 8450SOL    HW136986   1.421   3.567   7.030 -0.1428 -0.6728  0.8037
 8450SOL    HW236987   1.527   3.567   7.132  0.8444  1.0150  0.1004
 8451SOL     OW36988   1.986   0.375   9.336 -0.4593  0.9610  0.0793
 8451SOL    HW136989   2.068   0.361   9.384  0.7014 -1.4511 -2.5275
 8451SOL    HW236990   1.954   0.449   9.386 -1.5005  0.4253  0.1941
 8452SOL     OW36991   1.586   4.530   4.263 -0.1965 -0.4557  0.0515
 8452SOL    HW136992   1.678   4.552   4.253  0.1848 -1.8187  0.5776
 8452SOL    HW236993   1.579   4.487   4.178 -1.1599 -3.3061  1.5532
 8453SOL     OW36994   0.303   2.955   6.395 -0.1960 -0.8547 -0.1599
 8453SOL    HW136995   0.218   2.911   6.392 -1.2665  1.1483  1.1575
 8453SOL    HW236996   0.319   2.953   6.301  0.2499  2.0387 -0.1461
 8454SOL     OW36997   0.537   1.908   2.281  0.1020  0.4804  0.0074
 8454SOL    HW136998   0.457   1.857   2.269  1.1014 -0.8646 -0.9624
 8454SOL    HW236999   0.587   1.851   2.340  0.9696  2.7147  1.4444
 8455SOL     OW37000   0.636   2.856   9.701 -0.2434  0.1107  0.0851
 8455SOL    HW137001   0.651   2.762   9.687  1.2327  0.4780 -0.7601
 8455SOL    HW237002   0.721   2.897   9.711  1.6819 -2.6393 -4.9125
 8456SOL     OW37003   4.237   3.126  13.308  0.3176 -0.1868  0.0731
 8456SOL    HW137004   4.250   3.065  13.235 -0.2848  0.9076 -0.9591
 8456SOL    HW237005   4.168   3.186  13.281  2.5939  1.7621 -1.4290
 8457SOL     OW37006   1.672   3.065   8.088  0.0176  0.2312 -0.2578
 8457SOL    HW137007   1.696   3.156   8.070 -1.8444  0.6787 -0.5100
 8457SOL    HW237008   1.684   3.020   8.004  0.4044 -0.9541  0.4437
 8458SOL     OW37009   1.028   3.706   6.740 -0.3381  0.2106  0.6588
 8458SOL    HW137010   0.933   3.720   6.748 -0.6711 -2.0874  0.7231
 8458SOL    HW237011   1.054   3.798   6.745 -0.3309  0.1404  1.7688
 8459SOL     OW37012   4.336   1.425   7.716  0.0059 -0.8821  0.2288
 8459SOL    HW137013   4.426   1.401   7.740  0.8283  0.6423 -1.3774
 8459SOL    HW237014   4.283   1.362   7.765 -1.6658  0.8544  0.6538
 8460SOL     OW37015   1.348   0.473  14.948 -0.0677  0.3808 -0.1605
 8460SOL    HW137016   1.291   0.421  14.892 -1.1524  1.5556 -0.1533
 8460SOL    HW237017   1.355   0.548  14.889  1.2834 -0.0559 -0.5477
 8461SOL     OW37018   1.091   1.828   1.035 -0.0168 -0.3058 -0.3779
 8461SOL    HW137019   1.099   1.921   1.054  0.7007 -0.6934  1.1772
 8461SOL    HW237020   1.007   1.812   1.078  0.8667  0.3992  1.5970
 8462SOL     OW37021   1.803   3.069   6.665 -0.0054 -0.0107 -0.1988
 8462SOL    HW137022   1.749   2.991   6.665 -0.2007  0.1209  1.9836
 8462SOL    HW237023   1.799   3.095   6.757  0.0442  0.1097 -0.2299
 8463SOL     OW37024   2.034   2.429   6.020 -0.2867  0.1942 -0.3550
 8463SOL    HW137025   2.103   2.379   5.976 -0.7485  0.2031 -1.0902
 8463SOL    HW237026   1.960   2.370   6.008  0.1720 -0.2772 -0.8636
 8464SOL     OW37027   2.843   1.221   9.057  0.0075 -0.0917  0.2486
 8464SOL    HW137028   2.799   1.301   9.029 -0.7757  0.7490  3.9886
 8464SOL    HW237029   2.840   1.212   9.152  2.5802 -2.2604  0.1249
 8465SOL     OW37030   0.405   0.690   2.141 -0.0311  0.5209  0.1585
 8465SOL    HW137031   0.496   0.661   2.133 -0.7639 -1.6277 -0.2903
 8465SOL    HW237032   0.394   0.701   2.235 -1.4032 -2.5917  0.3519
 8466SOL     OW37033   0.562   4.617  16.073  0.4142 -0.0131  0.0627
 8466SOL    HW137034   0.545   4.523  16.078 -1.3088  0.2460 -0.9746
 8466SOL    HW237035   0.586   4.639  16.164  0.5751  2.3783 -0.5483
 8467SOL     OW37036   2.800   0.658   5.254  0.2267  0.1079 -0.0471
 8467SOL    HW137037   2.893   0.635   5.248  0.2593  0.2879 -0.2175
 8467SOL    HW237038   2.796   0.705   5.337  1.5252 -0.3524  0.2717
 8468SOL     OW37039   3.992   2.835  16.828  0.0250  0.2312 -0.1330
 8468SOL    HW137040   4.035   2.902  16.881 -1.8942  0.0203  1.7225
 8468SOL    HW237041   3.937   2.795  16.896 -0.3454  0.3123 -0.3834
 8469SOL     OW37042   4.350   4.556  12.502 -0.5261 -0.1436 -0.1439
 8469SOL    HW137043   4.369   4.496  12.574  1.0665 -1.7512 -1.8884
 8469SOL    HW237044   4.279   4.608  12.540  0.4545  2.4301 -1.7986
 8470SOL     OW37045   4.109   0.255  16.415 -0.8642  0.2468 -0.6374
 8470SOL    HW137046   4.097   0.168  16.378 -0.7343 -0.0221 -0.0500
 8470SOL    HW237047   4.194   0.277  16.376  0.2928 -1.2412  1.0476
 8471SOL     OW37048   3.535   2.114  14.540  0.1466  0.2394 -0.0978
 8471SOL    HW137049   3.621   2.076  14.559 -0.2958 -0.2029  1.0157
 8471SOL    HW237050   3.529   2.085  14.449  0.8888 -0.5267  0.1014
 8472SOL     OW37051   4.081   2.660   2.200  0.4326  0.2505  0.2448
 8472SOL    HW137052   4.097   2.690   2.111 -0.5238 -0.1168 -0.0493
 8472SOL    HW237053   4.072   2.565   2.191  1.2308  0.0675  1.2822
 8473SOL     OW37054   2.694   0.456   9.772 -1.1146  0.1910  0.2638
 8473SOL    HW137055   2.720   0.457   9.864  0.6418 -1.7435 -0.2284
 8473SOL    HW237056   2.728   0.545   9.760 -0.6895 -0.1076 -0.7482
 8474SOL     OW37057   1.553   1.401   7.014  0.2645 -0.5489 -0.4371
 8474SOL    HW137058   1.490   1.381   6.945 -1.0145 -1.2394  0.9386
 8474SOL    HW237059   1.529   1.337   7.080  4.2774 -0.7111  0.8918
 8475SOL     OW37060   1.219   1.399   4.009  0.1035  0.3847 -0.1009
 8475SOL    HW137061   1.219   1.324   3.949 -0.6844 -0.6614  1.2030
 8475SOL    HW237062   1.142   1.375   4.060 -0.5533 -0.7639 -1.6530
 8476SOL     OW37063   3.118   1.307  16.595  0.1670  0.5389 -0.4216
 8476SOL    HW137064   3.115   1.380  16.657  1.5094  0.3181 -0.0909
 8476SOL    HW237065   3.210   1.282  16.607 -0.2166 -1.2075 -1.1100
 8477SOL     OW37066   1.541   1.689   4.399 -0.2047 -0.2410  0.0253
 8477SOL    HW137067   1.484   1.661   4.328  1.1686 -1.4745 -0.5997
 8477SOL    HW237068   1.596   1.611   4.413  0.4011 -0.2052 -2.1753
 8478SOL     OW37069   3.294   0.363   8.856  0.6295 -0.6368  0.8081
 8478SOL    HW137070   3.286   0.305   8.780  1.4207  0.0004  0.2444
 8478SOL    HW237071   3.352   0.426   8.814 -2.1172  1.9030  0.8253
 8479SOL     OW37072   2.963   1.436   0.057  0.0248 -0.1807 -0.1690
 8479SOL    HW137073   2.937   1.528   0.057 -1.1035 -0.5232 -2.4969
 8479SOL    HW237074   3.057   1.446   0.038 -0.2091  0.2026 -1.1398
 8480SOL     OW37075   0.813   1.178  15.266 -0.0358  0.6834 -0.7629
 8480SOL    HW137076   0.764   1.129  15.331  0.3945 -0.5659 -1.3756
 8480SOL    HW237077   0.906   1.171  15.289 -0.1598 -0.9545 -0.7969
 8481SOL     OW37078   1.553   1.361  12.324 -0.2938  0.7550  0.4883
 8481SOL    HW137079   1.537   1.273  12.292  2.2860  0.6865 -0.6213
 8481SOL    HW237080   1.566   1.404  12.240 -1.2505  0.1943  0.0689
 8482SOL     OW37081   0.682   3.085   5.571 -0.1522 -0.4327 -0.2489
 8482SOL    HW137082   0.767   3.097   5.528 -0.7202  0.8848 -1.0117
 8482SOL    HW237083   0.710   3.023   5.638  0.5103  0.6804  0.5087
 8483SOL     OW37084   1.088   1.709   2.134 -0.7713 -0.3457  0.7181
 8483SOL    HW137085   1.009   1.761   2.147 -0.3163  0.4013  0.5229
 8483SOL    HW237086   1.084   1.677   2.044 -2.5761  0.7345  0.4118
 8484SOL     OW37087   4.024   1.192   5.049  0.3909 -0.0765 -0.9426
 8484SOL    HW137088   3.957   1.151   5.103  0.6298  0.2431 -0.4087
 8484SOL    HW237089   4.047   1.116   4.995  1.1288 -1.2459  1.0359
 8485SOL     OW37090   2.973   3.323   9.300 -0.5357 -0.1545 -0.1845
 8485SOL    HW137091   2.895   3.332   9.354 -0.3807  0.4943 -0.0628
 8485SOL    HW237092   3.036   3.291   9.365 -0.6447  1.4025  0.6841
 8486SOL     OW37093   2.961   3.558   5.745  0.9506  0.2072  0.1756
 8486SOL    HW137094   3.001   3.482   5.787 -1.5800 -0.0009  2.1538
 8486SOL    HW237095   2.975   3.543   5.651  2.1354 -1.9354  0.6914
 8487SOL     OW37096   2.904   3.550   4.359  0.3115 -0.7787 -0.6087
 8487SOL    HW137097   2.821   3.590   4.387  0.8519  0.2918 -0.5552
 8487SOL    HW237098   2.927   3.497   4.436 -0.5596 -0.0170  0.1814
 8488SOL     OW37099   2.481   0.362   5.876  0.2588  0.2315 -0.3369
 8488SOL    HW137100   2.460   0.296   5.810 -3.3669  1.8155 -0.7660
 8488SOL    HW237101   2.404   0.419   5.873  0.9647  1.3789  2.7181
 8489SOL     OW37102   4.372   0.797   4.070  0.2744  0.0964  0.4278
 8489SOL    HW137103   4.377   0.816   4.164 -1.3182 -2.2747  0.9750
 8489SOL    HW237104   4.299   0.735   4.066  1.2737 -0.9525 -1.5483
 8490SOL     OW37105   0.171   3.381   0.754 -0.1157  0.0321 -0.3155
 8490SOL    HW137106   0.221   3.453   0.793  0.6739 -0.5284 -0.2866
 8490SOL    HW237107   0.251   3.331   0.740  1.1308  1.5888  1.1083
 8491SOL     OW37108   4.355   1.510   5.489 -0.7506 -0.2564 -0.0126
 8491SOL    HW137109   4.347   1.521   5.394 -0.2664 -1.3063 -0.1817
 8491SOL    HW237110   4.302   1.432   5.504  1.3272 -2.1106 -2.2046
 8492SOL     OW37111   0.659   2.954   3.819 -0.8442 -0.5855 -0.5071
 8492SOL    HW137112   0.613   2.878   3.856  0.7991 -0.9584  0.7455
 8492SOL    HW237113   0.727   2.908   3.769  1.0051  1.1569  0.4392
 8493SOL     OW37114   2.111   2.801   1.873  0.2028  0.3730  0.3573
 8493SOL    HW137115   2.151   2.728   1.825 -0.4839  0.0905  0.1981
 8493SOL    HW237116   2.190   2.844   1.904  0.1759 -0.6755  1.8613
 8494SOL     OW37117   2.844   1.135   5.615 -0.0468 -0.8261  0.0904
 8494SOL    HW137118   2.894   1.178   5.684  0.1509 -1.7980  0.5519
 8494SOL    HW237119   2.919   1.112   5.560  0.3409  1.8426 -0.5216
 8495SOL     OW37120   0.453   1.595   2.615  0.6566  0.2216  0.1021
 8495SOL    HW137121   0.472   1.508   2.581  1.5413 -0.0724  1.3402
 8495SOL    HW237122   0.357   1.586   2.612  0.7640 -1.1007  0.5532
 8496SOL     OW37123   4.630   0.851   9.163  0.1182  0.2875  0.4515
 8496SOL    HW137124   4.596   0.778   9.215 -0.3879 -0.9800 -1.6503
 8496SOL    HW237125   4.722   0.825   9.158  0.5608  1.8018  0.8291
 8497SOL     OW37126   1.999   2.651  14.239 -0.1737  0.4077  0.0706
 8497SOL    HW137127   2.021   2.635  14.331  2.3367  2.4135 -0.1963
 8497SOL    HW237128   2.033   2.574  14.194 -1.5854 -1.8842  2.8751
 8498SOL     OW37129   0.294   2.664   2.142  0.5850  0.2270 -0.3106
 8498SOL    HW137130   0.231   2.689   2.074  1.2947 -2.7183 -2.0871
 8498SOL    HW237131   0.244   2.620   2.211 -0.4399  1.5050 -0.2446
 8499SOL     OW37132   3.591   0.889   4.520 -0.7075 -0.0718  0.6339
 8499SOL    HW137133   3.525   0.820   4.521 -0.1393 -0.6177  0.5223
 8499SOL    HW237134   3.671   0.835   4.521  0.7315  2.0224 -1.5435
 8500SOL     OW37135   1.466   1.745   3.146 -0.3292 -0.2803  0.0979
 8500SOL    HW137136   1.415   1.824   3.130 -0.0358  0.0231  0.6747
 8500SOL    HW237137   1.528   1.746   3.073  1.9258  1.6109  2.0342
 8501SOL     OW37138   3.478   4.113   8.436 -0.4641  0.1233 -0.1226
 8501SOL    HW137139   3.561   4.105   8.482  0.4095 -1.5306 -1.9538
 8501SOL    HW237140   3.460   4.206   8.444 -1.3829  0.0831 -1.6558
 8502SOL     OW37141   0.479   4.028  14.393 -0.5438 -0.4974  0.6588
 8502SOL    HW137142   0.574   4.028  14.386 -0.4923  1.5202  1.3077
 8502SOL    HW237143   0.462   4.101  14.453 -1.4122 -0.0476 -0.1418
 8503SOL     OW37144   4.131   4.633   8.322  0.0793 -0.2187  0.3408
 8503SOL    HW137145   4.131   4.628   8.418  1.6362  1.3258  0.4282
 8503SOL    HW237146   4.121   4.728   8.312  0.6125  0.0998  2.7419
 8504SOL     OW37147   3.113   1.163   2.818 -0.2240 -0.3859  0.2331
 8504SOL    HW137148   3.138   1.149   2.909  2.0191 -2.7897 -0.7583
 8504SOL    HW237149   3.028   1.203   2.833  0.7295  1.7277  0.0503
 8505SOL     OW37150   2.482   2.574   1.125  0.3060 -0.6002 -0.4723
 8505SOL    HW137151   2.511   2.627   1.199  1.1492  0.3160 -1.4603
 8505SOL    HW237152   2.386   2.578   1.127  0.1931 -3.3733  0.4026
 8506SOL     OW37153   3.374   1.040   4.609 -0.3936  0.0851  0.1983
 8506SOL    HW137154   3.410   0.999   4.530 -0.8160 -0.6632  0.3938
 8506SOL    HW237155   3.327   1.117   4.576 -3.4503 -1.5791  0.7031
 8507SOL     OW37156   3.428   1.004   2.545 -0.0751  0.4489  0.4080
 8507SOL    HW137157   3.478   1.004   2.463  0.5024  0.7949  0.7644
 8507SOL    HW237158   3.498   0.982   2.607  1.5349  1.2918 -1.1143
 8508SOL     OW37159   1.394   3.600   3.714 -0.3024 -0.5767 -0.3393
 8508SOL    HW137160   1.459   3.619   3.783  0.0037 -2.0572 -0.2220
 8508SOL    HW237161   1.356   3.688   3.717  1.2634  0.0955  0.3650
 8509SOL     OW37162   4.186   0.659   3.634  0.1575 -0.2246  0.2049
 8509SOL    HW137163   4.190   0.563   3.626  2.3552 -0.0285 -1.1419
 8509SOL    HW237164   4.160   0.689   3.547 -1.6171 -1.8874  0.1572
 8510SOL     OW37165   4.714   0.989   3.150  1.0691  0.8123 -0.1102
 8510SOL    HW137166   0.061   1.004   3.196  0.7236 -0.0400  0.7735
 8510SOL    HW237167   4.654   0.974   3.223 -0.7373  0.4512 -1.6504
 8511SOL     OW37168   0.998   1.730  12.737  0.3000 -0.0246 -0.1625
 8511SOL    HW137169   1.086   1.732  12.701  0.9082  0.3087  1.3175
 8511SOL    HW237170   1.016   1.704  12.828  0.7145  0.7015 -0.0376
 8512SOL     OW37171   3.435   1.078  15.367 -0.0259 -0.3026 -0.7938
 8512SOL    HW137172   3.511   1.121  15.405 -0.1366 -1.3359  0.6357
 8512SOL    HW237173   3.393   1.036  15.442  0.7094 -1.9364 -1.3025
 8513SOL     OW37174   2.014   2.494   1.569 -0.7153 -0.3846  0.1556
 8513SOL    HW137175   1.932   2.523   1.529 -0.3118  1.3140  0.5665
 8513SOL    HW237176   1.988   2.427   1.633  1.4037  2.0892  3.6346
 8514SOL     OW37177   1.962   3.138  16.823  0.3037  0.4853 -0.0296
 8514SOL    HW137178   1.906   3.209  16.793  1.3737  1.7720  1.0189
 8514SOL    HW237179   1.997   3.185  16.899  0.9946  1.4944 -0.9771
 8515SOL     OW37180   2.614   3.916  10.061 -0.3673  0.0911  0.3286
 8515SOL    HW137181   2.567   3.842  10.023  0.0332 -0.2291  0.4469
 8515SOL    HW237182   2.626   3.968   9.981  2.4675 -0.7203  0.2109
 8516SOL     OW37183   1.944   2.004   5.978  0.2388  0.1696  0.7202
 8516SOL    HW137184   1.953   1.958   5.895 -0.6885 -0.4085  0.9484
 8516SOL    HW237185   1.879   1.947   6.017 -1.5454  1.8266  0.1411
 8517SOL     OW37186   2.668   4.214   4.348  0.5743  0.5123 -0.2831
 8517SOL    HW137187   2.740   4.242   4.405  0.4366 -0.1292  0.2001
 8517SOL    HW237188   2.711   4.151   4.291  0.8279 -0.1319  0.6222
 8518SOL     OW37189   1.170   2.034   2.025 -0.3426 -0.5100  0.3137
 8518SOL    HW137190   1.223   2.046   1.946 -2.3194  3.3673 -0.4261
 8518SOL    HW237191   1.087   2.030   1.978  0.0772 -0.6329 -0.4138
 8519SOL     OW37192   1.481   4.492   5.860 -0.7711 -0.4586  0.1524
 8519SOL    HW137193   1.576   4.498   5.848 -0.8589  0.4023 -0.1418
 8519SOL    HW237194   1.458   4.428   5.793 -3.4104  1.3316 -0.6458
 8520SOL     OW37195   0.200   3.766   3.135 -0.3359  0.5998  0.3072
 8520SOL    HW137196   0.160   3.819   3.066 -0.4402  2.6008  1.8886
 8520SOL    HW237197   0.147   3.801   3.207  1.0969 -0.9607  2.1093
 8521SOL     OW37198   1.105   4.303  14.848 -0.1988 -0.0211  0.2764
 8521SOL    HW137199   1.138   4.213  14.850 -0.8522 -0.2723 -0.6275
 8521SOL    HW237200   1.099   4.322  14.942  0.1293 -2.5152  0.8118
 8522SOL     OW37201   1.615   0.657   4.501 -0.2632 -0.4037  0.0218
 8522SOL    HW137202   1.594   0.612   4.419  1.0223 -1.4257  0.2553
 8522SOL    HW237203   1.703   0.626   4.520 -0.5584 -2.1359 -1.4762
 8523SOL     OW37204   3.525   1.712   5.769 -0.0407 -0.1727 -0.0393
 8523SOL    HW137205   3.438   1.674   5.781  0.4895 -1.4631 -0.2908
 8523SOL    HW237206   3.498   1.778   5.705 -3.1447 -1.1822  0.2261
 8524SOL     OW37207   1.602   2.668  13.032 -0.0250 -0.1660  0.0887
 8524SOL    HW137208   1.608   2.763  13.045  0.0576 -0.1692  0.0771
 8524SOL    HW237209   1.533   2.659  12.965 -1.0588 -2.3334  1.4565
 8525SOL     OW37210   1.452   3.752   2.719 -0.5693 -0.1443  0.5333
 8525SOL    HW137211   1.374   3.808   2.713 -1.3088 -1.4352 -2.1468
 8525SOL    HW237212   1.491   3.785   2.800 -2.6986  0.9438  1.1225
 8526SOL     OW37213   4.029   0.014  12.881  0.3435  0.0561 -0.1721
 8526SOL    HW137214   4.074   4.666  12.896 -1.8435 -1.2509 -0.8751
 8526SOL    HW237215   4.036   0.042  12.972 -2.0807  2.2077 -0.6529
 8527SOL     OW37216   2.481   2.408   4.741  0.4946 -1.2807 -0.5283
 8527SOL    HW137217   2.514   2.371   4.822 -0.2277  1.2636  0.9249
 8527SOL    HW237218   2.546   2.475   4.720 -0.3555 -0.4902 -0.6799
 8528SOL     OW37219   4.041   3.347   2.975 -0.2222  0.3652 -0.1175
 8528SOL    HW137220   3.982   3.417   2.948  1.6949  1.5388 -1.2786
 8528SOL    HW237221   4.121   3.362   2.924 -0.1805 -0.5290 -0.3190
 8529SOL     OW37222   0.050   1.222  10.589  0.0214  0.2063  0.8689
 8529SOL    HW137223   4.703   1.174  10.597  0.1003  0.1490  1.3380
 8529SOL    HW237224   0.091   1.177  10.663  1.8001  1.2538  0.5212
 8530SOL     OW37225   2.023   3.591   6.296 -0.0986  0.3016 -0.0477
 8530SOL    HW137226   1.983   3.663   6.248  2.9075  1.9666 -0.0561
 8530SOL    HW237227   2.112   3.625   6.288  0.0923 -0.0360  0.5900
 8531SOL     OW37228   2.226   2.475   7.537 -0.0666  0.3830 -0.2140
 8531SOL    HW137229   2.242   2.429   7.620 -0.5136 -1.1702 -0.9897
 8531SOL    HW237230   2.192   2.400   7.488  0.9047 -1.1015  1.3338
 8532SOL     OW37231   0.741   0.720   3.572  0.3535 -0.1122  0.7672
 8532SOL    HW137232   0.705   0.632   3.560  0.5011  0.0499 -0.7862
 8532SOL    HW237233   0.815   0.712   3.512 -1.7113  1.7672 -2.0157
 8533SOL     OW37234   4.516   3.428   9.582  0.5818  0.0588 -0.4196
 8533SOL    HW137235   4.592   3.438   9.525  0.2087  0.0907 -0.9063
 8533SOL    HW237236   4.556   3.419   9.669 -2.0865 -1.9882  0.6239
 8534SOL     OW37237   4.398   4.598   4.734 -0.5532 -0.5281  0.1406
 8534SOL    HW137238   4.375   4.650   4.656 -1.8411  0.5841  1.2595
 8534SOL    HW237239   4.439   4.673   4.776 -0.8234 -1.3007  1.7662
 8535SOL     OW37240   3.730   3.600   5.667  0.1762 -0.0166 -0.1035
 8535SOL    HW137241   3.755   3.643   5.749  0.8371 -0.4197 -0.0877
 8535SOL    HW237242   3.637   3.619   5.658  0.2220 -0.3352 -1.2193
 8536SOL     OW37243   0.323   4.499   2.778 -0.0669  0.0808  0.2741
 8536SOL    HW137244   0.373   4.435   2.829  1.5538  0.0190 -1.4217
 8536SOL    HW237245   0.301   4.442   2.705  1.6541 -1.9200  1.3038
 8537SOL     OW37246   4.609   3.685   7.161  0.6289  0.2361  0.0898
 8537SOL    HW137247   4.513   3.683   7.157  0.5410 -2.4934  3.9786
 8537SOL    HW237248   4.627   3.757   7.100 -0.0885  1.3044  1.1177
 8538SOL     OW37249   2.411   4.482   6.533  0.4076  0.1496  0.3396
 8538SOL    HW137250   2.450   4.412   6.586  0.1461  0.1758  0.5600
 8538SOL    HW237251   2.346   4.440   6.476 -1.4445  1.3264  1.6128
 8539SOL     OW37252   1.112   3.899  15.922 -0.1950  0.1113  0.2183
 8539SOL    HW137253   1.115   3.858  16.008  1.9010 -0.5286 -0.1589
 8539SOL    HW237254   1.020   3.892  15.895 -0.6346  0.3810  1.6432
 8540SOL     OW37255   1.164   3.284   3.153 -0.0636  0.1246  0.0356
 8540SOL    HW137256   1.243   3.292   3.100 -0.4292  1.0125 -0.3786
 8540SOL    HW237257   1.159   3.374   3.184  1.4596 -1.0699  3.7670
 8541SOL     OW37258   1.816   3.869   5.023 -0.3233  0.4004 -0.5062
 8541SOL    HW137259   1.832   3.949   5.073  0.1629  0.4944 -0.8156
 8541SOL    HW237260   1.723   3.859   5.047 -0.3154  2.0213  0.1776
 8542SOL     OW37261   0.799   2.657   6.568 -0.5237 -0.2627 -0.2479
 8542SOL    HW137262   0.858   2.630   6.639 -0.1212 -0.3736 -0.6292
 8542SOL    HW237263   0.755   2.573   6.561  0.3901 -0.7200 -0.5357
 8543SOL     OW37264   2.303   3.220  16.293  0.0506  0.3484  0.0212
 8543SOL    HW137265   2.282   3.157  16.224 -0.2597 -0.5110  0.9035
 8543SOL    HW237266   2.395   3.239  16.274  0.0499  0.6516  0.3242
 8544SOL     OW37267   2.785   1.970   3.793  0.3749 -0.1255 -0.0974
 8544SOL    HW137268   2.698   1.937   3.772  0.6742 -1.6958  1.1871
 8544SOL    HW237269   2.819   1.891   3.835 -1.3436 -0.3585  0.8469
 8545SOL     OW37270   0.984   1.625   6.568  0.5920  0.3531 -0.2238
 8545SOL    HW137271   1.064   1.607   6.517 -0.1114 -0.9518 -0.8647
 8545SOL    HW237272   1.013   1.703   6.615  0.1626  1.5301 -1.9262
 8546SOL     OW37273   4.565   1.166   2.968  0.2744  0.6120  0.3924
 8546SOL    HW137274   4.619   1.119   3.031  0.1010  1.2304  1.0001
 8546SOL    HW237275   4.627   1.227   2.926  0.2579  2.0192  2.4233
 8547SOL     OW37276   4.451   2.233   9.830 -0.0574  0.3253 -0.6508
 8547SOL    HW137277   4.460   2.328   9.827 -0.9917  0.3922 -1.1550
 8547SOL    HW237278   4.396   2.224   9.752 -1.8563 -1.4206  0.8296
 8548SOL     OW37279   1.074   1.347   3.152 -0.1850  0.4788 -0.3245
 8548SOL    HW137280   1.100   1.359   3.061  0.2165 -1.3240 -0.4575
 8548SOL    HW237281   1.117   1.265   3.180  0.4754  0.9313 -0.0162
 8549SOL     OW37282   4.637   3.193  11.694  0.1001  0.1524 -0.3483
 8549SOL    HW137283   4.705   3.216  11.631 -0.6435  1.1292 -0.7816
 8549SOL    HW237284   4.625   3.273  11.745  3.1644  0.9189 -0.8324
 8550SOL     OW37285   0.740   2.568   9.145  0.3214  0.0653  0.0548
 8550SOL    HW137286   0.726   2.477   9.120  2.2264 -0.4975  0.9784
 8550SOL    HW237287   0.722   2.611   9.062  0.9459  1.6831  0.7406
 8551SOL     OW37288   2.752   0.913   2.288 -0.5921 -0.2065 -0.2791
 8551SOL    HW137289   2.790   0.892   2.373 -0.5363  2.7376  0.4227
 8551SOL    HW237290   2.705   0.832   2.271  0.9364 -1.7768  2.9550
 8552SOL     OW37291   2.211   4.693  17.216 -0.4787  0.0954 -0.2601
 8552SOL    HW137292   2.163   0.031  17.177 -2.4479 -1.0886 -0.0467
 8552SOL    HW237293   2.301   4.710  17.189 -0.0444 -1.6237  0.1491
 8553SOL     OW37294   2.445   1.556  10.063 -0.6674  0.2815 -0.1549
 8553SOL    HW137295   2.359   1.520  10.045  0.3864 -2.4722  0.3320
 8553SOL    HW237296   2.448   1.568  10.158 -0.9485  1.5840 -0.3061
 8554SOL     OW37297   2.336   3.855   4.255  0.4001  0.2375 -0.1862
 8554SOL    HW137298   2.399   3.928   4.263 -1.7994  1.9397  1.5116
 8554SOL    HW237299   2.260   3.893   4.298 -0.0575 -0.3815 -0.4450
 8555SOL     OW37300   0.307   1.413   5.633  0.0471 -0.0069  0.3359
 8555SOL    HW137301   0.272   1.327   5.654  0.3141 -0.6981 -2.0659
 8555SOL    HW237302   0.373   1.422   5.702 -0.6513  0.7098  0.9134
 8556SOL     OW37303   2.096   3.320   6.335 -0.5696 -0.2179 -0.2601
 8556SOL    HW137304   2.069   3.412   6.338  1.6878  0.4264 -0.2075
 8556SOL    HW237305   2.157   3.314   6.408  0.1123  1.8700 -0.6735
 8557SOL     OW37306   1.234   3.946  13.022 -0.1453  0.1311 -0.1620
 8557SOL    HW137307   1.268   4.034  13.003  0.1291 -0.1472 -0.9432
 8557SOL    HW237308   1.294   3.890  12.974  0.8869  0.9997  0.1260
 8558SOL     OW37309   2.630   2.264   8.895  0.3942  0.4754 -0.4313
 8558SOL    HW137310   2.659   2.333   8.955 -1.5768 -0.8309  2.0511
 8558SOL    HW237311   2.712   2.237   8.854  0.6203  0.7218 -0.1398
 8559SOL     OW37312   0.552   2.346   4.413  0.6289  0.6466  0.8319
 8559SOL    HW137313   0.569   2.258   4.380 -2.2697  1.0436 -1.7226
 8559SOL    HW237314   0.638   2.380   4.390  0.4405  1.6074  1.5967
 8560SOL     OW37315   3.904   2.705   6.871 -1.1913 -0.4551  0.5034
 8560SOL    HW137316   3.867   2.651   6.942 -1.8511 -1.1549 -0.3803
 8560SOL    HW237317   3.996   2.707   6.898 -1.4587 -1.6894  1.5383
 8561SOL     OW37318   4.640   1.431   5.360 -0.1332  0.0754  0.3802
 8561SOL    HW137319   4.658   1.363   5.424  1.3690  0.0232 -0.0839
 8561SOL    HW237320   4.545   1.433   5.348 -0.1470 -0.1612  0.4610
 8562SOL     OW37321   1.205   4.350   3.774 -0.1066  0.2338  0.6738
 8562SOL    HW137322   1.291   4.384   3.748 -0.5637  1.0997  0.3220
 8562SOL    HW237323   1.183   4.420   3.835 -1.9185  0.4065 -0.1731
 8563SOL     OW37324   0.974   4.507   8.260 -0.0883 -0.9424  0.5092
 8563SOL    HW137325   0.954   4.509   8.167 -3.0303  3.9281  1.2083
 8563SOL    HW237326   1.058   4.462   8.258 -0.2015 -0.9539 -3.1881
 8564SOL     OW37327   4.243   4.445   5.586  0.1793 -0.3889  0.7176
 8564SOL    HW137328   4.219   4.431   5.495 -0.5317 -1.8576  1.1287
 8564SOL    HW237329   4.322   4.390   5.592 -0.2101 -1.2104 -1.7329
 8565SOL     OW37330   3.132   4.128   5.439 -0.0835 -0.2371  0.1625
 8565SOL    HW137331   3.056   4.161   5.488 -0.7070 -1.2797 -0.1234
 8565SOL    HW237332   3.203   4.135   5.504 -1.8396 -0.3477  2.0967
 8566SOL     OW37333   2.899   1.720  13.337 -0.3656 -0.3373 -0.7275
 8566SOL    HW137334   2.928   1.811  13.341 -1.2106 -0.0978 -0.0395
 8566SOL    HW237335   2.978   1.676  13.368  0.9989  2.0349 -0.8100
 8567SOL     OW37336   0.148   4.386  14.940  0.3496  0.1858 -0.0296
 8567SOL    HW137337   0.109   4.366  15.026  0.0062 -0.7000 -0.3918
 8567SOL    HW237338   0.064   4.382  14.894  0.5679 -0.5661 -0.3600
 8568SOL     OW37339   4.125   3.383   9.764  0.7156  0.3665  0.2414
 8568SOL    HW137340   4.095   3.466   9.801 -0.9357  0.2309 -0.8445
 8568SOL    HW237341   4.037   3.349   9.754  1.8800 -2.3982 -0.6735
 8569SOL     OW37342   2.804   1.519   8.420 -0.0427 -0.4417  0.0295
 8569SOL    HW137343   2.711   1.499   8.435  0.5543 -1.4430  2.3754
 8569SOL    HW237344   2.833   1.502   8.510 -0.9356  0.0533  0.4183
 8570SOL     OW37345   1.583   0.048   2.668  0.0841 -0.1238 -0.3184
 8570SOL    HW137346   1.568   0.044   2.574 -2.1224  2.7859 -0.1046
 8570SOL    HW237347   1.494   0.045   2.704  0.0945 -1.4593 -0.4203
 8571SOL     OW37348   4.346   1.702   6.054 -0.0483 -0.3416 -0.2895
 8571SOL    HW137349   4.417   1.728   6.112  0.2771  0.1468 -0.9130
 8571SOL    HW237350   4.270   1.735   6.102  0.6354 -1.0775  1.3314
 8572SOL     OW37351   0.942   1.227   7.789 -0.5632 -0.2476 -0.1144
 8572SOL    HW137352   0.891   1.153   7.757 -0.9199 -0.0755  0.0555
 8572SOL    HW237353   0.966   1.257   7.701  1.9177  1.6162  1.2121
 8573SOL     OW37354   0.394   2.958  12.085 -0.9773 -0.2754  0.3377
 8573SOL    HW137355   0.417   2.875  12.044  1.5496  1.6330 -2.0877
 8573SOL    HW237356   0.464   2.970  12.149 -0.4470  1.9075 -0.6529
 8574SOL     OW37357   3.665   0.387   5.376 -0.2603  0.0025 -0.0088
 8574SOL    HW137358   3.571   0.382   5.361 -0.3892  0.2350  0.7463
 8574SOL    HW237359   3.695   0.299   5.354  0.7820  0.5750 -0.9172
 8575SOL     OW37360   3.240   2.333   3.915 -0.2852  0.4761  0.0890
 8575SOL    HW137361   3.296   2.328   3.838  0.4917 -2.9761  0.8634
 8575SOL    HW237362   3.180   2.259   3.911  1.1568 -0.5873 -1.4929
 8576SOL     OW37363   4.260   3.802  16.787  0.4439 -0.2426 -0.0817
 8576SOL    HW137364   4.325   3.736  16.767 -0.6505 -0.7929 -1.8204
 8576SOL    HW237365   4.313   3.882  16.784  1.0288 -0.6630 -1.0377
 8577SOL     OW37366   4.174   2.965   1.779  0.1343 -0.3908  0.3904
 8577SOL    HW137367   4.190   3.006   1.864  0.3891 -0.6613  0.4707
 8577SOL    HW237368   4.104   2.905   1.802  0.1636 -0.2696  0.7949
 8578SOL     OW37369   2.648   0.685   0.201 -0.1435  0.5731  0.2178
 8578SOL    HW137370   2.624   0.653   0.114  1.4227  0.9811 -0.3679
 8578SOL    HW237371   2.703   0.761   0.182  2.9460 -1.7297 -0.0026
 8579SOL     OW37372   2.263   3.259   4.819  0.0456 -0.2754  0.2225
 8579SOL    HW137373   2.272   3.303   4.903  0.6659 -3.2548  1.7018
 8579SOL    HW237374   2.171   3.232   4.821  0.7639 -2.8242 -1.0039
 8580SOL     OW37375   2.521   1.967   9.207  0.3822  0.1533  0.1971
 8580SOL    HW137376   2.572   2.024   9.150 -0.4568  0.5232 -0.1880
 8580SOL    HW237377   2.441   1.970   9.155 -0.2852 -0.5266  1.1888
 8581SOL     OW37378   4.523   1.596   7.175 -0.1297 -0.1961 -0.0942
 8581SOL    HW137379   4.469   1.554   7.242 -0.0872 -0.3571 -0.1586
 8581SOL    HW237380   4.571   1.525   7.131 -1.7812 -0.3047 -1.7259
 8582SOL     OW37381   0.291   0.797   8.787  0.8258  0.1749 -0.1822
 8582SOL    HW137382   0.323   0.712   8.755 -2.3160 -1.3390  0.7471
 8582SOL    HW237383   0.227   0.816   8.719  1.4139  2.1666 -0.1625
 8583SOL     OW37384   1.485   0.074   3.989 -0.6039 -0.0208  0.0052
 8583SOL    HW137385   1.422   0.006   4.012  0.6742 -1.1184  0.2676
 8583SOL    HW237386   1.431   0.143   3.950  0.8082  0.1087 -1.7159
 8584SOL     OW37387   3.577   4.485   2.832 -0.2239 -0.1108  0.1102
 8584SOL    HW137388   3.636   4.538   2.779 -0.8707  0.1951 -0.3016
 8584SOL    HW237389   3.508   4.551   2.834  0.0702  0.1949  0.0078
 8585SOL     OW37390   4.012   2.577   3.474 -0.3118  0.3213 -0.1505
 8585SOL    HW137391   3.917   2.580   3.462 -0.5570 -1.0603  1.3847
 8585SOL    HW237392   4.026   2.581   3.569 -0.9534  3.3681 -0.1809
 8586SOL     OW37393   2.294   0.600   6.409  0.0876 -0.0324 -0.0115
 8586SOL    HW137394   2.350   0.619   6.483  0.9721  1.4546 -1.0732
 8586SOL    HW237395   2.328   0.516   6.378 -0.1496 -0.6088  1.2927
 8587SOL     OW37396   2.599   3.155  15.997 -0.3385  0.0168  0.2021
 8587SOL    HW137397   2.543   3.093  16.042 -0.0225 -0.6716 -0.3459
 8587SOL    HW237398   2.542   3.201  15.935  0.9179  0.7526 -0.4201
 8588SOL     OW37399   2.030   1.349   2.662  0.4242  0.0632 -0.3533
 8588SOL    HW137400   2.088   1.292   2.714  1.1541 -0.2240 -1.4796
 8588SOL    HW237401   1.988   1.283   2.607  1.7751 -0.4541 -0.7829
 8589SOL     OW37402   0.843   1.634   7.167  0.2410 -0.1770  0.5726
 8589SOL    HW137403   0.768   1.678   7.209 -1.3203 -0.6965 -1.6728
 8589SOL    HW237404   0.859   1.702   7.102 -1.4161 -0.8788 -0.5708
 8590SOL     OW37405   2.591   4.067  11.462  0.5054  0.2585 -0.1183
 8590SOL    HW137406   2.635   4.132  11.407  0.4290  0.1841 -0.2668
 8590SOL    HW237407   2.664   4.006  11.468  1.2258  1.0590 -0.8028
 8591SOL     OW37408   3.725   3.604   1.166  0.7064 -0.0476  0.0546
 8591SOL    HW137409   3.787   3.667   1.204 -0.7797  1.0274  0.7099
 8591SOL    HW237410   3.787   3.545   1.125  1.1762  0.4211  0.0865
 8592SOL     OW37411   3.598   3.883  15.643 -0.2756  0.3018  0.1195
 8592SOL    HW137412   3.547   3.933  15.579  0.7744  2.1220  0.7152
 8592SOL    HW237413   3.590   3.932  15.724 -1.5746  0.5507 -0.1635
 8593SOL     OW37414   1.800   3.402   6.433  0.6589  0.1505  0.2284
 8593SOL    HW137415   1.737   3.466   6.467 -0.3768 -0.3358 -0.7786
 8593SOL    HW237416   1.865   3.464   6.399 -1.7123  2.1437 -0.6790
 8594SOL     OW37417   3.419   2.739   3.067 -0.4635 -0.1834  0.4476
 8594SOL    HW137418   3.336   2.693   3.077  0.1540 -1.5854 -0.9803
 8594SOL    HW237419   3.450   2.712   2.981  0.6391  2.1225  0.1068
 8595SOL     OW37420   1.085   0.774   4.120  0.0877  0.5452 -0.2968
 8595SOL    HW137421   1.110   0.766   4.212  0.4735  1.6501 -0.3140
 8595SOL    HW237422   1.129   0.703   4.073  3.8132  1.1013  2.3906
 8596SOL     OW37423   3.945   3.522   2.794  0.0281  0.0977  0.3898
 8596SOL    HW137424   3.855   3.510   2.761  0.0271  2.3597 -0.4278
 8596SOL    HW237425   3.993   3.520   2.711 -2.1986 -0.6991 -0.8917
 8597SOL     OW37426   2.848   0.539   7.192  0.3110  0.1770 -0.3323
 8597SOL    HW137427   2.802   0.501   7.267  0.1375 -1.4925 -1.2952
 8597SOL    HW237428   2.778   0.547   7.127 -1.1323  0.4883  1.2443
 8598SOL     OW37429   1.044   3.043   9.354 -0.1192  0.1796  0.2275
 8598SOL    HW137430   1.112   2.976   9.352  2.3465  2.6450  0.9506
 8598SOL    HW237431   0.970   2.983   9.359  1.8448 -2.1119  1.7058
 8599SOL     OW37432   3.694   3.700   7.752 -0.1881 -0.6017 -0.2528
 8599SOL    HW137433   3.727   3.650   7.678 -1.6284  0.9935 -1.9759
 8599SOL    HW237434   3.604   3.666   7.754 -0.2887 -0.3449 -0.4983
 8600SOL     OW37435   1.088   1.898   0.278  0.0759 -0.2135  0.3121
 8600SOL    HW137436   1.118   1.869   0.364  1.1452 -0.0857 -0.0135
 8600SOL    HW237437   1.168   1.882   0.226 -0.3701  0.7923 -0.6737
 8601SOL     OW37438   2.707   3.607   2.742 -0.1383 -0.0011 -0.5124
 8601SOL    HW137439   2.683   3.698   2.755 -0.5225 -0.3156  0.9241
 8601SOL    HW237440   2.626   3.576   2.700  1.1422 -3.0556 -0.7695
 8602SOL     OW37441   2.544   4.470  15.127  0.1176  0.0611 -0.0871
 8602SOL    HW137442   2.562   4.376  15.119  0.3874  0.2521 -1.6819
 8602SOL    HW237443   2.599   4.487  15.204  0.3851 -2.7839  0.3703
 8603SOL     OW37444   2.014   3.094  15.798  0.3052  0.2736 -0.5801
 8603SOL    HW137445   2.072   3.110  15.873 -2.0953 -1.8054  1.7020
 8603SOL    HW237446   1.944   3.119  15.859  0.9517 -1.0074  0.6910
 8604SOL     OW37447   0.708   0.737   1.840 -0.2032 -0.2519 -0.4679
 8604SOL    HW137448   0.799   0.746   1.813 -0.3387  1.4604 -0.3836
 8604SOL    HW237449   0.675   0.707   1.756 -1.3202  1.3657 -0.6049
 8605SOL     OW37450   3.567   4.586   2.323 -0.0228  0.0757 -0.1075
 8605SOL    HW137451   3.593   4.497   2.347  0.6968 -0.3967 -2.6067
 8605SOL    HW237452   3.578   4.624   2.410 -0.7704 -0.2244  0.1238
 8606SOL     OW37453   0.280   0.260   3.694 -0.0120  0.3305  0.3326
 8606SOL    HW137454   0.282   0.317   3.770 -1.3456 -1.4884  1.7570
 8606SOL    HW237455   0.356   0.292   3.646 -0.9516  0.3201 -1.1482
 8607SOL     OW37456   2.529   4.681   6.152 -0.3212  0.4949  0.4542
 8607SOL    HW137457   2.555   4.663   6.062  2.9599 -2.9254  2.1030
 8607SOL    HW237458   2.498   4.595   6.181  1.9794 -0.0378  1.2884
 8608SOL     OW37459   0.563   4.211   4.624 -0.1287  0.3114  0.0330
 8608SOL    HW137460   0.528   4.237   4.539  2.6855 -1.0586 -1.5410
 8608SOL    HW237461   0.576   4.117   4.616 -0.1152  0.2179  1.1029
 8609SOL     OW37462   3.178   1.086   5.815  0.2896  0.7953  0.0576
 8609SOL    HW137463   3.231   1.142   5.758 -1.6391  1.2062 -1.3316
 8609SOL    HW237464   3.101   1.141   5.828  0.5562  1.1996 -0.0663
 8610SOL     OW37465   3.821   1.772   8.622 -0.3520  0.0623  0.1869
 8610SOL    HW137466   3.909   1.809   8.618  0.0218 -0.9464 -1.3665
 8610SOL    HW237467   3.774   1.845   8.661 -0.6826 -0.1536  0.1951
 8611SOL     OW37468   3.633   3.016   4.254  0.2535  0.4005  0.6031
 8611SOL    HW137469   3.707   3.064   4.216 -0.3637  0.4951 -0.4863
 8611SOL    HW237470   3.651   2.922   4.264 -2.3204  0.1207  2.5081
 8612SOL     OW37471   0.837   3.792   4.946  0.4502 -0.0335 -0.4154
 8612SOL    HW137472   0.788   3.745   4.878  0.0510 -1.7643  1.0610
 8612SOL    HW237473   0.790   3.768   5.026  1.9035 -2.5375 -0.2963
 8613SOL     OW37474   0.815   1.426   6.223  0.2421  0.2498 -0.2653
 8613SOL    HW137475   0.769   1.440   6.140 -1.7303  0.4765  0.8764
 8613SOL    HW237476   0.766   1.478   6.287 -0.7049  0.0021 -0.7845
 8614SOL     OW37477   1.760   0.243   4.656 -0.0086 -0.1220  0.0881
 8614SOL    HW137478   1.840   0.259   4.606  1.2814  2.9708  3.0953
 8614SOL    HW237479   1.697   0.245   4.584  0.7766 -0.1772 -0.6014
 8615SOL     OW37480   0.507   3.544   2.678  0.1657 -0.0242 -0.7101
 8615SOL    HW137481   0.466   3.592   2.605  1.3111  1.4754 -0.3634
 8615SOL    HW237482   0.516   3.458   2.638  0.5369  0.2296 -1.1758
 8616SOL     OW37483   0.731   0.704   1.309  0.1387 -0.0230 -0.4375
 8616SOL    HW137484   0.690   0.789   1.295  0.9404  0.8793  2.6651
 8616SOL    HW237485   0.681   0.650   1.248 -0.4348  0.8885 -0.7673
 8617SOL     OW37486   3.019   1.853   4.392 -0.2289  0.0615  0.2222
 8617SOL    HW137487   2.934   1.898   4.390 -3.4494 -5.8938  2.0758
 8617SOL    HW237488   3.071   1.925   4.426  1.6777 -1.7468  1.0848
 8618SOL     OW37489   2.107   1.842   2.365  0.1843  0.3508  0.0683
 8618SOL    HW137490   2.132   1.814   2.277 -0.1115  3.8709 -1.1581
 8618SOL    HW237491   2.039   1.907   2.346  0.4400  0.1347 -1.6127
 8619SOL     OW37492   1.933   2.806   3.116 -0.6524  0.1711  0.3686
 8619SOL    HW137493   1.922   2.851   3.200  1.1048  0.4652  0.4608
 8619SOL    HW237494   1.850   2.827   3.074 -0.0210  0.7409 -0.5876
 8620SOL     OW37495   0.320   1.274  10.960  0.2895 -0.1612  0.9096
 8620SOL    HW137496   0.281   1.355  10.994 -1.7384 -1.7316  2.3081
 8620SOL    HW237497   0.392   1.276  11.023  0.0065 -1.8072  1.2802
 8621SOL     OW37498   2.791   4.279   8.455 -0.5308  0.9165 -0.7335
 8621SOL    HW137499   2.860   4.234   8.503 -1.8684  0.2411  0.5873
 8621SOL    HW237500   2.741   4.214   8.406 -1.2703  1.9201 -1.3239
 8622SOL     OW37501   3.646   2.028   6.221  0.3160 -0.1059 -0.4923
 8622SOL    HW137502   3.719   2.029   6.283  0.9305  1.0167 -1.2344
 8622SOL    HW237503   3.698   2.025   6.140  0.2968 -0.5586 -0.4918
 8623SOL     OW37504   1.128   3.547   3.248 -0.5232 -0.0316 -0.2751
 8623SOL    HW137505   1.133   3.522   3.340 -0.3577 -0.3079 -0.3611
 8623SOL    HW237506   1.187   3.622   3.240  0.2140 -0.2954  2.7182
 8624SOL     OW37507   2.942   2.972   4.914  0.0535  0.1282 -0.0925
 8624SOL    HW137508   3.025   2.930   4.936  0.7508  1.7549  0.3808
 8624SOL    HW237509   2.886   2.894   4.914 -2.3324  1.8593  1.2713
 8625SOL     OW37510   0.332   2.838   3.344  0.3022 -0.3208 -0.0097
 8625SOL    HW137511   0.406   2.885   3.383 -0.4998  0.7013  0.2631
 8625SOL    HW237512   0.275   2.906   3.308 -1.0466 -2.6568 -2.2326
 8626SOL     OW37513   1.441   2.627   9.904 -0.5267 -0.5455 -0.0343
 8626SOL    HW137514   1.405   2.712   9.930 -2.0733 -1.1734 -0.1669
 8626SOL    HW237515   1.509   2.645   9.838  0.2467  1.7984  1.3805
 8627SOL     OW37516   1.726   1.750   0.114 -0.0662  0.1855  0.0909
 8627SOL    HW137517   1.681   1.828   0.083 -0.4335 -0.7372 -1.6980
 8627SOL    HW237518   1.667   1.724   0.185 -1.8080  1.3652 -0.9316
 8628SOL     OW37519   4.018   2.074  12.914 -0.4915 -0.6507 -0.3207
 8628SOL    HW137520   4.045   2.032  12.996  1.8516  0.4126 -0.5544
 8628SOL    HW237521   3.951   2.011  12.888 -0.7053 -0.3371 -0.5292
 8629SOL     OW37522   2.645   1.595   1.517  0.5456 -0.1288  0.3914
 8629SOL    HW137523   2.551   1.583   1.534  1.0121 -3.7761  0.3643
 8629SOL    HW237524   2.672   1.563   1.603 -0.0793 -0.5766  0.4290
 8630SOL     OW37525   2.050   1.936   2.828 -0.1380  0.3189  0.2508
 8630SOL    HW137526   2.112   1.907   2.761  1.0740  1.0358  1.0627
 8630SOL    HW237527   1.995   1.981   2.764 -1.0831  1.0525  1.5785
 8631SOL     OW37528   4.195   0.605  10.622 -0.5088 -0.4368 -0.3195
 8631SOL    HW137529   4.118   0.561  10.659 -0.2472  0.0911  0.8404
 8631SOL    HW237530   4.271   0.565  10.664 -0.8681  0.3042  1.0398
 8632SOL     OW37531   2.205   0.222  16.567  0.6824 -0.2324 -0.1044
 8632SOL    HW137532   2.158   0.303  16.545  1.9177  0.1945 -1.1218
 8632SOL    HW237533   2.252   0.194  16.489 -0.4457 -0.1592 -0.8198
 8633SOL     OW37534   3.429   4.154  16.208 -0.0184 -0.5576 -0.8814
 8633SOL    HW137535   3.370   4.193  16.273  1.4053 -1.1953  0.7893
 8633SOL    HW237536   3.452   4.238  16.169  0.5289 -1.1027 -1.7430
 8634SOL     OW37537   0.038   3.306   2.374 -1.0528  0.3808 -0.5949
 8634SOL    HW137538   0.030   3.315   2.469  0.8912  1.1348 -0.4891
 8634SOL    HW237539   0.129   3.333   2.360 -0.5983 -1.5151 -1.2591
 8635SOL     OW37540   4.413   2.729   8.713 -0.1570  0.2124 -0.3587
 8635SOL    HW137541   4.426   2.801   8.774  0.4656 -0.6243  0.4915
 8635SOL    HW237542   4.318   2.712   8.718  0.0806 -0.6139  1.2973
 8636SOL     OW37543   0.202   1.114   3.344 -0.5824 -0.7651 -0.0193
 8636SOL    HW137544   0.267   1.150   3.405 -2.0374 -0.1688  1.2117
 8636SOL    HW237545   0.213   1.019   3.347 -1.6855 -0.8865  0.3780
 8637SOL     OW37546   1.822   0.602   8.420  0.2370  0.0760  0.3813
 8637SOL    HW137547   1.731   0.604   8.391 -0.4100 -2.1138  2.3209
 8637SOL    HW237548   1.862   0.536   8.362  1.7455 -0.0761  1.5931
 8638SOL     OW37549   2.200   3.711  11.375 -0.3930 -0.1719  0.0544
 8638SOL    HW137550   2.185   3.788  11.319  0.2597 -0.4858 -0.5445
 8638SOL    HW237551   2.287   3.731  11.409 -0.6788 -0.2689  0.8570
 8639SOL     OW37552   0.051   1.942   8.811  0.2244 -0.2151 -0.2847
 8639SOL    HW137553   0.085   1.880   8.747  0.4509  0.8154 -1.1636
 8639SOL    HW237554   0.020   2.019   8.764  1.4545 -1.2797 -2.8244
 8640SOL     OW37555   0.825   2.718   2.544  0.1641 -0.0429 -0.2600
 8640SOL    HW137556   0.798   2.635   2.584 -0.4807  0.4514  0.3478
 8640SOL    HW237557   0.919   2.706   2.536 -0.1950 -3.1424 -0.0504
 8641SOL     OW37558   0.326   4.391   9.217  0.4726 -1.0881 -0.3660
 8641SOL    HW137559   0.233   4.382   9.194 -0.0435 -2.5162  2.3006
 8641SOL    HW237560   0.361   4.347   9.139  2.4858 -0.0779 -0.0057
 8642SOL     OW37561   0.409   1.652  12.933 -0.0205  1.0743 -0.3987
 8642SOL    HW137562   0.430   1.742  12.958  1.2588  0.5997  0.2151
 8642SOL    HW237563   0.454   1.599  12.999  1.5599  1.7351 -0.9482
 8643SOL     OW37564   1.922   4.041   1.798  0.0368  0.0546 -0.2707
 8643SOL    HW137565   1.946   4.008   1.884 -0.3995 -0.3876 -0.3204
 8643SOL    HW237566   1.883   3.963   1.758  0.9723  0.0568 -1.1873
 8644SOL     OW37567   1.403   0.357   5.618  0.2229  0.4726 -0.7688
 8644SOL    HW137568   1.373   0.293   5.683 -0.6628  0.7807 -0.8771
 8644SOL    HW237569   1.455   0.419   5.669 -0.6712  2.4413 -2.2614
 8645SOL     OW37570   2.231   4.037   5.207  0.0878 -0.3634 -0.8242
 8645SOL    HW137571   2.163   4.055   5.272 -2.2834  0.3094 -3.4901
 8645SOL    HW237572   2.184   4.051   5.125  1.2362  1.8881 -1.0945
 8646SOL     OW37573   2.280   0.306   4.756 -0.1758 -0.3298 -0.3857
 8646SOL    HW137574   2.259   0.373   4.691 -1.5428 -3.2057 -2.8839
 8646SOL    HW237575   2.366   0.279   4.725 -0.6564 -0.3499 -1.6958
 8647SOL     OW37576   1.018   3.458   6.397 -0.4601  0.5905  0.4592
 8647SOL    HW137577   1.096   3.435   6.446  0.1702  0.0931 -0.7587
 8647SOL    HW237578   1.000   3.372   6.357  1.6425  0.3952 -0.0789
 8648SOL     OW37579   4.032   3.859  16.886  0.4535  0.2510  0.4147
 8648SOL    HW137580   3.999   3.774  16.915  0.1891  0.3297  0.3487
 8648SOL    HW237581   4.113   3.841  16.839  0.5856  0.9856  0.3524
 8649SOL     OW37582   3.316   2.688   4.616 -0.7376 -0.3499  0.5438
 8649SOL    HW137583   3.290   2.615   4.672 -1.0760  0.6477  1.6768
 8649SOL    HW237584   3.244   2.702   4.554 -0.5222  0.4121  0.4673
 8650SOL     OW37585   3.058   2.540   2.485 -0.6189 -0.4034  0.1604
 8650SOL    HW137586   3.107   2.583   2.555  0.5157  0.5639 -1.2246
 8650SOL    HW237587   3.128   2.545   2.420 -1.0216 -0.7784 -0.2963
 8651SOL     OW37588   2.573   3.664   9.957 -0.2417  0.2086 -0.1469
 8651SOL    HW137589   2.609   3.603  10.023  0.3304 -0.1052 -0.7500
 8651SOL    HW237590   2.525   3.602   9.902 -2.8420  1.5551  0.6454
 8652SOL     OW37591   3.113   2.251  17.136  0.0706 -0.1541  0.8809
 8652SOL    HW137592   3.070   2.199  17.203 -3.1650  2.7259  1.0661
 8652SOL    HW237593   3.059   2.330  17.141  0.7381  0.4798 -1.5465
 8653SOL     OW37594   3.688   0.059  11.774  0.1276 -0.0080 -0.6923
 8653SOL    HW137595   3.675   0.075  11.868 -2.1257 -1.3838 -0.7578
 8653SOL    HW237596   3.668   4.701  11.766  0.9269 -0.2094 -0.3331
 8654SOL     OW37597   0.205   0.649   4.193  0.3600  0.2870 -0.4629
 8654SOL    HW137598   0.123   0.680   4.230  0.2274  1.3090 -1.6289
 8654SOL    HW237599   0.235   0.591   4.263 -3.4513 -0.4219  0.5641
 8655SOL     OW37600   4.116   1.357  17.404  0.4969 -0.1588  0.3782
 8655SOL    HW137601   4.068   1.433  17.370  0.7103 -0.0176  0.3905
 8655SOL    HW237602   4.198   1.357  17.355 -0.4992  0.1918 -1.2644
 8656SOL     OW37603   4.718   2.662   8.827 -0.0198  0.1941 -0.0352
 8656SOL    HW137604   4.677   2.748   8.832  1.2780  0.6364  3.7659
 8656SOL    HW237605   0.002   2.647   8.735 -1.2384  1.2977 -0.4684
 8657SOL     OW37606   0.212   4.231  16.832 -0.1360  0.0826  0.3405
 8657SOL    HW137607   0.189   4.201  16.744 -1.6036  1.8219  0.1049
 8657SOL    HW237608   0.138   4.214  16.891 -1.9392  2.2757 -1.2984
 8658SOL     OW37609   0.311   1.009  17.192  0.3143  0.3554  0.2368
 8658SOL    HW137610   0.293   0.997  17.285  0.4299 -0.2465  0.1825
 8658SOL    HW237611   0.345   0.921  17.178  0.4174  0.5407 -0.6938
 8659SOL     OW37612   1.181   2.812   7.682  0.1012 -0.0689 -0.1435
 8659SOL    HW137613   1.207   2.902   7.660 -1.1713  0.2831 -0.2149
 8659SOL    HW237614   1.128   2.845   7.756 -0.3629  2.4236 -1.5763
 8660SOL     OW37615   2.497   4.669   2.035 -0.6757 -0.0773  0.5521
 8660SOL    HW137616   2.583   4.628   2.021 -0.4985  0.9675 -1.5398
 8660SOL    HW237617   2.460   4.666   1.946  2.2007 -1.9504 -0.5968
 8661SOL     OW37618   1.440   4.464   2.087 -0.2015 -0.2949  0.7941
 8661SOL    HW137619   1.354   4.440   2.120  0.0618 -1.1065  0.8871
 8661SOL    HW237620   1.447   4.400   2.016 -0.3359 -0.9693  1.3989
 8662SOL     OW37621   3.363   0.350   1.226  0.5080  0.2006  0.0646
 8662SOL    HW137622   3.350   0.382   1.137  0.7371  1.1434  0.3712
 8662SOL    HW237623   3.435   0.406   1.255  0.3397 -0.0087  0.8892
 8663SOL     OW37624   2.471   4.122   1.669 -0.5370 -0.1572 -0.2555
 8663SOL    HW137625   2.534   4.051   1.682  0.2973  0.3910 -1.2813
 8663SOL    HW237626   2.390   4.072   1.673  0.4234 -1.7472 -0.5989
 8664SOL     OW37627   1.480   1.012   9.966  0.2991  0.5083  0.0245
 8664SOL    HW137628   1.450   0.985  10.053  1.3444 -0.6959  0.0162
 8664SOL    HW237629   1.569   1.043   9.983  0.8347 -0.4498 -0.9980
 8665SOL     OW37630   3.589   0.061  13.928  0.5610  0.0668 -0.1654
 8665SOL    HW137631   3.573   0.082  14.020  1.8424 -1.8105  0.5014
 8665SOL    HW237632   3.685   0.072  13.928  0.9322 -3.0627  1.0893
 8666SOL     OW37633   1.665   0.114   8.171 -0.2018  0.1096 -0.0707
 8666SOL    HW137634   1.573   0.099   8.191 -0.7912  0.0665 -2.8015
 8666SOL    HW237635   1.692   0.128   8.261 -3.2425 -1.7238  1.1004
 8667SOL     OW37636   2.227   3.767   6.241 -0.5574 -0.1863 -0.2707
 8667SOL    HW137637   2.271   3.833   6.187 -0.0175 -0.1006  0.2734
 8667SOL    HW237638   2.217   3.810   6.326 -1.0387 -1.8041  0.4916
 8668SOL     OW37639   2.601   0.758   5.921 -0.1236 -0.0399 -0.1411
 8668SOL    HW137640   2.577   0.736   6.011 -2.0312 -2.2151 -1.1791
 8668SOL    HW237641   2.515   0.775   5.883 -0.8547  0.2697  1.6589
 8669SOL     OW37642   3.992   2.892   4.295 -0.3921 -0.4975  0.4181
 8669SOL    HW137643   3.993   2.893   4.391 -0.4727  0.6350  0.4060
 8669SOL    HW237644   4.039   2.972   4.270 -0.0528 -0.4872  1.0738
 8670SOL     OW37645   2.534   3.674   7.023 -0.2715  0.3211  0.2405
 8670SOL    HW137646   2.449   3.715   7.042 -1.6315 -2.7545  0.6870
 8670SOL    HW237647   2.582   3.701   7.101  0.7198 -1.4339  0.2354
 8671SOL     OW37648   0.839   0.843   6.684  0.1550 -0.7876 -0.5696
 8671SOL    HW137649   0.759   0.820   6.731 -0.8659  0.1269 -1.8749
 8671SOL    HW237650   0.839   0.786   6.607 -1.7112 -2.6793  0.8093
 8672SOL     OW37651   4.429   3.351   7.514  0.0674  0.8179  0.0299
 8672SOL    HW137652   4.514   3.389   7.492  0.3263  0.0960 -0.2307
 8672SOL    HW237653   4.456   3.292   7.584 -0.5538  0.9989  0.4228
 8673SOL     OW37654   3.898   0.257  10.035  0.4146  0.2631  0.1670
 8673SOL    HW137655   3.855   0.172  10.037  0.7321  0.0982  0.0519
 8673SOL    HW237656   3.989   0.226  10.036  0.4947  0.4686 -0.5090
 8674SOL     OW37657   2.954   0.527   4.696 -0.1226 -0.2067 -0.1523
 8674SOL    HW137658   2.921   0.600   4.643 -2.1294 -1.1888 -0.2682
 8674SOL    HW237659   2.956   0.565   4.784 -0.8378  0.4581 -0.4172
 8675SOL     OW37660   3.329   1.733   3.797 -0.5771 -0.1035 -0.1267
 8675SOL    HW137661   3.331   1.765   3.887 -1.7023 -2.8029  0.8633
 8675SOL    HW237662   3.299   1.814   3.755  0.5090  0.4543  0.1802
 8676SOL     OW37663   4.670   1.249   0.590  0.6793 -0.4191  0.3261
 8676SOL    HW137664   4.705   1.334   0.617 -2.8050  1.3547 -0.7198
 8676SOL    HW237665   4.591   1.280   0.544  0.2828 -0.1300  1.2053
 8677SOL     OW37666   0.710   3.671   4.739 -0.1934 -0.0385  0.7237
 8677SOL    HW137667   0.640   3.692   4.677  2.4092  1.4359 -1.7028
 8677SOL    HW237668   0.783   3.716   4.697  0.1747 -0.1679  1.2354
 8678SOL     OW37669   2.178   1.022   5.155 -0.0793 -0.3000 -0.0754
 8678SOL    HW137670   2.173   0.969   5.234  1.4495  2.1526  1.6595
 8678SOL    HW237671   2.115   1.093   5.167  0.3640 -0.2779  2.1632
 8679SOL     OW37672   3.331   4.408  11.496  0.1766  0.4223  0.2274
 8679SOL    HW137673   3.362   4.425  11.585 -0.7650  3.4433 -0.0372
 8679SOL    HW237674   3.414   4.422  11.452 -0.3398 -1.0690 -1.2432
 8680SOL     OW37675   0.493   1.076  11.579 -0.1445 -0.3982  0.4453
 8680SOL    HW137676   0.401   1.059  11.603 -0.5896 -1.0341 -1.7410
 8680SOL    HW237677   0.502   1.158  11.629 -0.2675  0.0442 -0.2629
 8681SOL     OW37678   4.428   1.164   8.363 -0.0772 -0.4416  0.4664
 8681SOL    HW137679   4.409   1.090   8.421 -0.6285 -2.7250 -2.6330
 8681SOL    HW237680   4.356   1.224   8.381  0.2278 -0.2416  1.0178
 8682SOL     OW37681   3.275   1.507  16.956 -0.2191 -0.0416  0.4087
 8682SOL    HW137682   3.241   1.520  17.044  0.6559  1.3903  0.5329
 8682SOL    HW237683   3.341   1.440  16.975  2.0900  2.5369  1.3706
 8683SOL     OW37684   3.001   1.998  14.626  0.1012  0.1829  0.4269
 8683SOL    HW137685   2.971   2.004  14.717  0.9527  0.9880  0.6557
 8683SOL    HW237686   3.066   2.068  14.616 -0.0537  0.3861  0.8430
 8684SOL     OW37687   2.466   0.177   3.533  0.2550 -0.0225 -0.0380
 8684SOL    HW137688   2.463   0.251   3.594 -1.0666  1.1443 -1.5216
 8684SOL    HW237689   2.405   0.115   3.572 -0.1519  1.2818  1.4106
 8685SOL     OW37690   4.149   3.644   5.519 -0.2417 -0.2626  0.5244
 8685SOL    HW137691   4.170   3.551   5.526 -1.0568 -0.4958 -0.0478
 8685SOL    HW237692   4.060   3.653   5.486  0.7614 -1.0158 -2.4093
 8686SOL     OW37693   4.304   0.983   8.748 -0.3380  1.2835 -0.2059
 8686SOL    HW137694   4.341   0.991   8.660  2.4266 -0.0299  0.8184
 8686SOL    HW237695   4.333   0.893   8.761 -1.6950  0.8357 -0.2877
 8687SOL     OW37696   0.896   2.599   6.138 -0.7270 -0.2238  0.5261
 8687SOL    HW137697   0.836   2.653   6.087 -0.2730  0.5871  0.8486
 8687SOL    HW237698   0.870   2.508   6.122  0.0172 -0.4200  0.4080
 8688SOL     OW37699   1.937   1.048   1.875  0.6629  0.4354  0.0758
 8688SOL    HW137700   1.867   1.088   1.926  0.3367 -0.1951  0.1143
 8688SOL    HW237701   1.978   1.122   1.829 -1.8733  0.5750 -2.0197
 8689SOL     OW37702   3.195   2.638   9.387  1.3443 -0.1516 -0.0793
 8689SOL    HW137703   3.099   2.642   9.390  1.4348  1.5628  0.5138
 8689SOL    HW237704   3.222   2.578   9.457 -0.3245  0.3618  0.9983
 8690SOL     OW37705   1.177   0.921   2.345  0.0993  0.5537  0.1684
 8690SOL    HW137706   1.157   0.843   2.397  0.9814 -0.1000 -0.4825
 8690SOL    HW237707   1.133   0.992   2.393 -0.9020  0.2823 -0.3536
 8691SOL     OW37708   1.337   2.355   9.706 -0.1291 -0.3704  0.0283
 8691SOL    HW137709   1.369   2.273   9.745  2.1794  1.5897  2.2683
 8691SOL    HW237710   1.412   2.389   9.657 -0.1709  1.7994  1.4951
 8692SOL     OW37711   2.818   1.663   1.293  0.1554  0.7374 -0.4739
 8692SOL    HW137712   2.802   1.575   1.259 -2.8401  0.8665  0.6090
 8692SOL    HW237713   2.771   1.647   1.375 -0.2511  0.8219 -0.6927
 8693SOL     OW37714   4.225   1.916   9.194  0.4076 -0.1964 -0.0478
 8693SOL    HW137715   4.135   1.936   9.167  0.8388  1.2266 -0.3896
 8693SOL    HW237716   4.234   1.822   9.209  1.4453 -0.5334 -2.8740
 8694SOL     OW37717   1.594   4.579   9.039  0.2607 -0.2841  0.3400
 8694SOL    HW137718   1.676   4.625   9.026 -0.1223  0.4223  0.4065
 8694SOL    HW237719   1.604   4.532   9.122  1.6306 -0.1223  0.2655
 8695SOL     OW37720   4.666   4.459   4.644 -0.0906  0.4913 -0.0059
 8695SOL    HW137721   4.714   4.406   4.580 -0.5840 -2.1755  1.8579
 8695SOL    HW237722   4.578   4.459   4.606 -0.0281 -0.8584 -0.1541
 8696SOL     OW37723   1.466   3.150   8.622  0.6690 -0.8485  0.2274
 8696SOL    HW137724   1.481   3.205   8.699 -1.6134 -0.4867  0.4121
 8696SOL    HW237725   1.520   3.190   8.554 -1.6755 -0.7156 -1.5630
 8697SOL     OW37726   2.352   1.257   1.959  0.3905 -0.3114 -0.2233
 8697SOL    HW137727   2.323   1.235   2.047 -2.1062  0.8851 -0.7532
 8697SOL    HW237728   2.344   1.169   1.921  3.4746  0.0050 -1.5944
 8698SOL     OW37729   4.007   1.076   1.626 -0.1113  0.0313 -0.1395
 8698SOL    HW137730   4.071   1.026   1.678 -0.7637  0.7051  1.3178
 8698SOL    HW237731   3.980   1.149   1.682  0.6762 -1.0179  1.6110
 8699SOL     OW37732   4.427   2.166   7.903 -0.1561  0.3364  0.0508
 8699SOL    HW137733   4.446   2.165   7.996  1.7072 -1.3160 -0.3584
 8699SOL    HW237734   4.332   2.175   7.908 -0.0421  2.2608 -0.9419
 8700SOL     OW37735   1.616   1.188   6.454 -0.2529 -0.5365 -0.0005
 8700SOL    HW137736   1.666   1.132   6.514 -1.1278 -0.5096  0.7470
 8700SOL    HW237737   1.685   1.240   6.413 -0.6713 -0.2673 -0.3628
 8701SOL     OW37738   0.342   1.400  12.776  0.3437 -0.4113 -0.6912
 8701SOL    HW137739   0.366   1.491  12.794  0.3320 -0.8590  1.5902
 8701SOL    HW237740   0.258   1.401  12.822  0.3571  0.1703 -0.6800
 8702SOL     OW37741   0.235   3.537   2.817  0.0765  0.1863  0.6000
 8702SOL    HW137742   0.235   3.506   2.908 -1.2643 -0.1710  0.4802
 8702SOL    HW237743   0.292   3.614   2.813  0.9702 -0.4786  0.4910
 8703SOL     OW37744   4.089   1.393   9.742  0.3442 -0.0534 -0.0338
 8703SOL    HW137745   4.086   1.471   9.686  0.9978 -0.5201 -0.7257
 8703SOL    HW237746   4.159   1.414   9.804  0.1278  1.3252 -0.2528
 8704SOL     OW37747   4.656   0.082   7.868 -0.9141  0.1680 -0.3606
 8704SOL    HW137748   4.586   0.083   7.934 -2.1415 -0.4383 -1.6503
 8704SOL    HW237749   4.639   4.734   7.824 -1.9859 -0.2242  0.7855
 8705SOL     OW37750   0.165   4.403   7.562 -0.0361 -0.7747  0.0462
 8705SOL    HW137751   0.084   4.395   7.512 -0.2019 -0.4839  0.2684
 8705SOL    HW237752   0.200   4.479   7.514  0.5685 -1.9555 -1.3867
 8706SOL     OW37753   1.744   3.374   2.659  0.2726  0.3313 -0.0930
 8706SOL    HW137754   1.661   3.421   2.648  0.7658  0.9099 -1.3475
 8706SOL    HW237755   1.800   3.436   2.613  0.4305 -0.1814 -0.5943
 8707SOL     OW37756   0.023   0.633   8.947 -0.7032 -0.0407 -0.4473
 8707SOL    HW137757   0.071   0.565   8.901 -0.1344 -0.2050  0.3952
 8707SOL    HW237758   4.681   0.591   8.986 -0.7902  0.8748  0.3865
 8708SOL     OW37759   2.982   2.682   9.073  0.2419 -0.4239 -0.5873
 8708SOL    HW137760   3.028   2.692   8.989 -0.3007 -0.6916 -0.9102
 8708SOL    HW237761   2.903   2.733   9.056  0.1459 -0.1297  0.7419
 8709SOL     OW37762   3.751   2.629  17.546 -0.4404 -0.3742 -0.1188
 8709SOL    HW137763   3.663   2.639  17.509  0.2455  0.6156 -1.4900
 8709SOL    HW237764   3.733   2.660  17.635 -1.8807 -1.5789  0.0048
 8710SOL     OW37765   3.653   3.081  15.081  0.2154 -0.3031 -0.6298
 8710SOL    HW137766   3.690   3.165  15.109 -1.5313  0.0365  0.6883
 8710SOL    HW237767   3.718   3.041  15.024  0.4200 -0.9834  0.0824
 8711SOL     OW37768   2.184   0.092   8.196 -0.3246 -0.4051  0.5217
 8711SOL    HW137769   2.128   0.017   8.177  1.0609 -1.2097 -0.3788
 8711SOL    HW237770   2.191   0.084   8.291  1.8195 -0.8531  0.3165
 8712SOL     OW37771   1.635   1.662   8.459  0.0859 -0.9411 -0.2844
 8712SOL    HW137772   1.541   1.673   8.444  0.1298 -2.0406 -1.3666
 8712SOL    HW237773   1.636   1.631   8.550  0.2481 -0.4806 -0.1340
 8713SOL     OW37774   3.859   3.815   4.449 -0.0938 -0.1965 -0.2775
 8713SOL    HW137775   3.778   3.852   4.485  0.4605 -0.2840  1.0480
 8713SOL    HW237776   3.923   3.882   4.472 -1.3093  0.6917  0.5248
 8714SOL     OW37777   3.588   3.660   3.065  0.4176  0.2263 -0.0531
 8714SOL    HW137778   3.554   3.613   2.989  1.8275 -2.2107  0.8129
 8714SOL    HW237779   3.522   3.726   3.085  1.6254  0.9304  1.5852
 8715SOL     OW37780   4.100   1.286   1.830 -0.0861  0.6280 -0.5817
 8715SOL    HW137781   4.149   1.329   1.900 -0.5142 -0.2764  0.2793
 8715SOL    HW237782   4.171   1.242   1.784 -1.8354  0.9964 -3.6292
 8716SOL     OW37783   3.497   1.191   1.884 -0.7051 -0.5389 -0.4898
 8716SOL    HW137784   3.406   1.216   1.897 -0.4276  0.8242 -1.2121
 8716SOL    HW237785   3.514   1.228   1.797  1.2770  1.1521  0.6203
 8717SOL     OW37786   2.688   0.806   7.149 -0.2147  0.3902 -0.0767
 8717SOL    HW137787   2.593   0.817   7.147 -0.3062 -0.0802  2.0534
 8717SOL    HW237788   2.709   0.794   7.241  0.6532  1.5078 -0.1203
 8718SOL     OW37789   2.828   4.727   8.561  0.1144 -0.0293  0.1695
 8718SOL    HW137790   2.915   0.029   8.548  0.1548 -0.4215 -0.7025
 8718SOL    HW237791   2.827   4.723   8.657  1.0915  0.6690  0.2047
 8719SOL     OW37792   3.828   0.143  16.758  0.1623 -0.0200  0.0338
 8719SOL    HW137793   3.850   0.050  16.746 -2.1995 -0.3430 -1.7564
 8719SOL    HW237794   3.771   0.160  16.683 -0.2438  1.3097  0.6479
 8720SOL     OW37795   2.128   1.334  13.766  0.4091  0.0608 -0.4183
 8720SOL    HW137796   2.143   1.290  13.682  1.7803 -0.3241  0.0284
 8720SOL    HW237797   2.192   1.403  13.754 -1.1780  1.4531 -0.8550
 8721SOL     OW37798   3.218   4.118   5.876  0.2090 -0.2645 -0.3406
 8721SOL    HW137799   3.123   4.115   5.889  0.2039  2.2917  0.3813
 8721SOL    HW237800   3.242   4.171   5.952  0.3289  0.1846 -0.6898
 8722SOL     OW37801   2.033   0.233  10.550  0.4348  0.2261 -0.2569
 8722SOL    HW137802   2.089   0.305  10.581 -1.2146  0.5426  1.9481
 8722SOL    HW237803   2.026   0.181  10.630 -1.1319  3.5571  1.7445
 8723SOL     OW37804   1.908   2.539   5.384 -0.2273  0.0344  0.0276
 8723SOL    HW137805   1.863   2.475   5.440  1.3121 -0.4249  0.7347
 8723SOL    HW237806   1.835   2.600   5.374  1.0572  1.3621 -1.0755
 8724SOL     OW37807   3.660   0.024   2.534  0.1630  0.2610  0.3220
 8724SOL    HW137808   3.692   0.114   2.526  2.4584 -0.4328  1.7707
 8724SOL    HW237809   3.659   0.023   2.629 -0.6357 -0.9796  0.2982
 8725SOL     OW37810   3.928   1.737  17.734  0.1291 -0.3377 -0.3714
 8725SOL    HW137811   3.886   1.734  17.648  1.8414 -0.1618 -1.2113
 8725SOL    HW237812   4.013   1.708  17.700  1.1513  0.9299  1.0551
 8726SOL     OW37813   0.293   1.862   6.008  0.7743  0.0224  0.3562
 8726SOL    HW137814   0.215   1.807   6.010  0.8713 -0.1806 -1.3769
 8726SOL    HW237815   0.267   1.923   5.939  2.0341 -0.4960 -0.5842
 8727SOL     OW37816   1.644   3.989  17.476  0.6472  0.4362  0.3880
 8727SOL    HW137817   1.655   3.920  17.410 -1.8102 -1.0327  1.4905
 8727SOL    HW237818   1.640   3.930  17.551 -1.0801  0.4645  0.3202
 8728SOL     OW37819   2.270   1.994   9.076 -0.0566 -0.2080  0.0631
 8728SOL    HW137820   2.213   1.917   9.076  0.5390 -0.6488  0.8451
 8728SOL    HW237821   2.279   2.001   8.981 -1.0693 -1.0826 -0.0892
 8729SOL     OW37822   2.708   4.555   3.917  0.2414  0.0126  0.4788
 8729SOL    HW137823   2.744   4.600   3.993 -0.6512  1.1614  0.2275
 8729SOL    HW237824   2.742   4.467   3.933 -1.9983 -1.1710 -1.2334
 8730SOL     OW37825   4.456   4.314   2.996 -0.2730  0.5099 -0.1597
 8730SOL    HW137826   4.490   4.345   2.912 -1.0685  0.8761 -0.3465
 8730SOL    HW237827   4.363   4.338   2.987 -0.3959 -0.4831 -1.5751
 8731SOL     OW37828   3.411   3.007   1.682  0.1721  0.3272 -0.3292
 8731SOL    HW137829   3.484   2.950   1.660 -1.4523 -1.7116 -0.3914
 8731SOL    HW237830   3.444   3.085   1.638 -1.9325  0.0793 -2.3531
 8732SOL     OW37831   4.477   2.287   1.709 -0.1825  0.2290  0.2708
 8732SOL    HW137832   4.488   2.375   1.746  0.0471  0.0774  0.5728
 8732SOL    HW237833   4.549   2.240   1.753 -0.3657 -0.4679 -0.1816
 8733SOL     OW37834   4.542   0.551  16.031  0.2033  0.1068 -0.1320
 8733SOL    HW137835   4.534   0.490  15.957 -1.5387  1.2533 -0.8955
 8733SOL    HW237836   4.450   0.577  16.041  1.0338  2.4754  1.2292
 8734SOL     OW37837   3.740   3.167  10.716  0.0694  0.1083  0.0509
 8734SOL    HW137838   3.671   3.148  10.651  1.3317 -0.1576 -1.2083
 8734SOL    HW237839   3.803   3.100  10.688  2.0869  2.3098 -0.6698
 8735SOL     OW37840   1.789   1.694   1.566  0.1324  0.2163  0.0584
 8735SOL    HW137841   1.816   1.690   1.474  1.8395  0.0773  0.5781
 8735SOL    HW237842   1.804   1.788   1.580  0.5479 -0.0462  1.3474
 8736SOL     OW37843   4.204   0.790   9.985 -0.3913  0.4499  0.3033
 8736SOL    HW137844   4.163   0.871  10.014  0.2129  0.9160 -0.1419
 8736SOL    HW237845   4.145   0.721  10.014  0.0585 -0.0402  0.0498
 8737SOL     OW37846   1.757   2.144  16.851 -0.2980  0.7833 -0.3252
 8737SOL    HW137847   1.690   2.077  16.859  0.5731  0.0122  0.5486
 8737SOL    HW237848   1.764   2.151  16.756 -0.5494 -1.8270 -0.5433
 8738SOL     OW37849   3.694   2.987   6.765 -0.8469 -0.0590 -0.8458
 8738SOL    HW137850   3.709   3.021   6.677 -0.0015  0.3224 -0.5597
 8738SOL    HW237851   3.777   3.000   6.812 -0.1661  0.1340 -2.1107
 8739SOL     OW37852   3.994   0.469  12.151 -0.0269  0.2191 -0.6492
 8739SOL    HW137853   4.049   0.405  12.106  0.7325 -0.5446  1.4010
 8739SOL    HW237854   3.912   0.424  12.133  0.1217 -0.5449  0.6165
 8740SOL     OW37855   4.250   2.511   9.665 -0.1051 -0.1093  0.2128
 8740SOL    HW137856   4.250   2.595   9.620  0.8355 -0.1004  0.2184
 8740SOL    HW237857   4.318   2.517   9.732 -0.4578  1.1360  0.4526
 8741SOL     OW37858   1.475   2.142   6.591 -0.3517  0.8165  0.2492
 8741SOL    HW137859   1.550   2.111   6.539 -0.8138  0.9808 -0.5228
 8741SOL    HW237860   1.526   2.208   6.637  1.2505  0.9758 -1.7359
 8742SOL     OW37861   1.047   0.362   4.630  0.2533  0.2525  0.2663
 8742SOL    HW137862   1.027   0.352   4.723 -0.2142  0.5461  0.1985
 8742SOL    HW237863   1.034   0.272   4.600  2.1018  0.2714 -0.5811
 8743SOL     OW37864   1.240   3.314   1.304 -0.5701 -0.5071  0.0821
 8743SOL    HW137865   1.168   3.354   1.352 -0.0328 -0.9015  1.2271
 8743SOL    HW237866   1.292   3.392   1.288 -0.1206 -0.9673 -0.6842
 8744SOL     OW37867   0.814   2.250   0.382  0.5629  0.5302 -0.1497
 8744SOL    HW137868   0.835   2.222   0.293  0.4499  2.6071 -0.8257
 8744SOL    HW237869   0.870   2.189   0.429 -2.4604 -3.1858 -1.4294
 8745SOL     OW37870   2.277   1.844   9.359  0.2764  0.1531  0.2442
 8745SOL    HW137871   2.232   1.923   9.390 -1.5833 -1.0189  0.5417
 8745SOL    HW237872   2.232   1.770   9.400 -1.1978  0.8957 -0.0306
 8746SOL     OW37873   0.714   0.947  13.200 -0.3819  0.3105 -0.0610
 8746SOL    HW137874   0.622   0.923  13.195  0.8663 -4.8388  1.6205
 8746SOL    HW237875   0.723   0.965  13.293 -1.6538  0.8203 -0.0378
 8747SOL     OW37876   0.120   3.969   2.426  0.2797  0.1804  0.3577
 8747SOL    HW137877   0.155   3.886   2.459  1.2017 -0.4162 -2.0695
 8747SOL    HW237878   0.165   3.975   2.341  0.8959 -4.0858  0.3903
 8748SOL     OW37879   0.146   4.023  12.266 -0.0527 -0.0856  0.6711
 8748SOL    HW137880   0.180   3.937  12.240  1.9679  0.6132  0.9695
 8748SOL    HW237881   0.206   4.072  12.211 -1.1246 -1.2314 -1.5187
 8749SOL     OW37882   1.684   1.416  10.953 -0.0840  0.4789 -0.2665
 8749SOL    HW137883   1.622   1.441  11.022  2.2793  0.1971  1.9702
 8749SOL    HW237884   1.642   1.343  10.907 -0.0129 -0.6350  1.4270
 8750SOL     OW37885   3.788   0.875   3.031  0.0060 -0.1104 -0.2114
 8750SOL    HW137886   3.763   0.929   3.106  0.0125 -0.2799 -0.0841
 8750SOL    HW237887   3.836   0.935   2.974  1.6593 -0.3406  0.9353
 8751SOL     OW37888   1.118   2.356   6.014 -0.0334 -0.2789  1.2344
 8751SOL    HW137889   1.044   2.413   5.991 -0.2372 -1.0993 -0.1522
 8751SOL    HW237890   1.133   2.312   5.930 -0.6844 -0.3546  1.1522
 8752SOL     OW37891   3.428   1.392   8.806  0.4095 -0.6650  0.0314
 8752SOL    HW137892   3.412   1.329   8.736 -1.3881 -0.0888 -0.0593
 8752SOL    HW237893   3.395   1.470   8.761 -0.2346 -0.8655  0.1590
 8753SOL     OW37894   4.472   3.075  14.370 -0.4343  0.3280 -0.6629
 8753SOL    HW137895   4.431   3.157  14.342 -0.7442  0.4936  0.2956
 8753SOL    HW237896   4.410   3.012  14.333 -1.4408  1.4487 -0.8747
 8754SOL     OW37897   1.955   1.836   5.781 -0.4545  0.4215  0.2924
 8754SOL    HW137898   1.914   1.809   5.699 -1.3286  0.2932  0.7815
 8754SOL    HW237899   1.994   1.749   5.793  1.1419  0.9178 -1.2731
 8755SOL     OW37900   0.284   3.420  11.182  0.2288  0.5267 -0.1650
 8755SOL    HW137901   0.206   3.379  11.219 -0.8574  1.4931 -1.3265
 8755SOL    HW237902   0.257   3.426  11.090  3.0982 -2.0556 -1.1484
 8756SOL     OW37903   1.680   1.079   7.431  0.0533  0.3669  0.3476
 8756SOL    HW137904   1.597   1.032   7.438  0.6899 -0.9324 -0.8522
 8756SOL    HW237905   1.716   1.081   7.520 -0.5713 -2.5604  0.6585
 8757SOL     OW37906   4.294   2.231   9.613 -0.1580  0.3718  0.2648
 8757SOL    HW137907   4.262   2.170   9.546  1.1608  0.5299 -0.5278
 8757SOL    HW237908   4.243   2.310   9.594 -2.4231 -1.2546 -0.2970
 8758SOL     OW37909   1.161   2.783   6.566 -0.5605 -0.2160 -0.1647
 8758SOL    HW137910   1.097   2.774   6.495  0.4399 -0.6075 -1.0075
 8758SOL    HW237911   1.106   2.824   6.633 -0.7923 -0.6663 -0.0758
 8759SOL     OW37912   2.486   3.738  12.836  0.9587 -0.8859 -1.0800
 8759SOL    HW137913   2.572   3.710  12.867 -0.1040 -1.2578  1.5654
 8759SOL    HW237914   2.483   3.824  12.876  1.4603 -0.9100 -0.9911
 8760SOL     OW37915   4.377   1.500   8.763 -0.0748 -0.2509  0.8085
 8760SOL    HW137916   4.305   1.560   8.785  2.0434  1.1103  3.9264
 8760SOL    HW237917   4.333   1.415   8.764  0.0829 -0.4110 -2.9474
 8761SOL     OW37918   3.864   1.258  11.207 -0.2760  0.3792 -0.0257
 8761SOL    HW137919   3.894   1.337  11.163 -1.0369  2.0695  2.5057
 8761SOL    HW237920   3.850   1.292  11.295  2.1794  1.4085 -0.0126
 8762SOL     OW37921   1.794   3.705   5.359  0.0213  0.0075  0.0196
 8762SOL    HW137922   1.804   3.788   5.406 -0.0961 -0.3164  0.6191
 8762SOL    HW237923   1.825   3.649   5.430  0.4538 -0.9515 -0.9379
 8763SOL     OW37924   1.444   0.215  11.348 -0.2485  0.2435  1.0694
 8763SOL    HW137925   1.377   0.262  11.298 -0.6949 -1.6826 -0.1434
 8763SOL    HW237926   1.443   0.137  11.293  0.8286  0.9186  0.0885
 8764SOL     OW37927   0.344   2.529   8.492  0.7545 -0.4501  0.1672
 8764SOL    HW137928   0.363   2.451   8.544 -2.1318  0.2216  2.2722
 8764SOL    HW237929   0.430   2.560   8.465  0.5844  0.4210  0.6363
 8765SOL     OW37930   0.331   3.351   3.362 -0.2281 -0.2021 -0.0743
 8765SOL    HW137931   0.334   3.432   3.412 -1.9372 -0.9147  1.1537
 8765SOL    HW237932   0.413   3.353   3.313 -0.6166 -1.9038 -0.7751
 8766SOL     OW37933   3.501   0.933  12.795 -0.5070  0.7838  0.4684
 8766SOL    HW137934   3.594   0.948  12.809 -0.3019  0.1042 -0.1879
 8766SOL    HW237935   3.502   0.841  12.822 -0.1961 -0.0070 -2.2294
 8767SOL     OW37936   0.833   3.195   6.504 -0.4661 -0.1158 -0.1697
 8767SOL    HW137937   0.878   3.240   6.575 -0.7317 -0.9754  0.5418
 8767SOL    HW237938   0.834   3.106   6.539  0.5865 -0.4218 -1.0108
 8768SOL     OW37939   1.562   1.035  12.435 -0.0040  0.5415 -0.1878
 8768SOL    HW137940   1.559   1.041  12.340  1.0494 -0.8041 -0.3078
 8768SOL    HW237941   1.640   0.981  12.449  0.3295  0.8607 -0.8233
 8769SOL     OW37942   3.425   1.297   5.488 -0.3243  0.5276  0.1271
 8769SOL    HW137943   3.457   1.368   5.543 -1.0148  0.3917  0.7014
 8769SOL    HW237944   3.408   1.341   5.404  1.3345  2.3751  0.7539
 8770SOL     OW37945   3.512   3.068   4.680  0.5379 -0.0863  0.1133
 8770SOL    HW137946   3.495   3.063   4.586  2.8584 -0.0294 -0.3262
 8770SOL    HW237947   3.552   2.982   4.690  1.0416  0.1071 -0.2004
 8771SOL     OW37948   4.022   4.684   8.869  0.3130 -0.1089  0.3574
 8771SOL    HW137949   3.949   4.625   8.850  0.6501 -0.8056  1.2466
 8771SOL    HW237950   4.089   4.622   8.896 -1.7534 -2.0559  0.9886
 8772SOL     OW37951   1.608   3.676   3.224  0.0132 -0.5781  0.1520
 8772SOL    HW137952   1.525   3.633   3.244  0.7601 -1.6897  0.8180
 8772SOL    HW237953   1.614   3.665   3.129  0.5778 -1.4128  0.2852
 8773SOL     OW37954   1.275   0.679   8.734  0.1737  0.1265  0.4521
 8773SOL    HW137955   1.284   0.735   8.811 -0.2703  0.7276  0.0746
 8773SOL    HW237956   1.303   0.734   8.661  0.9744 -0.5924  0.2163
 8774SOL     OW37957   4.186   1.649   6.430  0.2490  0.1411 -0.0967
 8774SOL    HW137958   4.111   1.589   6.427  1.5556 -1.3737 -1.7253
 8774SOL    HW237959   4.182   1.676   6.339  1.2218  0.0129 -0.1692
 8775SOL     OW37960   2.049   1.503   3.475 -0.4041 -0.1124  0.7759
 8775SOL    HW137961   1.958   1.501   3.446  0.0933 -2.4008 -0.6158
 8775SOL    HW237962   2.097   1.464   3.402 -2.5309 -0.3414 -0.5179
 8776SOL     OW37963   2.618   0.619  10.370 -0.2855  0.1361 -0.2813
 8776SOL    HW137964   2.699   0.640  10.416 -0.6850  0.9437  0.0442
 8776SOL    HW237965   2.653   0.568  10.297 -1.3999 -1.3632  0.2394
 8777SOL     OW37966   3.990   0.802   3.453  0.0129 -0.0062  0.5544
 8777SOL    HW137967   3.915   0.748   3.475  0.0818 -1.0266 -1.6652
 8777SOL    HW237968   3.959   0.885   3.486 -0.5303 -0.4029  1.0312
 8778SOL     OW37969   2.081   2.724   4.693 -0.7199  0.1415  0.9682
 8778SOL    HW137970   2.160   2.674   4.711  0.6776  0.8684 -3.2586
 8778SOL    HW237971   2.066   2.701   4.602  0.3266  3.8975 -0.1449
 8779SOL     OW37972   2.745   1.492   9.002  0.2055 -0.0010 -0.0095
 8779SOL    HW137973   2.677   1.516   9.064 -0.9703  0.0349 -1.3227
 8779SOL    HW237974   2.734   1.551   8.927  1.8203  1.6066  0.9969
 8780SOL     OW37975   4.062   0.048  15.876  0.1988 -0.1277  0.2899
 8780SOL    HW137976   4.102   0.126  15.915  2.4979 -0.4402 -1.4221
 8780SOL    HW237977   4.061   0.079  15.785 -0.1535 -0.0279  0.3250
 8781SOL     OW37978   2.051   2.755   6.559  0.3714 -0.0846 -0.2661
 8781SOL    HW137979   1.976   2.748   6.618 -1.3711 -0.5749 -2.5428
 8781SOL    HW237980   2.029   2.844   6.530  0.9664  0.2326  0.2618
 8782SOL     OW37981   3.758   0.858   6.777 -0.2630  0.2862  0.2001
 8782SOL    HW137982   3.689   0.892   6.833 -2.5288 -0.2602 -2.2364
 8782SOL    HW237983   3.785   0.777   6.820  0.8494 -0.5791 -2.0687
 8783SOL     OW37984   2.170   4.620   5.468  0.7745  0.2348 -0.2353
 8783SOL    HW137985   2.102   4.618   5.400  1.3128  2.0464 -0.8355
 8783SOL    HW237986   2.220   4.698   5.440 -0.1357  2.4249  4.2876
 8784SOL     OW37987   4.365   3.371  17.088 -0.3399  0.7538  0.1349
 8784SOL    HW137988   4.454   3.376  17.053 -1.0270  1.0020 -1.5741
 8784SOL    HW237989   4.320   3.453  17.067  1.2625  1.4418 -0.5594
 8785SOL     OW37990   0.351   3.054   6.136 -0.0005 -0.4257  0.2719
 8785SOL    HW137991   0.433   3.056   6.087 -0.8762 -0.0457 -1.1757
 8785SOL    HW237992   0.289   3.061   6.063  2.1435 -1.2533 -1.6532
 8786SOL     OW37993   2.544   4.666   1.750 -0.3176  0.0216  0.4184
 8786SOL    HW137994   2.625   4.672   1.700 -0.5707 -0.3725 -0.0447
 8786SOL    HW237995   2.484   4.632   1.684 -0.5505 -1.1061  1.2229
 8787SOL     OW37996   1.193   1.853   7.665  0.5102  0.3677 -0.3064
 8787SOL    HW137997   1.242   1.818   7.591 -3.0325 -1.9915 -1.5150
 8787SOL    HW237998   1.140   1.776   7.686 -0.5061  0.8716 -1.0483
 8788SOL     OW37999   4.042   3.704   6.277  0.6331  0.1972 -0.5421
 8788SOL    HW138000   3.970   3.717   6.215  0.2087  0.5141  0.0152
 8788SOL    HW238001   4.070   3.795   6.275 -1.0774  0.6819 -2.3975
 8789SOL     OW38002   4.027   0.074   5.458  0.9368 -0.0440 -0.7333
 8789SOL    HW138003   4.082   0.040   5.529 -0.2688  1.4641  0.9158
 8789SOL    HW238004   3.992   0.002   5.405  0.0421 -1.3404  1.6524
 8790SOL     OW38005   2.614   1.401  13.468 -0.0976 -0.2693 -0.0080
 8790SOL    HW138006   2.600   1.411  13.562 -0.5786  1.4359 -0.2637
 8790SOL    HW238007   2.707   1.381  13.462 -0.2994 -0.4661 -2.7061
 8791SOL     OW38008   3.381   1.362  15.508  0.8511  0.7233 -0.0765
 8791SOL    HW138009   3.441   1.436  15.519  0.5968  0.9838 -0.4182
 8791SOL    HW238010   3.425   1.300  15.566  2.8350  2.0503 -0.1525
 8792SOL     OW38011   2.026   2.923   3.937 -0.3438 -0.3694  0.0301
 8792SOL    HW138012   2.064   2.897   3.853 -0.2004  2.2032 -0.7041
 8792SOL    HW238013   2.105   2.959   3.978 -2.0600  0.6434  2.4241
 8793SOL     OW38014   2.208   0.959   6.185  0.0268  0.1974  0.3431
 8793SOL    HW138015   2.159   0.895   6.237 -1.3211  0.1688 -0.9992
 8793SOL    HW238016   2.244   0.908   6.112  0.6277  2.0208 -0.6269
 8794SOL     OW38017   0.446   1.323   8.419  0.0966 -0.4939 -0.7330
 8794SOL    HW138018   0.532   1.321   8.375 -0.0412 -0.9878 -0.9871
 8794SOL    HW238019   0.477   1.288   8.503 -0.7441  0.5927  0.0144
 8795SOL     OW38020   2.427   3.882   5.097 -0.1469 -0.1153  0.3980
 8795SOL    HW138021   2.362   3.932   5.146  0.8547  0.4179  1.1779
 8795SOL    HW238022   2.429   3.810   5.159 -2.0483  0.6674  1.3588
 8796SOL     OW38023   1.318   2.770  10.268  0.6979 -0.0570 -0.0824
 8796SOL    HW138024   1.270   2.704  10.318 -1.1723  1.1028 -0.3428
 8796SOL    HW238025   1.404   2.750  10.306  1.4776  1.7648 -0.8865
 8797SOL     OW38026   0.887   3.676   8.643  0.0997 -0.1277 -0.0795
 8797SOL    HW138027   0.941   3.710   8.714  0.3131  0.3844 -0.4937
 8797SOL    HW238028   0.816   3.740   8.637  0.1564 -0.1107 -0.5869
 8798SOL     OW38029   2.695   4.010   6.705  0.3485 -0.1370 -0.6541
 8798SOL    HW138030   2.689   4.043   6.794  0.3202 -2.3380  0.1575
 8798SOL    HW238031   2.659   3.922   6.718  1.4190 -0.7109 -1.5686
 8799SOL     OW38032   3.694   3.424   5.340 -0.0372 -0.1391  0.1896
 8799SOL    HW138033   3.722   3.444   5.429  1.3788 -4.0437  0.6252
 8799SOL    HW238034   3.609   3.384   5.360 -0.3692  0.1453 -0.6325
 8800SOL     OW38035   1.026   0.282   1.871 -0.8829 -0.6396 -0.0828
 8800SOL    HW138036   1.046   0.306   1.962  0.2454 -2.9054  0.2694
 8800SOL    HW238037   1.081   0.205   1.861 -3.6327 -2.3437 -2.0115
 8801SOL     OW38038   2.989   3.223   6.199 -0.3852  0.3608 -0.4507
 8801SOL    HW138039   2.901   3.257   6.185  0.2050  1.3932 -1.5807
 8801SOL    HW238040   3.040   3.299   6.226  2.3330 -2.2590  1.7790
 8802SOL     OW38041   4.132   4.213   3.838  0.0071 -0.3663 -0.1275
 8802SOL    HW138042   4.070   4.146   3.807 -1.1956  0.2598  0.8842
 8802SOL    HW238043   4.213   4.188   3.794  0.5743 -1.7400  1.7247
 8803SOL     OW38044   1.770   3.871   3.603  0.2366  1.1544  0.6980
 8803SOL    HW138045   1.760   3.800   3.540  0.1727  1.0618  0.8127
 8803SOL    HW238046   1.844   3.841   3.655  3.0883  1.2142 -3.3408
 8804SOL     OW38047   2.059   0.200  17.121  0.0770 -0.5260 -0.2608
 8804SOL    HW138048   2.068   0.279  17.174 -1.6165  0.6217 -1.6958
 8804SOL    HW238049   2.049   0.233  17.032 -1.8925  0.5296  0.3523
 8805SOL     OW38050   4.524   2.635   2.207  0.1341 -0.5395  0.0344
 8805SOL    HW138051   4.502   2.728   2.204  0.4536 -0.3945  2.1296
 8805SOL    HW238052   4.606   2.650   2.159 -0.9040  1.5608 -1.0787
 8806SOL     OW38053   1.861   0.647   0.741 -0.5522 -0.3178  0.0313
 8806SOL    HW138054   1.834   0.560   0.768  0.0841 -0.0070  1.6533
 8806SOL    HW238055   1.950   0.657   0.775 -0.5811  0.1893 -0.0265
 8807SOL     OW38056   3.368   3.193   5.046 -0.3940 -0.0662  0.2651
 8807SOL    HW138057   3.290   3.226   5.001 -1.0315 -0.3713  1.1553
 8807SOL    HW238058   3.344   3.214   5.136  1.2575 -2.7316  1.3372
 8808SOL     OW38059   3.740   1.341   3.096 -0.1515  0.3900 -0.4715
 8808SOL    HW138060   3.775   1.423   3.130  0.9918 -0.4554  0.4053
 8808SOL    HW238061   3.756   1.349   3.003  0.8732 -1.8193 -0.4990
 8809SOL     OW38062   0.598   2.005   7.621 -0.2948  0.2920  0.0151
 8809SOL    HW138063   0.625   1.946   7.692 -0.2285 -0.7024 -0.8341
 8809SOL    HW238064   0.533   1.948   7.581 -0.6683  0.4567  0.3849
 8810SOL     OW38065   0.795   4.281  17.594  0.3342  0.3998 -0.0525
 8810SOL    HW138066   0.878   4.328  17.596  1.5431 -1.7501  0.6400
 8810SOL    HW238067   0.805   4.224  17.518  1.7081 -0.1265  0.5212
 8811SOL     OW38068   3.919   2.894   1.876 -0.0424 -0.3650  0.0384
 8811SOL    HW138069   3.918   2.990   1.883 -2.4799 -0.4070  0.0949
 8811SOL    HW238070   3.845   2.878   1.934 -0.1451  2.0858  0.5755
 8812SOL     OW38071   2.286   0.852   8.002 -0.2378 -0.0087 -0.1379
 8812SOL    HW138072   2.275   0.772   8.053 -0.9522 -0.6025 -1.2213
 8812SOL    HW238073   2.203   0.897   8.019 -0.2033  0.3453 -0.8691
 8813SOL     OW38074   1.780   4.359   9.803  0.2107  0.1941 -0.3224
 8813SOL    HW138075   1.860   4.366   9.856 -0.6692 -0.5939  1.1314
 8813SOL    HW238076   1.729   4.441   9.807  1.7472  1.0722  1.3764
 8814SOL     OW38077   4.689   3.532  11.129  0.1094 -0.2781 -0.1680
 8814SOL    HW138078   4.701   3.562  11.219 -3.2956  1.1913 -0.2265
 8814SOL    HW238079   4.663   3.440  11.137 -1.2586  0.0607 -0.8399
 8815SOL     OW38080   1.768   0.214   6.581 -0.5252  0.5899  0.0959
 8815SOL    HW138081   1.844   0.191   6.635 -0.2928  2.1088  0.4316
 8815SOL    HW238082   1.743   0.299   6.618 -0.5652 -1.0878  3.8854
 8816SOL     OW38083   4.067   0.351   2.210  0.1397 -0.1695  0.3033
 8816SOL    HW138084   4.059   0.276   2.268 -1.4627  0.6763  1.1709
 8816SOL    HW238085   3.977   0.365   2.182  0.1734  0.4574  0.5106
 8817SOL     OW38086   3.350   1.687   5.357 -0.9327  0.3096 -0.0826
 8817SOL    HW138087   3.406   1.736   5.297 -1.8492  0.5931 -0.7072
 8817SOL    HW238088   3.338   1.739   5.436 -1.7514 -1.1871  0.7977
 8818SOL     OW38089   2.482   3.568   2.537  0.1518 -0.1025  0.1829
 8818SOL    HW138090   2.488   3.652   2.490  2.6342  0.5517  1.7231
 8818SOL    HW238091   2.408   3.533   2.486  0.2997  0.0596 -0.1445
 8819SOL     OW38092   0.163   2.190   4.854  0.0233  0.6602  0.1061
 8819SOL    HW138093   0.121   2.154   4.932 -2.0664  1.5509 -0.6013
 8819SOL    HW238094   0.240   2.139   4.831 -0.4219 -0.0004  0.0804
 8820SOL     OW38095   2.159   3.627  10.113 -0.1998  0.3470 -0.2347
 8820SOL    HW138096   2.073   3.653  10.083 -0.4805 -0.0051  0.2578
 8820SOL    HW238097   2.216   3.687  10.065  0.6381  1.4724  2.1444
 8821SOL     OW38098   2.629   2.796   4.998 -0.3422 -0.9812 -0.2440
 8821SOL    HW138099   2.554   2.792   5.057  1.0021 -0.4237  1.5028
 8821SOL    HW238100   2.610   2.873   4.946 -1.6309  0.5670  2.5333
 8822SOL     OW38101   3.985   4.232   8.387 -0.5562  0.3317 -0.1503
 8822SOL    HW138102   4.011   4.270   8.304 -1.1044  1.2932  0.1160
 8822SOL    HW238103   4.073   4.217   8.422 -0.0727  1.8156 -0.7296
 8823SOL     OW38104   2.079   4.497   2.899  0.6604  0.9005 -0.1533
 8823SOL    HW138105   2.020   4.560   2.941 -1.1958  0.0900 -1.5200
 8823SOL    HW238106   2.093   4.440   2.975  1.6914  2.1254  0.5517
 8824SOL     OW38107   2.834   3.611   3.100 -0.2150 -0.0789  0.6533
 8824SOL    HW138108   2.882   3.690   3.123  1.2816 -0.0250 -2.6577
 8824SOL    HW238109   2.803   3.572   3.182  1.2463 -1.4082  0.5720
 8825SOL     OW38110   1.275   0.420   6.948  0.3264  0.0469  0.3036
 8825SOL    HW138111   1.300   0.401   7.038  0.1588 -0.3767  0.2617
 8825SOL    HW238112   1.205   0.356   6.938  1.9896 -1.1355 -3.5612
 8826SOL     OW38113   4.665   2.704   2.896 -0.1017 -0.5032 -0.0473
 8826SOL    HW138114   4.597   2.768   2.876  0.0154 -0.7683 -1.2923
 8826SOL    HW238115   4.624   2.658   2.970  0.0507 -0.4875  0.0464
 8827SOL     OW38116   0.120   3.825  10.910 -0.3772  0.4777  0.3754
 8827SOL    HW138117   0.110   3.820  10.815 -0.5544 -0.0187  0.4234
 8827SOL    HW238118   0.207   3.784  10.917  0.5286  2.4612  0.8687
 8828SOL     OW38119   4.386   0.136   6.710  0.1196  0.2206  0.1869
 8828SOL    HW138120   4.415   0.169   6.795 -0.0780 -0.2655  0.4379
 8828SOL    HW238121   4.458   0.159   6.650  1.4461 -3.5809  0.3555
 8829SOL     OW38122   1.420   2.478  13.244  0.1781  0.3840 -0.0128
 8829SOL    HW138123   1.484   2.408  13.234 -0.7493 -0.3802 -0.5952
 8829SOL    HW238124   1.408   2.479  13.339  0.7500  1.2100  0.0423
 8830SOL     OW38125   3.599   0.625   4.809 -0.3969  0.1575  0.4576
 8830SOL    HW138126   3.511   0.664   4.815 -1.0231 -1.3288  0.7517
 8830SOL    HW238127   3.665   0.694   4.812 -0.2626  0.0746 -0.4865
 8831SOL     OW38128   2.202   0.009   0.538  0.3029  0.3751 -0.3404
 8831SOL    HW138129   2.123   0.016   0.592  0.0581  1.1227 -0.8014
 8831SOL    HW238130   2.196   4.659   0.495  2.3824  0.9063 -1.6634
 8832SOL     OW38131   4.162   3.526   8.122 -0.0783 -0.3396 -0.4045
 8832SOL    HW138132   4.201   3.598   8.171 -2.8664 -0.1121  1.4635
 8832SOL    HW238133   4.184   3.541   8.030 -1.8474 -0.0856 -0.7998
 8833SOL     OW38134   3.924   2.123   6.842  0.0758  0.8090  0.0430
 8833SOL    HW138135   3.948   2.058   6.777 -0.7479  1.2890 -0.7481
 8833SOL    HW238136   3.989   2.192   6.827  0.5806  0.0893 -1.0496
 8834SOL     OW38137   3.557   3.425   9.965 -0.4092 -0.2370  0.3508
 8834SOL    HW138138   3.566   3.372   9.886  0.1082  1.5765 -0.8044
 8834SOL    HW238139   3.474   3.400  10.006 -0.3498 -2.3815 -0.8464
 8835SOL     OW38140   3.678   3.855   9.066  0.0729 -0.3538 -0.1748
 8835SOL    HW138141   3.644   3.768   9.044  0.8988 -0.1024 -2.4579
 8835SOL    HW238142   3.616   3.916   9.025 -0.5212 -1.2387 -0.5912
 8836SOL     OW38143   1.261   1.540   2.246  0.4399 -0.3884 -0.1440
 8836SOL    HW138144   1.194   1.603   2.218  0.8701  0.7393  1.4000
 8836SOL    HW238145   1.294   1.503   2.164 -0.9765  1.1529 -1.4073
 8837SOL     OW38146   3.240   1.382   9.080  0.5042 -0.4841  0.7040
 8837SOL    HW138147   3.266   1.387   8.988  0.3118 -1.1338  0.6181
 8837SOL    HW238148   3.210   1.469   9.104  1.7059  0.3859 -0.9766
 8838SOL     OW38149   0.985   1.676   0.126 -0.5588 -0.5238 -0.1006
 8838SOL    HW138150   1.038   1.597   0.129 -0.3267 -0.3071  1.9351
 8838SOL    HW238151   1.023   1.743   0.183 -1.1331  0.9257 -1.4319
 8839SOL     OW38152   0.242   2.036   1.994 -0.2863  0.5081 -0.0044
 8839SOL    HW138153   0.304   2.040   1.921  0.2294 -2.0233  0.2967
 8839SOL    HW238154   0.200   1.954   1.969 -1.6649  1.5124 -1.0002
 8840SOL     OW38155   3.444   3.404  14.714 -0.0739  0.5937 -0.0800
 8840SOL    HW138156   3.507   3.361  14.772 -1.1124 -2.2104 -1.0035
 8840SOL    HW238157   3.449   3.487  14.761 -0.5914  1.4260 -1.4852
 8841SOL     OW38158   0.824   0.084  13.289  0.0808  0.6624  0.2197
 8841SOL    HW138159   0.820   0.089  13.193  0.0480 -1.1855  0.1288
 8841SOL    HW238160   0.745   0.038  13.317 -1.0270  0.6839 -2.8122
 8842SOL     OW38161   1.463   0.292  11.898 -0.0614 -0.0240  0.3670
 8842SOL    HW138162   1.505   0.238  11.965 -1.4789 -1.0179  0.4733
 8842SOL    HW238163   1.523   0.270  11.827  0.1027  1.2947  0.1137
 8843SOL     OW38164   1.500   4.425   3.021 -0.0340  0.3507  0.2450
 8843SOL    HW138165   1.465   4.501   3.067 -4.8062 -1.5048 -0.3369
 8843SOL    HW238166   1.595   4.435   3.034  0.0369  0.1389 -0.1057
 8844SOL     OW38167   4.332   4.370  12.314  0.5153 -0.2480  0.2017
 8844SOL    HW138168   4.284   4.299  12.357 -2.0425 -0.0443 -2.2969
 8844SOL    HW238169   4.353   4.435  12.381 -0.0962 -0.7186  0.8501
 8845SOL     OW38170   3.765   3.725   2.267 -0.4403  0.2830  0.0273
 8845SOL    HW138171   3.746   3.816   2.246  1.9477  1.2424  2.0177
 8845SOL    HW238172   3.680   3.697   2.301  0.9898 -2.7601  1.1311
 8846SOL     OW38173   4.227   2.427   1.904 -0.2017  0.4140 -0.1889
 8846SOL    HW138174   4.220   2.410   1.810  0.7645 -1.6422  0.1237
 8846SOL    HW238175   4.310   2.397   1.941 -0.3877  0.9989  0.7166
 8847SOL     OW38176   1.129   3.898   2.539  0.1327 -0.0956 -0.0300
 8847SOL    HW138177   1.041   3.930   2.561  0.3685  0.0932  0.6549
 8847SOL    HW238178   1.131   3.813   2.584  0.9281  0.1885  0.4629
 8848SOL     OW38179   4.079   0.699   7.871  0.3140 -0.2716  0.3931
 8848SOL    HW138180   4.159   0.753   7.869  0.6294 -0.6579  2.9674
 8848SOL    HW238181   4.051   0.715   7.961  0.2534  0.5938  0.2281
 8849SOL     OW38182   4.509   1.262   3.625  0.0862  0.0768 -0.2839
 8849SOL    HW138183   4.427   1.243   3.671  0.6742 -1.2624  0.2438
 8849SOL    HW238184   4.549   1.321   3.689 -0.9871 -0.3482  0.7799
 8850SOL     OW38185   0.882   0.533   6.029  0.2027  0.4235  0.7054
 8850SOL    HW138186   0.806   0.591   6.021  0.4031  0.7394  1.0901
 8850SOL    HW238187   0.912   0.547   6.119 -1.3318  0.3792  1.2274
 8851SOL     OW38188   4.192   2.291   3.158 -0.4263 -0.3541 -0.5063
 8851SOL    HW138189   4.116   2.292   3.215 -0.0343 -2.4674  0.0792
 8851SOL    HW238190   4.263   2.254   3.211 -0.5738  0.3611  0.1883
 8852SOL     OW38191   1.981   4.143   4.054 -0.2636  0.4940 -0.2312
 8852SOL    HW138192   2.041   4.201   4.101 -0.8142 -0.3834  1.5568
 8852SOL    HW238193   1.899   4.183   4.083 -1.6965 -0.6515 -2.7342
 8853SOL     OW38194   3.690   1.037   4.740 -0.1185  0.2674 -0.8370
 8853SOL    HW138195   3.647   0.983   4.674  0.1483 -0.5871 -0.3236
 8853SOL    HW238196   3.732   0.962   4.783 -0.2235  0.4658 -0.3840
 8854SOL     OW38197   2.787   2.832   3.116 -0.1502 -0.2125 -0.0991
 8854SOL    HW138198   2.793   2.880   3.033  1.9153  1.0809  0.7880
 8854SOL    HW238199   2.811   2.743   3.092 -1.7925 -0.8605  0.7068
 8855SOL     OW38200   1.420   2.454  12.502  0.2667  0.2316  0.0556
 8855SOL    HW138201   1.488   2.454  12.435  0.4145 -0.4006  0.1966
 8855SOL    HW238202   1.345   2.399  12.478  0.6712 -0.2430 -0.1285
 8856SOL     OW38203   4.053   0.414   7.284  0.1607  0.3117 -0.6576
 8856SOL    HW138204   4.089   0.446   7.202  1.0361  0.8356 -0.0665
 8856SOL    HW238205   4.082   0.473   7.353  0.6767 -0.2752 -0.3711
 8857SOL     OW38206   3.308   3.376   4.350 -0.2297  0.2420 -0.7640
 8857SOL    HW138207   3.240   3.437   4.321 -0.4863  1.0940  1.6148
 8857SOL    HW238208   3.270   3.322   4.420  0.2008 -1.0174 -1.4992
 8858SOL     OW38209   0.519   1.678   9.916  0.2289 -0.4677 -0.5286
 8858SOL    HW138210   0.566   1.646   9.993  0.7876 -0.0886 -0.7126
 8858SOL    HW238211   0.430   1.673   9.952 -0.1287 -0.5240 -1.4300
 8859SOL     OW38212   2.753   4.018   8.610 -0.1160 -0.0590  0.5841
 8859SOL    HW138213   2.733   4.096   8.663 -0.0650 -0.8096  1.7088
 8859SOL    HW238214   2.664   3.984   8.602  1.0532 -2.9364  0.0852
 8860SOL     OW38215   1.059   0.248   2.146  0.6646 -0.0606  0.2915
 8860SOL    HW138216   1.041   0.185   2.216  0.3503 -1.8068 -1.3680
 8860SOL    HW238217   1.142   0.284   2.178  1.7113  0.2581 -2.8049
 8861SOL     OW38218   1.594   3.368   8.560 -0.5038  0.5499  0.3334
 8861SOL    HW138219   1.567   3.459   8.544  0.6422  0.6527 -0.9177
 8861SOL    HW238220   1.670   3.373   8.617  1.0492  1.5495 -1.8116
 8862SOL     OW38221   3.792   4.702   3.505  0.1291 -0.2578 -0.4642
 8862SOL    HW138222   3.848   4.626   3.486  0.7536  0.8047 -2.7990
 8862SOL    HW238223   3.724   4.700   3.438  1.4891 -1.6225 -1.8023
 8863SOL     OW38224   3.050   3.500   7.523  0.2465  0.4930  0.5552
 8863SOL    HW138225   3.082   3.510   7.613 -2.5182  1.2869  1.4581
 8863SOL    HW238226   3.126   3.467   7.475 -1.8693 -2.2320 -0.9109
 8864SOL     OW38227   3.966   2.959   7.397 -0.3324  0.2940 -0.3763
 8864SOL    HW138228   4.019   2.989   7.472 -0.1978  0.8323 -0.6919
 8864SOL    HW238229   4.029   2.924   7.335 -1.2011 -0.7333 -0.6745
 8865SOL     OW38230   1.354   0.448   1.613  0.1107 -0.6582  0.2528
 8865SOL    HW138231   1.435   0.492   1.591 -0.0092 -0.3007  0.5246
 8865SOL    HW238232   1.291   0.475   1.547 -0.3573 -1.1962  0.4764
 8866SOL     OW38233   0.095   3.147   9.695  0.1412  0.6441 -0.1265
 8866SOL    HW138234   0.166   3.209   9.684  0.8651  0.2096  2.0766
 8866SOL    HW238235   0.077   3.127   9.603 -2.3603 -1.8139  0.8903
 8867SOL     OW38236   2.245   1.104   4.816  0.3449  0.5638  0.4879
 8867SOL    HW138237   2.165   1.055   4.832  0.6183  0.8533  2.6749
 8867SOL    HW238238   2.298   1.058   4.881  0.4046 -1.0139 -0.6681
 8868SOL     OW38239   0.696   0.498   7.780  0.3079 -0.1251 -0.6776
 8868SOL    HW138240   0.605   0.471   7.764 -0.4306  2.2964 -0.5389
 8868SOL    HW238241   0.734   0.431   7.724  0.9450 -0.7669  0.5273
 8869SOL     OW38242   0.387   1.066  14.182 -0.2186  0.1347  0.2069
 8869SOL    HW138243   0.444   1.033  14.252 -2.4303 -1.5284  1.2379
 8869SOL    HW238244   0.415   1.154  14.157  0.2196  0.5330  2.1248
 8870SOL     OW38245   4.494   1.570   2.207  0.0397 -0.3174 -0.3864
 8870SOL    HW138246   4.507   1.494   2.263  2.7749  0.0027 -0.5981
 8870SOL    HW238247   4.577   1.616   2.219 -0.5995  1.1191 -1.4720
 8871SOL     OW38248   4.167   0.409  14.462  0.0390 -0.6225  0.1576
 8871SOL    HW138249   4.118   0.434  14.541  1.7240  0.2176  0.9343
 8871SOL    HW238250   4.253   0.416  14.504  1.0161 -0.4574 -1.8930
 8872SOL     OW38251   1.849   4.024  10.057 -0.3744 -0.0898  0.0511
 8872SOL    HW138252   1.879   4.105  10.016 -1.8114  0.1096 -0.6251
 8872SOL    HW238253   1.862   4.033  10.151  3.1787 -2.2554 -0.2384
 8873SOL     OW38254   2.985   1.800   6.283  0.9660  0.1778 -0.7785
 8873SOL    HW138255   2.941   1.717   6.264  0.0922  0.4924 -0.1234
 8873SOL    HW238256   3.052   1.775   6.347 -2.2450 -0.0927  2.4772
 8874SOL     OW38257   0.562   4.361   4.874 -0.5378 -0.0042  0.2448
 8874SOL    HW138258   0.533   4.303   4.804 -0.2638  1.4160 -1.0416
 8874SOL    HW238259   0.525   4.442   4.838  2.3853  0.3355 -2.0021
 8875SOL     OW38260   1.341   2.375  15.042 -0.3312  0.2049  0.3218
 8875SOL    HW138261   1.375   2.458  15.077  1.5952 -0.1961 -0.5964
 8875SOL    HW238262   1.402   2.312  15.080 -0.6726 -0.1897  0.2159
 8876SOL     OW38263   0.643   3.628   1.586  0.4510 -0.2850  0.2092
 8876SOL    HW138264   0.554   3.628   1.550  0.2109  1.4685  0.7925
 8876SOL    HW238265   0.684   3.560   1.533 -1.5558 -0.9909 -0.4316
 8877SOL     OW38266   4.280   1.536  15.792  0.3346 -0.9297  0.4107
 8877SOL    HW138267   4.366   1.519  15.753 -0.1864 -3.4505  0.3823
 8877SOL    HW238268   4.298   1.626  15.821 -4.2380  0.1372 -0.1369
 8878SOL     OW38269   0.527   4.388   0.651 -0.4327  0.0241  0.7411
 8878SOL    HW138270   0.531   4.463   0.711  2.0911  1.5220 -1.3141
 8878SOL    HW238271   0.438   4.355   0.666 -0.1980 -1.5091 -1.3329
 8879SOL     OW38272   3.292   1.367   2.208  0.1509  0.1687  0.2027
 8879SOL    HW138273   3.214   1.413   2.238  0.5862  0.3134  1.1169
 8879SOL    HW238274   3.281   1.377   2.113  0.7827  0.6737  0.1856
 8880SOL     OW38275   0.406   1.620  11.839 -0.8083  0.0334  0.3558
 8880SOL    HW138276   0.396   1.538  11.886 -1.6915 -0.9491 -1.5715
 8880SOL    HW238277   0.315   1.651  11.840 -0.2927  1.4971  1.1867
 8881SOL     OW38278   4.609   1.401   9.266 -0.0077 -0.0628  0.1497
 8881SOL    HW138279   4.671   1.372   9.199 -1.4059  0.1193 -1.2048
 8881SOL    HW238280   4.624   1.496   9.260 -1.2604  0.0774 -0.7785
 8882SOL     OW38281   4.065   1.061   7.228 -0.1130 -0.4934  0.1749
 8882SOL    HW138282   4.049   1.018   7.312  0.0872 -2.3605 -0.7375
 8882SOL    HW238283   4.080   1.152   7.253  1.4529 -0.6645 -0.1767
 8883SOL     OW38284   1.469   2.182   4.057  0.0508  0.4260 -0.1662
 8883SOL    HW138285   1.471   2.266   4.102 -2.3311  0.2879  0.2430
 8883SOL    HW238286   1.377   2.187   4.030 -0.2650 -1.7281  0.5407
 8884SOL     OW38287   4.236   2.615   5.205  0.0127  0.1023  0.5247
 8884SOL    HW138288   4.207   2.524   5.205  0.1893  0.0424  2.2212
 8884SOL    HW238289   4.296   2.620   5.280 -0.0577  0.3995  0.5625
 8885SOL     OW38290   2.577   2.994   6.822 -0.7720  0.0469  0.5843
 8885SOL    HW138291   2.610   2.972   6.735 -1.6592 -0.9567  0.5062
 8885SOL    HW238292   2.621   3.079   6.821 -0.8884  0.0868 -1.1923
 8886SOL     OW38293   1.701   2.899   9.946  0.0894  0.2974  0.1368
 8886SOL    HW138294   1.786   2.865   9.917  0.5395  1.3579  0.1781
 8886SOL    HW238295   1.667   2.819   9.985 -0.7846  1.0166  0.8431
 8887SOL     OW38296   0.722   4.504  17.328  0.0124  0.0514 -0.1594
 8887SOL    HW138297   0.699   4.413  17.310  0.6872  0.4716 -3.1937
 8887SOL    HW238298   0.805   4.490  17.372  0.8685 -3.0736 -2.7227
 8888SOL     OW38299   2.803   4.374   6.577  0.5475 -0.2476 -0.5779
 8888SOL    HW138300   2.860   4.448   6.600  3.2830 -2.6862  0.4799
 8888SOL    HW238301   2.767   4.409   6.495 -2.0559  0.1352  0.7172
 8889SOL     OW38302   1.004   3.931   2.891 -0.1181  0.3309 -1.0803
 8889SOL    HW138303   0.959   3.907   2.971 -0.1255 -1.4552 -1.6232
 8889SOL    HW238304   0.924   3.966   2.853 -1.5579 -1.1079  0.6248
 8890SOL     OW38305   0.138   3.913   7.255 -0.2093  0.4832 -0.0520
 8890SOL    HW138306   0.130   4.008   7.244  3.0412  0.7085 -0.4704
 8890SOL    HW238307   0.225   3.891   7.222 -0.1933  0.0784  0.2674
 8891SOL     OW38308   4.665   2.063   0.608  0.6438 -0.4473  0.0850
 8891SOL    HW138309   4.603   2.082   0.679 -0.4094 -0.4706 -0.8240
 8891SOL    HW238310   4.611   2.098   0.537  0.4527  0.6658  0.7695
 8892SOL     OW38311   1.798   1.454   6.870  0.6369  0.0899 -0.4527
 8892SOL    HW138312   1.788   1.367   6.908 -0.3060  0.7416  0.7784
 8892SOL    HW238313   1.709   1.478   6.844 -0.1386  0.5633  2.7425
 8893SOL     OW38314   1.807   0.088   3.560 -0.3183  0.1807  0.4438
 8893SOL    HW138315   1.826   0.169   3.512  0.1906 -0.2679 -0.1163
 8893SOL    HW238316   1.890   0.040   3.562  0.7644  2.1239  1.7007
 8894SOL     OW38317   3.930   3.393   0.148  0.4464 -0.3620 -0.1313
 8894SOL    HW138318   4.018   3.360   0.164  0.4961 -0.2753 -0.2225
 8894SOL    HW238319   3.874   3.316   0.156  0.2108 -0.1343  0.3785
 8895SOL     OW38320   1.690   2.531   5.723  0.4705  0.0879 -0.1943
 8895SOL    HW138321   1.777   2.537   5.762 -0.3410 -0.4844  1.6800
 8895SOL    HW238322   1.664   2.620   5.699  1.1625  0.5495  0.7478
 8896SOL     OW38323   3.635   3.415  12.053 -0.1808  0.7709  0.0291
 8896SOL    HW138324   3.628   3.510  12.054 -0.1136  0.7795 -0.2565
 8896SOL    HW238325   3.558   3.389  12.002  0.0580  0.0765  0.0243
 8897SOL     OW38326   4.706   1.032   0.406 -0.2771 -0.3812 -0.0294
 8897SOL    HW138327   4.611   1.031   0.418 -0.2717  1.1818  0.1441
 8897SOL    HW238328   4.725   1.107   0.462  0.3128 -0.6806  0.1772
 8898SOL     OW38329   4.449   3.793   2.594 -0.4229 -0.3723  0.2596
 8898SOL    HW138330   4.391   3.860   2.629  1.4585  1.1085  0.5525
 8898SOL    HW238331   4.395   3.752   2.527 -0.9965 -1.4839  1.3968
 8899SOL     OW38332   0.176   2.299  16.920  0.0273  0.1766 -0.4974
 8899SOL    HW138333   0.090   2.274  16.953  1.6279 -2.5044  1.5730
 8899SOL    HW238334   0.213   2.212  16.912 -2.7262 -0.7650 -2.9725
 8900SOL     OW38335   0.076   0.423   9.899 -0.1619  0.0700  0.1786
 8900SOL    HW138336   0.039   0.510   9.885  2.5036  1.3676  1.3164
 8900SOL    HW238337   0.170   0.440   9.902  0.3331 -2.7205  0.6905
 8901SOL     OW38338   1.085   2.331   6.945  0.2162  0.5687 -0.2542
 8901SOL    HW138339   1.158   2.335   7.006 -0.1786  1.3075  0.1763
 8901SOL    HW238340   1.042   2.417   6.948  1.7551  1.3212  0.2963
 8902SOL     OW38341   1.594   2.143  15.534 -0.2376  0.2948 -0.3937
 8902SOL    HW138342   1.594   2.145  15.438  0.8486 -0.1345 -0.4118
 8902SOL    HW238343   1.504   2.150  15.563 -0.2603 -0.0639 -0.3782
 8903SOL     OW38344   2.873   0.281  16.455  0.1261  0.1926  0.3402
 8903SOL    HW138345   2.819   0.246  16.384  0.7242  0.2136 -0.1325
 8903SOL    HW238346   2.950   0.304  16.402 -0.5098 -1.6243 -1.3678
 8904SOL     OW38347   3.263   2.650   1.612 -0.1862 -0.3736  0.3556
 8904SOL    HW138348   3.234   2.741   1.622  0.2162 -0.0605 -1.3400
 8904SOL    HW238349   3.318   2.630   1.688  0.4184 -1.7777 -0.4561
 8905SOL     OW38350   1.431   0.507   3.842 -0.4805  0.1286  0.0278
 8905SOL    HW138351   1.514   0.532   3.881 -1.9360  1.7411  2.0907
 8905SOL    HW238352   1.453   0.551   3.759 -2.3308  2.2197  0.6258
 8906SOL     OW38353   4.574   2.764  13.734  0.1937 -0.2214  0.6028
 8906SOL    HW138354   4.624   2.734  13.810 -0.0520 -0.4495  0.6740
 8906SOL    HW238355   4.540   2.841  13.781 -0.1588 -0.0500  0.0612
 8907SOL     OW38356   2.701   0.353   8.595  0.1530 -0.1779 -0.1146
 8907SOL    HW138357   2.697   0.301   8.515  1.2856 -0.0752 -0.2324
 8907SOL    HW238358   2.780   0.321   8.640 -0.0794 -1.5072 -0.6395
 8908SOL     OW38359   0.167   1.637   5.693  0.3554  0.5377 -0.3544
 8908SOL    HW138360   0.116   1.637   5.613  2.5626 -0.0784 -1.7536
 8908SOL    HW238361   0.210   1.553   5.675 -0.3559 -0.0281  0.5499
 8909SOL     OW38362   3.265   3.787  15.268  0.2737 -0.6446  0.0617
 8909SOL    HW138363   3.285   3.703  15.308  0.4977  0.7889  2.9604
 8909SOL    HW238364   3.184   3.806  15.315 -0.9275 -2.2822 -1.3434
 8910SOL     OW38365   0.899   0.224  16.551  0.2728  0.5060  0.4296
 8910SOL    HW138366   0.926   0.166  16.480  0.3917  1.9234 -0.6702
 8910SOL    HW238367   0.803   0.216  16.548  0.3809  0.0694 -1.8827
 8911SOL     OW38368   3.572   4.109   6.560  0.4265  0.5802 -0.4970
 8911SOL    HW138369   3.506   4.039   6.560  1.5858 -0.5157 -0.5367
 8911SOL    HW238370   3.647   4.049   6.564 -0.3908 -0.4278 -0.4439
 8912SOL     OW38371   4.168   1.529   3.897 -0.0352  0.2511 -0.1051
 8912SOL    HW138372   4.122   1.601   3.855  0.2835  0.4168 -0.1718
 8912SOL    HW238373   4.099   1.492   3.952  0.9138 -3.7506 -1.5421
 8913SOL     OW38374   4.696   2.919   1.723 -0.2713  0.0617 -0.8710
 8913SOL    HW138375   0.015   2.839   1.724  1.1388  0.9940 -3.3252
 8913SOL    HW238376   4.615   2.899   1.677 -2.2325 -1.1642  3.0837
 8914SOL     OW38377   3.028   0.623   3.228  0.4324 -0.3040 -0.1815
 8914SOL    HW138378   2.978   0.577   3.160 -0.1957  0.6795 -0.3878
 8914SOL    HW238379   2.968   0.697   3.228  0.5584 -0.1943 -1.1603
 8915SOL     OW38380   0.372   1.269   5.221  0.1325 -0.4383  0.2919
 8915SOL    HW138381   0.291   1.231   5.256  0.3295 -0.2532  0.9545
 8915SOL    HW238382   0.409   1.317   5.296  0.0816  0.9106 -0.5524
 8916SOL     OW38383   1.821   0.592  13.292  0.0950 -0.2732 -0.1781
 8916SOL    HW138384   1.819   0.594  13.387  2.8309  2.4157 -0.1493
 8916SOL    HW238385   1.808   0.499  13.277 -1.6807  0.0232 -0.4381
 8917SOL     OW38386   0.038   3.687   2.419 -0.2921 -0.1507 -0.2529
 8917SOL    HW138387   4.690   3.658   2.380 -0.8597  1.5830 -0.3436
 8917SOL    HW238388   0.100   3.678   2.346  1.6810  1.5003  1.2414
 8918SOL     OW38389   4.003   1.767   1.638 -0.1359 -0.0067  0.6784
 8918SOL    HW138390   3.989   1.838   1.576 -1.1574 -1.4047 -0.7136
 8918SOL    HW238391   3.911   1.741   1.644  0.1677 -0.8891  1.5155
 8919SOL     OW38392   1.074   3.410   4.718  0.3385 -0.0659  0.3099
 8919SOL    HW138393   1.061   3.416   4.813  0.5023 -1.1511  0.3989
 8919SOL    HW238394   1.134   3.335   4.715 -0.1649 -0.4625  0.2423
 8920SOL     OW38395   2.796   2.162   9.218  0.1512  0.1488  0.0422
 8920SOL    HW138396   2.823   2.088   9.272 -1.8949  0.0624  0.9598
 8920SOL    HW238397   2.875   2.184   9.169  1.0711 -0.9385  1.0392
 8921SOL     OW38398   2.677   0.702   6.843  0.2701  0.0680  0.0082
 8921SOL    HW138399   2.643   0.634   6.902 -0.9643  0.2589 -0.5025
 8921SOL    HW238400   2.691   0.763   6.916 -1.8859  0.0836  0.4128
 8922SOL     OW38401   2.495   0.940  12.320 -0.1252 -0.0377  0.1233
 8922SOL    HW138402   2.537   1.010  12.369  2.3780 -0.3549 -1.5787
 8922SOL    HW238403   2.497   0.980  12.233 -0.1991 -0.4168 -0.0528
 8923SOL     OW38404   2.823   1.540   6.425 -0.2538 -0.1949 -0.3247
 8923SOL    HW138405   2.881   1.551   6.500  0.8784 -1.4679 -1.0214
 8923SOL    HW238406   2.876   1.508   6.352 -1.1864  1.5698 -1.7838
 8924SOL     OW38407   4.602   2.679   6.107  0.8069 -0.3778  0.0804
 8924SOL    HW138408   4.626   2.587   6.119  3.7767  0.2753 -0.6912
 8924SOL    HW238409   4.655   2.688   6.028  0.1719  3.6447  0.1018
 8925SOL     OW38410   0.432   3.942  10.053  0.1029 -0.1857  0.0653
 8925SOL    HW138411   0.419   4.027  10.095 -1.8192  1.2219 -3.3779
 8925SOL    HW238412   0.454   3.972   9.965  0.0302 -0.5536 -0.0786
 8926SOL     OW38413   1.875   1.030   1.398 -0.4464  0.2722  0.3551
 8926SOL    HW138414   1.970   1.019   1.391 -0.3940  0.3862  0.9186
 8926SOL    HW238415   1.868   1.103   1.337 -0.9664 -0.3336 -0.3179
 8927SOL     OW38416   2.673   2.303   7.915  0.0079 -0.0247  0.2789
 8927SOL    HW138417   2.588   2.260   7.911 -0.0420  0.1512 -0.5075
 8927SOL    HW238418   2.730   2.227   7.909 -2.3613 -1.6741 -1.2883
 8928SOL     OW38419   0.357   4.257   2.551  0.5722 -0.0689  0.2307
 8928SOL    HW138420   0.382   4.190   2.488 -1.8225  0.5129 -1.3220
 8928SOL    HW238421   0.441   4.285   2.587  1.4020  0.1764 -1.8974
 8929SOL     OW38422   1.768   3.956   3.258 -0.6646 -0.0656  0.1307
 8929SOL    HW138423   1.806   3.868   3.254  2.7262  1.4009  0.4743
 8929SOL    HW238424   1.814   3.995   3.183 -0.3472 -2.9812 -1.2009
 8930SOL     OW38425   3.188   0.364   9.091 -0.3056 -0.5200 -0.4382
 8930SOL    HW138426   3.236   0.380   9.010  0.3753 -1.4194 -0.2165
 8930SOL    HW238427   3.137   0.444   9.101 -0.3804 -0.6417  0.1638
 8931SOL     OW38428   4.542   0.669   2.945 -0.7540 -0.3962  0.1293
 8931SOL    HW138429   4.578   0.584   2.972  3.5488  2.0314  1.9816
 8931SOL    HW238430   4.470   0.679   3.007  2.0783 -1.2383  3.5429
 8932SOL     OW38431   0.836   2.132   4.656  0.3313 -0.0673 -1.0208
 8932SOL    HW138432   0.746   2.106   4.640  0.4041 -1.1850  0.3882
 8932SOL    HW238433   0.838   2.219   4.617  1.2250  0.3866  0.0211
 8933SOL     OW38434   3.667   4.063   0.126  0.9029 -0.0641 -0.5279
 8933SOL    HW138435   3.681   3.976   0.164 -0.1435 -0.4342 -0.9786
 8933SOL    HW238436   3.751   4.083   0.084  0.2428 -0.2145 -1.9158
 8934SOL     OW38437   2.596   4.536   2.962 -0.0675  0.4066 -0.9484
 8934SOL    HW138438   2.641   4.480   3.024  0.1736  1.9313  0.2652
 8934SOL    HW238439   2.571   4.473   2.895 -2.5413 -0.8646  1.1813
 8935SOL     OW38440   0.865   4.459   4.652 -0.2553 -0.0838 -0.2796
 8935SOL    HW138441   0.944   4.406   4.645  0.6407  1.0062  1.8759
 8935SOL    HW238442   0.792   4.408   4.689 -0.9243  1.3167  0.3505
 8936SOL     OW38443   0.626   0.972   8.235  0.1215  0.4862  0.3325
 8936SOL    HW138444   0.634   0.878   8.251  0.2305  0.2557 -1.0499
 8936SOL    HW238445   0.621   0.974   8.140 -1.3128  3.4468  0.4795
 8937SOL     OW38446   3.737   4.180   2.161  0.2589  0.6720 -0.3886
 8937SOL    HW138447   3.682   4.204   2.087  1.0876  4.0513  0.0872
 8937SOL    HW238448   3.820   4.195   2.117  0.6096  1.5153  0.5536
 8938SOL     OW38449   3.781   0.705   8.658  0.1761  0.1470 -0.6582
 8938SOL    HW138450   3.749   0.763   8.727  2.3836  0.0619  0.4404
 8938SOL    HW238451   3.704   0.684   8.606 -0.7328 -0.8424  1.0677
 8939SOL     OW38452   3.373   4.470   4.395  0.3540 -0.5256  0.0671
 8939SOL    HW138453   3.344   4.416   4.469  0.2857 -0.1388  0.3270
 8939SOL    HW238454   3.453   4.492   4.443  0.4242  3.6526 -1.9304
 8940SOL     OW38455   4.142   4.644   2.494  0.2231  0.0521  0.5521
 8940SOL    HW138456   4.201   4.698   2.547 -0.0703  1.2256 -0.3028
 8940SOL    HW238457   4.105   4.590   2.564  1.1259 -0.8606  0.3177
 8941SOL     OW38458   3.626   3.072   8.101  0.4821  0.0300 -0.3090
 8941SOL    HW138459   3.662   3.132   8.035  0.4668  1.8857  1.3613
 8941SOL    HW238460   3.707   3.032   8.133 -0.8242 -1.9914  0.4706
 8942SOL     OW38461   1.138   4.150   3.315  0.6909 -0.5969  0.0503
 8942SOL    HW138462   1.049   4.177   3.337  1.2287  0.1048  1.3734
 8942SOL    HW238463   1.171   4.146   3.405 -0.1296  2.0611  0.4640
 8943SOL     OW38464   1.879   1.732   4.002  0.0648  0.3234 -0.0327
 8943SOL    HW138465   1.793   1.689   4.007  0.2173  0.2474  1.7556
 8943SOL    HW238466   1.862   1.799   4.068  0.1992  0.7877 -0.4640
 8944SOL     OW38467   0.473   1.840   2.641 -0.1699  0.4899  0.0388
 8944SOL    HW138468   0.545   1.849   2.703 -1.0653  0.6729  1.0720
 8944SOL    HW238469   0.469   1.744   2.639  1.7683  0.4949 -2.6575
 8945SOL     OW38470   0.813   0.113   2.625 -0.1772 -0.1323 -0.7493
 8945SOL    HW138471   0.807   0.044   2.691  0.0990 -1.0757 -1.7181
 8945SOL    HW238472   0.724   0.146   2.613 -0.1375  0.2476 -0.0166
 8946SOL     OW38473   3.652   3.626   5.946  0.0535  0.0424  0.2153
 8946SOL    HW138474   3.557   3.616   5.937 -0.1749  4.0437 -1.8469
 8946SOL    HW238475   3.676   3.533   5.947 -2.7370 -0.6658  0.0696
 8947SOL     OW38476   3.614   1.914   6.557 -0.3951  0.2599 -0.3173
 8947SOL    HW138477   3.591   2.000   6.593 -0.9897  0.2033 -0.5588
 8947SOL    HW238478   3.615   1.856   6.633  0.0076  0.3627 -0.2429
 8948SOL     OW38479   1.226   2.759   8.513  0.1996  0.6170 -0.1274
 8948SOL    HW138480   1.309   2.740   8.470  1.0903 -1.2497  2.4259
 8948SOL    HW238481   1.248   2.820   8.583  2.9968 -2.1215  1.3302
 8949SOL     OW38482   0.392   2.133  16.978 -0.2148 -0.1369  0.2112
 8949SOL    HW138483   0.357   2.178  17.055 -0.7719  1.3743 -0.9171
 8949SOL    HW238484   0.353   2.046  16.982 -1.3934  0.4118  0.6018
 8950SOL     OW38485   0.180   0.283  17.109 -0.1730  0.1828 -0.0545
 8950SOL    HW138486   0.176   0.211  17.172  0.1423  1.0613  0.9718
 8950SOL    HW238487   0.090   0.280  17.076 -0.0498 -0.0209 -0.3633
 8951SOL     OW38488   3.562   2.364   7.033 -0.0370 -0.1907 -0.3242
 8951SOL    HW138489   3.601   2.279   7.015  1.1850 -0.6244  4.2179
 8951SOL    HW238490   3.497   2.340   7.099  2.7231 -2.5330  1.5214
 8952SOL     OW38491   2.397   4.541   3.863  0.1227 -0.0431 -0.0580
 8952SOL    HW138492   2.457   4.588   3.921 -1.3265 -0.5911  1.8591
 8952SOL    HW238493   2.422   4.449   3.861  0.3350 -0.0009  1.0686
 8953SOL     OW38494   3.264   3.581   3.095  0.1531 -0.0273 -0.0766
 8953SOL    HW138495   3.224   3.620   3.017 -0.3009 -1.4190 -0.5355
 8953SOL    HW238496   3.231   3.647   3.155  0.9744 -0.1011  0.4607
 8954SOL     OW38497   2.065   3.642  13.695  0.2884  0.8605 -0.4157
 8954SOL    HW138498   2.059   3.573  13.761 -1.4016  1.0935 -0.3224
 8954SOL    HW238499   2.090   3.598  13.613 -0.7782  2.6652 -1.7136
 8955SOL     OW38500   0.914   4.457   6.900  0.0154  0.1700  0.1658
 8955SOL    HW138501   0.938   4.507   6.978 -2.1334  3.9095 -1.5647
 8955SOL    HW238502   0.992   4.427   6.855  1.2841  2.7736  0.6336
 8956SOL     OW38503   4.351   3.094   4.455 -0.4399 -0.0459  0.0695
 8956SOL    HW138504   4.416   3.158   4.486  1.7316 -2.1743 -0.0952
 8956SOL    HW238505   4.324   3.121   4.368 -1.6266 -0.0725  0.4338
 8957SOL     OW38506   3.167   2.655   2.707  0.5186 -0.7594  0.3108
 8957SOL    HW138507   3.183   2.633   2.799 -1.6754  1.3021  1.1804
 8957SOL    HW238508   3.255   2.674   2.674  1.1531 -0.1616  2.3246
 8958SOL     OW38509   3.661   0.463  10.659  0.5633  0.2022  0.0948
 8958SOL    HW138510   3.653   0.548  10.701 -0.5456 -0.2486  0.7948
 8958SOL    HW238511   3.686   0.478  10.568  1.1279  0.2847  0.2643
 8959SOL     OW38512   0.392   4.611   3.430  0.0309 -0.3376 -0.1643
 8959SOL    HW138513   0.323   4.566   3.478 -1.9188  2.8802  0.0699
 8959SOL    HW238514   0.337   4.683   3.398 -0.9825 -0.9129  0.2693
 8960SOL     OW38515   1.489   1.324  16.702 -0.0346 -0.4313  0.6648
 8960SOL    HW138516   1.574   1.304  16.662  0.1147  0.1645  0.6723
 8960SOL    HW238517   1.425   1.304  16.634  1.6618 -0.9328 -0.7730
 8961SOL     OW38518   0.953   0.531   0.850  0.2880  0.0651 -0.3751
 8961SOL    HW138519   1.031   0.586   0.858 -0.4244  0.6615  2.6436
 8961SOL    HW238520   0.874   0.586   0.855 -1.4619 -2.5804  1.1408
 8962SOL     OW38521   3.587   3.987   9.307 -0.5964  0.3170  0.2265
 8962SOL    HW138522   3.633   3.940   9.237 -0.6306 -0.3845  0.6771
 8962SOL    HW238523   3.532   3.914   9.333  0.2356 -1.2434 -2.3588
 8963SOL     OW38524   1.137   4.341   5.398 -0.4478 -0.3889  0.1641
 8963SOL    HW138525   1.133   4.373   5.488 -0.5012 -1.1983  0.4447
 8963SOL    HW238526   1.048   4.307   5.392 -0.7473  0.1519  1.5851
 8964SOL     OW38527   1.956   0.559   3.578  0.0448  0.3656  0.5479
 8964SOL    HW138528   2.038   0.532   3.620  0.1910 -2.1719 -1.3334
 8964SOL    HW238529   1.999   0.629   3.528 -1.4321  3.2486  3.3324
 8965SOL     OW38530   4.264   2.716   9.127 -0.0486 -0.1974 -0.0802
 8965SOL    HW138531   4.183   2.698   9.175  1.2410 -1.0459  1.8113
 8965SOL    HW238532   4.331   2.675   9.182  0.1603 -0.4092 -0.4959
 8966SOL     OW38533   1.017   1.700  13.060  0.3836  0.3750  0.1564
 8966SOL    HW138534   1.093   1.642  13.061 -1.2949 -1.8455 -2.8227
 8966SOL    HW238535   1.016   1.748  13.143 -0.1797  0.7139 -0.0541
 8967SOL     OW38536   3.015   3.452   1.914  0.0306  0.0596 -0.6275
 8967SOL    HW138537   3.070   3.506   1.858 -1.2974  1.2063 -0.8155
 8967SOL    HW238538   3.023   3.376   1.856 -0.6343 -0.7179  0.2933
 8968SOL     OW38539   3.527   3.657   4.056 -0.0111 -0.2266  0.1171
 8968SOL    HW138540   3.446   3.669   4.105  0.9853  0.9286  1.5080
 8968SOL    HW238541   3.559   3.581   4.105 -0.7257 -0.8862 -0.4599
 8969SOL     OW38542   4.594   3.663   7.462  0.3838  0.0594  0.4449
 8969SOL    HW138543   4.590   3.669   7.367 -1.2964 -1.1086  0.4505
 8969SOL    HW238544   4.690   3.664   7.471  0.3617  3.0656  0.4282
 8970SOL     OW38545   0.749   1.811  13.034 -0.4662 -0.4406  0.2696
 8970SOL    HW138546   0.663   1.786  13.000 -1.3863  0.9220  1.6199
 8970SOL    HW238547   0.807   1.749  12.990 -1.4796 -1.6490  0.6651
 8971SOL     OW38548   4.563   2.070   4.694  0.2092  0.8908  0.7027
 8971SOL    HW138549   4.528   2.058   4.782  0.0466  0.2696  0.5548
 8971SOL    HW238550   4.505   2.017   4.640  1.2180  0.8083 -0.3163
 8972SOL     OW38551   3.593   3.956   2.235  0.1119  0.8800  0.0879
 8972SOL    HW138552   3.546   3.986   2.313  0.1107  1.2751 -0.0662
 8972SOL    HW238553   3.660   4.022   2.216 -0.0557  1.3034  0.9340
 8973SOL     OW38554   1.536   3.886   4.760 -0.1566  0.0762  0.3744
 8973SOL    HW138555   1.476   3.812   4.748  0.5198 -0.1687 -1.4588
 8973SOL    HW238556   1.547   3.890   4.855  0.9373 -0.5077  0.2624
 8974SOL     OW38557   1.186   1.771  17.245  0.2879 -0.4364  0.1315
 8974SOL    HW138558   1.130   1.819  17.184  0.4647 -0.0028  0.3143
 8974SOL    HW238559   1.248   1.725  17.188  0.3458  0.4841 -0.5551
 8975SOL     OW38560   2.659   4.532   2.482  0.5994 -0.2537 -0.0648
 8975SOL    HW138561   2.710   4.546   2.561  3.2738 -0.6068 -1.7260
 8975SOL    HW238562   2.632   4.441   2.486  0.9370 -0.4255 -1.5644
 8976SOL     OW38563   0.045   0.370  12.985  0.1126  0.0346 -0.1218
 8976SOL    HW138564   0.002   0.394  12.903 -3.9499 -1.5049  1.5334
 8976SOL    HW238565   0.100   0.299  12.950 -0.4609 -0.4851  0.0423
 8977SOL     OW38566   3.219   0.695  17.303 -0.4708  0.2081  0.1047
 8977SOL    HW138567   3.239   0.767  17.363 -0.3016 -0.8472  1.3184
 8977SOL    HW238568   3.129   0.683  17.333  0.2852  0.5861  2.5452
 8978SOL     OW38569   4.619   1.233  15.139  0.2572 -0.0810 -0.3733
 8978SOL    HW138570   4.627   1.190  15.224  1.7773  1.9502  0.5083
 8978SOL    HW238571   4.535   1.208  15.100  0.2305  0.6569 -0.7902
 8979SOL     OW38572   3.288   2.739  14.674  0.4395  0.1159 -0.6276
 8979SOL    HW138573   3.365   2.794  14.692  0.0646  0.6296 -0.6022
 8979SOL    HW238574   3.222   2.788  14.723  1.0821  2.1923 -1.8415
 8980SOL     OW38575   1.206   2.740  15.186 -0.0082 -0.0593 -0.4041
 8980SOL    HW138576   1.213   2.703  15.098 -0.8109 -0.2549 -0.3852
 8980SOL    HW238577   1.153   2.671  15.226 -2.1598  1.6030 -0.4047
 8981SOL     OW38578   4.550   4.315   8.752 -0.0014  0.4102  0.1434
 8981SOL    HW138579   4.588   4.247   8.697  2.0378  1.6141  0.0811
 8981SOL    HW238580   4.556   4.277   8.840  0.9828  0.5133  0.1192
 8982SOL     OW38581   2.294   0.023   3.682 -0.4724 -0.4289 -0.0501
 8982SOL    HW138582   2.334   4.676   3.710  3.9270  1.4651 -0.9102
 8982SOL    HW238583   2.282   0.065   3.767  0.2070  1.6435 -0.9853
 8983SOL     OW38584   0.058   3.115   2.725  0.1474  0.1208 -0.1890
 8983SOL    HW138585   0.097   3.194   2.688 -0.5998  0.5521 -0.0468
 8983SOL    HW238586   0.080   3.056   2.654 -0.4749 -0.7635  0.3512
 8984SOL     OW38587   0.469   4.652   2.571 -0.0617 -0.3635  0.4861
 8984SOL    HW138588   0.474   4.618   2.482  5.0801  2.7982 -0.4472
 8984SOL    HW238589   0.389   4.703   2.561 -0.6839 -1.3846  0.1959
 8985SOL     OW38590   1.427   2.218   3.720 -0.1580  1.0146 -1.0013
 8985SOL    HW138591   1.393   2.220   3.809  0.6279 -1.7161 -0.6208
 8985SOL    HW238592   1.358   2.175   3.669 -0.3105 -0.7129  0.6617
 8986SOL     OW38593   0.052   2.808   7.262 -0.4999 -0.2679 -0.2613
 8986SOL    HW138594   0.008   2.723   7.271 -1.0035  0.0961  0.6677
 8986SOL    HW238595   0.124   2.787   7.321 -1.4453 -0.1449  0.9341
 8987SOL     OW38596   1.625   0.829   0.785  0.2108  0.4888 -0.5749
 8987SOL    HW138597   1.614   0.870   0.700  1.3021 -2.2426 -2.0568
 8987SOL    HW238598   1.688   0.761   0.760 -0.6339 -0.1461 -0.9794
 8988SOL     OW38599   2.735   3.854   4.006  0.6098 -0.1962  0.0836
 8988SOL    HW138600   2.751   3.760   3.997  1.5455 -0.0521  0.2436
 8988SOL    HW238601   2.725   3.880   3.915  1.7831 -1.0888 -0.2963
 8989SOL     OW38602   2.605   0.904  15.810 -0.0095 -0.3376  0.3420
 8989SOL    HW138603   2.532   0.962  15.830  1.0567  0.2444  2.5998
 8989SOL    HW238604   2.586   0.878  15.720  0.6942 -0.3366  0.1912
 8990SOL     OW38605   1.929   3.216   7.522  0.0989 -0.4882  0.7589
 8990SOL    HW138606   1.920   3.134   7.474 -2.2306  0.5880 -0.7058
 8990SOL    HW238607   2.016   3.246   7.496 -1.1264  1.7045 -0.9324
 8991SOL     OW38608   4.450   2.173  12.127 -0.0347 -0.2075 -0.2350
 8991SOL    HW138609   4.531   2.143  12.087 -0.3216 -0.8332 -0.3533
 8991SOL    HW238610   4.477   2.228  12.200 -1.6739  0.1199  0.1184
 8992SOL     OW38611   0.611   2.192   9.494 -0.4798 -0.3237  0.2440
 8992SOL    HW138612   0.597   2.280   9.528 -1.4298 -0.6505  0.6781
 8992SOL    HW238613   0.677   2.221   9.431 -1.5602  1.4038 -0.0769
 8993SOL     OW38614   2.089   3.935   4.342 -0.3441  0.1630  0.0838
 8993SOL    HW138615   1.997   3.918   4.361 -0.4876 -1.2721 -1.8171
 8993SOL    HW238616   2.081   4.030   4.345 -1.8380  0.0869 -1.6152
 8994SOL     OW38617   2.074   2.541   3.754  0.4240 -0.3740  0.4221
 8994SOL    HW138618   2.032   2.468   3.800  1.1587  0.2131  2.0408
 8994SOL    HW238619   2.163   2.508   3.744  0.7430  0.3525  0.8408
 8995SOL     OW38620   1.738   2.301   5.094  0.2025 -0.1245 -0.1284
 8995SOL    HW138621   1.682   2.372   5.064  0.0916 -0.1431  0.0326
 8995SOL    HW238622   1.794   2.348   5.156 -0.9263  2.2815 -0.9660
 8996SOL     OW38623   0.247   1.827   2.306 -0.3306  0.5693  0.0042
 8996SOL    HW138624   0.238   1.920   2.286  1.5273  0.7557  0.0619
 8996SOL    HW238625   0.245   1.840   2.401 -0.0330 -1.5294  0.3037
 8997SOL     OW38626   4.620   0.196  13.667  0.7228  0.1089  0.3726
 8997SOL    HW138627   4.536   0.230  13.697  0.4565  1.4599 -1.8583
 8997SOL    HW238628   4.622   0.230  13.577 -1.1029 -1.8307 -0.3923
 8998SOL     OW38629   0.752   2.913   2.255 -0.2098 -0.1073  0.1604
 8998SOL    HW138630   0.759   2.944   2.165  1.7521 -0.7308  0.1014
 8998SOL    HW238631   0.840   2.945   2.276 -0.8597  0.9214  1.3168
 8999SOL     OW38632   0.738   4.286   0.515 -0.3039 -0.0088  0.4182
 8999SOL    HW138633   0.684   4.241   0.450 -0.7543  2.5271 -0.9727
 8999SOL    HW238634   0.664   4.316   0.569 -0.6008 -0.3476  0.1970
 9000SOL     OW38635   3.121   3.345   3.162  0.3254  0.0836 -0.2118
 9000SOL    HW138636   3.143   3.433   3.133 -4.5666  1.0482 -1.1216
 9000SOL    HW238637   3.163   3.290   3.096  0.1239  0.0954 -0.3515
 9001SOL     OW38638   3.879   3.723   8.222  0.6373  0.0568  0.4074
 9001SOL    HW138639   3.900   3.792   8.159  2.0886 -0.9747 -0.2340
 9001SOL    HW238640   3.830   3.660   8.169 -0.0890  1.9264 -1.1245
 9002SOL     OW38641   0.259   4.470  12.933  0.2593  0.0703  0.2450
 9002SOL    HW138642   0.349   4.439  12.922 -0.0031 -0.3395 -0.7724
 9002SOL    HW238643   0.281   4.546  12.987 -2.7819  2.1298 -1.4357
 9003SOL     OW38644   2.786   2.734   2.164 -0.7213  0.8248  0.8190
 9003SOL    HW138645   2.697   2.709   2.140  0.1284 -1.0383 -0.4411
 9003SOL    HW238646   2.807   2.680   2.240 -2.3376  1.1946  1.5161
 9004SOL     OW38647   0.528   2.265   1.046  0.0909  0.0487 -0.4194
 9004SOL    HW138648   0.546   2.219   1.128 -1.3378  0.7853  0.3122
 9004SOL    HW238649   0.610   2.251   1.000  0.5287 -0.0737  0.4102
 9005SOL     OW38650   3.996   4.478  12.702 -0.2891  0.3642 -0.1316
 9005SOL    HW138651   4.007   4.416  12.630  0.7512  0.4099  0.0003
 9005SOL    HW238652   4.048   4.555  12.682  1.2423 -1.3375 -2.6616
 9006SOL     OW38653   1.596   2.687   3.032  0.0053  0.2056 -0.0673
 9006SOL    HW138654   1.511   2.731   3.031 -0.7026 -1.0582  3.7336
 9006SOL    HW238655   1.618   2.712   2.943  0.5253  3.0312  0.8561
 9007SOL     OW38656   4.044   2.861   8.456 -0.5739 -0.1866  0.0608
 9007SOL    HW138657   4.004   2.785   8.499  0.5469 -0.6478  0.2961
 9007SOL    HW238658   4.054   2.833   8.365  0.9290 -2.1351  0.8171
 9008SOL     OW38659   2.435   1.656   2.585  0.3884 -0.1301  0.3633
 9008SOL    HW138660   2.523   1.685   2.560  1.2402  0.2090  3.7028
 9008SOL    HW238661   2.416   1.614   2.501  2.2424  0.1319 -0.1996
 9009SOL     OW38662   4.635   2.491   0.624  0.3551  1.0276 -0.0488
 9009SOL    HW138663   4.565   2.426   0.620  2.0360 -0.8382  0.9140
 9009SOL    HW238664   4.699   2.440   0.674 -0.2712  0.5162  0.2314
 9010SOL     OW38665   3.234   2.075   6.365 -0.3788  0.5966  0.0776
 9010SOL    HW138666   3.242   1.980   6.370 -0.4416  0.7486  2.8113
 9010SOL    HW238667   3.161   2.093   6.425  0.4044  4.2358 -0.0673
 9011SOL     OW38668   3.321   0.238  17.267  0.2838 -1.2848  0.6178
 9011SOL    HW138669   3.313   0.324  17.307 -0.9581 -1.3245  0.4377
 9011SOL    HW238670   3.283   0.193  17.342  2.3547 -2.1005  1.2012
 9012SOL     OW38671   3.384   2.832   7.841  0.2250 -0.5420  0.0290
 9012SOL    HW138672   3.333   2.913   7.842 -1.0390 -1.3730  1.6691
 9012SOL    HW238673   3.340   2.790   7.768 -1.3473 -0.7060  1.0703
 9013SOL     OW38674   0.314   1.024   3.893 -0.2779 -0.3811 -0.2671
 9013SOL    HW138675   0.294   0.947   3.839 -2.7906  1.2558 -1.6685
 9013SOL    HW238676   0.261   1.089   3.848  0.3361 -0.6137 -1.3446
 9014SOL     OW38677   4.067   2.885   7.082  0.2695 -0.0025  0.1853
 9014SOL    HW138678   4.160   2.884   7.058 -0.1621  1.8755 -1.5209
 9014SOL    HW238679   4.057   2.793   7.108  0.8181  0.5234  2.2757
 9015SOL     OW38680   1.938   0.655  11.638 -0.3200 -0.8181 -0.6417
 9015SOL    HW138681   1.995   0.729  11.621 -2.6607  1.7439  2.9092
 9015SOL    HW238682   1.897   0.667  11.723  0.8637  1.9682 -0.4741
 9016SOL     OW38683   4.385   2.921   7.927 -0.0602 -0.2211 -1.0843
 9016SOL    HW138684   4.435   2.853   7.881 -0.9083 -1.5060 -0.1178
 9016SOL    HW238685   4.437   2.991   7.888 -1.5521  1.5233  0.1367
 9017SOL     OW38686   3.555   1.022   9.166  0.1146 -0.2162  0.2654
 9017SOL    HW138687   3.468   1.051   9.193  1.1237  1.7763  1.4288
 9017SOL    HW238688   3.539   0.928   9.170  0.3864 -0.3304 -1.4548
 9018SOL     OW38689   4.051   1.738  13.603  0.1864  0.0348  0.1873
 9018SOL    HW138690   4.018   1.783  13.526  1.7278  1.3787  0.2879
 9018SOL    HW238691   4.145   1.747  13.589  0.5637 -1.4853  1.7899
 9019SOL     OW38692   4.345   3.300  13.463  0.2734  0.8619  0.0133
 9019SOL    HW138693   4.334   3.367  13.395 -0.2475  1.0017  0.2306
 9019SOL    HW238694   4.303   3.220  13.431 -1.1096  1.7752 -0.4690
 9020SOL     OW38695   0.985   4.440  16.295  0.6360  0.3554  0.2615
 9020SOL    HW138696   0.947   4.376  16.356 -0.9819  0.4810 -0.6088
 9020SOL    HW238697   0.960   4.400  16.212  1.1220 -0.4047  0.4780
 9021SOL     OW38698   2.963   1.105   1.975 -0.1101 -0.8964  0.4353
 9021SOL    HW138699   3.056   1.083   1.967  0.0989 -0.3044  1.2412
 9021SOL    HW238700   2.971   1.183   2.030 -2.4885 -1.0516  0.9985
 9022SOL     OW38701   2.919   1.023   7.793 -0.3941  0.2142  0.0033
 9022SOL    HW138702   3.001   0.994   7.755 -0.7525 -0.8454  0.0255
 9022SOL    HW238703   2.933   1.002   7.885 -2.7888 -1.5170  0.0022
 9023SOL     OW38704   3.264   4.094  11.371 -0.0199 -0.6505  0.0472
 9023SOL    HW138705   3.280   4.162  11.437 -2.1442 -1.1591  1.0719
 9023SOL    HW238706   3.326   4.125  11.306  0.7728 -3.3953 -0.5177
 9024SOL     OW38707   3.086   1.801   7.000 -0.6324  0.2328  0.6256
 9024SOL    HW138708   3.111   1.817   7.091  0.3257 -1.4927  0.6704
 9024SOL    HW238709   2.997   1.764   7.005  0.8205 -3.3010  0.6916
 9025SOL     OW38710   1.422   2.448   8.595  0.4325 -0.4207  0.2742
 9025SOL    HW138711   1.396   2.523   8.541  2.9107  0.0967 -0.1910
 9025SOL    HW238712   1.502   2.484   8.633  0.6062  0.9246 -1.3733
 9026SOL     OW38713   3.733   4.597  11.464 -0.3310 -0.1168  0.2553
 9026SOL    HW138714   3.745   4.692  11.465  2.0947 -0.4047 -0.3270
 9026SOL    HW238715   3.742   4.574  11.556 -1.6543 -0.6085  0.2568
 9027SOL     OW38716   1.051   1.482  16.660  0.0104 -0.2753 -0.0661
 9027SOL    HW138717   0.985   1.550  16.674 -0.2932  0.0054 -2.7497
 9027SOL    HW238718   1.019   1.405  16.707 -0.5017  1.1517  1.9131
 9028SOL     OW38719   3.172   1.819   8.016  0.1054  0.0902 -0.0963
 9028SOL    HW138720   3.234   1.750   7.991  1.1279  1.1073 -0.3600
 9028SOL    HW238721   3.219   1.879   8.073  2.1820 -0.1028 -1.6097
 9029SOL     OW38722   3.160   4.628   4.923 -0.2843 -0.2564 -0.4898
 9029SOL    HW138723   3.147   4.715   4.961 -1.2061 -0.6633  0.1211
 9029SOL    HW238724   3.137   4.651   4.833  2.2866  2.5724 -0.4254
 9030SOL     OW38725   1.531   4.022  16.542  0.4018 -0.3984  0.0780
 9030SOL    HW138726   1.591   4.090  16.511 -0.1465  0.1081  0.1224
 9030SOL    HW238727   1.446   4.063  16.557  0.4899 -0.5424  0.9694
 9031SOL     OW38728   3.512   2.624   2.806 -0.2443  0.6595  0.1342
 9031SOL    HW138729   3.542   2.553   2.749  1.5361  2.3107 -0.9974
 9031SOL    HW238730   3.430   2.587   2.836 -0.3579  0.3640 -0.5354
 9032SOL     OW38731   0.833   3.787   4.502  0.2470 -0.3107 -0.3274
 9032SOL    HW138732   0.906   3.726   4.512  1.7229  1.3116 -1.2094
 9032SOL    HW238733   0.880   3.866   4.476 -0.7133  0.5118  0.3873
 9033SOL     OW38734   4.194   3.229   9.016 -0.0430 -0.1746 -0.6451
 9033SOL    HW138735   4.105   3.204   9.043 -0.4677  0.1772 -1.7238
 9033SOL    HW238736   4.237   3.147   8.993 -0.4452 -0.4871 -0.2857
 9034SOL     OW38737   0.968   1.366  15.884  0.0745 -0.2097 -0.2287
 9034SOL    HW138738   0.995   1.373  15.976 -1.1272 -0.6883  0.1574
 9034SOL    HW238739   0.909   1.441  15.875  1.6811  0.9883 -0.8232
 9035SOL     OW38740   0.290   3.029   7.267 -0.5893  0.0028 -0.4446
 9035SOL    HW138741   0.281   2.933   7.267 -3.0036  0.2222  0.3659
 9035SOL    HW238742   0.223   3.037   7.199 -0.8919 -0.9190 -0.2649
 9036SOL     OW38743   0.610   0.296   2.860  0.3452  0.1006  0.2868
 9036SOL    HW138744   0.676   0.277   2.927 -0.4092  0.0062  1.0004
 9036SOL    HW238745   0.643   0.280   2.771 -2.0837  0.0931 -0.6242
 9037SOL     OW38746   0.681   1.927   8.599  0.5409  0.1599 -0.5372
 9037SOL    HW138747   0.691   1.839   8.635  1.1222  0.7465  0.7658
 9037SOL    HW238748   0.604   1.942   8.654  0.8027  0.5876 -0.2897
 9038SOL     OW38749   3.932   1.226   8.376  0.2518  0.2409 -0.2229
 9038SOL    HW138750   3.859   1.262   8.426 -0.7565 -1.1509 -0.6829
 9038SOL    HW238751   3.874   1.192   8.309 -0.1019  2.2192 -0.8985
 9039SOL     OW38752   0.408   4.561   8.646 -0.0412 -0.4775 -0.0157
 9039SOL    HW138753   0.390   4.604   8.563 -2.0297 -1.4506 -0.1024
 9039SOL    HW238754   0.458   4.485   8.617 -0.9984 -1.5803  1.1931
 9040SOL     OW38755   2.083   1.793   9.045 -0.6396 -0.1333  0.2490
 9040SOL    HW138756   2.150   1.740   9.089 -0.2520  0.5297  0.4562
 9040SOL    HW238757   2.001   1.788   9.094  0.1381 -0.5253  1.5098
 9041SOL     OW38758   3.331   4.369   1.945  0.4980  0.1834  0.7662
 9041SOL    HW138759   3.419   4.331   1.953  0.7839  1.3373  3.2510
 9041SOL    HW238760   3.345   4.463   1.956 -0.1579  0.6633 -2.5891
 9042SOL     OW38761   3.519   1.070  12.569  0.0620  0.4698  0.0241
 9042SOL    HW138762   3.463   1.146  12.579 -1.4786 -0.9042  1.9755
 9042SOL    HW238763   3.481   1.026  12.645  0.8157  1.7204  1.1104
 9043SOL     OW38764   0.852   3.143   2.985  0.3031  0.6114 -0.1711
 9043SOL    HW138765   0.909   3.107   2.918 -0.5925  0.9102 -1.0852
 9043SOL    HW238766   0.796   3.065   2.987 -1.0588  1.5914  0.1669
 9044SOL     OW38767   3.119   0.912   4.560  0.1158  0.0099 -0.7018
 9044SOL    HW138768   3.176   0.988   4.573 -1.9620  1.4796 -0.2671
 9044SOL    HW238769   3.073   0.908   4.644  0.6992 -1.2871 -0.4436
 9045SOL     OW38770   1.378   0.557  17.566  0.0769 -0.2823  0.0281
 9045SOL    HW138771   1.314   0.486  17.560 -1.7109  1.0900  3.1834
 9045SOL    HW238772   1.327   0.623  17.612 -0.7862 -0.6974 -0.3309
 9046SOL     OW38773   4.315   1.764  13.518 -0.4337 -0.1043  0.6083
 9046SOL    HW138774   4.361   1.769  13.434 -0.1577 -0.5255  0.7315
 9046SOL    HW238775   4.382   1.805  13.573  0.6719 -2.5429  1.0968
 9047SOL     OW38776   3.218   4.162  14.828  0.2433 -0.1416 -0.6300
 9047SOL    HW138777   3.183   4.167  14.738 -1.9277  0.5315  0.2490
 9047SOL    HW238778   3.297   4.110  14.812  0.0046 -1.0733  1.2281
 9048SOL     OW38779   2.796   3.609  14.751  0.3437 -0.2512  0.3341
 9048SOL    HW138780   2.730   3.549  14.717 -2.2143  2.4414  0.6193
 9048SOL    HW238781   2.878   3.560  14.742  0.4177  0.1481 -1.0073
 9049SOL     OW38782   2.749   2.231   4.932 -0.4804 -0.3482  0.1909
 9049SOL    HW138783   2.668   2.269   4.966  0.4171  0.4181  1.4674
 9049SOL    HW238784   2.811   2.277   4.988 -0.7852 -0.2751  0.4711
 9050SOL     OW38785   0.498   0.211  15.685 -0.1467  0.0590  0.2540
 9050SOL    HW138786   0.495   0.126  15.729 -2.3861  0.2588  0.4666
 9050SOL    HW238787   0.466   0.276  15.748 -3.2824  0.0584 -1.3617
 9051SOL     OW38788   3.107   4.214  10.436  0.1352 -0.0987 -0.3683
 9051SOL    HW138789   3.092   4.218  10.342  2.0931 -2.7103 -0.7992
 9051SOL    HW238790   3.200   4.189  10.439  0.2643  0.5364  0.9342
 9052SOL     OW38791   1.259   3.087  15.162  0.1704  0.0185  0.5570
 9052SOL    HW138792   1.265   3.134  15.079 -4.6328  2.4919  1.6303
 9052SOL    HW238793   1.313   3.145  15.217 -0.7213 -0.1545  1.6028
 9053SOL     OW38794   0.863   0.270   5.057 -0.5838  0.3975 -0.2490
 9053SOL    HW138795   0.856   0.194   5.115  0.2266  0.6100  0.1325
 9053SOL    HW238796   0.801   0.245   4.988 -0.3410  0.8515 -0.6272
 9054SOL     OW38797   1.076   1.313   9.134 -0.0350  0.0948 -0.3493
 9054SOL    HW138798   1.018   1.379   9.172 -0.6127 -0.4043 -0.3660
 9054SOL    HW238799   1.008   1.260   9.090  2.9710 -2.0114 -2.4693
 9055SOL     OW38800   0.785   1.053   3.218 -0.0389 -0.5027 -0.0783
 9055SOL    HW138801   0.866   1.050   3.269  1.0563 -1.5199 -1.8594
 9055SOL    HW238802   0.821   1.098   3.141 -1.9861  1.7618  0.3368
 9056SOL     OW38803   4.346   3.134   5.928  0.2374 -0.3042  0.0325
 9056SOL    HW138804   4.329   3.048   5.965 -0.2704 -0.2495 -0.0635
 9056SOL    HW238805   4.371   3.117   5.837  0.4233 -2.2652  0.4625
 9057SOL     OW38806   3.981   2.582   1.775 -0.5439  0.3304  0.3068
 9057SOL    HW138807   4.034   2.634   1.835 -0.0212  1.8137 -1.4285
 9057SOL    HW238808   3.925   2.537   1.838  1.2090  0.0395  1.6469
 9058SOL     OW38809   2.670   0.994   3.171 -0.2693  0.4773 -0.2075
 9058SOL    HW138810   2.578   0.993   3.145 -0.1198 -1.6105 -0.6241
 9058SOL    HW238811   2.668   1.085   3.201 -0.8389  0.0491  1.0335
 9059SOL     OW38812   4.533   1.309   4.311 -0.3440  0.6094 -0.4048
 9059SOL    HW138813   4.474   1.384   4.318  0.6361  1.2780  0.5925
 9059SOL    HW238814   4.619   1.350   4.311  0.1737 -0.4839 -0.4501
 9060SOL     OW38815   4.176   3.704   0.067  0.3196  0.1046  0.2518
 9060SOL    HW138816   4.081   3.718   0.065  0.2148 -0.7228 -0.6431
 9060SOL    HW238817   4.204   3.763   0.137  0.0485 -1.1174  1.3635
 9061SOL     OW38818   3.173   4.587   7.889 -0.1384 -0.4555  0.2451
 9061SOL    HW138819   3.176   4.678   7.921  2.3264 -0.1473 -0.8749
 9061SOL    HW238820   3.080   4.580   7.870 -0.4722  1.9034  0.9696
 9062SOL     OW38821   1.804   3.979   6.409 -0.0108  0.1596 -0.0172
 9062SOL    HW138822   1.776   4.058   6.454  2.8228  0.6587  0.9097
 9062SOL    HW238823   1.877   4.013   6.356  2.1727  0.1553  3.0058
 9063SOL     OW38824   3.446   0.218   6.646  0.1213  0.5851 -0.0928
 9063SOL    HW138825   3.530   0.261   6.630 -0.3641  1.3850 -0.4929
 9063SOL    HW238826   3.394   0.288   6.605  1.1978  1.0845 -0.5838
 9064SOL     OW38827   2.553   2.614   6.575  0.6110 -0.0357  0.0840
 9064SOL    HW138828   2.601   2.534   6.554  0.4834  0.1256 -0.8296
 9064SOL    HW238829   2.464   2.591   6.550  0.3828  1.6418 -0.6951
 9065SOL     OW38830   1.418   1.453  15.770  0.0672  0.2837 -0.0338
 9065SOL    HW138831   1.472   1.433  15.694  0.8679  0.5624  0.4622
 9065SOL    HW238832   1.371   1.373  15.792 -0.5790  0.0310 -2.3453
 9066SOL     OW38833   0.327   0.428   7.454 -0.1799 -0.3950 -0.1008
 9066SOL    HW138834   0.344   0.492   7.385 -0.0279  0.0257  0.3241
 9066SOL    HW238835   0.233   0.415   7.450 -0.1822 -0.5675  0.5183
 9067SOL     OW38836   3.942   0.808   8.355  0.2054  0.6524  0.1027
 9067SOL    HW138837   4.003   0.753   8.405  0.6678 -0.6366 -1.8732
 9067SOL    HW238838   3.956   0.892   8.399  1.0370  0.2421  0.6335
 9068SOL     OW38839   2.789   1.362   4.905  0.0484  0.9291 -0.0960
 9068SOL    HW138840   2.818   1.444   4.946  1.8284  0.7630 -1.0143
 9068SOL    HW238841   2.697   1.377   4.885 -0.2439 -0.5739  0.1478
 9069SOL     OW38842   3.829   1.898   6.410 -0.5065  0.3023  0.4771
 9069SOL    HW138843   3.760   1.910   6.476 -1.6715  1.6351 -1.0000
 9069SOL    HW238844   3.874   1.818   6.438  0.4184 -0.0450 -2.0661
 9070SOL     OW38845   4.667   1.808   5.128 -0.4665  0.4645 -0.0065
 9070SOL    HW138846   4.600   1.747   5.099 -0.6269  0.0700  1.1754
 9070SOL    HW238847   0.019   1.771   5.113  0.9252  3.5471  0.5713
 9071SOL     OW38848   1.879   1.158   4.271  0.1420  0.0879  0.1638
 9071SOL    HW138849   1.824   1.154   4.349  1.6788 -0.3276  1.2234
 9071SOL    HW238850   1.968   1.140   4.299 -0.0686 -0.7532  0.3186
 9072SOL     OW38851   1.550   0.910   9.612 -0.4982 -0.2521  0.9065
 9072SOL    HW138852   1.553   1.003   9.634  1.8081 -0.1610  0.1845
 9072SOL    HW238853   1.542   0.862   9.694 -0.6981 -2.3545 -0.3355
 9073SOL     OW38854   2.271   4.423   6.071  0.2108 -0.5994 -0.5119
 9073SOL    HW138855   2.236   4.415   5.983  0.9817  1.2290 -0.9797
 9073SOL    HW238856   2.218   4.497   6.100  2.1710  0.3348  0.7314
 9074SOL     OW38857   3.417   2.011   1.598 -0.6854 -0.2344  0.3055
 9074SOL    HW138858   3.486   1.990   1.535 -0.4239 -3.1845  1.5559
 9074SOL    HW238859   3.425   2.106   1.598  0.5529 -0.3401  0.2291
 9075SOL     OW38860   1.445   1.900   8.669 -0.0882  0.2838 -0.0280
 9075SOL    HW138861   1.422   1.850   8.748 -0.9886  0.8992  0.1028
 9075SOL    HW238862   1.458   1.985   8.711 -0.5909 -0.2143  1.1310
 9076SOL     OW38863   1.558   0.402   7.364  0.2977  0.3469  0.5580
 9076SOL    HW138864   1.621   0.416   7.293  0.9027 -0.0345  1.0206
 9076SOL    HW238865   1.503   0.480   7.367  0.3405  0.4453 -1.1802
 9077SOL     OW38866   1.987   4.705  13.015  0.4263  0.2583  0.6943
 9077SOL    HW138867   2.005   4.674  12.926  1.6082  0.2216  0.9482
 9077SOL    HW238868   2.039   4.636  13.056 -1.6940 -0.8793  1.5102
 9078SOL     OW38869   1.391   0.248  15.096 -0.0432  0.2676  0.4139
 9078SOL    HW138870   1.430   0.298  15.168 -0.6551  3.6284 -1.6110
 9078SOL    HW238871   1.411   0.299  15.018  0.5593  1.1103  1.1144
 9079SOL     OW38872   2.260   3.150   3.617  0.5047 -0.3616  0.6284
 9079SOL    HW138873   2.182   3.123   3.569  1.3856 -0.4910 -0.7209
 9079SOL    HW238874   2.296   3.071   3.656  2.5054  0.8731  1.3088
 9080SOL     OW38875   2.919   3.649   3.734 -0.1844  0.8063 -0.3633
 9080SOL    HW138876   3.003   3.671   3.695  0.5607 -0.6373  0.4165
 9080SOL    HW238877   2.945   3.626   3.823  1.1187 -0.4049 -1.0495
 9081SOL     OW38878   3.203   4.337   0.773  0.5429  0.2104  0.9227
 9081SOL    HW138879   3.211   4.365   0.682  0.7293 -1.8564  0.2864
 9081SOL    HW238880   3.191   4.245   0.749 -0.9640  0.1817  1.8490
 9082SOL     OW38881   1.416   2.513   1.158  0.0981  0.0637 -0.2879
 9082SOL    HW138882   1.389   2.558   1.238  0.4924  0.6537 -0.4934
 9082SOL    HW238883   1.453   2.586   1.109  0.7579 -1.2008 -1.6713
 9083SOL     OW38884   4.325   2.895   8.916 -0.2425  0.2399 -0.7658
 9083SOL    HW138885   4.301   2.847   8.995 -0.2824  0.2463 -0.7741
 9083SOL    HW238886   4.241   2.920   8.877 -0.0502 -0.1029 -1.3919
 9084SOL     OW38887   0.115   2.746  16.427  0.9390  0.1434 -0.4334
 9084SOL    HW138888   0.154   2.786  16.504  0.3646 -1.1336  0.5413
 9084SOL    HW238889   0.047   2.692  16.469  0.4687 -0.6020 -2.1336
 9085SOL     OW38890   0.247   3.158   8.103 -0.3161 -0.2281  0.3726
 9085SOL    HW138891   0.197   3.094   8.153  0.7990 -0.2814  1.4172
 9085SOL    HW238892   0.202   3.242   8.104  1.7365  0.8893  0.1330
 9086SOL     OW38893   2.222   4.444  14.412 -0.4873  0.2010 -0.2875
 9086SOL    HW138894   2.180   4.370  14.368  2.6296 -1.3908 -0.5369
 9086SOL    HW238895   2.309   4.412  14.434  0.3065  1.8566 -0.9877
 9087SOL     OW38896   2.184   4.695   1.882 -0.7487 -1.1502 -0.3084
 9087SOL    HW138897   2.239   0.027   1.922 -1.9904 -1.2608  1.5574
 9087SOL    HW238898   2.098   4.721   1.913  0.0867 -0.8440  1.7750
 9088SOL     OW38899   4.607   3.239   5.092  0.5360 -0.0400 -0.4008
 9088SOL    HW138900   4.701   3.234   5.078  0.5178 -3.5217  0.6987
 9088SOL    HW238901   4.587   3.326   5.056  1.7123  0.3027 -0.2077
 9089SOL     OW38902   0.303   2.536   4.221  0.2561 -0.2656  0.1939
 9089SOL    HW138903   0.317   2.574   4.307  0.6674 -0.9508  0.4359
 9089SOL    HW238904   0.280   2.444   4.238  1.2958 -0.7504 -0.9797
 9090SOL     OW38905   2.032   2.063   7.716 -0.0232 -0.2456 -0.6997
 9090SOL    HW138906   2.014   2.083   7.808  0.6515  0.8779 -0.8101
 9090SOL    HW238907   2.035   1.968   7.728 -3.9805 -0.5087 -1.8199
 9091SOL     OW38908   4.561   3.298  16.153  0.1763  0.1251 -0.3298
 9091SOL    HW138909   4.490   3.242  16.121  0.0652 -0.8253  1.5825
 9091SOL    HW238910   4.612   3.300  16.072  2.1545 -2.4270  0.8633
 9092SOL     OW38911   2.200   4.491   6.910 -0.1075 -0.4421  0.0832
 9092SOL    HW138912   2.154   4.482   6.827  0.4377 -1.0639 -0.1530
 9092SOL    HW238913   2.250   4.573   6.909 -2.8477  1.2094 -1.5021
 9093SOL     OW38914   3.406   0.443   4.176  0.0098 -0.2296  0.2800
 9093SOL    HW138915   3.370   0.363   4.140  2.2030 -1.1886  0.2128
 9093SOL    HW238916   3.472   0.406   4.235  0.0840  0.8699  0.8966
 9094SOL     OW38917   0.088   4.192   1.741  0.0859 -0.3025  0.4277
 9094SOL    HW138918   0.034   4.146   1.805 -2.0775  0.1099 -1.1079
 9094SOL    HW238919   0.174   4.199   1.782  0.2619 -0.3001  0.0586
 9095SOL     OW38920   4.699   3.165   6.545  0.0784 -0.5490 -0.1998
 9095SOL    HW138921   4.620   3.113   6.554 -1.1108  1.3931  0.6340
 9095SOL    HW238922   4.703   3.166   6.449 -2.9911 -1.3452 -0.3378
 9096SOL     OW38923   1.835   0.076  17.229  0.6246  0.2308 -0.1743
 9096SOL    HW138924   1.808   0.104  17.141  1.0716 -0.3757 -0.5074
 9096SOL    HW238925   1.927   0.097  17.215 -0.1594  1.5960 -3.3583
 9097SOL     OW38926   3.456   4.559   6.789 -0.2029 -0.3323 -0.1199
 9097SOL    HW138927   3.518   4.624   6.823 -0.1388 -2.1349  3.1824
 9097SOL    HW238928   3.508   4.504   6.730 -1.8150 -0.3340 -1.5331
 9098SOL     OW38929   1.840   0.703   9.396 -0.0931 -0.0721 -0.1761
 9098SOL    HW138930   1.773   0.642   9.427 -1.7872  1.9050  0.0450
 9098SOL    HW238931   1.789   0.773   9.355 -0.1983 -0.4038 -0.6076
 9099SOL     OW38932   1.803   4.662   2.813  0.1155  0.6159 -0.4666
 9099SOL    HW138933   1.832   4.628   2.729  2.5960 -0.3044  0.7553
 9099SOL    HW238934   1.739   4.727   2.786  1.0723  1.8218  0.1575
 9100SOL     OW38935   0.205   1.571   2.145 -0.4335  0.3218 -0.2985
 9100SOL    HW138936   0.252   1.653   2.155 -1.0200  0.6386 -0.1767
 9100SOL    HW238937   0.215   1.554   2.051  0.3969  1.2689 -0.3706
 9101SOL     OW38938   0.252   1.141   8.028  0.1347  0.3535 -0.2645
 9101SOL    HW138939   0.342   1.140   7.996 -0.0359  0.5259 -0.7455
 9101SOL    HW238940   0.264   1.136   8.123 -2.0325  1.3035  0.0591
 9102SOL     OW38941   1.608   4.542   6.466  0.5417  0.5273 -0.2646
 9102SOL    HW138942   1.632   4.567   6.555 -0.7862 -0.7586  0.4632
 9102SOL    HW238943   1.512   4.542   6.470  0.5346 -1.1632 -0.6190
 9103SOL     OW38944   3.226   0.458   4.591  0.1358 -0.4164 -0.1048
 9103SOL    HW138945   3.190   0.409   4.517  1.9609 -2.9876  0.6891
 9103SOL    HW238946   3.139   0.483   4.624  0.6120 -0.7120  1.3679
 9104SOL     OW38947   1.392   1.662  16.658 -0.6600 -0.4294  0.3144
 9104SOL    HW138948   1.354   1.731  16.602  0.6157 -0.0224 -0.0583
 9104SOL    HW238949   1.445   1.620  16.590 -0.3325  1.0990 -0.3965
 9105SOL     OW38950   0.889   0.023   4.849  0.8303 -0.1757  0.2792
 9105SOL    HW138951   0.973   0.064   4.829  0.0591  2.1266  1.7327
 9105SOL    HW238952   0.910   4.665   4.853 -0.6277 -0.5680 -1.1855
 9106SOL     OW38953   2.888   1.191   6.213  0.2292 -0.3971 -0.0869
 9106SOL    HW138954   2.898   1.113   6.159  0.8557 -0.5625  0.2654
 9106SOL    HW238955   2.940   1.172   6.291  2.6167  2.0693 -1.0639
 9107SOL     OW38956   3.319   2.850   9.220  0.1448  0.1437  0.4446
 9107SOL    HW138957   3.307   2.791   9.294 -0.6605 -0.8126 -0.4427
 9107SOL    HW238958   3.230   2.886   9.222  0.0181 -0.1830  0.7016
 9108SOL     OW38959   1.276   2.094   4.952  0.1562  0.5512  0.1927
 9108SOL    HW138960   1.232   2.051   4.879  0.8765  0.7544 -0.3537
 9108SOL    HW238961   1.229   2.178   4.954 -1.3361 -0.3079  1.2107
 9109SOL     OW38962   3.154   1.460   4.092  0.7652 -0.1981 -0.3844
 9109SOL    HW138963   3.135   1.366   4.091 -0.5070  0.0608 -0.7073
 9109SOL    HW238964   3.159   1.488   4.001  0.3224  0.3830 -0.2285
 9110SOL     OW38965   4.643   2.691   3.458 -0.0126 -0.2855  0.3526
 9110SOL    HW138966   4.701   2.743   3.514  1.3059 -0.2804 -1.0474
 9110SOL    HW238967   4.618   2.764   3.401  0.3845 -0.0494  0.4806
 9111SOL     OW38968   2.240   1.980   6.536  0.8513 -0.1598 -0.1185
 9111SOL    HW138969   2.241   1.905   6.595 -0.9072 -1.2169 -1.4277
 9111SOL    HW238970   2.244   2.055   6.595  3.2011  0.3141 -0.8906
 9112SOL     OW38971   2.985   2.071   4.100 -0.1832  0.1429 -0.6925
 9112SOL    HW138972   2.944   2.052   4.184  1.0065  0.5896 -0.0078
 9112SOL    HW238973   3.013   1.984   4.073 -0.9583 -0.1909 -0.4231
 9113SOL     OW38974   1.648   0.295   3.150 -0.4645  0.2830 -0.4617
 9113SOL    HW138975   1.733   0.258   3.125 -1.7351 -1.7226 -1.8346
 9113SOL    HW238976   1.591   0.254   3.085 -0.1862  1.7908 -1.6576
 9114SOL     OW38977   0.375   4.013  13.647 -0.4595  0.0352  0.6304
 9114SOL    HW138978   0.436   3.970  13.708  1.2595  1.6674  0.0369
 9114SOL    HW238979   0.362   4.096  13.693  1.6572  1.0614 -0.6255
 9115SOL     OW38980   3.397   0.939  16.603  0.1597  0.7122 -0.3442
 9115SOL    HW138981   3.460   0.954  16.674 -0.6318 -1.8212  0.9310
 9115SOL    HW238982   3.382   0.851  16.639  0.0477  1.0795  0.4911
 9116SOL     OW38983   4.480   4.081  12.349 -0.4126 -0.3825 -0.3893
 9116SOL    HW138984   4.501   4.125  12.267  2.1294 -2.8268 -1.0558
 9116SOL    HW238985   4.388   4.057  12.345  0.0399 -1.8750 -1.8398
 9117SOL     OW38986   1.022   0.039   9.172  0.0306 -0.0265 -0.2960
 9117SOL    HW138987   1.036   4.681   9.187  0.8491  0.4356  1.7805
 9117SOL    HW238988   0.930   0.035   9.143  0.3097 -1.1414 -1.0275
 9118SOL     OW38989   2.450   3.734   5.304 -0.3049  0.2560  0.0724
 9118SOL    HW138990   2.543   3.747   5.323 -0.3925  0.0445  0.6495
 9118SOL    HW238991   2.425   3.685   5.382  1.5803 -1.8465 -0.6373
 9119SOL     OW38992   1.945   0.152   7.431 -0.6883 -0.2992 -0.2475
 9119SOL    HW138993   1.964   0.229   7.377  0.9016  0.2439  1.1049
 9119SOL    HW238994   1.888   0.105   7.370 -0.3626  0.4711 -1.1531
 9120SOL     OW38995   1.198   2.816   9.755  0.2503  0.0096 -0.2209
 9120SOL    HW138996   1.272   2.756   9.745  1.1464  0.8712  1.3075
 9120SOL    HW238997   1.198   2.834   9.849  3.5318  1.5645 -0.4793
 9121SOL     OW38998   3.346   0.583   3.933 -0.5924  0.0992  0.3353
 9121SOL    HW138999   3.417   0.525   3.906  0.0016  0.4075  1.2344
 9121SOL    HW239000   3.381   0.640   4.002 -0.9153  0.0584  0.5335
 9122SOL     OW39001   1.283   4.681  12.655 -0.3171 -0.4107  0.6755
 9122SOL    HW139002   1.251   4.660  12.742 -0.1300 -1.6012  0.4671
 9122SOL    HW239003   1.342   0.018  12.675  1.9030 -2.4780  1.6125
 9123SOL     OW39004   0.988   0.688   3.105 -0.1550  0.1214  0.5267
 9123SOL    HW139005   0.951   0.629   3.039  1.1203  1.3881 -1.3219
 9123SOL    HW239006   1.081   0.683   3.084 -0.3081 -2.8811  0.5746
 9124SOL     OW39007   1.490   4.595   7.116  0.3998 -0.2031 -0.0779
 9124SOL    HW139008   1.454   4.628   7.198 -0.1921  1.2456 -0.9204
 9124SOL    HW239009   1.563   4.654   7.099 -0.8156  1.2072 -0.4008
 9125SOL     OW39010   4.526   3.617   0.709  0.5616 -0.6316 -0.1045
 9125SOL    HW139011   4.494   3.707   0.708 -0.2971 -0.9373 -0.3396
 9125SOL    HW239012   4.575   3.620   0.792 -0.4067  0.3286  0.4417
 9126SOL     OW39013   2.749   3.719  17.221 -0.0785  0.1546 -0.1267
 9126SOL    HW139014   2.810   3.662  17.174  0.0826 -0.8329  1.2960
 9126SOL    HW239015   2.683   3.749  17.159  0.3851  0.3800 -0.5092
 9127SOL     OW39016   1.680   2.725   4.434 -0.2559  0.0897  0.7481
 9127SOL    HW139017   1.589   2.755   4.432 -0.0710  0.4771 -1.2954
 9127SOL    HW239018   1.664   2.680   4.517  0.5476  0.0878  0.9052
 9128SOL     OW39019   1.805   4.469   7.505 -0.1598 -0.3233  0.2096
 9128SOL    HW139020   1.712   4.455   7.487 -0.3018 -0.2014  0.8665
 9128SOL    HW239021   1.813   4.504   7.593  1.1736 -0.5444  0.1698
 9129SOL     OW39022   2.099   4.086   4.980  0.0806 -0.0769  0.0375
 9129SOL    HW139023   2.156   4.029   4.927 -0.0990  0.7987 -1.0820
 9129SOL    HW239024   2.034   4.106   4.913 -0.2012  2.0112  0.9554
 9130SOL     OW39025   4.113   3.966  11.488 -0.7454  0.4919  0.2954
 9130SOL    HW139026   4.100   3.882  11.445  0.6094  0.6707 -0.4644
 9130SOL    HW239027   4.019   3.983  11.490 -0.6329  1.5570 -2.6248
 9131SOL     OW39028   3.210   0.165  12.071 -0.8684  0.2252  0.6124
 9131SOL    HW139029   3.253   0.249  12.082  0.2182 -0.2891  0.3292
 9131SOL    HW239030   3.233   0.118  12.151 -1.8482  1.3391  1.5430
 9132SOL     OW39031   1.074   3.258   9.507 -0.1898 -0.0977  0.4092
 9132SOL    HW139032   0.988   3.271   9.546  0.0200  1.4894  0.3230
 9132SOL    HW239033   1.066   3.178   9.455  0.3446  0.4771 -0.5558
 9133SOL     OW39034   2.400   0.140   1.205  0.1186 -0.0257 -0.4800
 9133SOL    HW139035   2.307   0.145   1.183  0.2033 -0.5543 -0.9749
 9133SOL    HW239036   2.430   0.230   1.196 -1.9042  0.8076  1.0687
 9134SOL     OW39037   0.728   1.343   2.760  0.1197 -0.1724 -0.4534
 9134SOL    HW139038   0.685   1.418   2.799  0.9980  0.0902  0.0057
 9134SOL    HW239039   0.663   1.274   2.772  1.1006 -0.5685  2.5512
 9135SOL     OW39040   1.310   4.654   5.979  0.1147  0.7295 -0.7358
 9135SOL    HW139041   1.379   4.619   5.921 -0.0059  1.7787 -1.5161
 9135SOL    HW239042   1.361   4.693   6.050 -0.8383 -0.5111  0.6135
 9136SOL     OW39043   4.287   4.029  15.264  0.2990  0.5344  0.7246
 9136SOL    HW139044   4.272   4.104  15.206 -1.6944 -1.6170 -1.5407
 9136SOL    HW239045   4.239   4.051  15.344 -0.3788 -0.2683  0.5483
 9137SOL     OW39046   0.936   3.489   3.055 -0.3972 -0.1603 -0.0328
 9137SOL    HW139047   0.880   3.553   3.100  0.0755 -0.4095  0.9103
 9137SOL    HW239048   1.005   3.484   3.121 -0.7072  0.4791  0.3438
 9138SOL     OW39049   4.430   4.624   7.168  0.1192  0.1540  0.4298
 9138SOL    HW139050   4.499   4.613   7.103  1.0405  1.1935  1.2293
 9138SOL    HW239051   4.372   4.551   7.148  0.6515  0.1301 -0.9946
 9139SOL     OW39052   2.011   3.053   8.329 -0.7775  0.1068  0.0208
 9139SOL    HW139053   1.952   2.978   8.325  0.0863 -0.4840 -1.5590
 9139SOL    HW239054   1.983   3.088   8.413  1.1772  2.7736 -0.4367
 9140SOL     OW39055   0.128   4.682   9.217  0.1813 -0.1560  0.0437
 9140SOL    HW139056   0.221   4.697   9.205  0.8620 -3.3122  1.2833
 9140SOL    HW239057   0.110   4.720   9.303 -1.5850  1.9927 -1.2650
 9141SOL     OW39058   2.753   4.373  11.615 -0.1695  0.5765  0.4517
 9141SOL    HW139059   2.810   4.297  11.624 -1.4207 -0.2722  1.1606
 9141SOL    HW239060   2.700   4.341  11.542  0.3460  1.8986 -0.5006
 9142SOL     OW39061   2.147   1.453   7.014 -0.1101 -0.3556  0.1394
 9142SOL    HW139062   2.110   1.416   6.934  2.7048  0.9861 -1.8045
 9142SOL    HW239063   2.183   1.372   7.050 -1.2097  0.4193  3.0323
 9143SOL     OW39064   1.394   4.103   4.646  0.2938  0.7692 -0.2388
 9143SOL    HW139065   1.412   4.018   4.686 -1.0172  2.4342  3.8312
 9143SOL    HW239066   1.441   4.086   4.564  0.0256  0.7846 -0.3944
 9144SOL     OW39067   4.567   1.771  10.847 -0.5337 -0.5440 -0.2335
 9144SOL    HW139068   4.577   1.751  10.939 -0.0296 -2.0823 -0.6279
 9144SOL    HW239069   4.505   1.704  10.819 -0.5987 -0.9087  0.7860
 9145SOL     OW39070   0.545   1.050   7.975 -0.7008 -0.2139  0.4307
 9145SOL    HW139071   0.623   1.009   7.938  0.1363  0.8225  1.0537
 9145SOL    HW239072   0.472   0.988   7.966  0.1832 -1.3244  0.9966
 9146SOL     OW39073   3.564   0.356   4.909 -0.2928 -0.1892 -0.2639
 9146SOL    HW139074   3.651   0.315   4.920  0.0270  1.4546  3.2076
 9146SOL    HW239075   3.581   0.443   4.875 -2.3397 -0.0386 -0.8871
 9147SOL     OW39076   1.190   0.762   7.802  0.0777 -0.0600  0.1429
 9147SOL    HW139077   1.141   0.841   7.826  1.5483  1.2397 -1.1026
 9147SOL    HW239078   1.132   0.693   7.832  1.5266 -0.8156  1.2289
 9148SOL     OW39079   1.641   2.636   7.910 -0.1784 -0.5953  0.1950
 9148SOL    HW139080   1.556   2.637   7.953  1.1644  4.1910  2.6676
 9148SOL    HW239081   1.635   2.545   7.881  1.4710 -0.3725 -0.8585
 9149SOL     OW39082   0.006   0.200   4.640 -0.0294  0.9762 -0.0171
 9149SOL    HW139083   4.710   0.131   4.699  1.0221 -0.1274 -0.7335
 9149SOL    HW239084   0.048   0.140   4.577  1.0671  3.1776 -1.3718
 9150SOL     OW39085   1.949   4.049   1.449 -0.1167  0.2290  0.0651
 9150SOL    HW139086   1.959   4.131   1.498 -2.5786  1.0596 -0.8201
 9150SOL    HW239087   1.911   4.075   1.365  0.2623  0.5016 -0.0234
 9151SOL     OW39088   2.142   0.170   4.533 -0.2240  0.0672 -0.0441
 9151SOL    HW139089   2.053   0.201   4.519  0.3516  0.7910 -2.1327
 9151SOL    HW239090   2.134   0.084   4.574  0.4448 -0.7993 -1.6954
 9152SOL     OW39091   3.304   0.203   6.911 -0.1125  0.0788  0.3189
 9152SOL    HW139092   3.270   0.122   6.948  1.7290 -1.6654 -1.8537
 9152SOL    HW239093   3.342   0.172   6.829  2.0663  0.1607  1.3139
 9153SOL     OW39094   3.475   2.726   8.132 -0.2394 -0.3873 -0.3171
 9153SOL    HW139095   3.499   2.792   8.068 -2.6472  1.0564  0.2630
 9153SOL    HW239096   3.389   2.754   8.164  1.1055 -0.0921  2.9956
 9154SOL     OW39097   0.815   4.326   3.801  0.3758  0.1222  0.2254
 9154SOL    HW139098   0.823   4.354   3.892 -0.0667  0.5584  0.1329
 9154SOL    HW239099   0.871   4.383   3.748 -0.3881 -0.3187 -1.0552
 9155SOL     OW39100   1.489   2.501   5.443 -0.2098 -0.4162 -0.3897
 9155SOL    HW139101   1.532   2.433   5.496  0.0523  0.4260  0.4823
 9155SOL    HW239102   1.449   2.563   5.503 -0.6606 -0.0426 -1.0841
 9156SOL     OW39103   4.598   0.852   5.928 -0.1662 -0.7853  0.0799
 9156SOL    HW139104   4.574   0.797   6.003  0.7235 -0.4478  0.6027
 9156SOL    HW239105   4.684   0.820   5.902  0.5927  0.3841  1.1928
 9157SOL     OW39106   1.139   3.245   1.966 -0.0755  0.6992  0.1118
 9157SOL    HW139107   1.162   3.153   1.956 -0.2476  0.6970 -0.2536
 9157SOL    HW239108   1.213   3.269   2.022  1.3715 -1.1090 -1.0500
 9158SOL     OW39109   1.517   1.973   2.284 -0.3391  0.3909  0.1693
 9158SOL    HW139110   1.532   1.895   2.336  1.5477  0.9194  0.4327
 9158SOL    HW239111   1.460   1.931   2.220  0.7687  3.2627 -2.7738
 9159SOL     OW39112   1.909   3.268   8.943 -0.0378 -0.0034  1.0837
 9159SOL    HW139113   1.987   3.263   8.997  1.1307 -1.0071 -0.7127
 9159SOL    HW239114   1.839   3.235   9.000  1.1153 -0.2293  2.3678
 9160SOL     OW39115   3.256   3.259   5.273  0.7720  0.6647  0.0302
 9160SOL    HW139116   3.209   3.288   5.352 -1.9476  0.1779 -1.3941
 9160SOL    HW239117   3.211   3.320   5.215  0.8176  0.9894  0.3341
 9161SOL     OW39118   2.287   3.860   3.689 -0.1635 -0.4730 -0.0489
 9161SOL    HW139119   2.230   3.784   3.685 -0.9375  0.1022 -0.1067
 9161SOL    HW239120   2.325   3.861   3.777 -0.5426 -0.6862  0.1179
 9162SOL     OW39121   4.722   4.636   1.554 -0.2014  0.0807 -0.3197
 9162SOL    HW139122   4.734   4.701   1.624  2.4982 -0.9516  0.1751
 9162SOL    HW239123   0.072   4.594   1.543 -0.7112 -1.0795  0.2259
 9163SOL     OW39124   2.282   4.048  13.832  0.2464 -0.2910  0.1654
 9163SOL    HW139125   2.282   3.954  13.851  1.1058  0.3543  3.3035
 9163SOL    HW239126   2.196   4.080  13.858  0.0692 -0.4411 -0.2336
 9164SOL     OW39127   1.729   1.886   5.036  0.8901  0.2384  0.2256
 9164SOL    HW139128   1.790   1.825   5.077 -0.6924 -0.1269  2.0431
 9164SOL    HW239129   1.650   1.880   5.090  0.1954 -0.3790 -0.8504
 9165SOL     OW39130   0.260   3.081  15.245  0.3076 -0.0670  0.4872
 9165SOL    HW139131   0.267   2.993  15.209 -1.1402 -0.7521  1.9087
 9165SOL    HW239132   0.354   3.102  15.246  0.2719  0.0727  0.9435
 9166SOL     OW39133   4.360   1.506   4.784  0.2629 -0.6818 -0.3428
 9166SOL    HW139134   4.445   1.461   4.783 -0.1065 -1.3439 -1.6614
 9166SOL    HW239135   4.294   1.438   4.792 -0.1320 -0.3657 -0.9124
 9167SOL     OW39136   3.866   4.455   0.616  0.0818  0.5468  0.0959
 9167SOL    HW139137   3.820   4.519   0.670  0.2680  1.0584 -0.3488
 9167SOL    HW239138   3.893   4.398   0.688  0.1815  0.3253 -0.1160
 9168SOL     OW39139   4.581   4.338   3.875 -0.1753 -0.0962  0.3106
 9168SOL    HW139140   4.573   4.395   3.951 -1.8664  1.0405 -0.7087
 9168SOL    HW239141   4.660   4.372   3.832 -0.6729 -0.7020 -1.1052
 9169SOL     OW39142   1.973   3.623   8.794  0.5421 -0.3968  0.0257
 9169SOL    HW139143   1.930   3.702   8.825  1.6474  0.6808 -1.1945
 9169SOL    HW239144   2.067   3.636   8.805  0.5785 -0.9700  0.4044
 9170SOL     OW39145   1.413   1.305   5.348  0.2237  0.5509  0.1875
 9170SOL    HW139146   1.384   1.229   5.397 -0.9494  0.6489 -0.3441
 9170SOL    HW239147   1.364   1.299   5.266 -0.7664  0.0200  0.8169
 9171SOL     OW39148   0.707   3.224   8.777  0.0228 -0.3805  0.5857
 9171SOL    HW139149   0.735   3.227   8.869  0.2493 -0.9750  0.5353
 9171SOL    HW239150   0.711   3.317   8.754  0.6611 -0.1887  1.4569
 9172SOL     OW39151   2.175   1.581   4.997  0.1908 -0.2488  0.4156
 9172SOL    HW139152   2.177   1.487   5.015 -1.8930 -0.4467 -0.3763
 9172SOL    HW239153   2.229   1.619   5.067 -0.4519 -1.1127  1.3879
 9173SOL     OW39154   4.053   0.926   2.156 -0.4282  0.3102  0.5631
 9173SOL    HW139155   4.020   0.855   2.211  0.6645 -1.3987 -0.9563
 9173SOL    HW239156   4.146   0.920   2.175 -0.0878 -0.3506 -1.3022
 9174SOL     OW39157   0.863   2.250   8.660  0.1408 -0.1514  0.1603
 9174SOL    HW139158   0.891   2.310   8.591  0.9132 -1.0383 -0.3006
 9174SOL    HW239159   0.779   2.282   8.692  0.8142  0.8698  0.8782
 9175SOL     OW39160   2.565   2.321   5.280 -0.6109  0.0710 -0.1427
 9175SOL    HW139161   2.524   2.376   5.346  1.1159  0.0320  0.9449
 9175SOL    HW239162   2.635   2.383   5.261  1.0433 -1.3976  1.1343
 9176SOL     OW39163   2.900   1.591   8.698 -0.0733 -0.2672 -0.4425
 9176SOL    HW139164   2.830   1.637   8.746  0.0537  2.4397 -2.8592
 9176SOL    HW239165   2.957   1.660   8.665 -1.1141 -0.0762 -1.8181
 9177SOL     OW39166   3.718   3.591   8.031 -0.6571  0.2313 -0.0418
 9177SOL    HW139167   3.745   3.656   7.966  0.9646  0.3598  0.7559
 9177SOL    HW239168   3.624   3.607   8.036 -0.5704  1.0552 -1.0097
 9178SOL     OW39169   1.699   0.313  11.310 -0.4015 -0.2374  0.3758
 9178SOL    HW139170   1.733   0.302  11.399  0.3952 -2.1319 -0.1382
 9178SOL    HW239171   1.613   0.272  11.322  0.1783 -2.3390 -2.4055
 9179SOL     OW39172   3.316   1.609  13.814  0.3824  0.0224 -0.3191
 9179SOL    HW139173   3.230   1.600  13.773  0.0652 -0.6465  0.4852
 9179SOL    HW239174   3.303   1.687  13.869 -0.4072 -0.3395  0.0051
 9180SOL     OW39175   2.248   4.546   7.315  0.0647 -0.6920 -0.7889
 9180SOL    HW139176   2.166   4.540   7.266 -0.0245 -0.6716 -0.6422
 9180SOL    HW239177   2.299   4.544   7.235  0.0320  0.1516 -0.8310
 9181SOL     OW39178   1.157   1.385  11.144 -0.4623 -0.3725  0.5797
 9181SOL    HW139179   1.119   1.346  11.065  0.2342  0.7303 -0.3036
 9181SOL    HW239180   1.231   1.328  11.165  1.5551  2.0401 -0.0417
 9182SOL     OW39181   2.289   2.658  13.866 -0.4507  0.2441  0.1935
 9182SOL    HW139182   2.367   2.611  13.838  1.1785  1.8633  1.9547
 9182SOL    HW239183   2.239   2.579  13.888 -1.7593  0.6197 -1.4522
 9183SOL     OW39184   0.948   1.556   4.255 -0.5225 -0.0651 -0.6344
 9183SOL    HW139185   0.995   1.476   4.231  2.3223  1.4535 -0.2302
 9183SOL    HW239186   1.015   1.622   4.236 -2.1963  1.8820  0.2085
 9184SOL     OW39187   2.401   4.621  10.388  1.1482 -0.1248 -0.1501
 9184SOL    HW139188   2.422   4.528  10.384 -1.2229 -0.6370 -0.3685
 9184SOL    HW239189   2.314   4.631  10.426  1.5124  0.1893  0.6101
 9185SOL     OW39190   2.697   3.368   2.965 -0.1547 -0.1344  0.5356
 9185SOL    HW139191   2.651   3.419   2.898  2.7371  1.1402 -0.4729
 9185SOL    HW239192   2.760   3.435   2.991 -1.5683  0.4371  2.4960
 9186SOL     OW39193   1.336   2.585   7.986  0.2005  0.1763 -0.9783
 9186SOL    HW139194   1.384   2.524   8.042 -1.2067  1.3131  1.4508
 9186SOL    HW239195   1.293   2.522   7.929  0.6617  1.3253 -2.5866
 9187SOL     OW39196   2.771   2.008   2.313 -0.5605 -0.2320  0.0351
 9187SOL    HW139197   2.793   1.981   2.224 -1.4267 -0.9183  0.0270
 9187SOL    HW239198   2.764   2.103   2.308  1.1367  0.0651  3.0852
 9188SOL     OW39199   2.508   3.009   9.264 -0.2704  0.0185 -0.4038
 9188SOL    HW139200   2.466   3.006   9.178 -1.1720  1.2854  0.0070
 9188SOL    HW239201   2.441   3.069   9.297  0.5472  1.4504 -1.3512
 9189SOL     OW39202   4.387   0.703   2.173 -0.2867  0.6038 -0.2802
 9189SOL    HW139203   4.329   0.627   2.171 -0.5081  0.7280  1.6147
 9189SOL    HW239204   4.472   0.662   2.160  0.3696  1.8765  0.0012
 9190SOL     OW39205   3.383   2.376   4.519 -0.8265 -0.5896 -0.1809
 9190SOL    HW139206   3.372   2.295   4.570 -1.1919  0.1057  0.8533
 9190SOL    HW239207   3.327   2.439   4.564  0.4694 -0.9995  2.0425
 9191SOL     OW39208   1.235   4.023  12.647 -0.2274 -0.7827 -0.2460
 9191SOL    HW139209   1.230   4.065  12.733  3.3086  2.1420 -1.4559
 9191SOL    HW239210   1.276   4.092  12.594 -0.6954 -1.0275 -0.9207
 9192SOL     OW39211   1.192   3.479   3.540  0.3663  0.4742  0.2456
 9192SOL    HW139212   1.156   3.566   3.558 -0.5684  0.0525  0.4157
 9192SOL    HW239213   1.273   3.483   3.590 -1.1892 -0.1061  2.8525
 9193SOL     OW39214   0.774   0.714   7.549 -0.3850  0.8422 -0.1465
 9193SOL    HW139215   0.783   0.621   7.566  0.9293  1.0770  0.4628
 9193SOL    HW239216   0.683   0.720   7.520 -0.2878 -0.6657 -0.7666
 9194SOL     OW39217   2.708   0.434   6.017  0.3525  0.3362 -0.1444
 9194SOL    HW139218   2.742   0.356   5.974  1.0619  1.1609 -1.0690
 9194SOL    HW239219   2.620   0.419   5.983  1.2747 -1.1219 -1.8495
 9195SOL     OW39220   0.868   1.553  13.955 -0.0214 -0.7874  0.6202
 9195SOL    HW139221   0.952   1.551  14.002  1.1368  1.0519 -1.3525
 9195SOL    HW239222   0.890   1.484  13.892  1.9729  0.6166 -0.2492
 9196SOL     OW39223   2.675   3.371   9.276  0.0132 -0.2931  0.4779
 9196SOL    HW139224   2.624   3.336   9.349  0.3944 -0.6538  0.5653
 9196SOL    HW239225   2.670   3.314   9.200  0.3561 -0.4636  0.5819
 9197SOL     OW39226   1.808   0.767   6.987  0.1414 -0.8107  0.2797
 9197SOL    HW139227   1.755   0.816   7.050 -1.1070 -1.9957  0.1330
 9197SOL    HW239228   1.858   0.716   7.051 -0.1104  1.5043  2.3335
 9198SOL     OW39229   4.480   2.636   2.655  0.2459  0.2288 -0.5457
 9198SOL    HW139230   4.553   2.686   2.619 -0.3478 -0.0379 -2.1403
 9198SOL    HW239231   4.437   2.692   2.719 -0.3137  1.1388 -1.7010
 9199SOL     OW39232   2.530   2.648   7.323  0.7978 -0.3110  0.5237
 9199SOL    HW139233   2.618   2.686   7.319  0.3920  0.4137 -1.6983
 9199SOL    HW239234   2.511   2.664   7.415 -3.3908 -0.7856 -0.2586
 9200SOL     OW39235   2.571   3.274   8.250  0.1390  0.2550  0.0381
 9200SOL    HW139236   2.559   3.311   8.163  2.4541  1.8725  0.3970
 9200SOL    HW239237   2.478   3.292   8.265  0.4029  2.9718 -1.6336
 9201SOL     OW39238   1.270   3.082  13.275  0.4462 -0.2568  0.2227
 9201SOL    HW139239   1.264   3.030  13.355 -1.7323 -0.5184 -0.1095
 9201SOL    HW239240   1.222   3.025  13.216 -0.1113  0.2468  0.1845
 9202SOL     OW39241   1.356   3.457   9.259  0.4601  0.2341 -0.7678
 9202SOL    HW139242   1.425   3.398   9.230  1.3497  0.5879  0.6005
 9202SOL    HW239243   1.387   3.484   9.346  1.9371 -2.7137 -0.4010
 9203SOL     OW39244   2.594   1.853   3.468  0.1205  0.1876 -0.2653
 9203SOL    HW139245   2.673   1.869   3.518  0.2951  2.7144 -1.3230
 9203SOL    HW239246   2.616   1.859   3.375  0.0863 -0.9768 -0.3421
 9204SOL     OW39247   1.285   0.756   5.791 -0.3402 -0.1384 -0.8969
 9204SOL    HW139248   1.369   0.724   5.825  0.3153  1.9214 -0.5801
 9204SOL    HW239249   1.291   0.845   5.827  0.5917 -1.6288  2.6188
 9205SOL     OW39250   3.405   0.957   8.872 -0.6406 -0.0564  0.8095
 9205SOL    HW139251   3.383   1.043   8.835  2.3793  0.5044  0.3059
 9205SOL    HW239252   3.317   0.932   8.901 -0.2922 -1.5623  0.5366
 9206SOL     OW39253   0.337   4.444   9.623  0.3633  0.2786  0.5548
 9206SOL    HW139254   0.348   4.538   9.612 -0.5249  0.5166  1.7787
 9206SOL    HW239255   0.266   4.438   9.687  0.7347 -0.2036  0.9193
 9207SOL     OW39256   2.331   1.212   5.744  0.4874 -0.2243  0.4202
 9207SOL    HW139257   2.351   1.119   5.751  1.3738 -0.0966 -0.3702
 9207SOL    HW239258   2.399   1.245   5.803  1.2331  0.0474 -0.5942
 9208SOL     OW39259   0.335   1.407   3.989  0.8807  0.3864 -0.2246
 9208SOL    HW139260   0.379   1.402   3.904  0.9381  0.5088 -0.2024
 9208SOL    HW239261   0.258   1.350   3.980  1.0080 -0.0089  1.1571
 9209SOL     OW39262   2.428   2.785   2.410 -0.1184 -0.2520 -0.5329
 9209SOL    HW139263   2.444   2.831   2.492  2.0362 -0.5716 -0.7609
 9209SOL    HW239264   2.350   2.734   2.432  2.6198 -3.7848  1.0515
 9210SOL     OW39265   2.492   4.208  17.692 -0.6246 -0.0268 -0.1309
 9210SOL    HW139266   2.581   4.190  17.723 -1.1711  0.7463  1.9136
 9210SOL    HW239267   2.510   4.289  17.645 -0.0407  1.2922  2.3333
 9211SOL     OW39268   1.770   4.640   8.366 -1.2938 -0.2255 -0.6614
 9211SOL    HW139269   1.795   4.733   8.373  0.5198 -0.7590 -0.0324
 9211SOL    HW239270   1.750   4.641   8.272 -0.6069 -2.5026 -0.8230
 9212SOL     OW39271   1.269   3.952   2.805  0.3258  0.0343 -0.7295
 9212SOL    HW139272   1.315   4.028   2.842  1.3250 -1.3828  0.8957
 9212SOL    HW239273   1.187   3.945   2.854  1.5302  1.7494  1.5361
 9213SOL     OW39274   0.780   3.459   9.164  0.3712 -0.9327 -0.6252
 9213SOL    HW139275   0.691   3.426   9.152 -0.1990  0.2737  0.2424
 9213SOL    HW239276   0.774   3.538   9.218 -0.4068 -1.7465  0.5033
 9214SOL     OW39277   1.669   2.056   7.426  0.0040 -0.3187 -0.4357
 9214SOL    HW139278   1.647   2.019   7.341  1.0343  0.4301 -1.0248
 9214SOL    HW239279   1.642   1.987   7.487  1.0537  0.2518  0.6747
 9215SOL     OW39280   3.886   1.984   8.039 -0.3511  0.0797 -0.0264
 9215SOL    HW139281   3.798   1.975   8.004 -0.6854 -0.4865  0.9501
 9215SOL    HW239282   3.890   2.079   8.052 -1.9512  0.0825  0.4206
 9216SOL     OW39283   1.285   3.780   5.365 -0.6240  0.0687 -0.2011
 9216SOL    HW139284   1.380   3.767   5.358 -0.6719 -0.6872  0.4751
 9216SOL    HW239285   1.263   3.788   5.272 -0.6022 -2.4762 -0.4413
 9217SOL     OW39286   1.983   3.035   5.785  0.7239  0.3976  0.3126
 9217SOL    HW139287   2.003   2.953   5.831 -1.2477  0.0985  0.6085
 9217SOL    HW239288   1.942   3.087   5.853  0.5842  1.9496 -0.9622
 9218SOL     OW39289   0.699   4.702   3.025  0.5066  0.1970  0.9959
 9218SOL    HW139290   0.751   4.688   2.945 -0.8014  1.1837 -0.0396
 9218SOL    HW239291   0.614   4.689   2.981  1.1830 -0.3883 -0.1489
 9219SOL     OW39292   0.495   4.386   5.801  0.2170  0.0151 -0.4399
 9219SOL    HW139293   0.586   4.374   5.830 -0.0176  2.7483  1.3399
 9219SOL    HW239294   0.485   4.453   5.734  1.5584  0.6619 -0.0076
 9220SOL     OW39295   0.632   2.501   6.970  0.1388 -0.8814  0.5537
 9220SOL    HW139296   0.669   2.531   7.053 -0.2623 -0.8377  0.7118
 9220SOL    HW239297   0.539   2.505   6.991  0.3734  0.7661  1.2087
 9221SOL     OW39298   0.107   3.195  11.525 -0.2998 -0.3366 -0.3031
 9221SOL    HW139299   0.088   3.197  11.431 -0.9532 -1.1142 -0.1966
 9221SOL    HW239300   0.200   3.179  11.507 -0.2541 -0.1104 -0.2642
 9222SOL     OW39301   1.762   2.337   4.728  0.5055  0.1301  0.0865
 9222SOL    HW139302   1.760   2.257   4.780  0.5539 -0.7663 -1.2799
 9222SOL    HW239303   1.807   2.395   4.789 -0.6702  0.3034  0.7919
 9223SOL     OW39304   4.505   2.545   8.078  0.1546 -0.1424 -0.0124
 9223SOL    HW139305   4.590   2.504   8.060 -0.0362 -1.8468  2.9449
 9223SOL    HW239306   4.530   2.635   8.098 -1.0384 -0.0986  1.2500
 9224SOL     OW39307   3.685   2.834   2.745 -0.3058  0.1166 -0.4491
 9224SOL    HW139308   3.623   2.780   2.793 -0.8535  0.8381 -0.3390
 9224SOL    HW239309   3.723   2.759   2.699  0.0538  0.2342 -0.3415
 9225SOL     OW39310   3.342   0.274  14.308  0.1990 -0.4936  0.1491
 9225SOL    HW139311   3.368   0.359  14.272  1.3146 -1.6589 -1.8069
 9225SOL    HW239312   3.251   0.299  14.319  0.7082  1.2411  0.4893
 9226SOL     OW39313   3.423   4.657   7.379  0.1131 -0.2778  0.8494
 9226SOL    HW139314   3.369   4.734   7.364  1.7707  0.9857  1.3872
 9226SOL    HW239315   3.462   4.679   7.463 -2.8249 -1.6930  2.5429
 9227SOL     OW39316   2.761   2.953  15.226 -0.2559  0.2678 -0.0635
 9227SOL    HW139317   2.815   3.014  15.176  0.3575  0.4814  0.8513
 9227SOL    HW239318   2.748   2.889  15.156  0.8547  0.0657 -0.0810
 9228SOL     OW39319   4.301   2.827   7.508  0.5156 -0.0130  0.2824
 9228SOL    HW139320   4.255   2.911   7.506  2.2551  0.9120 -0.5550
 9228SOL    HW239321   4.391   2.855   7.490 -0.7505  2.2929 -2.4401
 9229SOL     OW39322   3.143   0.258   3.749 -0.6032  0.5596 -0.0773
 9229SOL    HW139323   3.066   0.229   3.797  1.0171 -1.7289  1.1501
 9229SOL    HW239324   3.207   0.272   3.819 -2.0982 -2.7516  1.9277
 9230SOL     OW39325   2.501   4.202   2.267  0.2707  0.0611 -0.2093
 9230SOL    HW139326   2.584   4.188   2.220 -1.1309  0.4844 -2.8118
 9230SOL    HW239327   2.472   4.282   2.222 -1.2026 -0.4353 -0.1194
 9231SOL     OW39328   3.323   0.924   5.392 -0.8249 -0.2811 -0.2081
 9231SOL    HW139329   3.239   0.969   5.383  0.6241  2.0169 -2.1835
 9231SOL    HW239330   3.327   0.887   5.304 -2.5426 -3.6068  1.1422
 9232SOL     OW39331   1.555   3.261   9.242 -0.1019 -0.0070 -0.0289
 9232SOL    HW139332   1.572   3.251   9.336 -1.7948 -1.7555  0.0855
 9232SOL    HW239333   1.603   3.189   9.200 -0.0788 -1.1267  1.9102
 9233SOL     OW39334   2.989   0.363  16.829 -0.0025  0.1094 -0.2571
 9233SOL    HW139335   3.068   0.321  16.861 -0.8602 -1.6398 -0.4707
 9233SOL    HW239336   3.027   0.424  16.766 -0.4493  0.4474 -0.2045
 9234SOL     OW39337   4.245   2.851   6.843 -0.0954  0.3329 -0.0342
 9234SOL    HW139338   4.274   2.940   6.822 -0.1579 -0.5074 -3.6347
 9234SOL    HW239339   4.330   2.810   6.858  1.0418  2.2423 -1.3088
 9235SOL     OW39340   0.072   3.796   1.547 -0.3632  0.2511 -0.4748
 9235SOL    HW139341   0.005   3.864   1.554 -2.2791 -1.6734 -0.1559
 9235SOL    HW239342   0.095   3.770   1.636 -0.8944  0.3446 -0.3130
 9236SOL     OW39343   4.139   4.473   7.541 -0.2282  0.1492 -0.3239
 9236SOL    HW139344   4.106   4.436   7.623 -1.2272  2.5508  0.3494
 9236SOL    HW239345   4.085   4.552   7.535 -2.2348 -1.0773  1.2851
 9237SOL     OW39346   3.347   0.340  16.649  0.5483 -0.1661  0.1678
 9237SOL    HW139347   3.283   0.276  16.620  1.8685 -2.5577  2.5809
 9237SOL    HW239348   3.336   0.344  16.744  3.1029  2.9819  0.3365
 9238SOL     OW39349   3.646   3.798  14.908 -0.2367 -0.7985  0.2937
 9238SOL    HW139350   3.675   3.832  14.992  1.2459  0.3996 -0.7101
 9238SOL    HW239351   3.720   3.803  14.848  1.8161 -3.3407  2.5954
 9239SOL     OW39352   0.657   2.926  17.301 -0.2021 -0.5563  0.4716
 9239SOL    HW139353   0.643   2.834  17.276  0.1169 -0.1492 -1.2321
 9239SOL    HW239354   0.630   2.928  17.392  3.8447  2.2494  1.6021
 9240SOL     OW39355   2.081   2.938   6.858 -0.1312  0.5621  0.6246
 9240SOL    HW139356   2.155   2.922   6.917  0.2604  1.8906  0.4922
 9240SOL    HW239357   2.135   2.956   6.781 -0.2066  0.8289  0.6340
 9241SOL     OW39358   4.114   3.172   7.134  0.1084  0.1280  0.2150
 9241SOL    HW139359   4.045   3.108   7.117  1.7077 -0.9097 -2.3851
 9241SOL    HW239360   4.192   3.145   7.086  0.0866  0.7354 -0.1686
 9242SOL     OW39361   3.323   2.288   4.948  1.0165 -0.4312 -0.4594
 9242SOL    HW139362   3.275   2.231   5.008 -0.2450 -1.8172 -2.8258
 9242SOL    HW239363   3.413   2.292   4.982  0.8142  0.9465 -0.0559
 9243SOL     OW39364   0.089   1.010  15.784 -0.4449 -0.1827  1.1298
 9243SOL    HW139365   0.129   0.926  15.807 -2.5073 -1.3732  0.3490
 9243SOL    HW239366   0.121   1.012  15.694  0.3111  1.7526  1.4462
 9244SOL     OW39367   0.077   2.083   5.204  0.2969  0.5538 -0.1958
 9244SOL    HW139368   0.121   2.024   5.143  0.3529  0.2243  0.1612
 9244SOL    HW239369   4.725   2.047   5.188  0.3753 -0.9227  2.7291
 9245SOL     OW39370   1.887   1.355   1.424 -0.1358  0.0636  0.5122
 9245SOL    HW139371   1.819   1.310   1.374  0.3530 -0.1264  0.0236
 9245SOL    HW239372   1.909   1.432   1.372 -0.4405 -0.5826 -0.5603
 9246SOL     OW39373   4.192   2.149   7.406 -0.1430 -0.0037  0.0434
 9246SOL    HW139374   4.126   2.086   7.377  1.5364 -1.6859 -0.1144
 9246SOL    HW239375   4.175   2.144   7.500  1.3571  3.5540  0.5000
 9247SOL     OW39376   1.871   1.758   8.096 -0.2181 -0.4578 -0.4211
 9247SOL    HW139377   1.899   1.701   8.168  0.6344  0.9604  0.3937
 9247SOL    HW239378   1.824   1.697   8.040 -1.0806  0.9197 -1.1770
 9248SOL     OW39379   2.973   0.924   2.517 -0.7332  0.1303  0.3048
 9248SOL    HW139380   2.947   1.006   2.475 -2.7504  0.1111  1.5625
 9248SOL    HW239381   2.932   0.933   2.603  0.8017  0.9087  0.9602
 9249SOL     OW39382   3.313   1.047  16.079 -0.2142  0.0064 -0.5230
 9249SOL    HW139383   3.367   1.049  16.000 -2.0950 -1.3577 -1.8285
 9249SOL    HW239384   3.228   1.032  16.038  0.0070 -1.3473 -0.4637
 9250SOL     OW39385   2.947   4.565   3.741 -0.6605  0.4945  0.2642
 9250SOL    HW139386   2.991   4.557   3.826 -0.6547 -1.1501  0.1171
 9250SOL    HW239387   2.869   4.618   3.753 -1.3926  0.0280 -2.3933
 9251SOL     OW39388   2.471   3.624   4.909 -0.2260 -0.2686 -0.4470
 9251SOL    HW139389   2.514   3.708   4.888 -2.1496  0.7948 -0.1206
 9251SOL    HW239390   2.385   3.649   4.942  0.0811  2.0171 -1.3800
 9252SOL     OW39391   0.058   1.748   4.330  0.2403  0.1679 -0.1660
 9252SOL    HW139392   4.734   1.749   4.255 -0.5789  1.5364  0.4936
 9252SOL    HW239393   4.726   1.724   4.394  1.7881  1.6126  2.0234
 9253SOL     OW39394   3.127   3.070   2.414  0.3479 -0.5262  0.3189
 9253SOL    HW139395   3.109   3.015   2.490 -1.1086 -0.6964 -0.1347
 9253SOL    HW239396   3.045   3.080   2.365  0.5500 -0.3647  0.0170
 9254SOL     OW39397   1.348   2.658   2.645 -0.1841 -0.2415 -0.0890
 9254SOL    HW139398   1.439   2.631   2.653 -0.0874 -0.1720 -0.9478
 9254SOL    HW239399   1.309   2.607   2.716  1.8081  1.3507  2.1303
 9255SOL     OW39400   0.808   4.461   6.031 -0.2685  0.3933 -0.0976
 9255SOL    HW139401   0.900   4.473   6.008 -0.4704 -0.1099 -1.1826
 9255SOL    HW239402   0.792   4.523   6.102 -0.7555  0.8377 -0.5934
 9256SOL     OW39403   4.542   1.894  16.983  0.3748 -0.4852  0.1075
 9256SOL    HW139404   4.588   1.822  16.940 -0.8472  0.1678 -2.3013
 9256SOL    HW239405   4.545   1.863  17.074 -0.8156  2.9654  1.3040
 9257SOL     OW39406   1.205   2.934   4.618 -0.5021 -0.0029 -0.1266
 9257SOL    HW139407   1.281   2.982   4.652 -1.3945 -0.3259  2.3702
 9257SOL    HW239408   1.153   3.003   4.577 -0.4906  0.1967  0.1906
 9258SOL     OW39409   3.317   2.502   5.647 -0.0187 -0.4022  0.0213
 9258SOL    HW139410   3.232   2.462   5.670 -0.9076  1.1710 -0.5214
 9258SOL    HW239411   3.305   2.590   5.683 -0.6562 -0.6524  0.4311
 9259SOL     OW39412   1.580   0.254   9.173 -0.4225 -0.1654  0.3391
 9259SOL    HW139413   1.542   0.264   9.085 -0.3377  1.4413  0.4934
 9259SOL    HW239414   1.505   0.229   9.226 -1.8228  0.9149 -1.1199
 9260SOL     OW39415   2.771   0.209  11.567 -0.0714  0.2781  0.4605
 9260SOL    HW139416   2.808   0.289  11.602  2.5164 -1.8360  2.5890
 9260SOL    HW239417   2.805   0.139  11.623 -0.6566  1.0007  1.7223
 9261SOL     OW39418   0.072   4.331   2.284 -0.0242  0.4687 -0.0989
 9261SOL    HW139419   0.011   4.264   2.251  1.4972  0.1733 -2.2702
 9261SOL    HW239420   0.046   4.404   2.229  4.2415  2.7727  1.0134
 9262SOL     OW39421   4.444   2.889   2.771  0.7126 -0.4027 -0.4761
 9262SOL    HW139422   4.381   2.863   2.705  0.0528 -1.0205  0.3889
 9262SOL    HW239423   4.481   2.973   2.744  1.4815 -0.4268  0.4926
 9263SOL     OW39424   2.804   1.916  13.775 -0.1007  0.3469  0.6400
 9263SOL    HW139425   2.756   1.858  13.716 -1.7900 -0.3874  2.7678
 9263SOL    HW239426   2.789   1.861  13.852  1.2392 -0.7906  0.0697
 9264SOL     OW39427   2.460   3.586   0.393 -0.3047 -0.5063 -0.1775
 9264SOL    HW139428   2.452   3.664   0.338  1.4025 -0.1030  0.1362
 9264SOL    HW239429   2.553   3.568   0.383  0.7152  2.6830  3.5759
 9265SOL     OW39430   4.437   4.107   0.636  0.2708 -0.1304  0.8234
 9265SOL    HW139431   4.442   4.132   0.544 -0.3901  1.2895  1.1749
 9265SOL    HW239432   4.383   4.178   0.672 -1.1223 -0.9703  0.3760
 9266SOL     OW39433   1.234   1.254   5.832  0.9712  0.0841 -0.1087
 9266SOL    HW139434   1.174   1.322   5.863 -0.3333 -0.3346 -1.6933
 9266SOL    HW239435   1.192   1.180   5.877 -0.1686  1.1721  0.6277
 9267SOL     OW39436   4.485   2.483   8.931  0.0714 -0.2397  0.1591
 9267SOL    HW139437   4.506   2.559   8.878  0.9808 -1.0980 -0.7217
 9267SOL    HW239438   4.417   2.437   8.881 -1.8858  2.6800  0.1301
 9268SOL     OW39439   0.488   1.257  13.015 -0.0187 -0.1561 -0.1788
 9268SOL    HW139440   0.497   1.345  13.052  0.7164 -0.5609  0.6014
 9268SOL    HW239441   0.444   1.274  12.931 -0.9574 -1.5176  0.0389
 9269SOL     OW39442   4.234   2.546   5.635  0.1613  0.3295 -0.0388
 9269SOL    HW139443   4.184   2.625   5.654  1.7152  1.1941  0.4613
 9269SOL    HW239444   4.287   2.547   5.715  1.2027 -1.5763 -0.7022
 9270SOL     OW39445   1.137   0.931  14.228 -0.8675 -0.1192 -0.3476
 9270SOL    HW139446   1.225   0.967  14.232 -0.3498 -1.2381 -1.9733
 9270SOL    HW239447   1.132   0.929  14.132  0.5581 -0.4354 -0.4054
 9271SOL     OW39448   2.798   4.601   5.275 -0.5788  0.0337  0.2078
 9271SOL    HW139449   2.838   4.519   5.303 -0.6875 -0.0258  0.1910
 9271SOL    HW239450   2.815   4.609   5.181 -1.5672 -0.9911 -0.0704
 9272SOL     OW39451   4.447   3.680   5.208 -0.5266  0.1120  0.8631
 9272SOL    HW139452   4.372   3.736   5.185 -0.2564  0.1326  0.0517
 9272SOL    HW239453   4.409   3.621   5.274  0.7423 -0.3904  1.1277
 9273SOL     OW39454   1.037   3.471   1.466  0.0911  0.7601 -0.0728
 9273SOL    HW139455   1.128   3.492   1.487  0.0932  1.0717 -0.3891
 9273SOL    HW239456   1.009   3.429   1.547 -0.8653 -0.1996 -0.9146
 9274SOL     OW39457   2.722   4.305   0.242  0.5321 -0.2361 -0.5546
 9274SOL    HW139458   2.643   4.288   0.294  0.6524  1.1455  0.0703
 9274SOL    HW239459   2.796   4.282   0.298  0.3935  0.2458 -0.1740
 9275SOL     OW39460   2.121   4.257  17.559  0.1883 -0.2425 -0.2598
 9275SOL    HW139461   2.078   4.336  17.528  0.7558  0.8150  1.6903
 9275SOL    HW239462   2.175   4.232  17.483 -2.3437  0.5207 -2.2944
 9276SOL     OW39463   4.259   4.302   8.802 -0.1357  0.2360  0.0922
 9276SOL    HW139464   4.343   4.315   8.758 -0.8385 -0.6046 -1.4719
 9276SOL    HW239465   4.263   4.357   8.881  1.3275 -0.1310  0.2691
 9277SOL     OW39466   3.669   1.297   4.738 -0.2038  0.0702  0.2482
 9277SOL    HW139467   3.684   1.204   4.754 -0.0928  0.7432  4.0971
 9277SOL    HW239468   3.574   1.314   4.737 -0.3474 -0.8404 -0.6625
 9278SOL     OW39469   1.420   0.289   9.415  0.4868 -0.0145 -0.1055
 9278SOL    HW139470   1.430   0.384   9.423 -0.4593  0.2974 -2.7546
 9278SOL    HW239471   1.327   0.287   9.396  0.4503  2.3763 -0.1646
 9279SOL     OW39472   4.321   4.281  16.512  0.0517  0.0879  0.1354
 9279SOL    HW139473   4.345   4.347  16.577 -0.3581  0.0613  0.3108
 9279SOL    HW239474   4.248   4.238  16.556 -0.9953  1.5437 -0.1526
 9280SOL     OW39475   2.915   0.001   9.161  0.6010 -0.0488  0.3528
 9280SOL    HW139476   2.873   4.729   9.247 -1.3533  0.8459 -0.5164
 9280SOL    HW239477   2.846   0.050   9.116 -1.0345 -0.9620  1.8727
 9281SOL     OW39478   4.325   3.425   7.036 -0.4087  0.2899  0.3905
 9281SOL    HW139479   4.374   3.394   7.113 -0.0508  3.9692  1.6265
 9281SOL    HW239480   4.345   3.518   7.045  2.7543 -0.2727 -0.7197
 9282SOL     OW39481   3.756   0.384   5.660 -0.4186  0.4268 -0.3992
 9282SOL    HW139482   3.687   0.392   5.595 -1.7467 -0.2447  0.9326
 9282SOL    HW239483   3.765   0.471   5.699  3.2454 -0.1679  0.0925
 9283SOL     OW39484   1.824   4.068   7.080  0.1955 -0.5821 -0.6449
 9283SOL    HW139485   1.837   3.988   7.131 -0.6621 -0.8961 -0.9359
 9283SOL    HW239486   1.784   4.125   7.146  3.0417  0.5628  0.1056
 9284SOL     OW39487   0.435   1.981  12.371 -0.1160  0.0999 -0.3278
 9284SOL    HW139488   0.530   1.976  12.378  0.0269  1.2637 -1.5419
 9284SOL    HW239489   0.435   2.043  12.298  2.9143  1.5466  0.9046
 9285SOL     OW39490   1.134   3.047   4.082  0.2855 -0.4350  0.1178
 9285SOL    HW139491   1.038   3.053   4.078  0.5128  2.3086 -1.2105
 9285SOL    HW239492   1.157   3.113   4.017  0.3867 -3.4602 -2.8897
 9286SOL     OW39493   4.354   2.336   5.254  0.1322 -0.4769  0.2178
 9286SOL    HW139494   4.398   2.403   5.306  0.1575  1.0764 -1.7930
 9286SOL    HW239495   4.304   2.281   5.315  0.5780 -1.0125  0.1036
 9287SOL     OW39496   3.042   0.469   7.036  0.1147 -0.2694  0.1094
 9287SOL    HW139497   2.976   0.490   7.103 -0.4188 -0.3818 -0.3767
 9287SOL    HW239498   3.031   0.543   6.977  0.9211 -0.2659 -0.0281
 9288SOL     OW39499   1.006   1.764   8.243  0.1766  0.1713  0.4111
 9288SOL    HW139500   0.964   1.849   8.233 -2.2126 -0.9779  0.7515
 9288SOL    HW239501   1.096   1.796   8.256  0.2906 -0.4930  1.3055
 9289SOL     OW39502   0.628   0.069   6.197 -0.0901  0.2445  0.0325
 9289SOL    HW139503   0.575   0.040   6.123 -2.4013  2.1953  0.9164
 9289SOL    HW239504   0.687   0.129   6.153  0.6125 -1.9770 -2.0521
 9290SOL     OW39505   4.653   1.837   7.233 -0.4954  0.2243  0.3574
 9290SOL    HW139506   4.608   1.854   7.316  0.0605  2.1934  0.2534
 9290SOL    HW239507   4.610   1.762   7.193 -0.4084  0.6091 -0.4614
 9291SOL     OW39508   1.918   0.689  12.535  0.1124  0.4107 -0.4094
 9291SOL    HW139509   2.008   0.671  12.509 -0.4362 -1.5370 -0.9611
 9291SOL    HW239510   1.897   0.620  12.597  2.7202  0.0793  0.1169
 9292SOL     OW39511   3.107   0.608  16.674 -0.5701 -0.1608  0.2585
 9292SOL    HW139512   3.187   0.616  16.623  0.6693  1.2959  2.4377
 9292SOL    HW239513   3.102   0.683  16.733 -0.7015 -1.6046  2.1039
 9293SOL     OW39514   2.221   2.399   0.650 -0.1999  0.8486  0.3456
 9293SOL    HW139515   2.239   2.493   0.646  1.5723  0.5586  1.2755
 9293SOL    HW239516   2.176   2.383   0.567  0.0421  1.1695  0.1558
 9294SOL     OW39517   1.518   1.776   3.415 -0.3547 -0.7162  0.2932
 9294SOL    HW139518   1.489   1.768   3.324 -0.1853 -1.8335  0.3383
 9294SOL    HW239519   1.530   1.871   3.426 -0.5720 -0.7324  0.6814
 9295SOL     OW39520   4.302   2.455   4.886  0.4731 -0.5900 -0.2752
 9295SOL    HW139521   4.220   2.442   4.838  0.0339 -1.2561  0.6621
 9295SOL    HW239522   4.274   2.481   4.973  1.1134  1.0575 -0.5753
 9296SOL     OW39523   1.992   4.316   8.140 -0.4135  0.5191 -0.6064
 9296SOL    HW139524   1.952   4.244   8.189  0.3977  1.0964  0.8972
 9296SOL    HW239525   2.051   4.270   8.080 -0.7626 -2.5086  1.3700
 9297SOL     OW39526   0.887   4.030   4.273  0.7350 -0.6739  0.0290
 9297SOL    HW139527   0.917   4.066   4.356  0.2172 -0.3300  0.0659
 9297SOL    HW239528   0.944   3.954   4.255  1.1197 -0.4437  0.2824
 9298SOL     OW39529   1.182   1.146   7.365 -0.6097  0.0418 -0.0381
 9298SOL    HW139530   1.170   1.158   7.271  0.2907  3.0701  0.2419
 9298SOL    HW239531   1.119   1.080   7.394  0.1248 -0.2798  0.8429
 9299SOL     OW39532   4.173   2.024   2.992 -0.4846 -0.1809  0.1978
 9299SOL    HW139533   4.240   1.956   3.005 -0.2368 -0.2040 -1.1863
 9299SOL    HW239534   4.216   2.098   3.035 -1.8096 -0.2592  1.6460
 9300SOL     OW39535   0.640   3.433   0.696  0.1637 -0.1567 -0.1446
 9300SOL    HW139536   0.724   3.387   0.695 -0.5163 -1.3484 -1.8112
 9300SOL    HW239537   0.674   3.514   0.661 -1.1098 -0.0997 -1.2490
 9301SOL     OW39538   3.183   1.606   2.678  0.3031 -0.3678 -0.0176
 9301SOL    HW139539   3.212   1.636   2.764  1.7454  1.1038 -1.0117
 9301SOL    HW239540   3.088   1.610   2.688  0.2881 -1.3316  0.1553
 9302SOL     OW39541   3.817   3.037   9.441  0.0310 -0.0704 -0.1428
 9302SOL    HW139542   3.829   3.120   9.395  0.3464  0.5003  0.9967
 9302SOL    HW239543   3.892   3.034   9.499 -0.9649 -0.1821  1.1402
 9303SOL     OW39544   2.686   2.863   4.027  0.1773 -0.2319 -0.1761
 9303SOL    HW139545   2.713   2.839   3.939 -0.7614 -1.7793 -0.0339
 9303SOL    HW239546   2.714   2.955   4.029 -0.5712 -0.0015 -0.4132
 9304SOL     OW39547   2.161   3.801  14.309  0.0361 -0.3154 -0.0533
 9304SOL    HW139548   2.193   3.878  14.263 -2.5836  1.6285  1.3712
 9304SOL    HW239549   2.146   3.846  14.392 -1.1879  0.8122 -0.8930
 9305SOL     OW39550   1.363   2.992   0.121  0.4904  0.3202 -0.3917
 9305SOL    HW139551   1.281   2.944   0.120 -1.1900  3.2140 -2.3066
 9305SOL    HW239552   1.416   2.935   0.066  0.4810  0.2307 -0.3074
 9306SOL     OW39553   0.254   2.835  12.754  0.1290  0.1154  0.0191
 9306SOL    HW139554   0.319   2.771  12.723 -1.6018 -1.0936 -1.1193
 9306SOL    HW239555   0.310   2.899  12.798  2.0721 -1.3825 -0.2771
 9307SOL     OW39556   4.280   1.243   2.993  0.1160 -0.3250  0.7422
 9307SOL    HW139557   4.235   1.168   3.030  0.0530 -0.4296  0.4528
 9307SOL    HW239558   4.362   1.200   2.968  0.0110 -0.1584  0.1182
 9308SOL     OW39559   2.612   4.579   8.445  0.6217  0.0987  0.3927
 9308SOL    HW139560   2.698   4.614   8.466  0.3862  0.7580  0.2710
 9308SOL    HW239561   2.563   4.628   8.510  0.9238  2.9378 -1.4992
 9309SOL     OW39562   1.368   0.643   3.301 -0.0278  0.3814 -0.3178
 9309SOL    HW139563   1.458   0.614   3.315 -0.4224 -1.3031 -1.2123
 9309SOL    HW239564   1.322   0.604   3.375 -2.0114  0.0472 -1.7251
 9310SOL     OW39565   2.867   4.709   6.136 -0.0203  0.3984  0.3719
 9310SOL    HW139566   2.787   4.704   6.084  0.5116 -0.1052 -0.3902
 9310SOL    HW239567   2.842   0.047   6.193  0.6413 -0.9506  2.3797
 9311SOL     OW39568   0.016   4.375   6.624  0.0744  0.0907  0.0317
 9311SOL    HW139569   4.709   4.394   6.541 -0.4807  0.7298  0.4575
 9311SOL    HW239570   4.685   4.395   6.691  0.1877 -2.8087  1.0161
 9312SOL     OW39571   2.774   3.034   9.289 -0.0797 -0.0467  0.1415
 9312SOL    HW139572   2.685   3.035   9.253  0.5302  1.4572 -1.3618
 9312SOL    HW239573   2.769   3.011   9.381  1.5950 -0.9639 -0.0033
 9313SOL     OW39574   0.263   3.257   6.318 -0.4960  0.1445  0.2437
 9313SOL    HW139575   0.279   3.195   6.247  0.6612  0.8890 -0.1395
 9313SOL    HW239576   0.345   3.306   6.315  1.6538 -3.4473  0.1168
 9314SOL     OW39577   1.482   3.427   3.291  0.1974  0.0483 -0.3342
 9314SOL    HW139578   1.439   3.361   3.345  1.1316 -0.7836 -0.6109
 9314SOL    HW239579   1.568   3.425   3.334 -0.8051 -1.7415  1.6069
 9315SOL     OW39580   4.688   0.539   5.094  0.0610 -0.7502 -0.3241
 9315SOL    HW139581   0.012   0.610   5.072 -2.6347  1.2690 -1.1091
 9315SOL    HW239582   4.661   0.584   5.174 -1.2621 -0.3505 -0.9890
 9316SOL     OW39583   3.239   3.589   1.743 -0.0542  0.0772  0.5708
 9316SOL    HW139584   3.264   3.591   1.650 -1.1376  0.4468  0.2828
 9316SOL    HW239585   3.310   3.538   1.780  1.4595  0.5657 -1.6438
 9317SOL     OW39586   2.842   0.765   4.505  0.4054  0.2501 -0.2116
 9317SOL    HW139587   2.783   0.840   4.508  0.5817  0.4195 -1.0996
 9317SOL    HW239588   2.928   0.807   4.497  1.2739 -1.4649 -0.0005
 9318SOL     OW39589   1.321   3.043   1.991 -0.7367  0.3708  0.3766
 9318SOL    HW139590   1.296   2.957   2.025  0.3279 -1.0108 -2.3897
 9318SOL    HW239591   1.411   3.023   1.965 -0.2050 -1.4517  3.5936
 9319SOL     OW39592   4.281   4.185   7.005  0.1712  0.0976  0.8007
 9319SOL    HW139593   4.194   4.153   7.028 -0.5131  0.3492 -1.4406
 9319SOL    HW239594   4.338   4.120   7.045 -0.6825 -0.5729  0.9271
 9320SOL     OW39595   2.415   2.107   7.862 -0.5206 -0.0152  0.2215
 9320SOL    HW139596   2.470   2.034   7.834  0.9410  1.0444  0.3812
 9320SOL    HW239597   2.379   2.131   7.776  1.0251  1.3316 -0.0511
 9321SOL     OW39598   4.244   0.456   3.098 -0.1428 -0.2449  0.9564
 9321SOL    HW139599   4.314   0.520   3.114 -3.0115  2.4553  2.8123
 9321SOL    HW239600   4.171   0.507   3.132  0.4188  1.3491 -0.1981
 9322SOL     OW39601   2.163   0.439   2.611 -0.5838 -0.3482  0.0578
 9322SOL    HW139602   2.248   0.465   2.575 -0.9122  1.7721  0.8324
 9322SOL    HW239603   2.127   0.420   2.524  0.9405  2.4046 -1.1782
 9323SOL     OW39604   4.350   1.613   1.925  0.1771 -0.8854  0.6857
 9323SOL    HW139605   4.433   1.617   1.878 -1.7717  4.1823 -2.3045
 9323SOL    HW239606   4.374   1.539   1.980 -0.7153 -2.1433 -0.6490
 9324SOL     OW39607   3.211   2.515   9.141  0.2077 -0.9011  0.3168
 9324SOL    HW139608   3.134   2.570   9.128 -0.3683 -2.0377 -1.0516
 9324SOL    HW239609   3.249   2.545   9.224  0.0202  0.4557 -0.0992
 9325SOL     OW39610   0.132   0.217   5.598 -0.0156 -0.4987 -0.4404
 9325SOL    HW139611   0.213   0.195   5.553 -0.4540  1.4235 -2.1546
 9325SOL    HW239612   0.087   0.255   5.523  1.2891 -1.4130 -1.6790
 9326SOL     OW39613   1.995   4.024   8.138  0.3852 -0.7036 -0.6014
 9326SOL    HW139614   1.934   4.021   8.211 -0.5343  1.4697 -1.2854
 9326SOL    HW239615   1.929   4.038   8.070 -0.4222 -0.1839  0.2851
 9327SOL     OW39616   0.760   2.986   2.016  0.6578 -0.3754 -0.0405
 9327SOL    HW139617   0.781   3.076   1.991 -2.3034  0.2434 -0.3398
 9327SOL    HW239618   0.812   2.939   1.951 -0.5418 -0.3179 -1.0376
 9328SOL     OW39619   0.927   1.773   1.721  0.2890  0.1253 -0.0320
 9328SOL    HW139620   0.945   1.851   1.772 -0.8213  0.6545 -0.4413
 9328SOL    HW239621   0.878   1.720   1.785 -0.7540  0.4274 -0.5802
 9329SOL     OW39622   4.653   0.381  13.214  0.8279 -0.3303 -0.2184
 9329SOL    HW139623   4.675   0.472  13.232  0.6918  0.0230 -1.8272
 9329SOL    HW239624   4.689   0.374  13.126 -0.5878 -1.7133 -0.6816
 9330SOL     OW39625   2.997   4.336   5.560 -0.2226 -0.0022  0.3759
 9330SOL    HW139626   2.954   4.348   5.644  1.1924 -1.3528  1.3029
 9330SOL    HW239627   3.034   4.422   5.542  0.5185 -0.7642 -1.8600
 9331SOL     OW39628   1.002   3.413   1.731 -0.4027 -0.3293 -0.6204
 9331SOL    HW139629   0.923   3.467   1.735 -1.8098 -2.2491 -2.9647
 9331SOL    HW239630   1.013   3.387   1.823  3.2132 -0.4650 -1.0906
 9332SOL     OW39631   1.929   4.556   4.435 -0.2605  0.0276  0.2224
 9332SOL    HW139632   1.848   4.533   4.479  0.8459 -0.6454  1.8936
 9332SOL    HW239633   1.903   4.618   4.367  1.1349 -0.6878 -0.9776
 9333SOL     OW39634   1.356   2.020   5.835 -0.5498  0.2900  0.2561
 9333SOL    HW139635   1.345   2.099   5.782  0.9662  0.9129  0.8718
 9333SOL    HW239636   1.282   2.024   5.896 -0.5963  2.5487  0.0637
 9334SOL     OW39637   0.632   0.778   6.309  0.4252 -0.7191  0.0911
 9334SOL    HW139638   0.647   0.869   6.337  0.5398 -0.3889 -1.0494
 9334SOL    HW239639   0.540   0.767   6.333  0.3293  1.5628  0.7882
 9335SOL     OW39640   2.899   1.156   5.034  0.0954 -0.5170 -0.2219
 9335SOL    HW139641   2.862   1.232   4.989 -1.6133 -0.2222  1.7003
 9335SOL    HW239642   2.825   1.134   5.090  0.0488  0.8238  0.2362
 9336SOL     OW39643   2.598   4.149   3.405  0.1827 -0.1030  0.5033
 9336SOL    HW139644   2.647   4.195   3.473  2.4546 -1.4498 -0.2453
 9336SOL    HW239645   2.555   4.073   3.446 -0.3215  0.2750  0.6732
 9337SOL     OW39646   1.087   1.926  17.026 -0.3674 -0.5790 -0.1285
 9337SOL    HW139647   1.159   1.902  16.968 -1.2214  0.7864 -1.7545
 9337SOL    HW239648   1.012   1.882  16.986 -0.4306  0.1309 -0.8052
 9338SOL     OW39649   1.870   4.067   2.341  0.5080  0.0526  0.1705
 9338SOL    HW139650   1.775   4.069   2.327  0.5370  1.1777  0.1406
 9338SOL    HW239651   1.876   3.976   2.369  0.6160  0.5376  1.7500
 9339SOL     OW39652   1.704   4.637   5.614 -0.1069 -0.1870 -0.0458
 9339SOL    HW139653   1.726   4.593   5.696  0.5403  1.4686  0.6689
 9339SOL    HW239654   1.663   4.565   5.565  0.6012 -1.0155  0.5760
 9340SOL     OW39655   1.156   2.165   8.824 -0.0873  0.4937  0.3119
 9340SOL    HW139656   1.077   2.112   8.824  0.5665 -0.4744  1.0818
 9340SOL    HW239657   1.203   2.153   8.742  2.6824 -1.0016  2.1136
 9341SOL     OW39658   0.650   4.513   3.456 -0.2617  0.4562 -0.4562
 9341SOL    HW139659   0.687   4.582   3.511  2.3192 -2.5224  1.4840
 9341SOL    HW239660   0.559   4.541   3.447 -0.8318 -0.8608  1.4416
 9342SOL     OW39661   3.290   1.772   3.209  0.3007  0.8259 -0.4884
 9342SOL    HW139662   3.226   1.738   3.272 -0.8883  0.2126 -2.0256
 9342SOL    HW239663   3.344   1.821   3.270  1.1494  0.5666 -1.0240
 9343SOL     OW39664   1.523   3.330   9.490 -0.0096 -0.0348 -0.3602
 9343SOL    HW139665   1.566   3.354   9.572  0.8287 -2.6864 -0.0303
 9343SOL    HW239666   1.463   3.262   9.520  3.0185 -1.5574  2.3699
 9344SOL     OW39667   3.095   0.109  10.827 -0.6980  0.2762 -0.3926
 9344SOL    HW139668   3.135   0.191  10.853 -1.4478  1.0406 -1.6469
 9344SOL    HW239669   3.011   0.105  10.874 -0.7489  0.8036 -0.4425
 9345SOL     OW39670   0.710   0.127   8.503  0.2908  0.3555  0.4033
 9345SOL    HW139671   0.711   0.041   8.463  0.2995 -0.2068  1.5942
 9345SOL    HW239672   0.661   0.109   8.584  0.4591 -1.4749  0.0742
 9346SOL     OW39673   3.098   1.458   4.500  0.0255 -0.0580  0.4935
 9346SOL    HW139674   3.114   1.527   4.565 -0.3376 -0.1160  0.6478
 9346SOL    HW239675   3.026   1.412   4.544  0.5575  0.0619  1.5090
 9347SOL     OW39676   2.010   0.495  14.953  0.1261 -0.3985 -0.1534
 9347SOL    HW139677   2.040   0.520  15.040  0.5340  1.6269 -0.8732
 9347SOL    HW239678   2.046   0.566  14.900  2.5836  0.2364  2.3614
 9348SOL     OW39679   3.310   3.276   1.589  0.0223 -0.1267  0.5033
 9348SOL    HW139680   3.318   3.266   1.494 -0.6040 -0.5268  0.4892
 9348SOL    HW239681   3.365   3.353   1.604  0.0707 -0.0826  0.1026
 9349SOL     OW39682   1.827   4.733  13.430 -0.0889 -0.2164 -0.1627
 9349SOL    HW139683   1.855   0.013  13.520  2.5577 -2.3868 -0.6599
 9349SOL    HW239684   1.916   0.011  13.397 -0.1396  1.2241  0.2597
 9350SOL     OW39685   3.977   1.889   4.208  0.5987  0.0652  0.1322
 9350SOL    HW139686   4.030   1.867   4.131  2.0579 -0.3532  1.2520
 9350SOL    HW239687   3.904   1.831   4.189  1.3112 -1.0190  0.7485
 9351SOL     OW39688   4.232   3.950   3.541  0.6222  0.3810  0.2392
 9351SOL    HW139689   4.179   3.871   3.531  1.2222  0.2643 -2.0167
 9351SOL    HW239690   4.202   3.964   3.631  2.3989  0.8055  0.7742
 9352SOL     OW39691   4.235   0.974   6.379 -0.0586 -0.3619  0.4740
 9352SOL    HW139692   4.226   1.021   6.462  1.8927 -1.0304  1.0692
 9352SOL    HW239693   4.162   0.912   6.386  0.4019 -0.9729 -0.1198
 9353SOL     OW39694   2.372   0.948   5.730 -0.0216  0.0573 -0.0744
 9353SOL    HW139695   2.455   0.963   5.687 -0.3170  0.5134 -0.4832
 9353SOL    HW239696   2.322   0.922   5.653 -0.4444 -0.5138  0.3878
 9354SOL     OW39697   3.474   1.654   4.208  0.7547 -0.5354 -0.0617
 9354SOL    HW139698   3.411   1.583   4.221 -1.8070  1.4892 -1.3839
 9354SOL    HW239699   3.538   1.626   4.273  2.3499  1.1188 -0.9350
 9355SOL     OW39700   4.257   3.415   3.945 -0.7561 -0.0226 -0.5967
 9355SOL    HW139701   4.200   3.339   3.930 -0.8206  0.2211 -1.6178
 9355SOL    HW239702   4.338   3.365   3.942 -0.7355  0.1057 -2.4551
 9356SOL     OW39703   2.390   4.095   1.982 -0.1033  0.7668  0.0372
 9356SOL    HW139704   2.421   4.148   1.908  1.4072  0.7834  0.6978
 9356SOL    HW239705   2.452   4.025   2.001 -0.4237  0.5299  0.2080
 9357SOL     OW39706   1.841   2.233   6.959  0.1329  0.2470 -0.1259
 9357SOL    HW139707   1.892   2.309   6.931  0.9481 -0.4380 -0.4989
 9357SOL    HW239708   1.793   2.279   7.028  0.2124  0.1328  0.0052
 9358SOL     OW39709   2.514   0.564   8.235  0.3746 -0.9156  0.8925
 9358SOL    HW139710   2.556   0.549   8.150 -1.2203  0.3222 -0.0995
 9358SOL    HW239711   2.504   0.476   8.269  2.3415 -1.3004  0.4977
 9359SOL     OW39712   0.567   3.347   5.651  0.7332 -0.9552 -0.0837
 9359SOL    HW139713   0.606   3.267   5.617  1.6759  0.6304 -2.7760
 9359SOL    HW239714   0.630   3.357   5.723 -3.4032  0.7061  3.3509
 9360SOL     OW39715   2.003   1.491  13.034 -0.1277 -0.2199  0.2364
 9360SOL    HW139716   1.939   1.513  13.102 -1.5944 -0.2364 -1.1392
 9360SOL    HW239717   1.951   1.425  12.988  0.3666 -2.4649  2.9279
 9361SOL     OW39718   0.522   4.309   8.555  0.1379  0.2382 -0.4694
 9361SOL    HW139719   0.491   4.222   8.530 -2.3610  0.4335  2.0292
 9361SOL    HW239720   0.562   4.289   8.639  0.3857  0.2000 -0.5960
 9362SOL     OW39721   0.739   1.950   9.578 -0.4986 -0.2250  0.3515
 9362SOL    HW139722   0.684   1.948   9.657 -0.9419  0.5578  0.0648
 9362SOL    HW239723   0.738   2.043   9.554  2.6830 -0.6769 -1.4994
 9363SOL     OW39724   2.348   4.693   2.857 -0.3797 -0.2698  0.2491
 9363SOL    HW139725   2.401   4.616   2.835 -1.5480 -1.3893  1.3380
 9363SOL    HW239726   2.284   4.656   2.917  1.7718 -2.2454  1.2943
 9364SOL     OW39727   2.506   4.032   6.280  0.7586  0.0414  0.2801
 9364SOL    HW139728   2.599   4.014   6.267  0.5320 -0.8069 -0.2042
 9364SOL    HW239729   2.470   3.989   6.201  1.7691  0.6597 -0.5178
 9365SOL     OW39730   3.383   3.923   6.542 -0.0780 -0.0353  0.0717
 9365SOL    HW139731   3.443   3.858   6.579 -0.6676 -0.8118 -0.3471
 9365SOL    HW239732   3.308   3.865   6.528 -1.1950  1.0800  1.4545
 9366SOL     OW39733   3.056   2.319   2.742  0.1552 -0.1782  0.4238
 9366SOL    HW139734   3.128   2.258   2.728  0.5385  0.3123  0.3034
 9366SOL    HW239735   3.046   2.354   2.654  0.0537  2.0627  1.3360
 9367SOL     OW39736   3.530   0.420  11.286  0.3456 -0.5043  0.4267
 9367SOL    HW139737   3.554   0.344  11.232  1.1283  0.1894 -0.1844
 9367SOL    HW239738   3.618   0.455  11.298  0.3959  0.0020 -1.4706
 9368SOL     OW39739   3.681   0.634   8.375  0.0062 -0.2964  0.4285
 9368SOL    HW139740   3.776   0.633   8.378  0.0810 -1.9872 -2.1424
 9368SOL    HW239741   3.662   0.709   8.319  0.4118  0.9162  1.9385
 9369SOL     OW39742   4.404   3.541   1.961 -0.1702  0.2963 -0.1900
 9369SOL    HW139743   4.492   3.526   1.927 -0.1770 -2.1398  0.8416
 9369SOL    HW239744   4.351   3.501   1.891  0.3816 -1.2361  0.2704
 9370SOL     OW39745   0.625   3.345   3.640  0.2860 -0.1360 -0.8461
 9370SOL    HW139746   0.620   3.383   3.728  1.4698 -2.0595  0.0501
 9370SOL    HW239747   0.715   3.314   3.630  0.8667  1.1773  0.3575
 9371SOL     OW39748   2.150   1.504   9.044  0.0920  0.3806  0.3929
 9371SOL    HW139749   2.222   1.566   9.032 -0.9227  1.2085 -1.4073
 9371SOL    HW239750   2.100   1.513   8.962 -2.2975  0.8039  1.8841
 9372SOL     OW39751   1.355   2.636   4.456 -0.2459  0.2792 -0.8475
 9372SOL    HW139752   1.398   2.640   4.370  0.8722 -1.0707 -0.3560
 9372SOL    HW239753   1.288   2.570   4.444 -0.4962  0.1309  1.4054
 9373SOL     OW39754   1.954   1.427   4.250  0.7248 -0.2604 -0.6231
 9373SOL    HW139755   1.904   1.346   4.252  3.3182 -1.8021  1.7453
 9373SOL    HW239756   2.044   1.396   4.247  1.0182  0.6596 -1.1862
 9374SOL     OW39757   2.444   1.731   4.762  0.4730 -0.0004  0.1765
 9374SOL    HW139758   2.349   1.740   4.755  0.3507 -2.7844 -1.6262
 9374SOL    HW239759   2.456   1.770   4.848 -0.9550 -0.7837  0.7272
 9375SOL     OW39760   1.897   0.948   8.626  0.2393  0.2460 -0.2596
 9375SOL    HW139761   1.900   0.935   8.721  1.9620 -2.2839 -0.6519
 9375SOL    HW239762   1.986   0.979   8.612  0.5111 -0.2056  0.4555
 9376SOL     OW39763   2.084   3.361   4.412 -0.3361  0.2258  0.0721
 9376SOL    HW139764   2.146   3.433   4.410 -0.3667  0.2206 -1.0211
 9376SOL    HW239765   2.052   3.385   4.499  1.0668  1.5179  0.2244
 9377SOL     OW39766   1.742   0.989  13.930 -0.2178 -0.3886  0.0661
 9377SOL    HW139767   1.758   1.077  13.897 -1.1511 -0.6679 -1.1479
 9377SOL    HW239768   1.829   0.948  13.929  0.2083  0.4803  1.1817
 9378SOL     OW39769   3.155   0.583  15.231 -0.0171  0.1238 -0.1272
 9378SOL    HW139770   3.242   0.607  15.264 -0.5206  1.2730  0.3459
 9378SOL    HW239771   3.180   0.593  15.139  1.9203 -2.5826  0.1036
 9379SOL     OW39772   3.721   3.228  11.700 -0.6568 -0.0143  0.1540
 9379SOL    HW139773   3.798   3.229  11.643  1.0218 -3.0450  2.3834
 9379SOL    HW239774   3.758   3.203  11.785  0.0984 -1.5369 -0.6233
 9380SOL     OW39775   1.395   3.361   4.453 -0.2642  0.3161 -0.1288
 9380SOL    HW139776   1.414   3.291   4.515  0.5218  2.0951  1.6505
 9380SOL    HW239777   1.481   3.388   4.419 -1.2232  1.6174 -1.5224
 9381SOL     OW39778   3.183   3.745   6.530  0.1040  0.1339 -0.4328
 9381SOL    HW139779   3.115   3.757   6.464 -1.5271 -2.3201  0.7896
 9381SOL    HW239780   3.159   3.817   6.590 -0.1726  0.8123 -1.3641
 9382SOL     OW39781   1.307   3.572   8.712  0.6443  0.0519  0.5053
 9382SOL    HW139782   1.302   3.484   8.751 -0.3444 -0.7051 -1.3729
 9382SOL    HW239783   1.221   3.607   8.735  1.3448  2.0496  0.0479
 9383SOL     OW39784   1.468   1.902   4.818 -0.0303 -0.7902 -0.4614
 9383SOL    HW139785   1.441   1.924   4.907  2.8053 -0.4781  0.3064
 9383SOL    HW239786   1.493   1.987   4.783  1.5337 -0.6113  1.0789
 9384SOL     OW39787   3.553   3.188  16.514 -0.1928 -0.2300 -0.2848
 9384SOL    HW139788   3.558   3.259  16.449 -0.0879 -1.4486 -1.6000
 9384SOL    HW239789   3.572   3.115  16.455  1.6691 -0.7718  0.9816
 9385SOL     OW39790   0.704   4.707   6.648  0.2590 -0.2984 -0.5677
 9385SOL    HW139791   0.745   0.059   6.651 -0.1968 -0.0699 -0.9955
 9385SOL    HW239792   0.764   4.661   6.589 -0.5287 -1.6280 -0.3162
 9386SOL     OW39793   4.572   3.579   1.548 -0.4838 -0.3202 -0.0670
 9386SOL    HW139794   4.642   3.535   1.596 -1.8098  0.4386  2.5818
 9386SOL    HW239795   4.565   3.534   1.464  1.0089 -0.0457 -0.3361
 9387SOL     OW39796   0.297   3.493   4.464  0.0193 -0.0169 -0.2285
 9387SOL    HW139797   0.274   3.407   4.500  3.3758 -1.1864 -0.9449
 9387SOL    HW239798   0.239   3.549   4.516 -1.7843 -1.4746 -0.6321
 9388SOL     OW39799   4.048   0.204   6.677 -0.1147  0.3311 -0.8525
 9388SOL    HW139800   3.953   0.196   6.689 -0.5627  3.4627 -2.2534
 9388SOL    HW239801   4.060   0.272   6.744 -3.5844  0.1477 -0.0324
 9389SOL     OW39802   3.429   3.637   5.614 -0.8031  0.5299  0.2118
 9389SOL    HW139803   3.422   3.619   5.707 -1.1302  1.0220  0.2844
 9389SOL    HW239804   3.441   3.548   5.581 -0.1513  0.2931  1.1135
 9390SOL     OW39805   3.354   0.323   8.182  0.1072 -0.4983  0.3083
 9390SOL    HW139806   3.436   0.371   8.170  0.4217 -1.4784 -1.4634
 9390SOL    HW239807   3.321   0.368   8.260 -1.6094  2.6031 -2.1805
 9391SOL     OW39808   1.621   2.794  14.218  0.2919  0.1774 -0.3541
 9391SOL    HW139809   1.617   2.877  14.266 -3.9248 -0.8646  1.0956
 9391SOL    HW239810   1.547   2.789  14.158  0.3711 -0.7162 -0.3894
 9392SOL     OW39811   1.937   3.334   4.039 -0.0482 -0.1588  0.5471
 9392SOL    HW139812   1.988   3.255   4.057 -0.5419 -0.3924  0.9013
 9392SOL    HW239813   1.945   3.329   3.943  0.6831 -0.7550  0.6441
 9393SOL     OW39814   2.885   2.702   2.713 -0.3819 -0.0457  0.4583
 9393SOL    HW139815   2.979   2.706   2.733 -0.0085 -1.4382 -1.0271
 9393SOL    HW239816   2.847   2.685   2.799 -0.2171 -0.3022  0.4818
 9394SOL     OW39817   4.162   2.695   1.948  0.3112 -0.2172 -0.1021
 9394SOL    HW139818   4.160   2.604   1.977 -1.6104 -0.4690 -0.9960
 9394SOL    HW239819   4.253   2.719   1.928  0.2949 -0.7151 -0.7736
 9395SOL     OW39820   0.914   3.478   2.785  0.9311 -0.4822  0.3674
 9395SOL    HW139821   0.848   3.546   2.797 -0.5569 -1.8623  0.0668
 9395SOL    HW239822   0.929   3.464   2.878  2.2655 -0.8536  0.0913
 9396SOL     OW39823   2.482   3.576   3.275  0.3430  0.0879 -0.2583
 9396SOL    HW139824   2.513   3.527   3.200 -1.5379  2.1706 -2.3951
 9396SOL    HW239825   2.555   3.633   3.302 -0.8594  0.9298  1.2303
 9397SOL     OW39826   4.633   3.654   2.139  0.7640  0.6614  0.2760
 9397SOL    HW139827   4.575   3.583   2.112  0.6169 -0.1831  2.7431
 9397SOL    HW239828   4.573   3.729   2.138 -0.7755 -0.5738  0.4032
 9398SOL     OW39829   1.601   3.106   6.877 -0.6119  0.6208  0.1270
 9398SOL    HW139830   1.508   3.116   6.895 -0.1071  2.4145  1.8185
 9398SOL    HW239831   1.602   3.044   6.804 -0.1437 -1.4714  1.8885
 9399SOL     OW39832   1.418   3.733  14.305 -0.0167  0.3915  0.1309
 9399SOL    HW139833   1.465   3.708  14.226  1.8613 -0.9041  1.6690
 9399SOL    HW239834   1.333   3.694  14.283  0.4610 -0.0135 -0.9787
 9400SOL     OW39835   0.793   2.479   7.641 -0.2736  0.2097  0.0700
 9400SOL    HW139836   0.784   2.390   7.607  0.0363  0.3662 -0.4307
 9400SOL    HW239837   0.703   2.494   7.671 -0.5791  1.9960 -1.6993
 9401SOL     OW39838   3.050   2.319   9.371  0.1546 -0.1466 -0.1372
 9401SOL    HW139839   2.972   2.359   9.411  0.9427 -0.2252  1.4459
 9401SOL    HW239840   3.080   2.264   9.442  1.1051 -1.9580 -1.9653
 9402SOL     OW39841   1.168   2.127   8.296  0.2260  0.1805  0.1614
 9402SOL    HW139842   1.201   2.044   8.330  0.0197  0.1313  0.2412
 9402SOL    HW239843   1.094   2.095   8.244 -0.4344  2.6151 -0.4021
 9403SOL     OW39844   1.037   1.895  11.498 -0.2158  0.5876  0.6612
 9403SOL    HW139845   1.051   1.869  11.589  0.1905  1.2998  0.7982
 9403SOL    HW239846   0.973   1.966  11.500 -2.0115 -1.0377  1.0607
 9404SOL     OW39847   2.877   4.579   5.003 -0.2226 -0.0244 -0.3114
 9404SOL    HW139848   2.899   4.488   5.019  0.8592  0.2956  0.0970
 9404SOL    HW239849   2.963   4.602   4.965 -1.0662  0.8135 -1.7128
 9405SOL     OW39850   0.578   2.040  11.853 -0.2324  0.5217  0.5574
 9405SOL    HW139851   0.611   2.003  11.935 -1.5322  1.4104  1.4781
 9405SOL    HW239852   0.533   1.969  11.807  0.7998  1.3341 -1.7083
 9406SOL     OW39853   0.621   0.179  16.501 -0.0201  0.3305 -0.0856
 9406SOL    HW139854   0.592   0.271  16.506  1.1789  0.6892  0.2590
 9406SOL    HW239855   0.547   0.137  16.457 -0.1014 -0.0415  0.4060
 9407SOL     OW39856   2.600   4.348   6.743  0.0054  0.9144  0.1573
 9407SOL    HW139857   2.684   4.373   6.703  0.3542  0.7771  0.8015
 9407SOL    HW239858   2.599   4.258   6.711  0.1692  1.0566 -0.2449
 9408SOL     OW39859   0.494   0.499   6.221 -0.1885 -0.3558 -1.0461
 9408SOL    HW139860   0.438   0.566   6.262  1.9408  0.2537  0.8460
 9408SOL    HW239861   0.457   0.508   6.133 -0.8456 -1.9754 -0.9269
 9409SOL     OW39862   2.439   1.884  17.020 -0.8029  0.4450 -0.0053
 9409SOL    HW139863   2.396   1.967  17.044 -0.2222  0.4670  0.9432
 9409SOL    HW239864   2.494   1.872  17.097 -2.1596 -0.7127  0.7776
 9410SOL     OW39865   4.361   2.936   1.613 -0.0618 -0.1113 -0.2053
 9410SOL    HW139866   4.324   2.975   1.692 -1.8210  0.6879 -1.4451
 9410SOL    HW239867   4.299   2.871   1.579 -1.0261 -0.4627  2.2264
 9411SOL     OW39868   3.043   4.299   4.658  0.1945 -0.2690 -0.2567
 9411SOL    HW139869   2.973   4.346   4.702 -0.4104 -2.2982  0.9556
 9411SOL    HW239870   3.119   4.351   4.685  0.1262 -1.3657  2.0847
 9412SOL     OW39871   4.292   1.669   9.249  0.1359  0.1619 -0.0547
 9412SOL    HW139872   4.334   1.622   9.321  2.6336  2.5314  0.0173
 9412SOL    HW239873   4.338   1.626   9.178 -0.2093 -0.4535  0.0973
 9413SOL     OW39874   4.706   4.480   4.261  0.0300 -0.0578 -0.2031
 9413SOL    HW139875   4.680   4.545   4.196  0.3631  0.3398  0.0584
 9413SOL    HW239876   0.049   4.435   4.227 -0.0657 -0.4049  0.0315
 9414SOL     OW39877   3.408   1.510  11.563  0.5354 -0.0897 -0.4188
 9414SOL    HW139878   3.431   1.498  11.471 -2.7459 -2.0652 -0.9841
 9414SOL    HW239879   3.345   1.582  11.559  1.9646  1.1888  0.2459
 9415SOL     OW39880   2.039   3.799   1.515 -0.1203  0.6246 -0.0770
 9415SOL    HW139881   1.972   3.733   1.499  0.0772  0.0716  1.3184
 9415SOL    HW239882   2.010   3.878   1.469 -0.0043  1.5043  1.3370
 9416SOL     OW39883   4.051   4.299   6.420  0.6039  0.3465  0.1663
 9416SOL    HW139884   4.042   4.233   6.488  0.3867  0.1077 -0.0940
 9416SOL    HW239885   3.968   4.346   6.426 -0.1583 -0.9197 -0.4704
 9417SOL     OW39886   0.608   3.200   9.539  0.3359  0.2884  0.6776
 9417SOL    HW139887   0.574   3.284   9.510  3.0815  0.7777 -1.1632
 9417SOL    HW239888   0.676   3.235   9.597  0.8318 -0.5834  0.6301
 9418SOL     OW39889   0.249   0.047   9.463 -0.0273 -0.4084  0.6812
 9418SOL    HW139890   0.321   0.022   9.522  0.6338 -3.3687 -1.3992
 9418SOL    HW239891   0.170   0.021   9.510  1.3919 -2.0579  2.1718
 9419SOL     OW39892   4.064   0.717   2.567  0.1873 -0.4767 -0.8430
 9419SOL    HW139893   4.128   0.785   2.550  0.7864 -1.0271 -0.8004
 9419SOL    HW239894   4.090   0.689   2.655  0.4674  0.9661 -0.4682
 9420SOL     OW39895   1.359   1.645   1.185  0.1158 -0.4306  0.5480
 9420SOL    HW139896   1.425   1.576   1.187 -0.0585 -0.6232 -0.4232
 9420SOL    HW239897   1.311   1.628   1.266 -0.1259 -1.0073  0.2867
 9421SOL     OW39898   1.562   0.029   6.809  0.3468  0.1205 -0.2803
 9421SOL    HW139899   1.611   0.061   6.885 -0.6768  0.4151  0.2597
 9421SOL    HW239900   1.503   0.103   6.788 -0.5544 -0.3814  0.4644
 9422SOL     OW39901   2.349   2.394   3.530 -0.3204  0.1129 -0.4790
 9422SOL    HW139902   2.259   2.411   3.503 -0.4340  2.2853  1.2311
 9422SOL    HW239903   2.346   2.418   3.623 -0.9555  0.6538 -0.6332
 9423SOL     OW39904   0.347   3.227   4.088 -0.1371 -0.3465  0.1660
 9423SOL    HW139905   0.397   3.208   4.009 -0.5761  0.5516 -0.3338
 9423SOL    HW239906   0.351   3.145   4.137  1.0056 -1.0336 -1.0804
 9424SOL     OW39907   3.817   1.467   4.875 -0.2371  0.3929 -0.0780
 9424SOL    HW139908   3.876   1.497   4.806 -2.3251  0.6010 -1.7748
 9424SOL    HW239909   3.789   1.389   4.828 -0.6288  1.5913 -1.8254
 9425SOL     OW39910   1.729   2.102   4.893  0.1405  0.2949  0.2977
 9425SOL    HW139911   1.729   2.025   4.949  2.4638 -0.2302 -0.4367
 9425SOL    HW239912   1.733   2.174   4.956 -0.1987  1.4027 -0.9489
 9426SOL     OW39913   4.699   3.224   8.290  0.2328  0.6277 -0.1494
 9426SOL    HW139914   4.735   3.196   8.374  0.2039  1.6892  0.2149
 9426SOL    HW239915   4.636   3.291   8.316  1.0152  1.2957  0.0308
 9427SOL     OW39916   3.728   1.242  15.954  0.2778 -0.1441 -0.1757
 9427SOL    HW139917   3.651   1.291  15.925  2.5553  1.1616 -4.1121
 9427SOL    HW239918   3.695   1.172  16.010 -0.8497  0.6966  0.2131
 9428SOL     OW39919   0.032   3.749   7.712 -0.1372  0.4126 -0.4042
 9428SOL    HW139920   0.053   3.730   7.620 -0.2086 -0.9080 -0.1549
 9428SOL    HW239921   0.103   3.716   7.767 -0.8984 -2.9232 -1.3707
 9429SOL     OW39922   0.189   1.804  17.600  0.4462 -0.5199  0.1103
 9429SOL    HW139923   0.209   1.880  17.655  0.9609  1.1944 -2.4205
 9429SOL    HW239924   0.186   1.731  17.662  1.8255 -0.5115  0.1850
 9430SOL     OW39925   3.037   3.176  14.922 -0.1655 -0.5532  0.4452
 9430SOL    HW139926   3.131   3.181  14.907 -0.1535 -0.6965  0.4731
 9430SOL    HW239927   2.999   3.198  14.836 -0.8656  0.7109  1.0633
 9431SOL     OW39928   4.268   1.010   3.590 -0.2742 -0.1736  0.2108
 9431SOL    HW139929   4.227   1.012   3.504  1.7806  1.4631 -0.7124
 9431SOL    HW239930   4.190   1.027   3.643 -1.8451 -2.4360 -1.3871
 9432SOL     OW39931   0.815   3.216   9.036 -0.5196 -0.4715 -0.2272
 9432SOL    HW139932   0.821   3.291   9.094 -1.2703 -1.0282  0.5746
 9432SOL    HW239933   0.746   3.170   9.084  1.7998 -2.2452  1.3949
 9433SOL     OW39934   0.290   0.111   2.500 -0.3728  0.1328  1.0427
 9433SOL    HW139935   0.262   0.202   2.511  0.2500  0.4317  0.1043
 9433SOL    HW239936   0.255   0.097   2.412 -1.4518  1.6418  1.2147
 9434SOL     OW39937   0.194   2.977  15.496  0.0613  0.0752 -0.1577
 9434SOL    HW139938   0.249   3.036  15.444 -0.0504 -2.6908 -3.4170
 9434SOL    HW239939   0.113   2.988  15.447 -0.1820  0.1246  0.2588
 9435SOL     OW39940   4.613   1.413   3.865 -0.2104 -0.3434  0.1058
 9435SOL    HW139941   4.556   1.368   3.928  0.4660 -0.3438  0.7242
 9435SOL    HW239942   4.611   1.497   3.910 -0.5917 -0.0650 -0.4428
 9436SOL     OW39943   4.525   3.060   1.875  0.2814 -0.8429  0.2486
 9436SOL    HW139944   4.606   3.030   1.835 -0.2704 -2.1758  0.1312
 9436SOL    HW239945   4.505   3.140   1.826 -0.0754 -3.0686 -3.2668
 9437SOL     OW39946   3.553   3.896   1.288 -0.0269 -0.4232  0.0541
 9437SOL    HW139947   3.532   3.983   1.323  0.2468 -0.8941  1.3754
 9437SOL    HW239948   3.504   3.893   1.206  1.5033 -1.8705 -0.7957
 9438SOL     OW39949   1.329   2.632   5.619  0.5505  0.0935 -0.1871
 9438SOL    HW139950   1.383   2.698   5.661 -1.2943  0.8176  1.0358
 9438SOL    HW239951   1.264   2.610   5.686 -0.7548  0.2193 -1.4082
 9439SOL     OW39952   3.923   4.613   4.008  0.0804 -0.2604  0.3208
 9439SOL    HW139953   3.968   4.605   3.924  0.1367  1.6552  0.1899
 9439SOL    HW239954   3.931   4.523   4.040 -2.9016 -0.6658  0.0105
 9440SOL     OW39955   3.804   1.530  10.810  0.6069 -0.2382  0.1993
 9440SOL    HW139956   3.795   1.622  10.785  0.9406  0.2337  1.7524
 9440SOL    HW239957   3.712   1.505  10.810  1.1835 -2.3638  1.3367
 9441SOL     OW39958   2.615   1.971   4.968 -0.3114  0.2423  0.2881
 9441SOL    HW139959   2.651   2.039   4.911  0.2594  0.9768  1.5449
 9441SOL    HW239960   2.530   2.007   4.995 -0.2900  0.1893  0.4222
 9442SOL     OW39961   0.147   2.353   5.140 -0.2208  0.3792  0.5277
 9442SOL    HW139962   0.066   2.393   5.107 -1.0292 -0.9030  0.9522
 9442SOL    HW239963   0.121   2.266   5.172 -1.5765  0.7904  0.5490
 9443SOL     OW39964   0.542   1.267   8.674  0.1375  0.5455 -0.5750
 9443SOL    HW139965   0.516   1.185   8.716  3.2639  0.4404  1.1488
 9443SOL    HW239966   0.634   1.265   8.699  0.2553  0.2484 -1.0456
 9444SOL     OW39967   2.088   2.943   6.255  0.0492  0.3120 -0.2318
 9444SOL    HW139968   1.998   2.933   6.224 -0.5533  0.7561  1.3294
 9444SOL    HW239969   2.083   2.994   6.336 -1.3511 -1.2225  0.6709
 9445SOL     OW39970   1.383   1.821   9.601 -0.1710 -0.1361 -0.1376
 9445SOL    HW139971   1.410   1.730   9.589  1.0828 -0.0264  1.9290
 9445SOL    HW239972   1.346   1.823   9.689 -0.0007 -0.6778 -0.0551
 9446SOL     OW39973   0.775   0.012   9.058  0.5215 -0.4312 -0.2141
 9446SOL    HW139974   0.715   0.085   9.050  2.0636  0.6475 -2.0709
 9446SOL    HW239975   0.734   4.690   9.122 -0.7674  1.6162  0.7697
 9447SOL     OW39976   4.248   0.131   2.667  0.4721 -0.0471  0.4383
 9447SOL    HW139977   4.222   0.214   2.707 -0.6271  0.7441 -1.9289
 9447SOL    HW239978   4.239   0.067   2.737  0.4165 -1.8980 -1.2495
 9448SOL     OW39979   1.544   4.019   4.405  0.2480 -0.4115 -0.0162
 9448SOL    HW139980   1.550   4.113   4.393 -1.1233 -0.4254 -0.7949
 9448SOL    HW239981   1.630   4.004   4.368  0.3391  2.1192 -0.8238
 9449SOL     OW39982   1.239   1.831  13.696 -0.5190 -0.1043  0.3794
 9449SOL    HW139983   1.173   1.785  13.644 -1.2531 -0.7082  1.8389
 9449SOL    HW239984   1.288   1.872  13.625 -0.2327  0.8077  1.1065
 9450SOL     OW39985   2.933   0.399   2.128  0.2316  0.4351 -0.5083
 9450SOL    HW139986   2.912   0.398   2.221  1.3267 -1.4828 -0.2655
 9450SOL    HW239987   3.018   0.353   2.128 -0.6055 -1.1163  1.6867
 9451SOL     OW39988   1.022   1.453  16.152 -0.2612  0.1145  0.2664
 9451SOL    HW139989   1.074   1.466  16.231  0.6812 -0.0193 -0.3292
 9451SOL    HW239990   0.973   1.536  16.146  1.3214  1.0444  0.2106
 9452SOL     OW39991   2.980   2.396   4.127  0.6859  0.0882  0.0128
 9452SOL    HW139992   2.942   2.326   4.073 -0.4027 -1.7813  3.2047
 9452SOL    HW239993   2.905   2.455   4.137  0.8001  0.0132  1.3656
 9453SOL     OW39994   3.149   2.804  15.608  0.6875  0.1281  0.2739
 9453SOL    HW139995   3.224   2.811  15.549 -0.8519  0.3416 -1.6972
 9453SOL    HW239996   3.184   2.833  15.692 -1.2582 -0.2844  1.2219
 9454SOL     OW39997   2.588   0.427   4.764  0.0877  0.4275 -0.5895
 9454SOL    HW139998   2.547   0.343   4.745 -2.2532  1.4020  0.2158
 9454SOL    HW239999   2.570   0.447   4.856  0.3036 -1.4969 -0.1247
 9455SOL     OW40000   1.592   0.722   3.698  0.1511  0.4514  0.4992
 9455SOL    HW140001   1.641   0.728   3.616 -1.6854 -1.1523 -0.6804
 9455SOL    HW240002   1.509   0.764   3.678  0.3211 -0.6060 -2.2823
 9456SOL     OW40003   1.481   3.803   7.304  0.3705  0.2804 -1.0021
 9456SOL    HW140004   1.449   3.748   7.376  1.5174  1.2555  0.2502
 9456SOL    HW240005   1.461   3.750   7.227  0.3807  0.0507 -0.8476
 9457SOL     OW40006   1.100   3.179   3.579 -0.6903 -0.0795 -0.5937
 9457SOL    HW140007   1.149   3.256   3.550  1.1761 -0.9687  0.2575
 9457SOL    HW240008   1.183   3.144   3.610 -0.4743 -0.2371 -1.3635
 9458SOL     OW40009   4.040   4.367   4.047 -0.2240 -0.4992 -0.4899
 9458SOL    HW140010   4.063   4.322   3.966  0.7756 -2.1428  0.7105
 9458SOL    HW240011   3.959   4.318   4.060 -0.3954 -0.8497 -2.8916
 9459SOL     OW40012   0.221   0.758   5.662  0.7024  0.2566  0.2622
 9459SOL    HW140013   0.308   0.793   5.644  0.8832 -0.1138  0.4134
 9459SOL    HW240014   0.201   0.755   5.569 -0.3237  0.0434  0.4948
 9460SOL     OW40015   4.337   3.906   8.018  0.4204 -0.0454  0.5923
 9460SOL    HW140016   4.247   3.940   8.018 -0.2984 -1.9510 -0.4114
 9460SOL    HW240017   4.385   3.987   8.036  0.2732  0.3401 -0.7543
 9461SOL     OW40018   1.286   4.224   6.586  0.2518  0.9749 -0.0330
 9461SOL    HW140019   1.376   4.207   6.614  0.0646 -0.3764 -0.2848
 9461SOL    HW240020   1.297   4.221   6.491 -1.7331  0.1167 -0.2296
 9462SOL     OW40021   3.101   1.184   4.076  0.0627 -0.2394 -0.2883
 9462SOL    HW140022   3.086   1.164   4.169 -1.8150  2.7895  0.0547
 9462SOL    HW240023   3.021   1.157   4.033  0.4000 -1.0023 -0.4467
 9463SOL     OW40024   2.828   2.067   4.347  0.0821  0.0576 -0.2062
 9463SOL    HW140025   2.750   2.011   4.348  0.7321 -0.8999 -2.1150
 9463SOL    HW240026   2.785   2.140   4.391  0.3757  0.1450 -0.0642
 9464SOL     OW40027   2.878   3.651   2.239  0.0007  0.0216 -0.1417
 9464SOL    HW140028   2.896   3.600   2.318  1.9821 -0.5387 -0.9607
 9464SOL    HW240029   2.870   3.574   2.183  1.3449  0.8987 -1.5317
 9465SOL     OW40030   3.676   3.873  16.877 -0.1194 -0.3210  0.1603
 9465SOL    HW140031   3.705   3.825  16.955  0.4203 -1.6347 -0.8424
 9465SOL    HW240032   3.594   3.907  16.914  0.7810 -1.7886  3.4927
 9466SOL     OW40033   0.445   3.450   8.686 -0.2057  0.0733  0.1838
 9466SOL    HW140034   0.539   3.456   8.703 -0.6523 -1.9694  3.4241
 9466SOL    HW240035   0.414   3.505   8.758 -0.4204 -1.1999  1.0792
 9467SOL     OW40036   1.837   4.702   9.016  0.1428 -0.0394 -0.3166
 9467SOL    HW140037   1.877   0.053   9.004 -1.4434  0.6865 -0.4965
 9467SOL    HW240038   1.867   4.667   9.099 -0.7499 -1.1804 -0.4826
 9468SOL     OW40039   3.601   2.224  15.231  0.0827 -0.7132 -0.4370
 9468SOL    HW140040   3.631   2.298  15.179  1.2546 -1.6697 -1.1083
 9468SOL    HW240041   3.633   2.253  15.317  0.7331 -1.3258 -0.4739
 9469SOL     OW40042   2.310   1.536  13.749  0.0927  0.2970  0.7439
 9469SOL    HW140043   2.392   1.490  13.730  1.0938  2.8436 -1.0749
 9469SOL    HW240044   2.327   1.614  13.697 -1.0191 -0.7658 -1.1978
 9470SOL     OW40045   3.428   0.373   2.392 -0.2106  0.0397 -0.1925
 9470SOL    HW140046   3.466   0.433   2.328  1.5644 -0.3159  0.5138
 9470SOL    HW240047   3.334   0.377   2.374 -0.4424 -0.0997  0.9753
 9471SOL     OW40048   3.887   3.448   8.751 -0.5992  0.1165  0.4087
 9471SOL    HW140049   3.952   3.441   8.680 -0.7405 -1.6293  0.4528
 9471SOL    HW240050   3.856   3.529   8.712 -0.6104 -0.0695  0.0271
 9472SOL     OW40051   2.003   1.744   3.018 -0.6969  0.0151  0.6076
 9472SOL    HW140052   1.972   1.807   2.952 -0.9331 -1.8844 -1.0869
 9472SOL    HW240053   2.026   1.668   2.965 -1.0317  1.4837 -1.6413
 9473SOL     OW40054   4.123   1.096   3.380 -0.0576 -0.7103 -0.0480
 9473SOL    HW140055   4.187   1.163   3.357  0.2503 -1.0382 -0.1417
 9473SOL    HW240056   4.057   1.150   3.424 -1.8810 -1.7366 -1.5061
 9474SOL     OW40057   4.132   0.234  14.995  0.0036  0.6050 -0.0751
 9474SOL    HW140058   4.179   0.167  14.946 -0.3717 -0.6081  1.2039
 9474SOL    HW240059   4.169   0.211  15.081 -0.7447  0.4605  0.2100
 9475SOL     OW40060   0.121   3.838   2.134  0.6723  0.2354  0.2578
 9475SOL    HW140061   0.080   3.752   2.130 -0.6509  0.8439  0.5263
 9475SOL    HW240062   0.053   3.891   2.093  0.9596  0.1423 -0.3431
 9476SOL     OW40063   2.033   0.185   9.644  0.2454 -0.1015  0.9482
 9476SOL    HW140064   1.974   0.111   9.628 -0.3296  0.7435 -0.8000
 9476SOL    HW240065   2.089   0.179   9.566 -0.8504 -0.5599  0.1871
 9477SOL     OW40066   4.063   3.740   3.469 -0.7030 -0.1841 -0.9925
 9477SOL    HW140067   4.059   3.645   3.478  0.4670 -0.3700 -2.4368
 9477SOL    HW240068   4.037   3.748   3.377  0.9389  0.4041 -1.4066
 9478SOL     OW40069   4.209   2.954  13.077  0.5355  0.3788 -1.0626
 9478SOL    HW140070   4.201   2.976  12.984  0.7945  1.7141 -0.7698
 9478SOL    HW240071   4.224   2.860  13.071 -0.3271  0.1087  1.2801
 9479SOL     OW40072   0.731   3.189   7.998  0.0656 -0.0057  0.0596
 9479SOL    HW140073   0.682   3.227   8.071  0.5506 -0.4251  0.5937
 9479SOL    HW240074   0.750   3.100   8.026 -0.0138 -1.1610 -3.4760
 9480SOL     OW40075   2.043   4.340   4.684  0.0084 -0.1261 -0.2816
 9480SOL    HW140076   2.047   4.400   4.759 -3.2406  0.9190 -0.9832
 9480SOL    HW240077   2.058   4.252   4.720  0.9259  0.2260  0.2101
 9481SOL     OW40078   0.188   1.153   3.688 -0.8321  0.0857  0.5001
 9481SOL    HW140079   0.103   1.114   3.668 -0.3994 -0.0647 -1.0272
 9481SOL    HW240080   0.225   1.164   3.601 -0.2415 -4.2344  0.2071
 9482SOL     OW40081   2.529   0.312   4.155 -0.4557 -0.1627 -0.2178
 9482SOL    HW140082   2.494   0.250   4.218  2.6360 -1.1490  0.5542
 9482SOL    HW240083   2.601   0.349   4.207 -0.0490 -0.2334 -0.7296
 9483SOL     OW40084   2.879   3.601  10.773 -0.4270  0.0584 -0.7335
 9483SOL    HW140085   2.914   3.581  10.860 -1.3742  0.8301 -0.1733
 9483SOL    HW240086   2.794   3.640  10.794 -0.1959 -0.1845  0.7060
 9484SOL     OW40087   3.890   0.886   5.805  0.0377  0.3559  0.5912
 9484SOL    HW140088   3.868   0.937   5.883 -1.2127  2.1440 -0.9208
 9484SOL    HW240089   3.814   0.913   5.753  1.0087 -1.0258 -1.5662
 9485SOL     OW40090   0.885   2.345   6.465 -0.3635  0.2043 -0.8406
 9485SOL    HW140091   0.800   2.388   6.475  0.3156  1.0355  1.3625
 9485SOL    HW240092   0.875   2.300   6.381  0.4998  0.9230 -1.3289
 9486SOL     OW40093   1.683   1.025   0.318  0.2755  0.1467 -0.1233
 9486SOL    HW140094   1.672   1.105   0.267  0.9142  1.7751  2.2635
 9486SOL    HW240095   1.776   1.005   0.303  0.4839  1.2843 -0.3300
 9487SOL     OW40096   2.361   3.734  11.885 -0.4937  0.4831 -0.0184
 9487SOL    HW140097   2.395   3.823  11.876 -0.3525  0.4181 -0.1080
 9487SOL    HW240098   2.302   3.725  11.810 -1.9379  0.8326  1.0608
 9488SOL     OW40099   1.112   0.112   4.526 -0.3309  0.4796 -0.4011
 9488SOL    HW140100   1.051   0.045   4.495  0.9151  0.0030 -1.8664
 9488SOL    HW240101   1.190   0.114   4.469 -0.6423 -1.6073 -0.9075
 9489SOL     OW40102   0.314   3.470   6.564  0.2579 -1.2811  0.1782
 9489SOL    HW140103   0.335   3.497   6.654  0.9796  1.0598 -0.6768
 9489SOL    HW240104   0.400   3.446   6.529 -1.3447 -3.1169 -2.5054
 9490SOL     OW40105   0.986   4.595   7.973 -0.6828 -0.4005 -0.0039
 9490SOL    HW140106   0.991   4.500   7.959 -0.7447 -0.1307 -1.8430
 9490SOL    HW240107   0.955   4.612   7.884 -1.0828  0.1104  0.2304
 9491SOL     OW40108   0.465   3.935  12.576 -0.0321  0.2824 -0.3797
 9491SOL    HW140109   0.389   3.990  12.594 -1.3306 -2.2057  1.6343
 9491SOL    HW240110   0.417   3.853  12.564  1.2704 -0.2479 -2.0103
 9492SOL     OW40111   0.053   1.412   1.495  0.2338 -0.6921  0.0299
 9492SOL    HW140112   0.101   1.482   1.539 -0.3163  0.7968 -1.7912
 9492SOL    HW240113   0.016   1.377   1.576 -0.1223 -0.1411  0.1007
 9493SOL     OW40114   3.926   3.112   5.991 -0.2193  0.2402 -0.0667
 9493SOL    HW140115   4.014   3.146   6.010  0.1536 -1.4103  1.2007
 9493SOL    HW240116   3.894   3.191   5.946  3.2581  1.6725 -0.0288
 9494SOL     OW40117   4.442   3.258   2.256  1.0876  0.0133 -0.1531
 9494SOL    HW140118   4.510   3.191   2.250  1.2436  0.0779  0.9489
 9494SOL    HW240119   4.414   3.243   2.346  0.6016  1.5530 -0.0455
 9495SOL     OW40120   0.826   1.631  12.538 -0.3739 -0.1747 -0.0062
 9495SOL    HW140121   0.750   1.600  12.587 -1.1551  2.6520  0.5967
 9495SOL    HW240122   0.882   1.676  12.601 -1.9108 -1.6621  2.3961
 9496SOL     OW40123   3.034   2.603  14.928  0.2138  0.0619  0.0355
 9496SOL    HW140124   3.039   2.682  14.874 -0.2691 -0.2211 -0.4323
 9496SOL    HW240125   3.007   2.638  15.013 -0.6118  1.9356 -1.0011
 9497SOL     OW40126   3.527   3.412  14.437  0.2590 -0.4128  0.6339
 9497SOL    HW140127   3.588   3.338  14.433 -1.6934 -1.9346 -1.2217
 9497SOL    HW240128   3.493   3.394  14.525 -1.7841  1.6105  0.2635
 9498SOL     OW40129   1.795   1.357   6.334  0.3172 -0.6101  0.0683
 9498SOL    HW140130   1.741   1.408   6.394 -0.1391 -1.1347  0.1115
 9498SOL    HW240131   1.778   1.407   6.254 -0.8979  0.7264  1.1723
 9499SOL     OW40132   3.498   0.339   2.986  0.2163 -0.0050 -0.2146
 9499SOL    HW140133   3.440   0.413   2.966  1.1855  0.7410 -0.2611
 9499SOL    HW240134   3.580   0.383   3.009  0.2398  0.0230 -0.3513
 9500SOL     OW40135   0.061   1.294  12.569 -0.5049 -0.0414 -0.0151
 9500SOL    HW140136   0.062   1.273  12.663  0.1994 -1.0417 -0.2432
 9500SOL    HW240137   4.718   1.349  12.570  0.2238  0.9977 -2.7497
 9501SOL     OW40138   1.743   2.541  14.286 -0.3106 -0.2300  0.1669
 9501SOL    HW140139   1.820   2.574  14.241  0.4593 -0.9537  0.9603
 9501SOL    HW240140   1.684   2.616  14.276 -0.3003  0.0382  2.1928
 9502SOL     OW40141   3.015   1.945   2.613  0.3774  0.7854 -0.3164
 9502SOL    HW140142   3.014   1.903   2.527  2.6976  0.5244 -0.2144
 9502SOL    HW240143   3.075   2.019   2.600 -1.2587  2.0722 -0.4591
 9503SOL     OW40144   1.440   3.858   4.121 -0.6199 -0.8624 -0.9559
 9503SOL    HW140145   1.456   3.782   4.178  1.5864  1.3551  1.3671
 9503SOL    HW240146   1.391   3.901   4.190 -0.2789  1.1717 -2.0014
 9504SOL     OW40147   0.241   1.550   1.857 -0.8331 -0.5055  0.3032
 9504SOL    HW140148   0.245   1.455   1.843 -1.7996 -0.2463 -1.7590
 9504SOL    HW240149   0.224   1.569   1.765  1.2125 -1.5619 -0.3038
 9505SOL     OW40150   0.078   1.846   7.003 -0.0737  0.3941 -0.0308
 9505SOL    HW140151   0.018   1.774   6.984 -1.3043  1.6569 -0.9434
 9505SOL    HW240152   0.044   1.876   7.087  0.0118  0.1288  0.0960
 9506SOL     OW40153   2.003   3.730   2.868  0.6235 -0.1257 -0.3083
 9506SOL    HW140154   2.002   3.676   2.948  0.6101 -0.9846 -0.8834
 9506SOL    HW240155   2.094   3.760   2.864  0.4276  0.6343  0.9267
 9507SOL     OW40156   0.414   2.690   3.681  0.2265 -0.2578  0.0632
 9507SOL    HW140157   0.399   2.724   3.769  3.9958 -1.6335  1.2482
 9507SOL    HW240158   0.428   2.596   3.692 -0.7950 -0.2874  1.0526
 9508SOL     OW40159   3.027   0.410  16.225 -0.4257 -0.3755 -0.1100
 9508SOL    HW140160   3.054   0.402  16.134  4.0864 -0.6287  1.2305
 9508SOL    HW240161   3.099   0.454  16.271 -0.7023  3.1137 -2.9938
 9509SOL     OW40162   1.834   2.862   8.351  0.0127  0.0459 -0.1160
 9509SOL    HW140163   1.847   2.834   8.261  0.7276 -1.8481  0.5894
 9509SOL    HW240164   1.743   2.890   8.344 -0.3027 -0.6441  1.2669
 9510SOL     OW40165   4.532   1.542  15.691 -0.0848 -0.4681  0.0957
 9510SOL    HW140166   4.557   1.476  15.625 -0.2716  0.2139 -0.6505
 9510SOL    HW240167   4.611   1.595  15.690 -0.4599  0.1075  1.0543
 9511SOL     OW40168   0.993   4.162   3.068  0.4547  0.0421  0.0345
 9511SOL    HW140169   1.050   4.190   3.140  1.2799 -0.6427 -0.3452
 9511SOL    HW240170   0.987   4.067   3.076 -1.5908  0.1046 -0.8253
 9512SOL     OW40171   4.393   2.447   3.997  0.3696  0.4203  0.1871
 9512SOL    HW140172   4.327   2.379   3.982  0.9980 -0.4272  1.1669
 9512SOL    HW240173   4.360   2.493   4.074  0.8622  2.2722 -0.7310
 9513SOL     OW40174   1.201   2.137   7.687 -0.6826 -0.1320  0.2173
 9513SOL    HW140175   1.250   2.162   7.608  0.4371 -0.2191  0.8847
 9513SOL    HW240176   1.194   2.043   7.670  2.1968 -0.0842 -1.2347
 9514SOL     OW40177   0.119   4.476   7.164 -0.9975  0.5289  0.1813
 9514SOL    HW140178   0.167   4.514   7.090 -0.5386  3.3398  1.9611
 9514SOL    HW240179   0.148   4.533   7.234  1.3165  1.5531 -1.5931
 9515SOL     OW40180   2.080   4.085   9.916  0.3636  0.1414  0.1658
 9515SOL    HW140181   2.094   4.165   9.967  0.1383  1.1254 -1.3266
 9515SOL    HW240182   2.112   4.019   9.978 -0.7362 -1.8738 -1.4266
 9516SOL     OW40183   1.214   1.128   3.172 -0.4423  0.6470  0.2893
 9516SOL    HW140184   1.221   1.085   3.087 -0.2971 -0.1390  0.7001
 9516SOL    HW240185   1.298   1.173   3.170 -0.5010  0.8918  2.6738
 9517SOL     OW40186   4.678   1.448   8.580  0.1529  0.5337  0.3356
 9517SOL    HW140187   4.695   1.404   8.497  0.4218  2.6080 -0.7130
 9517SOL    HW240188   4.666   1.372   8.637 -0.6392 -1.5312 -2.5708
 9518SOL     OW40189   0.409   3.292   0.664  0.8829  0.5486 -0.8756
 9518SOL    HW140190   0.500   3.321   0.670  0.9689  0.1953 -0.4803
 9518SOL    HW240191   0.422   3.198   0.652  0.1202  0.5040 -1.3680
 9519SOL     OW40192   3.225   2.948   6.771  0.3789  0.1009  0.1355
 9519SOL    HW140193   3.292   2.885   6.743 -2.9042 -2.2510 -2.3394
 9519SOL    HW240194   3.268   3.025   6.734 -0.3507  0.6885  0.5200
 9520SOL     OW40195   3.020   0.752   6.322 -0.2375  0.6890  0.8961
 9520SOL    HW140196   2.937   0.707   6.303  1.0632 -1.7699  1.0851
 9520SOL    HW240197   3.063   0.752   6.237  0.1079  0.7929  1.0724
 9521SOL     OW40198   3.070   2.984   9.524  0.6123  1.0549  0.0243
 9521SOL    HW140199   2.977   2.993   9.543  0.1771 -1.2654 -0.9899
 9521SOL    HW240200   3.061   2.960   9.432  2.6799 -0.2319  0.1328
 9522SOL     OW40201   1.310   1.529   7.885 -0.7004 -0.4635  0.1720
 9522SOL    HW140202   1.293   1.435   7.894 -0.7604 -0.3354  1.4718
 9522SOL    HW240203   1.320   1.552   7.978  0.2175 -1.2989  0.2846
 9523SOL     OW40204   1.394   1.351   9.200  0.0131 -0.0063 -0.3429
 9523SOL    HW140205   1.443   1.403   9.263  1.3980 -0.9870 -0.6050
 9523SOL    HW240206   1.303   1.363   9.224  0.3414 -0.8818  1.3351
 9524SOL     OW40207   3.079   1.232   9.249 -0.2615 -0.5714 -0.4715
 9524SOL    HW140208   3.043   1.299   9.307 -1.0318 -2.1523  0.8897
 9524SOL    HW240209   3.098   1.284   9.171 -0.5644  0.1592 -0.0521
 9525SOL     OW40210   3.909   2.277  12.034  0.3633 -0.0078  0.0993
 9525SOL    HW140211   3.830   2.328  12.052 -0.9677 -1.4368 -1.6393
 9525SOL    HW240212   3.897   2.207  12.098 -1.1932 -0.9549 -1.2326
 9526SOL     OW40213   1.656   1.471   9.994 -0.5686 -0.1644  0.1805
 9526SOL    HW140214   1.668   1.420  10.074  1.1095  0.9089  0.6054
 9526SOL    HW240215   1.579   1.430   9.954  0.2881 -1.5879 -0.0328
 9527SOL     OW40216   2.226   2.989  16.556  0.2361 -0.6060 -0.4905
 9527SOL    HW140217   2.130   2.993  16.554  0.2101  0.1831  2.8374
 9527SOL    HW240218   2.247   2.931  16.630  2.5720  2.5816  1.3281
 9528SOL     OW40219   3.811   0.032   8.383 -0.3838 -0.0365 -0.6204
 9528SOL    HW140220   3.779   0.056   8.471  1.6497  0.9566 -0.1520
 9528SOL    HW240221   3.882   0.096   8.377 -3.3253  3.2867  0.0130
 9529SOL     OW40222   0.332   2.858  11.574 -0.0752 -0.2958  0.7775
 9529SOL    HW140223   0.336   2.764  11.593 -1.2995 -1.1244 -2.9216
 9529SOL    HW240224   0.305   2.895  11.658  0.2216 -1.6209  1.4613
 9530SOL     OW40225   0.169   2.207   2.622 -0.0690  0.2634 -1.0317
 9530SOL    HW140226   0.118   2.194   2.702  0.2669  0.4134 -0.7940
 9530SOL    HW240227   0.189   2.114   2.606  1.7983  0.3820  0.6570
 9531SOL     OW40228   4.433   1.007   8.069  0.0609  0.1602 -0.2905
 9531SOL    HW140229   4.490   1.042   8.138 -0.1893 -2.8738  1.4800
 9531SOL    HW240230   4.350   1.052   8.085  1.1339  1.7352  0.8749
 9532SOL     OW40231   1.108   3.567   4.254  0.1804  0.6463 -0.3409
 9532SOL    HW140232   1.107   3.662   4.243  0.9781  0.4906 -1.7661
 9532SOL    HW240233   1.026   3.544   4.212  0.4478  1.6251 -1.4065
 9533SOL     OW40234   2.435   1.672   2.867 -0.0186  0.4384 -0.2122
 9533SOL    HW140235   2.402   1.696   2.780  1.4029 -1.0698 -1.1581
 9533SOL    HW240236   2.407   1.746   2.921 -0.8508 -0.1545  0.1807
 9534SOL     OW40237   3.256   0.217   8.626  0.4780 -0.1468  0.5331
 9534SOL    HW140238   3.219   0.143   8.578 -2.2401  1.2216  0.5584
 9534SOL    HW240239   3.336   0.228   8.575 -0.6064  2.6658 -0.5698
 9535SOL     OW40240   0.240   0.635   6.112 -0.2799  0.2313  0.4522
 9535SOL    HW140241   0.162   0.610   6.161 -1.2701 -2.1455 -2.3089
 9535SOL    HW240242   0.200   0.675   6.034 -0.1268  0.0848  0.2961
 9536SOL     OW40243   1.087   3.629   5.497  0.3669 -0.3197  0.3448
 9536SOL    HW140244   1.143   3.693   5.453 -0.3368 -0.6871 -1.0811
 9536SOL    HW240245   1.114   3.556   5.441 -3.4524 -1.0429 -0.5262
 9537SOL     OW40246   4.293   0.529   9.201  0.8472 -0.2915 -0.5535
 9537SOL    HW140247   4.280   0.535   9.106 -0.2759 -1.1184 -0.4557
 9537SOL    HW240248   4.207   0.504   9.236  1.0454 -1.3435 -0.8280
 9538SOL     OW40249   1.238   2.779   5.216 -0.2454 -0.7143  0.6199
 9538SOL    HW140250   1.287   2.753   5.138 -1.1633 -0.3954 -0.0712
 9538SOL    HW240251   1.178   2.704   5.220  1.1482 -1.8847 -0.6278
 9539SOL     OW40252   0.228   0.147  14.098 -0.2821 -0.1124  0.8269
 9539SOL    HW140253   0.274   0.132  14.015 -1.9293 -2.0204  0.2671
 9539SOL    HW240254   0.141   0.119  14.070  0.2615 -1.7092  0.7229
 9540SOL     OW40255   1.434   3.865   8.284  0.1372 -0.1400 -0.6318
 9540SOL    HW140256   1.366   3.825   8.338 -1.5711  1.0529 -1.8942
 9540SOL    HW240257   1.419   3.810   8.207  2.7171 -1.6234 -0.0375
 9541SOL     OW40258   0.304   3.444  10.029 -0.3932  0.4200 -0.4179
 9541SOL    HW140259   0.258   3.400  10.100  0.0289  1.4406  0.4839
 9541SOL    HW240260   0.374   3.381  10.011 -0.9577 -0.1780 -0.4892
 9542SOL     OW40261   3.761   3.934   3.009 -0.2388 -0.2592  0.4395
 9542SOL    HW140262   3.744   3.966   2.920 -0.0125 -0.3689  0.3570
 9542SOL    HW240263   3.816   3.864   2.975 -1.5217 -2.0516  2.0470
 9543SOL     OW40264   3.420   1.969   1.290  0.1934 -0.2407  0.4193
 9543SOL    HW140265   3.508   1.937   1.312  0.3534 -0.3305 -0.3740
 9543SOL    HW240266   3.380   1.968   1.377  1.7922 -1.5694  1.1437
 9544SOL     OW40267   2.819   3.581   1.722  0.0350 -0.2691 -0.0649
 9544SOL    HW140268   2.862   3.586   1.637  1.3100 -0.9959  0.5336
 9544SOL    HW240269   2.851   3.493   1.742 -1.1159 -0.7455 -0.3061
 9545SOL     OW40270   0.399   4.183  13.053 -0.5404  0.4302 -0.1166
 9545SOL    HW140271   0.369   4.188  13.144  0.6703 -1.7876  0.3981
 9545SOL    HW240272   0.355   4.113  13.007  0.8475 -1.2674  1.1496
 9546SOL     OW40273   3.749   1.058   5.974 -0.6439 -0.6301 -0.6446
 9546SOL    HW140274   3.688   1.100   5.913 -0.8711 -2.0990 -1.4141
 9546SOL    HW240275   3.688   1.027   6.042 -1.2086 -0.9533 -1.2978
 9547SOL     OW40276   4.478   0.421   3.861 -0.5621  0.3822  0.2637
 9547SOL    HW140277   4.529   0.500   3.879 -1.7627  0.7637  2.0322
 9547SOL    HW240278   4.501   0.361   3.932  0.9539  0.6465 -0.0047
 9548SOL     OW40279   0.602   1.463   4.654  0.3535 -0.0321 -0.0041
 9548SOL    HW140280   0.660   1.450   4.579 -1.4499  0.6124 -1.5141
 9548SOL    HW240281   0.662   1.452   4.728 -1.5034  0.4668  1.5670
 9549SOL     OW40282   2.880   3.962   5.703 -0.6174 -0.2453 -0.2588
 9549SOL    HW140283   2.916   3.929   5.620  1.0300  1.0798 -0.0723
 9549SOL    HW240284   2.843   3.883   5.740 -0.2457  0.4839  1.6843
 9550SOL     OW40285   0.222   0.350   3.227  0.0396  0.0049  0.3040
 9550SOL    HW140286   0.304   0.377   3.185  0.5801 -0.3959  1.0930
 9550SOL    HW240287   0.168   0.303   3.164 -0.4785 -1.2256  1.6510
 9551SOL     OW40288   4.643   4.028   0.832  0.2868  0.2319 -0.2292
 9551SOL    HW140289   4.574   4.024   0.898 -3.0442  0.8772 -3.6569
 9551SOL    HW240290   4.588   4.063   0.762 -2.0237 -0.7590  1.0677
 9552SOL     OW40291   3.514   3.621  15.190  0.2871  0.3949  0.8597
 9552SOL    HW140292   3.548   3.559  15.125 -1.5479  0.7701 -0.4576
 9552SOL    HW240293   3.450   3.567  15.236 -0.6342  0.2026 -0.6388
 9553SOL     OW40294   0.231   2.756   7.489 -0.0091 -0.0649  0.7368
 9553SOL    HW140295   0.272   2.795   7.566 -2.6093  2.2276  0.9767
 9553SOL    HW240296   0.295   2.688   7.469 -2.5518 -2.3714  0.4858
 9554SOL     OW40297   3.245   4.281   6.126 -0.6626 -0.1527  0.2715
 9554SOL    HW140298   3.152   4.267   6.144 -0.6984 -1.0593 -0.6128
 9554SOL    HW240299   3.248   4.376   6.132 -0.9780 -0.1449  0.3357
 9555SOL     OW40300   1.018   3.675   3.958  0.7451 -0.5786 -0.5024
 9555SOL    HW140301   0.976   3.600   4.001  0.0736  0.0815 -0.0178
 9555SOL    HW240302   0.977   3.658   3.872 -1.8992 -4.2839  1.4951
 9556SOL     OW40303   4.641   3.921  16.607  0.3143 -0.1808  0.2389
 9556SOL    HW140304   4.549   3.919  16.633  0.7715  1.8846  2.0703
 9556SOL    HW240305   4.650   4.012  16.579 -0.4573  0.1286  0.9783
 9557SOL     OW40306   4.199   2.524  15.302  1.1343  0.2141  0.2695
 9557SOL    HW140307   4.245   2.564  15.228  1.5471  0.7773  0.8397
 9557SOL    HW240308   4.280   2.503  15.348  1.7596  1.5202 -0.2481
 9558SOL     OW40309   1.253   4.282   4.382  0.5938 -0.3880 -0.1611
 9558SOL    HW140310   1.347   4.270   4.395  0.2529  1.3504  3.7659
 9558SOL    HW240311   1.246   4.267   4.287  1.2779 -0.3959 -0.2153
 9559SOL     OW40312   0.982   3.730   8.077 -0.8377 -0.5642  0.0128
 9559SOL    HW140313   0.915   3.666   8.052 -2.4324  0.6925  1.0394
 9559SOL    HW240314   0.935   3.806   8.112 -0.1817  0.3669 -1.1574
 9560SOL     OW40315   1.593   0.648   4.927  0.1000  0.2171 -0.8974
 9560SOL    HW140316   1.610   0.560   4.894 -0.3732 -0.2311  0.0855
 9560SOL    HW240317   1.545   0.626   5.006 -2.1395  0.0082 -2.3008
 9561SOL     OW40318   3.059   0.650   2.709 -0.2809 -0.5812  0.1927
 9561SOL    HW140319   3.030   0.611   2.791 -0.6877 -1.8913 -0.5780
 9561SOL    HW240320   3.007   0.731   2.707  1.1524  0.3180 -0.4685
 9562SOL     OW40321   0.617   4.178  12.596 -0.3128  0.0023  0.5587
 9562SOL    HW140322   0.580   4.092  12.576  0.1197  0.1901 -1.0292
 9562SOL    HW240323   0.565   4.226  12.532 -1.4920 -2.6149 -0.4357
 9563SOL     OW40324   1.232   3.352   8.475  0.7892  0.2409  0.4152
 9563SOL    HW140325   1.216   3.258   8.469 -0.8124  0.5385 -0.0501
 9563SOL    HW240326   1.249   3.369   8.568 -1.3601 -0.3680  0.9314
 9564SOL     OW40327   1.354   2.393  13.499  0.1445 -0.5968 -0.1012
 9564SOL    HW140328   1.374   2.437  13.581  0.9984  1.1360 -1.2471
 9564SOL    HW240329   1.382   2.304  13.520 -0.7683 -0.8921 -0.1280
 9565SOL     OW40330   0.139   0.115   4.983  0.2226  0.4376  0.2241
 9565SOL    HW140331   0.168   0.135   4.894 -2.0361  1.3729 -0.3211
 9565SOL    HW240332   0.219   0.072   5.012  0.2888  0.0769 -0.4915
 9566SOL     OW40333   0.074   2.710   5.915 -0.3008 -0.3526  0.1414
 9566SOL    HW140334   0.163   2.693   5.946  0.1454  2.3203  0.3348
 9566SOL    HW240335   0.063   2.653   5.839 -0.1558  1.9566 -1.5999
 9567SOL     OW40336   4.134   3.419   9.410  0.1987  0.0750 -0.2744
 9567SOL    HW140337   4.075   3.471   9.356  0.0466  0.6501  0.4512
 9567SOL    HW240338   4.203   3.416   9.344 -1.1692 -2.8133 -1.6101
 9568SOL     OW40339   0.766   2.028  16.350  0.3730 -0.0224 -0.5286
 9568SOL    HW140340   0.780   2.032  16.256 -0.7745  0.3132 -0.6837
 9568SOL    HW240341   0.673   2.051  16.358  0.1027 -1.0226 -0.7738
 9569SOL     OW40342   2.833   1.025   1.711  0.0214 -0.2389 -0.1240
 9569SOL    HW140343   2.811   1.106   1.666 -1.9725 -1.3265 -1.0791
 9569SOL    HW240344   2.857   1.050   1.801  2.5297 -2.9441 -0.0265
   4.73525   4.73525  17.73980
