Membrane in water
40344
    1TMC1    C1    1   3.144   3.489  11.426  0.0721  0.1644  0.2341
    1TMC1    C2    2   3.247   3.563  11.372  0.1754  0.9594 -0.1118
    1TMC1    C3    3   3.220   3.697  11.363 -0.1869  0.4617  0.2127
    1TMC1    C4    4   3.027   3.542  11.477 -0.1548  0.6237 -1.1073
    1TMC1    C5    5   3.010   3.672  11.474  0.4748  0.8453  0.5905
    1TMC1    C6    6   3.104   3.754  11.418  0.3737 -0.2117  0.0881
    1TMC1     C    7   3.159   3.348  11.448  0.0879 -0.0863 -0.3202
    1TMC1     O    8   3.064   3.293  11.499 -0.3953 -0.0716 -0.0490
    1TMC1     H    9   3.344   3.532  11.334 -0.7591 -0.6184 -1.1821
    1TMC1    H1   10   2.957   3.478  11.531  2.3463 -0.6243  0.6226
    1TMC1    H2   11   3.080   3.859  11.412 -0.4583 -0.3756  0.6524
    1TMC1    C7   12   2.900   3.739  11.533 -0.0837 -0.2779 -0.0488
    1TMC1    C8   13   3.322   3.777  11.297  0.2679 -0.1617  0.7637
    1TMC1    O1   14   2.874   3.858  11.517 -0.3029  0.1219  0.7069
    1TMC1    O2   15   3.437   3.735  11.292  0.6573  0.0179  0.1549
    1TMC1    O3   16   2.861   3.664  11.641 -0.4269 -0.0010  0.5921
    1TMC1    H3   17   2.932   3.600  11.663  0.5022 -0.4295 -3.5445
    1TMC1    O5   18   3.258   3.843  11.199 -0.2596  0.0401 -0.3640
    1TMC1    H5   19   3.160   3.838  11.207 -0.2237  2.2889  1.5883
    2MPD2     C   20   3.368   2.871  11.395  1.5444  1.2734 -0.2111
    2MPD2    C1   21   3.262   2.918  11.470 -0.3532  1.0783 -0.3111
    2MPD2    C2   22   3.240   3.055  11.483 -0.4771  0.0165 -0.7198
    2MPD2    C3   23   3.320   3.152  11.434  0.4131 -0.1979 -0.5376
    2MPD2    C4   24   3.436   3.110  11.375  0.4670  0.4758 -0.2144
    2MPD2    C5   25   3.452   2.973  11.353  0.0444  0.3920  0.8092
    2MPD2     H   26   3.143   3.083  11.523  0.0880 -0.6107  1.1002
    2MPD2    H1   27   3.515   3.176  11.340 -0.4649  1.3450 -0.6803
    2MPD2    H2   28   3.400   2.770  11.374 -0.9359  0.2360  1.0907
    2MPD2    H3   29   3.543   2.949  11.300 -2.2286 -1.9089 -2.0130
    2MPD2     N   30   3.291   3.293  11.427 -0.0180  0.5444  0.6116
    2MPD2    H5   31   3.367   3.348  11.390 -0.3251  0.3056 -0.3842
    2MPD2    N1   32   3.157   2.828  11.512 -0.4280  0.0223 -0.1584
    2MPD2    H7   33   3.091   2.868  11.577  0.9297  0.7444  0.7882
    3TMC1    C1   34   1.766   3.261  10.928  0.3661  0.2386  0.0066
    3TMC1    C2   35   1.905   3.273  10.936 -0.1551 -0.6033  0.1409
    3TMC1    C3   36   1.978   3.164  10.919  0.8850  0.9373  0.2093
    3TMC1    C4   37   1.704   3.148  10.886  0.1326 -0.1310  0.3515
    3TMC1    C5   38   1.786   3.039  10.870  0.1870 -0.0582  0.8780
    3TMC1    C6   39   1.920   3.045  10.878  0.5446  0.4369  0.2613
    3TMC1     C   40   1.678   3.361  10.992  0.6808  0.8280 -0.3499
    3TMC1     O   41   1.562   3.328  11.000  0.5613 -0.4496  0.3460
    3TMC1     H   42   1.939   3.361  10.989 -2.1560 -0.3061  0.9351
    3TMC1    H1   43   1.599   3.134  10.908  0.2440  0.8289  1.5197
    3TMC1    H2   44   1.981   2.967  10.833  0.2090 -0.3946  1.2357
    3TMC1    C7   45   1.718   2.913  10.879 -0.1678 -1.0144  0.2797
    3TMC1    C8   46   2.116   3.192  10.893  0.1246  0.1656 -0.0996
    3TMC1    O1   47   1.600   2.895  10.873 -0.4934  0.4073 -1.0351
    3TMC1    O2   48   2.203   3.107  10.898 -0.3523  0.1492  0.0265
    3TMC1    O3   49   1.801   2.828  10.940  0.2022  0.1167 -0.8015
    3TMC1    H3   50   1.897   2.849  10.939  0.0432  0.8522 -0.7956
    3TMC1    O5   51   2.120   3.295  10.811  0.2606 -0.0580 -0.4373
    3TMC1    H5   52   2.029   3.330  10.799  0.4930  0.8950  0.5736
    4MPD2     C   53   1.552   3.803  11.216  0.0890  0.3203 -0.0866
    4MPD2    C1   54   1.672   3.826  11.143  0.4291  0.0967 -0.0682
    4MPD2    C2   55   1.727   3.719  11.079 -0.5019 -0.4154 -0.5339
    4MPD2    C3   56   1.666   3.593  11.077  0.1777  0.0185 -0.5771
    4MPD2    C4   57   1.544   3.578  11.145 -0.6879  0.0267  0.0682
    4MPD2    C5   58   1.493   3.680  11.220  0.2340  0.2752 -0.1094
    4MPD2     H   59   1.816   3.730  11.018  0.0330  0.0024  0.3226
    4MPD2    H1   60   1.483   3.489  11.152 -0.6785  0.1714  1.9213
    4MPD2    H2   61   1.491   3.877  11.268  0.1525  1.6983 -1.9836
    4MPD2    H3   62   1.396   3.672  11.267 -0.1331 -2.2029 -1.2490
    4MPD2     N   63   1.731   3.487  11.010 -0.1776  0.2760 -0.1835
    4MPD2    H5   64   1.815   3.500  10.955 -0.7990  1.6621 -0.7867
    4MPD2    N1   65   1.749   3.943  11.148 -0.4466  0.9810  0.7106
    4MPD2    H7   66   1.831   3.943  11.087 -0.9774  1.1611 -0.0088
    5TCq1    O1   67   3.005   1.230  11.972 -0.0744 -0.0557  0.6127
    5TCq1    C1   68   2.949   1.130  11.905  0.0045  0.1395 -0.6044
    5TCq1    O2   69   2.952   1.010  11.932  0.9933  0.5227 -0.5922
    5TCq1    C2   70   2.895   1.187  11.782  0.7449 -0.1962  0.0100
    5TCq1    C3   71   2.842   1.319  11.780 -0.0074 -0.4048  0.1475
    5TCq1    C4   72   2.741   1.338  11.684 -0.2034 -0.4420  0.3006
    5TCq1    C5   73   2.714   1.248  11.582 -0.1788 -0.2090 -0.4531
    5TCq1    C6   74   2.786   1.129  11.580 -0.4438  0.0879  0.5158
    5TCq1    C7   75   2.877   1.096  11.680  0.4300  0.0151  0.1467
    5TCq1    C8   76   2.740   1.019  11.487  0.0620  0.5707 -0.5057
    5TCq1    O4   77   2.809   0.919  11.477 -0.6302  0.0305 -0.2478
    5TCq1    C9   78   2.646   1.451  11.701  0.2553  0.1016 -0.4492
    5TCq1    O5   79   2.682   1.545  11.776 -0.2725  0.2988  0.3418
    5TCq1    O6   80   2.554   1.471  11.614 -0.8567  0.4451  0.2101
    5TCq1    H1   81   3.019   1.316  11.927  0.1100  1.6463  3.8561
    5TCq1    H2   82   2.852   1.380  11.869  0.0783 -1.7418  1.0549
    5TCq1    H3   83   2.644   1.271  11.503 -1.6139 -2.3545  0.1909
    5TCq1    H4   84   2.903   0.991  11.685  1.9288  0.4133  0.7238
    6MPD2     C   85   2.398   0.959  11.363 -0.0950 -0.0757  0.3994
    6MPD2    C1   86   2.535   0.929  11.379  1.1613 -0.2574 -0.1139
    6MPD2    C2   87   2.591   0.808  11.329  0.0168  0.3533 -0.3550
    6MPD2    C3   88   2.498   0.711  11.285 -0.4777  0.1433 -0.4201
    6MPD2    C4   89   2.366   0.749  11.273  0.3036 -0.5109 -0.1774
    6MPD2    C5   90   2.314   0.869  11.308 -0.1128  0.5843 -0.3408
    6MPD2     H   91   2.695   0.783  11.347  0.0173  1.2820  0.9874
    6MPD2    H1   92   2.289   0.684  11.232  1.4658 -2.1672  0.2613
    6MPD2    H2   93   2.362   1.056  11.396 -1.1709 -0.4141  0.1978
    6MPD2    H3   94   2.210   0.884  11.282 -0.5732 -0.2932  0.9916
    6MPD2     N   95   2.540   0.574  11.251  0.1692 -1.0039  0.6568
    6MPD2    H5   96   2.640   0.563  11.261  0.4728  1.5695  0.3873
    6MPD2    N1   97   2.606   1.034  11.440 -0.0064 -0.4810 -0.5804
    6MPD2    H7   98   2.559   1.119  11.470  1.4830 -0.4672  1.7128
    7TCq1    O1   99   4.365   0.621  13.519 -0.5983 -0.4842  0.3572
    7TCq1    C1  100   4.381   0.595  13.391 -0.2150  0.3355  0.6493
    7TCq1    O2  101   4.466   0.637  13.321 -0.2623  0.1931 -0.0917
    7TCq1    C2  102   4.331   0.461  13.393 -0.2878  0.4277  0.7733
    7TCq1    C3  103   4.205   0.443  13.443 -0.3145  0.4807 -0.7058
    7TCq1    C4  104   4.175   0.314  13.490  0.5457 -0.0750 -0.2366
    7TCq1    C5  105   4.262   0.212  13.466 -0.1461  0.4411  0.4520
    7TCq1    C6  106   4.388   0.233  13.417  0.4657  0.1489  0.0947
    7TCq1    C7  107   4.427   0.360  13.394 -0.0351  0.2815 -0.2398
    7TCq1    C8  108   4.506   0.154  13.465  1.0588  0.4031  0.5213
    7TCq1    O4  109   4.489   0.033  13.470 -0.0096 -0.2365  0.2863
    7TCq1    C9  110   4.042   0.292  13.550  0.3197 -0.5921  1.1093
    7TCq1    O5  111   4.025   0.186  13.614 -0.7023  0.3713  0.2624
    7TCq1    O6  112   3.979   0.394  13.575  0.5986 -0.0776 -0.0412
    7TCq1    H1  113   4.305   0.559  13.566  0.3940 -1.1902  0.6839
    7TCq1    H2  114   4.127   0.519  13.445  0.8154  1.5468  2.8686
    7TCq1    H3  115   4.240   0.118  13.516 -0.3820 -0.0782 -0.6236
    7TCq1    H4  116   4.527   0.388  13.361  0.7264 -1.2971  0.7502
    8MPD2     C  117   0.241   0.156  13.666 -0.2439  0.4735  0.0658
    8MPD2    C1  118   0.168   0.042  13.635 -0.0687 -0.3014 -0.6710
    8MPD2    C2  119   0.045   0.072  13.586  0.1854  0.7534  0.9436
    8MPD2    C3  120   4.725   0.197  13.579  0.3330 -0.4330  0.1916
    8MPD2    C4  121   0.057   0.303  13.625 -0.0446  0.3263 -0.2182
    8MPD2    C5  122   0.189   0.285  13.655  0.1491 -0.2722 -0.0149
    8MPD2     H  123   4.732   4.731  13.537 -0.2032  1.5928 -0.0284
    8MPD2    H1  124   0.027   0.407  13.616 -0.2250  0.3039  0.1505
    8MPD2    H2  125   0.343   0.141  13.699 -0.0285  0.3101 -0.6867
    8MPD2    H3  126   0.262   0.363  13.672 -0.9922  0.3442  1.9774
    8MPD2     N  127   4.599   0.237  13.522  0.6283  0.4441  0.3814
    8MPD2    H5  128   4.581   0.337  13.524 -0.9119  0.1942 -0.7601
    8MPD2    N1  129   0.228   4.663  13.652  0.6615 -0.0270 -0.1941
    8MPD2    H7  130   0.323   4.671  13.688  0.6287 -0.8482  0.0736
    9TMC1    C1  131   2.475   3.858  11.129 -0.0340  0.0012  0.1860
    9TMC1    C2  132   2.524   3.940  11.028 -0.0635 -0.9640 -0.2900
    9TMC1    C3  133   2.439   3.993  10.937 -0.0852  0.2780  0.3730
    9TMC1    C4  134   2.341   3.822  11.125  0.4531  0.2375 -0.3078
    9TMC1    C5  135   2.260   3.879  11.028  0.6589 -0.6451  0.4187
    9TMC1    C6  136   2.307   3.964  10.932 -0.3001  0.1018  0.4032
    9TMC1     C  137   2.575   3.771  11.181  0.0273 -0.3961 -0.3618
    9TMC1     O  138   2.691   3.766  11.134 -0.2705 -0.6106  0.2758
    9TMC1     H  139   2.631   3.960  11.029 -0.5416  1.6591 -2.6568
    9TMC1    H1  140   2.298   3.752  11.196 -1.8862  1.6440 -0.3236
    9TMC1    H2  141   2.240   3.988  10.850 -0.4555  1.1175  0.8282
    9TMC1    C7  142   2.119   3.849  11.015  0.1378  0.2087  0.2618
    9TMC1    C8  143   2.491   4.113  10.865  0.9421  0.5091  0.3734
    9TMC1    O1  144   2.036   3.905  10.946 -0.0302  0.5402 -0.2022
    9TMC1    O2  145   2.608   4.121  10.838  0.1813  0.0950 -0.7583
    9TMC1    O3  146   2.092   3.727  11.069 -1.0899 -0.6668  0.2606
    9TMC1    H3  147   2.168   3.665  11.077 -0.4833  0.2139  1.2061
    9TMC1    O5  148   2.395   4.204  10.870  0.0665 -0.1188  0.6190
    9TMC1    H5  149   2.308   4.180  10.908 -0.5859 -0.7533 -1.2379
   10MPD2     C  150   2.689   3.531  11.317 -0.1087  0.7399 -0.2464
   10MPD2    C1  151   2.588   3.610  11.368  0.0481 -0.1168  0.5049
   10MPD2    C2  152   2.531   3.569  11.490  0.2813 -0.3960 -0.1643
   10MPD2    C3  153   2.579   3.464  11.563  0.2456  0.7055  0.4267
   10MPD2    C4  154   2.680   3.388  11.516  0.5770  0.6584 -0.7573
   10MPD2    C5  155   2.726   3.416  11.388 -0.0310  0.1922 -0.3150
   10MPD2     H  156   2.457   3.634  11.535  0.0258 -1.6683  1.2619
   10MPD2    H1  157   2.721   3.300  11.563  2.1565  1.2017 -1.1475
   10MPD2    H2  158   2.726   3.538  11.216  0.1605 -2.7065 -0.3788
   10MPD2    H3  159   2.798   3.350  11.341  0.9351  1.4700 -0.6230
   10MPD2     N  160   2.527   3.422  11.686  0.0127  0.2162  0.1126
   10MPD2    H5  161   2.569   3.336  11.719  3.7239  1.8550 -0.3607
   10MPD2    N1  162   2.536   3.722  11.294  0.2087 -0.3921 -0.1791
   10MPD2    H7  163   2.452   3.766  11.330  0.2851 -0.1350 -0.3080
   11TCq1    O1  164   4.009   3.895  13.840 -0.0745  0.4401 -0.2334
   11TCq1    C1  165   3.955   3.826  13.936 -0.0096 -0.0621  0.6605
   11TCq1    O2  166   3.890   3.721  13.922  0.1457 -0.5415  0.1047
   11TCq1    C2  167   3.900   3.929  14.030 -0.0381 -0.0149 -0.6581
   11TCq1    C3  168   3.980   4.020  14.079  0.3778  0.9526  0.1684
   11TCq1    C4  169   3.926   4.121  14.153  0.3029 -0.3931  0.3395
   11TCq1    C5  170   3.800   4.110  14.200 -0.4156 -0.1914 -0.3503
   11TCq1    C6  171   3.723   4.008  14.155  0.5925 -0.5584 -0.5783
   11TCq1    C7  172   3.772   3.910  14.070 -0.2169  0.3340 -0.3044
   11TCq1    C8  173   3.583   4.006  14.204 -0.5419  0.2804 -0.1999
   11TCq1    O4  174   3.531   4.107  14.252  0.1262 -0.3386 -0.7160
   11TCq1    C9  175   4.019   4.216  14.215 -0.2475 -0.1827 -1.0431
   11TCq1    O5  176   4.142   4.211  14.185 -0.3299 -0.6118 -0.1356
   11TCq1    O6  177   3.961   4.322  14.256  0.1881 -0.6311  0.2840
   11TCq1    H1  178   4.046   3.985  13.856  0.5950  0.2521 -0.7334
   11TCq1    H2  179   4.086   4.038  14.063  0.2692 -0.3294 -1.8829
   11TCq1    H3  180   3.762   4.180  14.274  0.0261  0.2056 -0.4975
   11TCq1    H4  181   3.699   3.847  14.019 -2.9519  3.4073 -0.1678
   12MPD2     C  182   3.284   3.950  14.210 -0.0634  0.4934 -0.7707
   12MPD2    C1  183   3.374   3.858  14.171  0.7858  0.2002  1.0392
   12MPD2    C2  184   3.346   3.722  14.146 -0.2959  0.4680  0.1212
   12MPD2    C3  185   3.212   3.682  14.161 -0.3033  0.6103  0.0921
   12MPD2    C4  186   3.115   3.779  14.192 -0.4660  0.0584  0.7200
   12MPD2    C5  187   3.150   3.913  14.211  0.5755  0.2536  0.3939
   12MPD2     H  188   3.424   3.654  14.113  0.9161  0.6047  2.6503
   12MPD2    H1  189   3.012   3.747  14.203 -1.7053  3.0401 -2.4792
   12MPD2    H2  190   3.318   4.047  14.247 -1.3209 -0.7677  3.6869
   12MPD2    H3  191   3.074   3.980  14.250  1.1025  0.2421  1.4539
   12MPD2     N  192   3.177   3.544  14.148  0.1543  0.5564  0.0803
   12MPD2    H5  193   3.077   3.529  14.156  0.0013  0.6620 -1.6885
   12MPD2    N1  194   3.514   3.887  14.164  0.2777  0.2135 -0.9443
   12MPD2    H7  195   3.576   3.825  14.112 -0.4633  0.5735 -2.2611
   13TCq1    O1  196   3.455   4.192  10.690 -0.0761  0.1143 -0.5064
   13TCq1    C1  197   3.395   4.160  10.806  1.0261  0.3858 -0.3902
   13TCq1    O2  198   3.293   4.212  10.851 -0.2115  0.3570  0.2423
   13TCq1    C2  199   3.418   4.019  10.820 -0.0274  0.1502 -0.1781
   13TCq1    C3  200   3.553   3.985  10.834  0.6895 -0.1665 -0.5145
   13TCq1    C4  201   3.586   3.856  10.869  0.6804 -0.8208 -0.4481
   13TCq1    C5  202   3.482   3.763  10.876 -0.6094 -0.6417 -0.7780
   13TCq1    C6  203   3.349   3.796  10.865 -0.5120 -0.2129 -0.4856
   13TCq1    C7  204   3.315   3.929  10.834 -0.2445  0.1123 -0.2773
   13TCq1    C8  205   3.242   3.706  10.906 -0.2651  0.0212 -0.5761
   13TCq1    O4  206   3.128   3.747  10.888 -0.3234 -0.1648 -0.3738
   13TCq1    C9  207   3.724   3.808  10.886 -0.3906  0.0233 -0.0414
   13TCq1    O5  208   3.821   3.889  10.889 -0.1350  0.1456 -0.6746
   13TCq1    O6  209   3.740   3.685  10.871 -0.2094  0.6844  0.1252
   13TCq1    H1  210   3.493   4.116  10.642 -1.6435  0.7156 -2.7209
   13TCq1    H2  211   3.634   4.056  10.825  0.6922 -0.1547 -0.3954
   13TCq1    H3  212   3.520   3.661  10.878 -0.0268 -0.4113  0.1068
   13TCq1    H4  213   3.211   3.958  10.839 -1.1728 -3.2695  0.3357
   14MPD2     C  214   3.283   3.379  11.079 -0.0875 -0.2398  0.2545
   14MPD2    C1  215   3.212   3.476  11.011  0.2863 -0.3854 -0.1207
   14MPD2    C2  216   3.073   3.468  11.007  0.2549 -0.0045  0.2992
   14MPD2    C3  217   2.999   3.350  11.049  0.6558 -0.0173  0.0911
   14MPD2    C4  218   3.076   3.243  11.103 -0.2732 -0.9131 -0.2786
   14MPD2    C5  219   3.210   3.271  11.123 -0.6038 -0.4702 -0.0069
   14MPD2     H  220   3.016   3.553  10.973 -1.1149 -1.0756 -0.0835
   14MPD2    H1  221   3.031   3.158  11.152  1.3054 -0.7336  1.4790
   14MPD2    H2  222   3.389   3.383  11.101  0.1385  1.8460 -1.2427
   14MPD2    H3  223   3.267   3.193  11.171  2.7995  1.6422 -0.6035
   14MPD2     N  224   2.856   3.345  11.034  1.1745  0.4820 -0.7960
   14MPD2    H5  225   2.810   3.431  11.004  1.9674  1.1089 -0.2017
   14MPD2    N1  226   3.281   3.585  10.955  0.1060 -0.0759 -0.0934
   14MPD2    H7  227   3.382   3.579  10.960  0.0722 -0.9820 -0.4448
   15TCq1    O1  228   4.099   3.119   1.244  0.3630  0.3415 -0.0182
   15TCq1    C1  229   4.156   3.014   1.188  0.0217 -0.5558  0.0479
   15TCq1    O2  230   4.151   2.985   1.070  0.6136  0.5104  0.1047
   15TCq1    C2  231   4.246   2.948   1.273  0.0054 -0.5712  0.4006
   15TCq1    C3  232   4.300   3.016   1.383  0.1301 -0.3606 -0.0030
   15TCq1    C4  233   4.398   2.941   1.449  0.3589  0.5955 -0.1171
   15TCq1    C5  234   4.457   2.832   1.390 -0.1583  0.3073  0.3602
   15TCq1    C6  235   4.418   2.792   1.264 -0.2760  0.2428  0.3084
   15TCq1    C7  236   4.306   2.846   1.205 -0.4232 -0.6193 -0.2242
   15TCq1    C8  237   4.489   2.685   1.200  0.1847 -0.4874 -0.0303
   15TCq1    O4  238   4.558   2.615   1.270 -0.1129  0.3873  0.5211
   15TCq1    C9  239   4.443   2.976   1.581  1.1721 -0.2272 -0.1212
   15TCq1    O5  240   4.519   2.897   1.650 -0.5450  0.1494 -0.2803
   15TCq1    O6  241   4.401   3.083   1.616 -0.2607 -0.0659  0.4562
   15TCq1    H1  242   4.095   3.112   1.342 -0.0360  0.4081 -0.0280
   15TCq1    H2  243   4.247   3.092   1.439  0.8910 -0.5335  0.9454
   15TCq1    H3  244   4.535   2.782   1.445 -0.8524  1.1697  2.1085
   15TCq1    H4  245   4.254   2.800   1.121 -2.0537  2.1019 -0.6809
   16MPD2     C  246   4.472   2.579   0.847 -0.0821  0.4616 -0.1073
   16MPD2    C1  247   4.508   2.576   0.979 -0.5090  0.4903 -0.6677
   16MPD2    C2  248   4.582   2.466   1.023  0.1007  0.0997  0.1515
   16MPD2    C3  249   4.630   2.365   0.937  0.0811  0.6279  0.3722
   16MPD2    C4  250   4.589   2.371   0.805 -0.5178 -0.7672  0.3646
   16MPD2    C5  251   4.518   2.480   0.759 -0.6121  0.5104  0.1530
   16MPD2     H  252   4.602   2.459   1.129  1.7450 -2.0011 -0.2802
   16MPD2    H1  253   4.628   2.309   0.726  0.1014  1.2214 -0.8965
   16MPD2    H2  254   4.392   2.643   0.812 -0.3194  0.6648  0.8256
   16MPD2    H3  255   4.488   2.474   0.655  1.8414  2.0131 -0.6337
   16MPD2     N  256   4.693   2.250   0.998  1.1621  0.6734  0.3119
   16MPD2    H5  257   4.715   2.263   1.096 -1.3582 -0.2340  0.9959
   16MPD2    N1  258   4.470   2.684   1.064  0.5797 -0.4180 -0.4767
   16MPD2    H7  259   4.424   2.760   1.014  0.6797 -0.3259 -0.4271
   17TMC1    C1  260   2.179   1.761  11.150 -0.2544 -0.7735  0.0020
   17TMC1    C2  261   2.078   1.684  11.189 -0.6456  0.4379 -0.4574
   17TMC1    C3  262   1.969   1.743  11.242  0.0424 -0.2807  0.6901
   17TMC1    C4  263   2.174   1.896  11.158  0.2082 -0.5107  0.6840
   17TMC1    C5  264   2.069   1.953  11.223  0.3888 -0.0996 -0.9384
   17TMC1    C6  265   1.962   1.875  11.268  0.2413 -0.4425  0.5624
   17TMC1     C  266   2.300   1.689  11.095 -0.1898  0.4335  0.2591
   17TMC1     O  267   2.301   1.567  11.095  0.4138 -0.5475 -0.7304
   17TMC1     H  268   2.079   1.576  11.191  1.9234  0.4550 -0.9305
   17TMC1    H1  269   2.250   1.959  11.114 -0.0075 -0.8346 -0.1458
   17TMC1    H2  270   1.867   1.923  11.287  1.6120  1.7919  1.8389
   17TMC1    C7  271   2.059   2.098  11.212 -0.6479  0.1595  0.5382
   17TMC1    C8  272   1.880   1.636  11.293 -0.5409  0.4646  0.3371
   17TMC1    O1  273   2.110   2.161  11.120 -0.3282  0.0717  0.7920
   17TMC1    O2  274   1.911   1.521  11.322 -0.0306  0.0266 -0.4648
   17TMC1    O3  275   1.992   2.152  11.316 -0.5379 -0.3325  0.0454
   17TMC1    H3  276   1.979   2.075  11.375  1.9272 -0.4854  0.3808
   17TMC1    O5  277   1.778   1.660  11.210  0.7373 -0.6735 -0.3894
   17TMC1    H5  278   1.769   1.751  11.174  0.1341 -0.3250  0.6634
   18MPD2     C  279   2.564   1.606  10.965  0.2936  0.4054 -0.2632
   18MPD2    C1  280   2.525   1.734  11.005  0.0226 -0.1975 -0.4997
   18MPD2    C2  281   2.612   1.836  10.987 -0.8306  0.0492  0.2021
   18MPD2    C3  282   2.739   1.816  10.932 -1.2938 -0.2285  0.7050
   18MPD2    C4  283   2.778   1.687  10.895  0.0916  0.2250  0.7699
   18MPD2    C5  284   2.692   1.574  10.918 -0.1027  0.3264 -0.9062
   18MPD2     H  285   2.578   1.937  11.005  0.9890  0.8540 -0.8859
   18MPD2    H1  286   2.870   1.677  10.840  1.8356  1.4706  3.4477
   18MPD2    H2  287   2.493   1.525  10.975 -1.4896  2.1409  1.2455
   18MPD2    H3  288   2.716   1.474  10.884  0.5073  0.4667 -0.9029
   18MPD2     N  289   2.829   1.918  10.904 -0.2474  0.3847  0.0293
   18MPD2    H5  290   2.910   1.893  10.849 -1.1770 -1.5857 -0.4470
   18MPD2    N1  291   2.400   1.776  11.050 -0.0947  0.1881 -0.1448
   18MPD2    H7  292   2.394   1.876  11.067  0.2644  0.2175 -0.1901
   19TMC2    C1  293   4.226   3.455  13.719  0.4426 -0.1088 -0.1564
   19TMC2    C2  294   4.260   3.445  13.584  0.2237 -0.3524 -0.2950
   19TMC2    C3  295   4.244   3.325  13.528  0.2378 -0.6281  0.0372
   19TMC2    C4  296   4.199   3.345  13.795  0.7573  0.6122  0.5341
   19TMC2    C5  297   4.201   3.218  13.739 -0.5783 -0.8642  0.1968
   19TMC2    C6  298   4.222   3.208  13.607 -0.1816  0.2285  0.3610
   19TMC2     C  299   4.239   3.590  13.773  0.0313 -0.0186  0.2762
   19TMC2     O  300   4.252   3.689  13.705  0.5694 -0.2112 -0.0404
   19TMC2     H  301   4.301   3.532  13.534  1.4123 -0.9904 -0.4227
   19TMC2    H1  302   4.166   3.343  13.898 -0.9190 -0.4635 -0.0347
   19TMC2    H2  303   4.239   3.108  13.569  0.4415  0.5477 -0.2164
   19TMC2    C7  304   4.153   3.101  13.807 -0.5746 -0.3634  0.8726
   19TMC2    C8  305   4.327   3.302  13.415 -0.1873 -0.2632  0.0989
   19TMC2    O1  306   4.096   3.017  13.741  0.2728  0.3401 -0.0963
   19TMC2    O2  307   4.439   3.346  13.401  0.2484 -0.0920 -0.1260
   19TMC2    O5  308   4.261   3.223  13.327 -0.1706  0.4013 -0.0585
   19TMC2    H5  309   4.167   3.214  13.353 -0.1675 -1.2972 -0.6608
   20MPD2     C  310   4.301   3.812  13.946  0.6910  0.2105 -0.0987
   20MPD2    C1  311   4.293   3.685  13.993 -0.1597 -0.2740  0.0921
   20MPD2    C2  312   4.333   3.650  14.120  0.2728 -0.0926  0.0711
   20MPD2    C3  313   4.400   3.749  14.190  0.4447 -0.3415  0.5637
   20MPD2    C4  314   4.413   3.873  14.136 -0.1406  0.0156 -0.5455
   20MPD2    C5  315   4.363   3.906  14.016 -0.7491 -0.1553 -0.3555
   20MPD2     H  316   4.313   3.552  14.160  1.3356 -0.0228  0.7817
   20MPD2    H1  317   4.480   3.944  14.183  0.7994 -0.4577 -1.1679
   20MPD2    H2  318   4.257   3.841  13.852  0.5864 -1.3435 -0.5193
   20MPD2    H3  319   4.370   4.009  13.982  0.3224 -0.3525 -0.7055
   20MPD2     N  320   4.449   3.738  14.325 -0.2319 -0.1279  0.4353
   20MPD2    H5  321   4.472   3.820  14.380  1.1004 -0.0575 -0.2116
   20MPD2    N1  322   4.243   3.583  13.915 -0.1906 -0.9922  0.9302
   20MPD2    H7  323   4.227   3.496  13.965  1.1622 -1.2922  0.8364
   21TMC2    C1  324   1.535   3.931  15.553 -1.0145  0.4605 -0.1096
   21TMC2    C2  325   1.529   3.847  15.658  0.6605 -0.6564 -0.6280
   21TMC2    C3  326   1.486   3.891  15.778  0.4471  0.1518 -0.4050
   21TMC2    C4  327   1.479   4.054  15.558  0.1102  0.3078  0.3679
   21TMC2    C5  328   1.423   4.093  15.678  0.3768 -0.0380 -0.3091
   21TMC2    C6  329   1.425   4.010  15.787  0.4671  0.6931 -0.7783
   21TMC2     C  330   1.597   3.883  15.423  0.0917  0.0493 -0.1811
   21TMC2     O  331   1.596   3.760  15.394 -1.0041  0.6364 -0.4524
   21TMC2     H  332   1.567   3.746  15.645 -0.1686 -1.1415  0.7692
   21TMC2    H1  333   1.488   4.127  15.479  0.8621  0.9767  1.0677
   21TMC2    H2  334   1.390   4.041  15.885  0.9775  1.0490 -0.7102
   21TMC2    C7  335   1.363   4.225  15.699 -0.0616  0.4718  0.1417
   21TMC2    C8  336   1.553   3.865  15.904  0.4588 -0.3149  0.9725
   21TMC2    O1  337   1.340   4.258  15.816  0.4278  0.0292 -0.4912
   21TMC2    O2  338   1.516   3.918  16.011 -0.1788  0.0807 -0.6010
   21TMC2    O5  339   1.632   3.756  15.892 -0.1992  0.3881  0.3121
   21TMC2    H5  340   1.663   3.729  15.803  0.5537  0.8748  0.4325
   22MPD2     C  341   1.666   4.053  14.943  0.5982 -0.0051 -0.4854
   22MPD2    C1  342   1.635   3.931  14.984  0.6399 -0.5287 -0.5490
   22MPD2    C2  343   1.618   3.908  15.120 -0.3017 -0.0932  0.6780
   22MPD2    C3  344   1.663   4.004  15.213  0.5093  0.1062 -0.3447
   22MPD2    C4  345   1.717   4.126  15.166 -0.0080 -0.8986  0.9591
   22MPD2    C5  346   1.708   4.151  15.027  0.0126 -0.2629  0.5325
   22MPD2     H  347   1.571   3.815  15.150  0.3487 -0.7395 -0.2988
   22MPD2    H1  348   1.753   4.208  15.228  0.1436  0.6054 -1.0979
   22MPD2    H2  349   1.661   4.081  14.838  2.5302 -1.3101 -0.9223
   22MPD2    H3  350   1.727   4.253  14.996 -1.2886  0.3772  1.8405
   22MPD2     N  351   1.638   3.997  15.351  0.5842 -0.1599 -0.2204
   22MPD2    H5  352   1.658   4.083  15.402  0.8789 -0.9612  1.0249
   22MPD2    N1  353   1.599   3.830  14.892 -0.0798  0.0262 -0.0869
   22MPD2    H7  354   1.583   3.740  14.935  1.1083  1.1703  2.7439
   23TMC2    C1  355   3.556   0.408  14.356 -0.0777 -0.3457  0.5007
   23TMC2    C2  356   3.562   0.521  14.275 -0.0488  0.3669  0.5219
   23TMC2    C3  357   3.448   0.547  14.207  0.2136 -0.0152  0.4279
   23TMC2    C4  358   3.443   0.327  14.363  0.2933  0.1040 -0.3004
   23TMC2    C5  359   3.330   0.369  14.302 -0.2692  0.0950 -0.4236
   23TMC2    C6  360   3.335   0.470  14.215 -0.8830  0.1600  0.1417
   23TMC2     C  361   3.655   0.382  14.456  0.1605 -0.4963 -0.0247
   23TMC2     O  362   3.613   0.305  14.542 -0.0340 -0.3715 -0.2660
   23TMC2     H  363   3.655   0.576  14.262 -0.6036  1.4180  1.0817
   23TMC2    H1  364   3.438   0.234  14.419 -0.0717  0.3548  0.0791
   23TMC2    H2  365   3.245   0.501  14.163  0.3065  0.1015 -1.9566
   23TMC2    C7  366   3.212   0.297  14.323  0.1404  0.1144 -0.5252
   23TMC2    C8  367   3.433   0.672  14.127  0.0703  0.8045 -0.1629
   23TMC2    O1  368   3.225   0.175  14.308 -0.4470 -0.1706  0.3213
   23TMC2    O2  369   3.328   0.722  14.094 -0.5774 -0.2629 -0.6385
   23TMC2    O5  370   3.545   0.659  14.047  0.5229  0.4031 -0.1047
   23TMC2    H5  371   3.607   0.587  14.069 -1.4476 -1.2320  0.0560
   24MPD2     C  372   4.114   0.383  14.682 -0.2582 -0.4597  0.2115
   24MPD2    C1  373   3.986   0.364  14.730  0.0504 -0.9429  0.0837
   24MPD2    C2  374   3.870   0.394  14.656  0.0842  0.1163  0.6349
   24MPD2    C3  375   3.890   0.430  14.525 -0.0817  0.4318 -0.6704
   24MPD2    C4  376   4.016   0.463  14.479  0.1882  0.5025  0.7239
   24MPD2    C5  377   4.122   0.437  14.561 -0.7342 -0.9818 -0.4304
   24MPD2     H  378   3.773   0.366  14.696  0.8233 -1.9016  1.0487
   24MPD2    H1  379   4.047   0.503  14.382 -1.3282 -0.6415 -0.2244
   24MPD2    H2  380   4.204   0.362  14.739 -0.6330  1.3643  1.4900
   24MPD2    H3  381   4.217   0.457  14.513 -0.3657  1.7089  1.4131
   24MPD2     N  382   3.784   0.442  14.434  0.0364  0.5400  0.2832
   24MPD2    H5  383   3.810   0.491  14.349  1.5180  0.2046  0.5373
   24MPD2    N1  384   3.967   0.308  14.861 -0.2518  0.1475 -0.3004
   24MPD2    H7  385   3.872   0.306  14.897 -0.2618  0.0386 -0.3326
   25TMC2    C1  386   1.428   2.393  11.850 -0.0514 -0.0552  0.3066
   25TMC2    C2  387   1.294   2.386  11.865 -0.3795 -0.1796 -0.3516
   25TMC2    C3  388   1.239   2.405  11.985 -0.2570  0.3698 -0.2331
   25TMC2    C4  389   1.498   2.459  11.942  0.1642 -0.0300  0.6818
   25TMC2    C5  390   1.443   2.488  12.061 -0.3415 -0.3035 -0.1951
   25TMC2    C6  391   1.316   2.447  12.092 -0.0760 -0.0603  0.0494
   25TMC2     C  392   1.502   2.300  11.762  0.5547 -0.1747  0.1386
   25TMC2     O  393   1.623   2.332  11.748  0.0584 -0.3550 -0.0390
   25TMC2     H  394   1.243   2.330  11.786 -0.1670  1.2621 -1.5121
   25TMC2    H1  395   1.607   2.461  11.937  0.0811 -0.5249 -1.1285
   25TMC2    H2  396   1.274   2.461  12.191 -0.8243 -2.3636  0.0583
   25TMC2    C7  397   1.526   2.525  12.174 -0.1012 -0.3759 -0.1537
   25TMC2    C8  398   1.119   2.328  12.022  0.3975 -0.3594 -0.0527
   25TMC2    O1  399   1.489   2.478  12.277 -0.6939  0.2520  0.1867
   25TMC2    O2  400   1.093   2.300  12.139  0.1579 -0.1435 -0.1734
   25TMC2    O5  401   1.041   2.336  11.913 -0.2137 -0.0874  1.1130
   25TMC2    H5  402   1.076   2.394  11.842 -1.6519 -0.6463 -0.0695
   26MPD2     C  403   1.557   1.937  11.414 -0.4935 -0.3965  0.4309
   26MPD2    C1  404   1.463   1.896  11.500 -0.2250 -0.6500  1.2250
   26MPD2    C2  405   1.423   1.984  11.604 -0.0006  0.3548  0.1680
   26MPD2    C3  406   1.484   2.106  11.618 -0.6055 -0.1630  0.5440
   26MPD2    C4  407   1.581   2.150  11.528  0.3154 -0.2844  0.3138
   26MPD2    C5  408   1.618   2.068  11.423  0.0926 -0.5194  0.1694
   26MPD2     H  409   1.341   1.958  11.671 -0.1710 -0.6605 -0.4337
   26MPD2    H1  410   1.622   2.250  11.522 -1.4063  0.4149  0.1688
   26MPD2    H2  411   1.592   1.877  11.331 -0.7942 -0.7865  0.5853
   26MPD2    H3  412   1.694   2.091  11.350  1.4456  0.3240  1.8586
   26MPD2     N  413   1.439   2.188  11.724 -0.4807 -0.0954  0.8973
   26MPD2    H5  414   1.361   2.157  11.782 -1.2604  0.9334  0.4055
   26MPD2    N1  415   1.392   1.779  11.466 -0.4483  0.2733 -0.5375
   26MPD2    H7  416   1.407   1.734  11.376 -2.6950  0.2127 -0.8802
   27TMC2    C1  417   1.267   4.238  13.372 -0.3138 -0.0015  0.0543
   27TMC2    C2  418   1.197   4.348  13.420 -0.4205 -0.2125  0.1556
   27TMC2    C3  419   1.239   4.475  13.392  0.0694  0.0764 -0.4786
   27TMC2    C4  420   1.376   4.259  13.295  0.0345 -0.1129  0.4891
   27TMC2    C5  421   1.422   4.383  13.274 -0.0273  0.0924  0.6071
   27TMC2    C6  422   1.359   4.493  13.329  0.1136  0.3367  0.7354
   27TMC2     C  423   1.186   4.127  13.330  1.1358  0.0968 -0.4398
   27TMC2     O  424   1.253   4.031  13.286  0.4246  0.0502  0.2863
   27TMC2     H  425   1.125   4.343  13.500 -0.9405  0.8788 -0.2419
   27TMC2    H1  426   1.417   4.173  13.243 -0.0802  0.2393 -0.1747
   27TMC2    H2  427   1.392   4.594  13.308 -0.1571  0.3211  0.2378
   27TMC2    C7  428   1.520   4.401  13.174 -1.0236  0.8661 -0.0753
   27TMC2    C8  429   1.213   4.570  13.492  0.4013 -0.2230  0.2849
   27TMC2    O1  430   1.625   4.334  13.172 -0.1856  0.0999  0.0508
   27TMC2    O2  431   1.305   4.624  13.549 -0.1616 -0.3107 -0.2866
   27TMC2    O5  432   1.089   4.616  13.476 -0.0998  0.4909  0.0164
   27TMC2    H5  433   1.043   4.562  13.407  1.0676  0.8173 -1.0156
   28MPD2     C  434   0.753   3.987  13.103  0.1804 -0.1676  0.1748
   28MPD2    C1  435   0.731   4.109  13.163 -0.4680  1.2492 -0.3990
   28MPD2    C2  436   0.835   4.167  13.235  0.1874  0.8179 -0.3535
   28MPD2    C3  437   0.954   4.098  13.254 -0.1337  0.3649  0.3008
   28MPD2    C4  438   0.972   3.973  13.198  0.6696  0.3405  0.0259
   28MPD2    C5  439   0.876   3.924  13.116 -0.5940  0.3229  0.2468
   28MPD2     H  440   0.823   4.259  13.292  0.6183 -0.6906  2.1506
   28MPD2    H1  441   1.064   3.918  13.218  0.0044 -1.1911 -1.1022
   28MPD2    H2  442   0.682   3.941  13.035  0.8250 -0.9976  0.0601
   28MPD2    H3  443   0.894   3.828  13.069  0.6762  0.6671  0.0178
   28MPD2     N  444   1.052   4.166  13.331  0.2761  0.2609 -0.6363
   28MPD2    H5  445   1.022   4.253  13.373 -0.9303  0.0234 -1.0032
   28MPD2    N1  446   0.607   4.173  13.148  0.2084  0.2104  0.3079
   28MPD2    H7  447   0.542   4.111  13.102 -1.1901  1.1080  1.0838
   29TMC2    C1  448   0.483   2.426  14.729  0.0100 -0.3961  1.1892
   29TMC2    C2  449   0.461   2.386  14.861  0.0645  0.2266 -0.4233
   29TMC2    C3  450   0.471   2.477  14.962 -0.2018  0.6968 -0.3451
   29TMC2    C4  451   0.518   2.554  14.705 -0.0695 -0.3757 -0.0893
   29TMC2    C5  452   0.536   2.635  14.815  0.4789 -0.2967  0.1747
   29TMC2    C6  453   0.510   2.604  14.944  0.7360  0.2098  0.6231
   29TMC2     C  454   0.497   2.313  14.631  0.1603 -0.4453  0.1101
   29TMC2     O  455   0.475   2.199  14.673  0.3690 -0.3085 -0.2404
   29TMC2     H  456   0.433   2.282  14.877 -0.0793  0.2921 -0.2424
   29TMC2    H1  457   0.542   2.603  14.611 -0.3961 -1.0531 -0.5184
   29TMC2    H2  458   0.518   2.681  15.020  0.0179  1.3178 -0.4328
   29TMC2    C7  459   0.579   2.773  14.771 -0.5903  0.2738 -0.5520
   29TMC2    C8  460   0.445   2.449  15.101 -0.7082  0.1714  0.2598
   29TMC2    O1  461   0.548   2.812  14.659  0.0461  0.0862  0.5067
   29TMC2    O2  462   0.488   2.517  15.189  0.2688 -0.4552  0.1056
   29TMC2    O5  463   0.341   2.363  15.111 -0.3906  0.2313 -0.6873
   29TMC2    H5  464   0.298   2.331  15.029 -1.1495  1.1870 -0.6537
   30MPD2     C  465   0.619   2.100  14.182 -0.8027 -0.3057 -0.1494
   30MPD2    C1  466   0.587   2.043  14.305 -0.0325 -0.5695  0.2782
   30MPD2    C2  467   0.566   2.124  14.418  0.0704  0.2525 -0.4630
   30MPD2    C3  468   0.557   2.262  14.406  0.2786  0.3034  0.3362
   30MPD2    C4  469   0.580   2.320  14.283 -0.0505  0.0152 -0.0793
   30MPD2    C5  470   0.607   2.234  14.173 -0.7505  0.0670 -0.0002
   30MPD2     H  471   0.554   2.066  14.509  3.6315  0.3885  0.0819
   30MPD2    H1  472   0.589   2.426  14.261 -2.4306  0.3342  0.4362
   30MPD2    H2  473   0.650   2.046  14.093  0.0728  0.7937 -0.5159
   30MPD2    H3  474   0.615   2.267  14.070 -0.8163 -2.8812 -0.9412
   30MPD2     N  475   0.543   2.354  14.511 -0.0467  0.1153 -0.3326
   30MPD2    H5  476   0.547   2.454  14.498 -0.0030  0.3693  1.7106
   30MPD2    N1  477   0.588   1.900  14.315 -0.1736 -0.3197  0.0946
   30MPD2    H7  478   0.590   1.859  14.408  2.9015  0.5529  0.4072
   31TMC2    C1  479   2.769   0.910  15.447 -0.2327 -0.4510 -0.0504
   31TMC2    C2  480   2.639   0.963  15.480  0.4767  0.2967  0.0497
   31TMC2    C3  481   2.607   0.976  15.612  0.1608  0.6761  0.2815
   31TMC2    C4  482   2.860   0.895  15.547  0.4712 -0.6490  0.9478
   31TMC2    C5  483   2.822   0.919  15.677  0.3173  0.5905 -0.0717
   31TMC2    C6  484   2.698   0.950  15.715  0.1427  0.2161 -0.4827
   31TMC2     C  485   2.814   0.911  15.313  0.4856 -0.3124 -0.1719
   31TMC2     O  486   2.753   0.977  15.228  0.4284 -0.0596 -0.2812
   31TMC2     H  487   2.577   0.993  15.396 -1.5172  0.7841  1.7240
   31TMC2    H1  488   2.965   0.869  15.539 -0.0918 -1.9451 -2.1303
   31TMC2    H2  489   2.676   0.955  15.821  0.6642  0.6613 -0.3950
   31TMC2    C7  490   2.925   0.902  15.777 -0.4600 -0.3595 -0.2115
   31TMC2    C8  491   2.462   0.980  15.644  0.0145 -0.0125 -0.4744
   31TMC2    O1  492   2.998   0.804  15.771  0.1967  0.0437  0.2851
   31TMC2    O2  493   2.412   0.945  15.750  0.1495 -0.4185 -0.1796
   31TMC2    O5  494   2.390   1.025  15.533 -0.9256 -0.5041 -0.2096
   31TMC2    H5  495   2.440   1.102  15.500  2.0428 -1.7168  1.4622
   32MPD2     C  496   3.221   0.841  15.003 -0.6517  0.1763  0.1725
   32MPD2    C1  497   3.109   0.924  14.984 -0.1057 -0.6825  0.0310
   32MPD2    C2  498   3.008   0.929  15.081 -0.3307 -0.8245  0.2452
   32MPD2    C3  499   3.024   0.855  15.197  0.7538 -0.0834 -0.8165
   32MPD2    C4  500   3.130   0.765  15.211 -0.0752  0.1498 -1.1675
   32MPD2    C5  501   3.223   0.759  15.115 -0.3150 -0.7299 -0.6252
   32MPD2     H  502   2.924   0.995  15.064  0.1630 -0.7564 -1.9751
   32MPD2    H1  503   3.145   0.704  15.299 -1.6158 -0.9783 -1.6834
   32MPD2    H2  504   3.301   0.836  14.930  0.3148  0.9309  1.2004
   32MPD2    H3  505   3.314   0.700  15.125 -1.0783 -1.7586  0.2612
   32MPD2     N  506   2.930   0.843  15.302  0.1945 -0.5095  0.4811
   32MPD2    H5  507   2.957   0.792  15.385 -2.4865 -2.0200  0.4228
   32MPD2    N1  508   3.109   1.025  14.892  0.1354 -0.2170  0.3593
   32MPD2    H7  509   3.040   1.098  14.909  0.9075  0.3502  1.0587
   33TMC2    C1  510   3.024   3.131  10.755  0.3280  0.2527  0.2967
   33TMC2    C2  511   2.893   3.157  10.720  0.3029 -0.4699 -0.3139
   33TMC2    C3  512   2.862   3.275  10.655 -0.1851 -0.0341 -0.8307
   33TMC2    C4  513   3.127   3.223  10.730 -0.1223 -0.0599 -0.1646
   33TMC2    C5  514   3.082   3.339  10.666 -0.1920  0.2510 -0.0341
   33TMC2    C6  515   2.956   3.363  10.620 -0.2601 -0.0336 -0.2546
   33TMC2     C  516   3.052   3.017  10.838 -0.1030  0.2166  0.9775
   33TMC2     O  517   2.958   2.953  10.883  0.1687  0.0819  0.6591
   33TMC2     H  518   2.812   3.088  10.740  0.9145 -1.6618 -2.0086
   33TMC2    H1  519   3.226   3.228  10.774 -0.2063  1.4569 -0.1617
   33TMC2    H2  520   2.935   3.450  10.559  0.6446  0.3021 -0.0918
   33TMC2    C7  521   3.186   3.436  10.633 -0.2380 -0.3859  0.0504
   33TMC2    C8  522   2.717   3.304  10.659 -1.0276 -1.1385 -0.3385
   33TMC2    O1  523   3.302   3.401  10.641 -0.7067  0.1197 -0.4918
   33TMC2    O2  524   2.639   3.215  10.695 -0.0515  0.7060 -0.0229
   33TMC2    O5  525   2.695   3.431  10.688  0.2836 -0.4112  0.2234
   33TMC2    H5  526   2.768   3.488  10.654  0.6873 -1.3379 -0.4627
   34MPD2     C  527   3.380   2.636  10.932  0.1455 -0.3920 -0.3193
   34MPD2    C1  528   3.243   2.636  10.940 -0.4536  0.1065 -0.1370
   34MPD2    C2  529   3.178   2.756  10.920  0.0487 -0.2060 -0.1908
   34MPD2    C3  530   3.243   2.869  10.887  0.0283  0.4883  0.1253
   34MPD2    C4  531   3.378   2.865  10.889  0.4381 -0.7061  0.3046
   34MPD2    C5  532   3.447   2.751  10.915 -0.0630  0.5395 -0.6137
   34MPD2     H  533   3.070   2.762  10.917  0.0143 -0.4214  0.6210
   34MPD2    H1  534   3.431   2.957  10.867  1.0620 -0.7802  1.4626
   34MPD2    H2  535   3.443   2.551  10.951  0.2727 -0.3232 -0.4369
   34MPD2    H3  536   3.554   2.765  10.922  0.2096 -0.6382 -2.5352
   34MPD2     N  537   3.189   2.990  10.844  0.3619  0.6415 -0.5036
   34MPD2    H5  538   3.254   3.055  10.800  0.8097  0.1239 -0.6100
   34MPD2    N1  539   3.180   2.506  10.937 -0.0897 -0.0562 -0.0826
   34MPD2    H7  540   3.245   2.431  10.915  0.8450  0.7570 -0.1068
   35TMC2    C1  541   4.506   3.596  11.822 -0.0872 -0.2947 -0.5358
   35TMC2    C2  542   4.544   3.715  11.764  0.4906  0.2486  0.9434
   35TMC2    C3  543   4.449   3.793  11.702  1.0025 -0.6720 -0.4983
   35TMC2    C4  544   4.376   3.559  11.814 -0.2809 -0.4104 -0.1624
   35TMC2    C5  545   4.284   3.642  11.755  0.8989 -0.3703  1.0665
   35TMC2    C6  546   4.316   3.757  11.696  0.2631 -0.1852  0.2011
   35TMC2     C  547   4.600   3.496  11.876 -0.0708 -0.3126 -0.0276
   35TMC2     O  548   4.559   3.380  11.871  0.2317  0.4086  0.0292
   35TMC2     H  549   4.648   3.743  11.754  1.0183 -1.5128  1.6446
   35TMC2    H1  550   4.347   3.464  11.856  1.0507 -0.2670  1.0720
   35TMC2    H2  551   4.252   3.820  11.635 -0.9203  2.1258  3.8716
   35TMC2    C7  552   4.143   3.598  11.741  1.2744  0.7141 -0.0395
   35TMC2    C8  553   4.509   3.915  11.647 -0.6692 -0.2032  0.6110
   35TMC2    O1  554   4.125   3.482  11.774  0.0290  0.6115 -0.1556
   35TMC2    O2  555   4.629   3.929  11.617 -0.1571  0.2201  0.4078
   35TMC2    O5  556   4.438   4.008  11.715 -0.0286  0.0107  0.2869
   35TMC2    H5  557   4.345   3.993  11.742  0.2337 -2.1769 -0.0132
   36MPD2     C  558   0.261   3.372  12.162 -0.2544  1.0951  0.0197
   36MPD2    C1  559   0.264   3.504  12.136 -0.2100  0.5872 -0.0737
   36MPD2    C2  560   0.173   3.561  12.055 -0.4033 -0.2248  1.0951
   36MPD2    C3  561   0.069   3.481  12.008  0.0974  0.2546  0.7030
   36MPD2    C4  562   0.062   3.346  12.027 -0.2346  0.0668  0.1347
   36MPD2    C5  563   0.157   3.291  12.107 -0.0614  0.3933  0.7630
   36MPD2     H  564   0.164   3.666  12.031  1.6276 -0.0830  0.9405
   36MPD2    H1  565   4.720   3.288  11.986  1.3118 -0.5365 -2.0741
   36MPD2    H2  566   0.338   3.329  12.225 -1.3816 -1.0834 -0.0658
   36MPD2    H3  567   0.133   3.192  12.146  1.7000  0.0482  0.9875
   36MPD2     N  568   4.709   3.550  11.933 -0.2712  0.0986  0.5236
   36MPD2    H5  569   4.719   3.650  11.917 -2.1256  0.8187  3.7717
   36MPD2    N1  570   0.366   3.579  12.200  0.0990 -0.2014  0.2992
   36MPD2    H7  571   0.438   3.530  12.253  0.8084 -0.3154 -0.7761
   37TMC2    C1  572   2.239   4.550  11.834 -0.4736 -0.2101  0.1654
   37TMC2    C2  573   2.122   4.536  11.762  0.5373 -0.6044 -0.0185
   37TMC2    C3  574   2.126   4.469  11.642  0.9648  0.2946 -0.4722
   37TMC2    C4  575   2.358   4.516  11.778  0.3087 -0.0311  0.3815
   37TMC2    C5  576   2.360   4.452  11.651 -0.0514 -0.2233  0.9730
   37TMC2    C6  577   2.242   4.430  11.580  0.5332 -0.1514 -0.5327
   37TMC2     C  578   2.241   4.592  11.973 -0.3450 -0.5793 -0.5309
   37TMC2     O  579   2.133   4.630  12.017  0.5558 -0.4562 -0.4907
   37TMC2     H  580   2.026   4.546  11.812  0.9791 -0.3745  0.7947
   37TMC2    H1  581   2.452   4.525  11.831  1.0152  0.1949 -0.9217
   37TMC2    H2  582   2.242   4.387  11.480  0.2559  0.3081 -0.7282
   37TMC2    C7  583   2.484   4.441  11.585 -0.3627  0.2250 -0.0984
   37TMC2    C8  584   2.007   4.459  11.560  0.6100  0.1846  0.7335
   37TMC2    O1  585   2.583   4.427  11.659  0.9675 -0.2721 -0.3434
   37TMC2    O2  586   1.986   4.361  11.488  0.3734  0.0027  0.1488
   37TMC2    O5  587   1.910   4.541  11.592 -0.4613 -0.7414  0.1022
   37TMC2    H5  588   1.927   4.613  11.657  0.1923 -0.9886  0.2099
   38MPD2     C  589   2.472   4.650  12.427  0.8570 -0.9698  0.1623
   38MPD2    C1  590   2.574   4.648  12.339 -0.0310 -0.3637  0.5298
   38MPD2    C2  591   2.532   4.626  12.206 -0.1564  0.8099 -0.7249
   38MPD2    C3  592   2.398   4.623  12.162 -0.3018 -0.1058 -0.2581
   38MPD2    C4  593   2.300   4.639  12.261  0.3356 -0.0807  0.5252
   38MPD2    C5  594   2.342   4.641  12.390  0.0832 -0.3804 -0.4792
   38MPD2     H  595   2.611   4.602  12.137  0.6138 -4.8901  2.1933
   38MPD2    H1  596   2.194   4.638  12.239  0.1771 -1.3202  1.3247
   38MPD2    H2  597   2.487   4.668  12.533  1.9943  0.1187 -0.1773
   38MPD2    H3  598   2.271   4.638  12.472  1.4433 -2.3381  0.5990
   38MPD2     N  599   2.364   4.605  12.021  0.2121 -0.2347  0.7113
   38MPD2    H5  600   2.444   4.580  11.964 -0.0904  0.3780  0.0152
   38MPD2    N1  601   2.711   4.656  12.363  0.1020  0.4215  0.3275
   38MPD2    H7  602   2.772   4.634  12.285 -0.6784  0.9214 -0.4294
   39TMC2    C1  603   0.485   1.792   1.531  0.6824  0.2232 -0.1828
   39TMC2    C2  604   0.505   1.802   1.664  0.2613  0.2827 -0.0036
   39TMC2    C3  605   0.619   1.859   1.715 -0.3953 -0.2449  0.0348
   39TMC2    C4  606   0.602   1.779   1.449 -0.0495  0.3996 -0.2600
   39TMC2    C5  607   0.719   1.840   1.498 -0.3047 -0.5073 -0.7299
   39TMC2    C6  608   0.723   1.878   1.628 -0.2147 -0.3194  0.4920
   39TMC2     C  609   0.357   1.775   1.475 -0.2656 -0.1392  0.4379
   39TMC2     O  610   0.258   1.824   1.531 -0.5681  0.0254  0.5698
   39TMC2     H  611   0.414   1.793   1.722  2.4706 -0.1467  3.3849
   39TMC2    H1  612   0.601   1.769   1.341  0.6019 -1.3437 -0.0976
   39TMC2    H2  613   0.819   1.901   1.673  0.0278 -1.4405  0.5559
   39TMC2    C7  614   0.820   1.880   1.400  0.4953  0.4797 -0.8389
   39TMC2    C8  615   0.653   1.842   1.855  1.2793  0.3732 -0.1911
   39TMC2    O1  616   0.815   1.834   1.286  0.4300  0.2226 -0.0035
   39TMC2    O2  617   0.761   1.800   1.896 -0.3599 -0.4260 -0.0505
   39TMC2    O5  618   0.534   1.851   1.920 -0.2048 -0.3893 -0.0614
   39TMC2    H5  619   0.468   1.904   1.870 -0.1271  0.6543  0.9291
   40MPD2     C  620   0.286   1.520   1.220  0.5931  0.0811 -0.9294
   40MPD2    C1  621   0.263   1.632   1.299 -0.6151 -0.5958  0.5356
   40MPD2    C2  622   0.140   1.694   1.292  0.3098 -0.7145  0.4340
   40MPD2    C3  623   0.050   1.649   1.196  0.2264 -0.5571  0.6319
   40MPD2    C4  624   0.079   1.541   1.115  0.0924  0.1621  0.1447
   40MPD2    C5  625   0.195   1.466   1.129  0.1269  0.3665 -0.6142
   40MPD2     H  626   0.114   1.783   1.349  2.8686 -0.3089  0.9370
   40MPD2    H1  627   0.001   1.490   1.058 -2.7280  2.4747  1.9306
   40MPD2    H2  628   0.382   1.470   1.224  0.1856 -0.5273  1.1547
   40MPD2    H3  629   0.217   1.377   1.072  2.2916  0.1118  0.6375
   40MPD2     N  630   4.664   1.715   1.168  0.7812 -0.5701  0.2525
   40MPD2    H5  631   4.608   1.672   1.095  2.5525 -0.9435 -0.9110
   40MPD2    N1  632   0.372   1.683   1.375  0.1064  0.5077  0.9799
   40MPD2    H7  633   0.462   1.637   1.376 -0.2530 -0.2484 -1.1366
   41TMC2    C1  634   3.524   4.725  13.509  1.0677  0.2248 -0.1700
   41TMC2    C2  635   3.406   0.014  13.446  0.4191  0.7352 -0.8965
   41TMC2    C3  636   3.409   0.104  13.351  0.0644 -0.2678 -0.3553
   41TMC2    C4  637   3.642   0.046  13.465 -0.3983 -0.1437 -0.1149
   41TMC2    C5  638   3.640   0.135  13.365  0.7625 -0.6909 -0.3331
   41TMC2    C6  639   3.517   0.173  13.312  0.0071  0.3855 -0.0975
   41TMC2     C  640   3.519   4.638  13.620 -0.5756  0.4580 -0.7930
   41TMC2     O  641   3.419   4.571  13.635  0.1849 -0.1875 -0.4978
   41TMC2     H  642   3.311   0.002  13.497  1.1427 -0.0257  0.2704
   41TMC2    H1  643   3.734   0.032  13.518 -0.7770  1.2888  0.9109
   41TMC2    H2  644   3.509   0.247  13.233  1.6233 -0.0597 -0.6883
   41TMC2    C7  645   3.750   0.212  13.317 -0.4626 -0.3081  0.0478
   41TMC2    C8  646   3.283   0.148  13.292 -0.1035 -0.0916 -0.0804
   41TMC2    O1  647   3.717   0.330  13.291 -0.4648  0.3128  0.0462
   41TMC2    O2  648   3.266   0.245  13.220 -0.4268 -0.1428 -0.6913
   41TMC2    O5  649   3.225   0.026  13.253 -0.2048  0.3698 -0.3386
   41TMC2    H5  650   3.220   4.690  13.314 -0.9567  0.4638 -0.2848
   42MPD2     C  651   3.602   4.453  13.839  0.3077 -0.3812  0.4207
   42MPD2    C1  652   3.655   4.579  13.823  0.5622 -0.2192 -0.6061
   42MPD2    C2  653   3.755   4.623  13.911  0.6058 -0.3265  0.5441
   42MPD2    C3  654   3.799   4.540  14.020 -0.3611 -0.1792  0.2735
   42MPD2    C4  655   3.744   4.414  14.020 -0.3926  0.8034  0.3623
   42MPD2    C5  656   3.641   4.374  13.939  0.7873  0.9448 -0.3268
   42MPD2     H  657   3.802   4.720  13.899 -0.8395  0.2760 -0.3383
   42MPD2    H1  658   3.768   4.343  14.099 -1.2002 -0.4412 -0.5129
   42MPD2    H2  659   3.531   4.411  13.769 -1.0424 -0.7919  2.0524
   42MPD2    H3  660   3.586   4.282  13.952  1.1579  1.0868  2.1847
   42MPD2     N  661   3.891   4.573  14.119  0.0845 -0.6661 -0.5237
   42MPD2    H5  662   3.896   4.501  14.190 -0.3439  0.2766  0.4477
   42MPD2    N1  663   3.632   4.654  13.704  0.0498  0.1317 -0.5170
   42MPD2    H7  664   3.691   4.735  13.692  0.2268 -0.0543 -0.8887
   43TMC2    C1  665   0.497   3.729   0.500  0.0288 -0.3784  0.6501
   43TMC2    C2  666   0.470   3.812   0.396  0.2579  0.2933  0.9890
   43TMC2    C3  667   0.559   3.918   0.390  0.2287 -0.0736 -0.2323
   43TMC2    C4  668   0.591   3.750   0.593  0.1074 -0.5700  0.3009
   43TMC2    C5  669   0.673   3.866   0.582  0.0116 -0.0905  0.2768
   43TMC2    C6  670   0.661   3.947   0.478 -0.2711  0.1561 -0.0439
   43TMC2     C  671   0.471   3.584   0.487 -0.2790  0.9351  0.0410
   43TMC2     O  672   0.501   3.504   0.572 -0.3440 -0.2795 -0.1442
   43TMC2     H  673   0.378   3.803   0.340  1.1703  0.8539 -0.5886
   43TMC2    H1  674   0.615   3.670   0.663  1.7361 -0.2502  0.1097
   43TMC2    H2  675   0.711   4.043   0.475  0.7778 -0.3778  0.7331
   43TMC2    C7  676   0.793   3.883   0.671 -0.3983  0.6300  0.5198
   43TMC2    C8  677   0.538   4.010   0.280  0.3732 -0.3070 -0.3606
   43TMC2    O1  678   0.867   3.976   0.644 -0.3717 -0.5581 -0.1360
   43TMC2    O2  679   0.578   4.122   0.276 -0.2711 -0.4429 -0.2951
   43TMC2    O5  680   0.535   3.933   0.165 -0.3062 -0.2483 -0.1628
   43TMC2    H5  681   0.529   3.836   0.173 -2.1145 -0.1920 -0.8010
   44MPD2     C  682   0.305   3.193   0.202  0.0096 -0.2471 -0.0175
   44MPD2    C1  683   0.412   3.197   0.286  0.0897  0.1066 -0.4129
   44MPD2    C2  684   0.437   3.314   0.348 -0.5208  0.0289 -0.1516
   44MPD2    C3  685   0.366   3.430   0.326 -0.8333  0.4816 -0.2242
   44MPD2    C4  686   0.274   3.430   0.223  0.4879  0.3092 -0.1836
   44MPD2    C5  687   0.246   3.308   0.164 -0.1174 -0.4887 -0.0794
   44MPD2     H  688   0.530   3.313   0.405  0.6867 -1.4677 -2.1555
   44MPD2    H1  689   0.210   3.514   0.197 -0.0960  0.5228  1.9081
   44MPD2    H2  690   0.286   3.096   0.156 -2.4215 -0.0049  0.4813
   44MPD2    H3  691   0.168   3.305   0.089  1.1409  2.4580 -1.5035
   44MPD2     N  692   0.393   3.557   0.377  0.3957  0.4413 -0.2720
   44MPD2    H5  693   0.357   3.640   0.330  0.8838 -0.4621 -2.2343
   44MPD2    N1  694   0.487   3.081   0.322 -0.3835 -0.3617  0.1430
   44MPD2    H7  695   0.563   3.102   0.386  2.1656  2.1735 -3.7395
   45TMC2    C1  696   1.062   0.249   9.665  0.2889 -0.0439  0.4258
   45TMC2    C2  697   1.163   0.158   9.646  0.8901 -0.0839 -0.3803
   45TMC2    C3  698   1.290   0.194   9.687 -0.3802  0.3503  0.0819
   45TMC2    C4  699   1.081   0.373   9.721 -0.7543 -0.1109  0.3711
   45TMC2    C5  700   1.209   0.394   9.775  0.2189  0.5245  0.2059
   45TMC2    C6  701   1.312   0.307   9.766 -0.0107  0.2532 -0.2635
   45TMC2     C  702   0.957   0.241   9.566 -0.1018 -0.2075 -0.5166
   45TMC2     O  703   0.982   0.169   9.470 -0.5992  0.4597 -0.3176
   45TMC2     H  704   1.134   0.063   9.602  0.9570 -2.5202  4.8399
   45TMC2    H1  705   1.021   0.463   9.724  0.4576  0.7367 -0.7521
   45TMC2    H2  706   1.409   0.329   9.811 -1.3028 -0.9926  3.1249
   45TMC2    C7  707   1.232   0.524   9.826  0.4794 -0.1057 -0.2019
   45TMC2    C8  708   1.412   0.117   9.655 -0.5734 -0.1057  0.0003
   45TMC2    O1  709   1.154   0.565   9.909  0.1894 -0.2682  0.1288
   45TMC2    O2  710   1.514   0.132   9.719 -0.5889 -0.0458 -0.0777
   45TMC2    O5  711   1.396   0.034   9.550  0.0882 -0.2833 -0.0365
   45TMC2    H5  712   1.324   0.059   9.489 -0.0249  1.1476  0.6844
   46MPD2     C  713   0.704   0.209   9.422  0.5772 -0.1875 -0.4011
   46MPD2    C1  714   0.711   0.271   9.549 -0.2800  0.7823 -0.8370
   46MPD2    C2  715   0.586   0.303   9.609 -0.8037  0.2844  0.2049
   46MPD2    C3  716   0.466   0.280   9.537 -0.3935 -0.5084  0.4608
   46MPD2    C4  717   0.470   0.233   9.406  0.3274  0.6366 -0.1909
   46MPD2    C5  718   0.587   0.200   9.353 -0.0867  0.3095  0.3766
   46MPD2     H  719   0.591   0.340   9.711 -2.1507 -2.6008  1.3140
   46MPD2    H1  720   0.384   0.214   9.343 -1.2295  2.0385  1.5335
   46MPD2    H2  721   0.786   0.169   9.364  1.0207  1.1482 -0.7051
   46MPD2    H3  722   0.596   0.156   9.254 -1.1787 -1.3819  1.0387
   46MPD2     N  723   0.344   0.296   9.605  0.1757 -0.5185  0.6474
   46MPD2    H5  724   0.347   0.299   9.706 -1.4580  0.9887  0.6536
   46MPD2    N1  725   0.841   0.284   9.620  0.0226 -0.3613 -0.1600
   46MPD2    H7  726   0.840   0.325   9.713  0.3181 -0.3830 -0.1478
   47TMC2    C1  727   3.840   0.225   9.448 -0.0018  0.4227  0.7691
   47TMC2    C2  728   3.871   0.142   9.344 -0.0315  0.1252  0.1317
   47TMC2    C3  729   3.772   0.050   9.310 -0.5106 -0.8602  0.5901
   47TMC2    C4  730   3.728   0.228   9.520 -0.6526 -0.2033  0.5587
   47TMC2    C5  731   3.637   0.129   9.482  0.4030 -0.0010  0.6271
   47TMC2    C6  732   3.650   0.044   9.377 -0.6234 -0.5142  0.3994
   47TMC2     C  733   3.951   0.302   9.501 -0.4545  0.5944 -0.0405
   47TMC2     O  734   3.995   0.375   9.419  0.1994  0.0166  0.2930
   47TMC2     H  735   3.969   0.158   9.302  0.3570 -1.1710  0.5341
   47TMC2    H1  736   3.716   0.286   9.610 -0.8820  0.4979  0.0780
   47TMC2    H2  737   3.570   4.714   9.356 -0.5875 -0.7883  1.1969
   47TMC2    C7  738   3.508   0.129   9.556 -0.1022 -0.2589  0.4123
   47TMC2    C8  739   3.797   4.684   9.216 -0.2806 -0.1777  0.9580
   47TMC2    O1  740   3.500   0.197   9.656  0.2799 -0.1433  0.0769
   47TMC2    O2  741   3.730   4.685   9.112  0.9535 -0.0577  0.4954
   47TMC2    O5  742   3.931   4.676   9.221 -0.3543 -0.0532 -0.0442
   47TMC2    H5  743   3.961   4.672   9.315 -0.5818  0.4722  0.0530
   48MPD2     C  744   4.136   0.450   9.675 -0.7626 -0.0769  0.0241
   48MPD2    C1  745   4.103   0.317   9.693  0.8310 -0.5916  0.3124
   48MPD2    C2  746   4.152   0.240   9.795  0.3995 -0.2747  0.1443
   48MPD2    C3  747   4.245   0.304   9.872  0.0370 -0.1582 -0.7771
   48MPD2    C4  748   4.281   0.436   9.856 -0.3888  0.5132  0.2160
   48MPD2    C5  749   4.229   0.506   9.750 -0.1262 -0.2287  0.6669
   48MPD2     H  750   4.129   0.136   9.812  3.5723 -0.9613  0.2327
   48MPD2    H1  751   4.348   0.491   9.921 -1.6003  0.2282  1.7069
   48MPD2    H2  752   4.097   0.506   9.591 -0.5956 -0.4775 -0.3220
   48MPD2    H3  753   4.257   0.610   9.737 -1.4867  0.2391  1.4253
   48MPD2     N  754   4.309   0.223   9.967  0.3293  0.1544 -0.4719
   48MPD2    H5  755   4.291   0.125   9.950  1.4542  0.0384 -0.9818
   48MPD2    N1  756   3.999   0.255   9.620  0.3693  0.3050  0.3030
   48MPD2    H7  757   3.947   0.185   9.672 -1.9252  0.0888 -2.2974
   49TMC2    C1  758   1.512   2.130  10.463  0.1744  0.1729  0.5638
   49TMC2    C2  759   1.468   2.005  10.483 -0.1756 -0.0708  0.0553
   49TMC2    C3  760   1.353   1.962  10.431 -0.0688  0.1241 -0.3367
   49TMC2    C4  761   1.427   2.218  10.393 -0.0747 -0.7814  0.5924
   49TMC2    C5  762   1.314   2.171  10.335  0.3342  0.0829 -0.0164
   49TMC2    C6  763   1.278   2.037  10.345  1.0804  0.1203  0.5867
   49TMC2     C  764   1.627   2.185  10.531  0.0587 -0.1302  0.1020
   49TMC2     O  765   1.715   2.108  10.562 -0.0664  0.2759 -0.1150
   49TMC2     H  766   1.531   1.951  10.554 -0.7111 -1.6365 -0.6565
   49TMC2    H1  767   1.469   2.317  10.379 -0.1912 -0.6712  1.0224
   49TMC2    H2  768   1.176   2.013  10.316  2.0870 -2.4549 -0.7315
   49TMC2    C7  769   1.269   2.248  10.215 -0.3729 -0.2241 -0.0140
   49TMC2    C8  770   1.316   1.819  10.430 -0.0657  0.0804  0.0729
   49TMC2    O1  771   1.317   2.360  10.210  0.1696 -0.6256 -0.4356
   49TMC2    O2  772   1.289   1.772  10.320  0.4369  0.6717  0.7593
   49TMC2    O5  773   1.392   1.760  10.525  0.0036 -0.0565 -0.5379
   49TMC2    H5  774   1.386   1.808  10.610  0.3318 -1.7850  0.4542
   50MPD2     C  775   1.783   2.360  10.717  0.9788  0.3449 -0.4609
   50MPD2    C1  776   1.645   2.368  10.699 -0.2038  0.0670 -0.1792
   50MPD2    C2  777   1.566   2.442  10.785  0.5269  0.3661  0.4759
   50MPD2    C3  778   1.623   2.506  10.895 -0.3896 -0.3599  0.0316
   50MPD2    C4  779   1.761   2.493  10.910 -0.1176  0.4887 -0.5526
   50MPD2    C5  780   1.839   2.421  10.824 -0.2271  0.1686  0.2947
   50MPD2     H  781   1.457   2.447  10.780  0.5220 -0.5372 -0.2368
   50MPD2    H1  782   1.805   2.537  10.999 -1.6419  2.4223 -0.7604
   50MPD2    H2  783   1.845   2.283  10.671 -1.1237 -1.2090 -0.6837
   50MPD2    H3  784   1.940   2.396  10.854 -0.5872 -1.0015  0.5247
   50MPD2     N  785   1.556   2.580  10.989  0.6643 -0.6266  0.1565
   50MPD2    H5  786   1.608   2.646  11.045 -0.8156  0.3782  0.3546
   50MPD2    N1  787   1.578   2.297  10.595  0.1681 -0.4535 -0.0958
   50MPD2    H7  788   1.484   2.332  10.581  1.0952  1.6845 -0.9062
   51TMC2    C1  789   4.125   0.889   1.719 -1.1926  0.5876 -0.8298
   51TMC2    C2  790   4.247   0.848   1.767 -0.8390  0.0562 -0.0916
   51TMC2    C3  791   4.302   0.930   1.859 -0.7127 -0.1699  0.6281
   51TMC2    C4  792   4.070   1.008   1.756 -0.5870 -0.3170 -0.1465
   51TMC2    C5  793   4.130   1.083   1.851  0.0968  0.2518  0.9397
   51TMC2    C6  794   4.247   1.044   1.907 -0.0019  0.5581  0.0199
   51TMC2     C  795   4.066   0.827   1.599  0.3250  0.0348  0.4612
   51TMC2     O  796   3.949   0.848   1.572 -0.0971 -0.3078  0.5896
   51TMC2     H  797   4.285   0.748   1.747 -0.5018 -0.1476  1.6316
   51TMC2    H1  798   3.971   1.036   1.721 -0.7223 -1.5773 -0.7694
   51TMC2    H2  799   4.299   1.116   1.970 -1.6993  0.8747  1.0659
   51TMC2    C7  800   4.083   1.220   1.877 -0.0805 -0.5797  0.1378
   51TMC2    C8  801   4.433   0.902   1.912 -0.5720 -0.4392 -0.5320
   51TMC2    O1  802   4.165   1.301   1.924  0.1886  0.3974 -0.3331
   51TMC2    O2  803   4.491   0.966   2.001  0.1284  0.2738 -0.3296
   51TMC2    O5  804   4.497   0.843   1.812  0.4456  0.5594  0.1377
   51TMC2    H5  805   4.455   0.856   1.724 -1.6823  1.3132  1.2661
   52MPD2     C  806   4.151   0.668   1.125 -0.3753 -0.4187 -0.0993
   52MPD2    C1  807   4.039   0.727   1.180  0.1279  1.0855 -0.4554
   52MPD2    C2  808   4.043   0.757   1.314  0.2682 -0.6358 -0.1569
   52MPD2    C3  809   4.152   0.722   1.395  0.6529  0.0122  0.4614
   52MPD2    C4  810   4.249   0.639   1.343  0.2012 -0.0792  0.2396
   52MPD2    C5  811   4.247   0.614   1.205  0.0058  0.7175 -0.4959
   52MPD2     H  812   3.960   0.815   1.354  0.6563 -0.8046  0.8786
   52MPD2    H1  813   4.328   0.600   1.406 -1.0555 -0.2537  1.7349
   52MPD2    H2  814   4.145   0.636   1.022 -2.6700 -1.4248  0.3457
   52MPD2    H3  815   4.321   0.549   1.162 -0.2971  0.7554 -1.0748
   52MPD2     N  816   4.160   0.759   1.530 -0.4960  0.3542  0.7054
   52MPD2    H5  817   4.246   0.741   1.581 -0.1701  0.9368  0.3547
   52MPD2    N1  818   3.928   0.766   1.094 -0.7186  0.1647  0.2452
   52MPD2    H7  819   3.938   0.746   0.995  0.4992 -0.8762  0.5777
   53TMC2    C1  820   3.161   4.654  11.433 -0.4288  0.1300 -0.5908
   53TMC2    C2  821   3.293   4.614  11.414  0.2124  0.2408 -0.0290
   53TMC2    C3  822   3.378   4.644  11.514  0.0527 -0.4563 -0.6653
   53TMC2    C4  823   3.121   4.701  11.552  0.1680 -0.2657  0.1020
   53TMC2    C5  824   3.218   4.738  11.649  0.0362  0.2865 -0.2194
   53TMC2    C6  825   3.346   4.702  11.630 -0.5831 -0.1666  0.5687
   53TMC2     C  826   3.056   4.616  11.339  0.9106  0.0698  0.7509
   53TMC2     O  827   3.087   4.579  11.223  0.2043 -0.0588 -0.1495
   53TMC2     H  828   3.326   4.577  11.318 -2.6128  2.3255 -1.8044
   53TMC2    H1  829   3.021   0.002  11.552 -0.0770 -0.8589  0.8845
   53TMC2    H2  830   3.418   4.715  11.711  2.6932 -0.2096 -2.3270
   53TMC2    C7  831   3.168   0.046  11.782 -0.0467 -1.1447  0.5015
   53TMC2    C8  832   3.496   4.557  11.512  0.7884 -0.5506 -0.3959
   53TMC2    O1  833   3.044   0.040  11.785 -0.1822  0.1540  0.5018
   53TMC2    O2  834   3.517   4.468  11.432  0.6360 -0.4021 -0.1828
   53TMC2    O5  835   3.588   4.641  11.558  0.3418 -0.5758  0.3590
   53TMC2    H5  836   3.566   4.736  11.555  1.1448 -0.4944 -2.8266
   54MPD2     C  837   2.795   4.542  11.191 -0.0146  0.2891 -0.3785
   54MPD2    C1  838   2.811   4.547  11.329  0.4643 -0.3700 -0.3624
   54MPD2    C2  839   2.707   4.502  11.418 -0.0587 -0.1547 -0.4165
   54MPD2    C3  840   2.585   4.464  11.367 -0.0175  0.5921  0.1730
   54MPD2    C4  841   2.573   4.462  11.229  0.0882  0.1433  0.8139
   54MPD2    C5  842   2.675   4.497  11.144 -0.0102 -0.2807  0.4237
   54MPD2     H  843   2.739   4.515  11.520 -1.9140 -0.9912  0.2693
   54MPD2    H1  844   2.479   4.430  11.184  0.1458 -1.1939  1.6427
   54MPD2    H2  845   2.876   4.570  11.124  0.7569 -0.4037  0.2650
   54MPD2    H3  846   2.651   4.506  11.039  0.8758 -0.9397  0.1692
   54MPD2     N  847   2.480   4.438  11.448 -0.2816  0.4314  0.7645
   54MPD2    H5  848   2.392   4.442  11.399  0.1437 -1.7220 -0.1776
   54MPD2    N1  849   2.933   4.585  11.401 -0.5356  0.5795  0.0860
   54MPD2    H7  850   2.937   4.570  11.501  1.1277  0.4515 -0.0124
   55TMC2    C1  851   3.523   3.463   0.029  0.0499  0.2327  0.6073
   55TMC2    C2  852   3.613   3.498  17.692 -0.8714  0.3402  0.7547
   55TMC2    C3  853   3.674   3.393  17.623  0.0195  0.0977 -0.1831
   55TMC2    C4  854   3.503   3.339   0.076 -0.0494 -0.0065 -0.2173
   55TMC2    C5  855   3.566   3.234   0.008  0.1448  0.3941  0.3179
   55TMC2    C6  856   3.641   3.258  17.653 -1.1072 -0.0382  0.0976
   55TMC2     C  857   3.444   3.561   0.094 -0.4874  0.1193  0.1137
   55TMC2     O  858   3.379   3.524   0.190 -0.0590 -0.2675  0.0656
   55TMC2     H  859   3.626   3.596  17.648  1.4631 -0.6177 -0.7555
   55TMC2    H1  860   3.439   3.317   0.161 -0.1079 -0.3648 -0.3531
   55TMC2    H2  861   3.659   3.169  17.595 -1.6808  1.0542 -1.7599
   55TMC2    C7  862   3.518   3.097   0.024 -0.6169 -0.2616 -0.8519
   55TMC2    C8  863   3.752   3.426  17.506 -0.2628 -0.3458  0.2904
   55TMC2    O1  864   3.515   3.022  17.682 -0.7169  0.5286 -0.0545
   55TMC2    O2  865   3.770   3.542  17.477 -0.2579 -0.4113 -0.2991
   55TMC2    O5  866   3.780   3.307  17.445 -0.5168  0.2323 -0.6189
   55TMC2    H5  867   3.772   3.236  17.513 -0.2379  0.1929 -0.6259
   56MPD2     C  868   3.399   3.920  17.757 -0.1089 -0.0004 -0.2616
   56MPD2    C1  869   3.388   3.804   0.080 -0.0369  0.2058  0.3664
   56MPD2    C2  870   3.316   3.807   0.199 -0.0106 -0.5232  0.3659
   56MPD2    C3  871   3.245   3.921   0.247 -0.4732  0.6930 -0.0573
   56MPD2    C4  872   3.254   4.033   0.159  0.0758  0.5645 -0.9065
   56MPD2    C5  873   3.328   4.033   0.038 -0.7591  0.3370  0.2910
   56MPD2     H  874   3.322   3.719   0.263 -0.3850  0.6315  1.9985
   56MPD2    H1  875   3.210   4.124   0.197 -0.9290 -0.5052  0.4917
   56MPD2    H2  876   3.469   3.933  17.675  1.7840 -0.6590  1.2548
   56MPD2    H3  877   3.341   4.129  17.748  0.2054  0.8144  1.5015
   56MPD2     N  878   3.164   3.912   0.362  0.2625 -0.0454 -0.0134
   56MPD2    H5  879   3.172   3.821   0.406 -0.1899 -0.6343 -1.1208
   56MPD2    N1  880   3.453   3.684   0.036 -0.3804  0.1861  0.0873
   56MPD2    H7  881   3.508   3.691  17.709  1.1549  1.2619  1.1863
   57TMC2    C1  882   2.211   3.534  13.331 -0.3021  0.0506 -0.5847
   57TMC2    C2  883   2.156   3.425  13.270 -0.2039  0.0025 -0.1072
   57TMC2    C3  884   2.250   3.334  13.229 -0.8194  0.4120 -0.6396
   57TMC2    C4  885   2.342   3.564  13.349  0.5651 -0.3114 -0.3388
   57TMC2    C5  886   2.426   3.459  13.317 -0.5566 -0.2096  0.0434
   57TMC2    C6  887   2.381   3.341  13.266  0.4917 -0.1210  0.6129
   57TMC2     C  888   2.139   3.599  13.441  0.2567  0.0495 -0.6018
   57TMC2     O  889   2.188   3.694  13.493  0.5960 -0.7135 -0.4798
   57TMC2     H  890   2.049   3.414  13.257 -0.1059  0.8507 -1.5933
   57TMC2    H1  891   2.371   3.655  13.401 -0.0789 -0.9848  1.1905
   57TMC2    H2  892   2.445   3.258  13.240  1.1948 -0.0615  2.1326
   57TMC2    C7  893   2.565   3.474  13.358  0.2001 -0.0059  0.3151
   57TMC2    C8  894   2.202   3.204  13.212 -0.3892 -0.5354 -0.1599
   57TMC2    O1  895   2.587   3.579  13.419  0.0802  0.0837 -0.0479
   57TMC2    O2  896   2.241   3.118  13.290  0.1276  0.3757  0.8848
   57TMC2    O5  897   2.085   3.205  13.150  0.4002 -0.1288 -0.4178
   57TMC2    H5  898   2.078   3.285  13.093  0.3824  0.0540 -0.1593
   58MPD2     C  899   1.716   3.602  13.735  0.2166 -0.3237  0.4706
   58MPD2    C1  900   1.825   3.691  13.735  0.2147  0.1782 -0.6260
   58MPD2    C2  901   1.929   3.668  13.649  0.6870  0.0938 -0.1275
   58MPD2    C3  902   1.931   3.554  13.574  0.5412  0.3341  0.3782
   58MPD2    C4  903   1.828   3.461  13.579  0.2363 -0.1276 -0.5600
   58MPD2    C5  904   1.721   3.492  13.657 -0.5998 -0.3496 -0.1753
   58MPD2     H  905   2.006   3.743  13.636  0.1994  1.4660  4.8963
   58MPD2    H1  906   1.816   3.367  13.526  2.4806 -1.1905  0.8383
   58MPD2    H2  907   1.631   3.611  13.801  0.1699 -0.3916  0.4201
   58MPD2    H3  908   1.638   3.422  13.659  0.0748 -1.1101  0.8588
   58MPD2     N  909   2.023   3.529  13.471 -0.2056 -0.4207 -0.3133
   58MPD2    H5  910   2.018   3.445  13.414 -0.7815 -0.4231 -0.2622
   58MPD2    N1  911   1.824   3.806  13.811  0.2818  0.5372 -0.0192
   58MPD2    H7  912   1.900   3.873  13.803  0.8420 -0.1131 -0.1230
   59TMC2    C1  913   0.622   3.865  13.510  0.0180 -0.1400 -0.1171
   59TMC2    C2  914   0.624   3.810  13.636  0.1016  0.0255  0.1716
   59TMC2    C3  915   0.584   3.675  13.631 -0.6552  0.0230  1.2080
   59TMC2    C4  916   0.602   3.809  13.389  0.2300 -0.8461  0.4110
   59TMC2    C5  917   0.571   3.679  13.394 -0.8148 -0.7480 -0.0499
   59TMC2    C6  918   0.560   3.609  13.510 -0.1746  0.4224  0.1943
   59TMC2     C  919   0.625   4.015  13.504  0.1856  0.0599 -0.1285
   59TMC2     O  920   0.538   4.070  13.436  0.0045  0.0959  0.1970
   59TMC2     H  921   0.641   3.867  13.726  3.0487 -0.1533 -0.2781
   59TMC2    H1  922   0.625   3.871  13.303 -0.9400 -0.9580  0.0227
   59TMC2    H2  923   0.524   3.507  13.516  0.1481  0.2193 -1.1886
   59TMC2    C7  924   0.614   3.589  13.288  0.0493  0.4559  0.2251
   59TMC2    C8  925   0.624   3.577  13.730 -0.2311 -0.3926  0.0240
   59TMC2    O1  926   0.680   3.493  13.334 -0.1666  0.0980  0.4753
   59TMC2    O2  927   0.716   3.505  13.690  0.2107 -0.3285  0.1806
   59TMC2    O5  928   0.625   3.657  13.836 -0.7551  0.3150  0.2222
   59TMC2    H5  929   0.533   3.680  13.861 -0.7075  1.1068 -0.3467
   60MPD2     C  930   0.659   4.312  13.562  0.9982  0.1981  0.0092
   60MPD2    C1  931   0.747   4.207  13.606  0.0221  0.0345 -0.5462
   60MPD2    C2  932   0.864   4.249  13.664 -0.1297 -0.3725 -0.2840
   60MPD2    C3  933   0.890   4.385  13.694  0.1232 -0.3804 -0.1752
   60MPD2    C4  934   0.803   4.486  13.662 -0.2689 -0.0113 -0.0496
   60MPD2    C5  935   0.692   4.449  13.582  0.9428 -0.1791 -0.5863
   60MPD2     H  936   0.935   4.172  13.690  0.7261  0.1212 -1.1489
   60MPD2    H1  937   0.822   4.589  13.693  0.3693 -0.2434  0.3352
   60MPD2    H2  938   0.565   4.296  13.510  0.0861 -1.2307  2.1549
   60MPD2    H3  939   0.623   4.523  13.543  2.0832  1.8749  1.3386
   60MPD2     N  940   0.999   4.425  13.775  0.1057  0.5003 -0.0250
   60MPD2    H5  941   1.002   4.526  13.786 -0.5966  0.3393  1.6658
   60MPD2    N1  942   0.719   4.068  13.587 -0.1030  0.1181  0.0376
   60MPD2    H7  943   0.784   4.000  13.624  2.8058  2.0120 -1.6006
   61TMC2    C1  944   4.149   0.659  15.661  0.2193 -0.0834  0.1674
   61TMC2    C2  945   4.199   0.605  15.780  0.1500 -0.2291 -0.3665
   61TMC2    C3  946   4.201   0.686  15.892  0.4325  0.1113 -0.0961
   61TMC2    C4  947   4.100   0.783  15.650 -0.1026 -0.3304 -0.2970
   61TMC2    C5  948   4.107   0.863  15.758  0.7807 -0.2626  0.0611
   61TMC2    C6  949   4.156   0.814  15.881 -0.6060  0.4407 -0.0445
   61TMC2     C  950   4.159   0.578  15.549 -0.5517  0.1082  0.3005
   61TMC2     O  951   4.154   0.459  15.573  0.3615 -0.5781 -0.2304
   61TMC2     H  952   4.254   0.512  15.786 -0.2123 -0.2888  1.8093
   61TMC2    H1  953   4.057   0.808  15.553  1.9896  0.2612 -1.0747
   61TMC2    H2  954   4.157   0.881  15.967  0.2515 -1.0204  1.0901
   61TMC2    C7  955   4.091   1.007  15.733  0.6795  0.1158 -0.3086
   61TMC2    C8  956   4.228   0.616  16.019 -0.3132 -0.1210  0.3468
   61TMC2    O1  957   4.125   1.032  15.616 -0.2621 -0.0186  0.5252
   61TMC2    O2  958   4.238   0.492  16.026  0.0006  0.5253  0.3394
   61TMC2    O5  959   4.176   0.681  16.125  0.3373  0.3189 -0.5538
   61TMC2    H5  960   4.190   0.778  16.118  0.6160  0.2690 -0.7012
   62MPD2     C  961   4.230   0.437  15.297  0.0435  0.0640  0.2355
   62MPD2    C1  962   4.252   0.576  15.318 -0.1446 -0.2655  0.3314
   62MPD2    C2  963   4.317   0.650  15.224  0.6563 -0.6770  0.4431
   62MPD2    C3  964   4.351   0.587  15.103 -0.1440  0.1491  0.4495
   62MPD2    C4  965   4.319   0.459  15.087  0.6246 -0.5858  0.4414
   62MPD2    C5  966   4.265   0.379  15.178 -0.4735 -0.5375 -0.2211
   62MPD2     H  967   4.344   0.751  15.250  1.0979 -0.3684 -1.2036
   62MPD2    H1  968   4.342   0.414  14.991 -2.0108 -1.8194  0.3700
   62MPD2    H2  969   4.188   0.365  15.366  2.4402  0.8780  2.5493
   62MPD2    H3  970   4.252   0.272  15.164 -1.6592 -0.7158  2.2745
   62MPD2     N  971   4.429   0.643  14.999  0.0166  0.2764 -0.3229
   62MPD2    H5  972   4.449   0.583  14.919 -0.2388 -2.0215  1.3327
   62MPD2    N1  973   4.214   0.635  15.442 -0.6345 -0.0428  0.4243
   62MPD2    H7  974   4.244   0.732  15.454  2.1371 -0.8514  0.0354
   63TMC2    C1  975   3.977   0.494  10.572  0.3166 -0.4837 -0.0777
   63TMC2    C2  976   4.064   0.596  10.575  0.3367  0.1242  0.3117
   63TMC2    C3  977   4.033   0.691  10.475 -0.2033  0.3134  0.2096
   63TMC2    C4  978   3.878   0.474  10.480  0.6012  0.0717 -0.5776
   63TMC2    C5  979   3.871   0.563  10.381  0.4318 -0.9965  0.3211
   63TMC2    C6  980   3.942   0.679  10.376 -0.2014 -0.1952 -0.6350
   63TMC2     C  981   3.985   0.399  10.674  0.4466 -0.5448 -0.1885
   63TMC2     O  982   4.087   0.404  10.742  0.1613 -0.9365  0.4943
   63TMC2     H  983   4.151   0.602  10.640  0.7791 -0.4877 -0.2274
   63TMC2    H1  984   3.827   0.382  10.456 -1.2071  1.1242 -0.8085
   63TMC2    H2  985   3.915   0.752  10.300 -2.8899  1.0678  1.5320
   63TMC2    C7  986   3.763   0.545  10.282 -0.4058  0.0830 -0.1971
   63TMC2    C8  987   4.129   0.799  10.484 -0.2586 -0.9677  0.6300
   63TMC2    O1  988   3.650   0.504  10.318 -0.3896  0.2633  0.3987
   63TMC2    O2  989   4.217   0.805  10.561 -0.4778 -0.5357  0.1963
   63TMC2    O5  990   4.084   0.907  10.413 -0.1394  0.7187  0.3518
   63TMC2    H5  991   3.987   0.900  10.397  0.3645 -1.6455 -1.7446
   64MPD2     C  992   3.837   0.001  10.965  0.0945  0.1878  0.1230
   64MPD2    C1  993   3.767   4.739  10.851 -0.0005  0.1167 -0.3412
   64MPD2    C2  994   3.781   0.106  10.764  0.0215 -0.3602 -0.2661
   64MPD2    C3  995   3.874   0.209  10.785  0.0970 -0.3497  0.5657
   64MPD2    C4  996   3.950   0.203  10.897  0.1582 -0.2669 -0.4638
   64MPD2    C5  997   3.932   0.097  10.985  0.1142  0.5976  0.5516
   64MPD2     H  998   3.734   0.101  10.667  0.8932  0.8261 -0.7465
   64MPD2    H1  999   4.031   0.268  10.928  0.6583 -0.8731 -0.4939
   64MPD2    H2 1000   3.824   4.669  11.046  2.1665 -1.9131 -1.4108
   64MPD2    H3 1001   3.991   0.088  11.075 -1.2744  0.6434  1.4600
   64MPD2     N 1002   3.884   0.309  10.686 -0.5036  0.5879 -0.1772
   64MPD2    H5 1003   3.807   0.313  10.620 -0.0811 -0.3791 -0.7383
   64MPD2    N1 1004   3.692   4.628  10.807 -0.1108 -0.1286 -0.1781
   64MPD2    H7 1005   3.677   4.627  10.706  0.3680 -0.1671 -0.2502
   65TMC2    C1 1006   0.133   0.377  15.388 -0.0020  0.0465 -0.6392
   65TMC2    C2 1007   0.079   0.323  15.276 -0.0836 -0.1387 -0.3415
   65TMC2    C3 1008   0.002   0.406  15.194  0.0224  0.2933  0.0295
   65TMC2    C4 1009   0.103   0.506  15.424  0.0747  0.5261  0.2649
   65TMC2    C5 1010   0.029   0.587  15.334 -0.1806 -0.2085 -0.5792
   65TMC2    C6 1011   4.713   0.531  15.223 -0.2754  0.2273 -0.1170
   65TMC2     C 1012   0.230   0.310  15.474 -0.0561  0.0816  0.3933
   65TMC2     O 1013   0.305   0.388  15.531  0.2044  0.1572 -0.8758
   65TMC2     H 1014   0.109   0.228  15.234 -1.5234  0.0514 -1.8021
   65TMC2    H1 1015   0.156   0.551  15.507 -0.4370 -0.1413  0.9600
   65TMC2    H2 1016   4.661   0.591  15.150  0.1016  0.3784 -0.2613
   65TMC2    C7 1017   0.046   0.727  15.341 -0.1827  0.1460  0.7364
   65TMC2    C8 1018   4.673   0.338  15.091 -0.5904  0.1195  0.3303
   65TMC2    O1 1019   0.052   0.789  15.235 -0.3138  0.0191  0.1112
   65TMC2    O2 1020   4.615   0.394  14.998  0.0758  0.5209  0.5014
   65TMC2    O5 1021   4.632   0.217  15.153 -0.0529 -0.2268 -0.0312
   65TMC2    H5 1022   4.656   0.197  15.246 -0.0663 -1.1931 -0.2370
   66MPD2     C 1023   0.362   0.145  15.671 -0.4470  0.2157  0.0478
   66MPD2    C1 1024   0.301   0.090  15.559 -0.4230 -0.0028  0.0354
   66MPD2    C2 1025   0.292   4.694  15.533  0.4462  0.3636 -0.2706
   66MPD2    C3 1026   0.356   4.606  15.622 -0.6997  0.2707 -0.0244
   66MPD2    C4 1027   0.423   4.667  15.735  0.1700 -0.8852 -0.0170
   66MPD2    C5 1028   0.427   0.059  15.753 -0.1005 -0.3113  0.7387
   66MPD2     H 1029   0.235   4.661  15.447 -1.0223 -0.2037  0.9437
   66MPD2    H1 1030   0.475   4.604  15.807 -0.1640 -1.7814 -0.5499
   66MPD2    H2 1031   0.354   0.250  15.697 -2.4001  0.0514  0.0630
   66MPD2    H3 1032   0.467   0.110  15.840  2.2198 -0.7550 -0.0455
   66MPD2     N 1033   0.355   4.469  15.608 -0.6961 -0.1559 -0.7344
   66MPD2    H5 1034   0.393   4.412  15.684 -0.2793  0.6696 -0.3249
   66MPD2    N1 1035   0.224   0.174  15.477  0.2023 -0.1351  0.8814
   66MPD2    H7 1036   0.164   0.130  15.408  2.9700  0.0016 -1.5728
   67TMC2    C1 1037   0.581   4.463  14.375 -0.3377  0.4682 -0.3031
   67TMC2    C2 1038   0.543   4.589  14.398 -0.4889 -0.8607 -0.0289
   67TMC2    C3 1039   0.622   4.658  14.485  1.3185  0.4140 -0.1548
   67TMC2    C4 1040   0.699   4.417  14.427 -0.2438  0.7079  0.0301
   67TMC2    C5 1041   0.771   4.490  14.510 -0.4590  0.3845  0.0499
   67TMC2    C6 1042   0.728   4.611  14.553 -0.1473  0.5161  0.3868
   67TMC2     C 1043   0.501   4.365  14.297 -0.2577  0.1419 -0.2920
   67TMC2     O 1044   0.530   4.249  14.318  0.1890 -0.1479 -0.0012
   67TMC2     H 1045   0.450   4.630  14.359 -0.1127  0.1917  0.1735
   67TMC2    H1 1046   0.729   4.316  14.401 -1.8583  0.6848 -1.7831
   67TMC2    H2 1047   0.782   4.677  14.619  1.1285 -0.1712  0.0399
   67TMC2    C7 1048   0.867   4.418  14.593  0.2555  0.1630  0.8502
   67TMC2    C8 1049   0.564   0.041  14.527 -0.0836 -0.4891  0.6704
   67TMC2    O1 1050   0.910   4.317  14.533 -0.3683 -0.2928 -0.1224
   67TMC2    O2 1051   0.445   0.066  14.518 -0.5114  0.5714  0.4141
   67TMC2    O5 1052   0.656   0.136  14.504 -0.0267 -0.0074 -0.1869
   67TMC2    H5 1053   0.744   0.093  14.504 -0.8149 -1.6260  1.0790
   68MPD2     C 1054   0.314   4.227  14.116 -0.1914  0.2275  0.2811
   68MPD2    C1 1055   0.312   4.365  14.143 -0.6672 -0.2736 -0.6868
   68MPD2    C2 1056   0.209   4.442  14.091 -0.6920 -0.1847  0.1061
   68MPD2    C3 1057   0.123   4.388  14.003  0.4127 -0.0558  0.6111
   68MPD2    C4 1058   0.131   4.251  13.975 -0.2675  0.4491 -0.3897
   68MPD2    C5 1059   0.223   4.168  14.030 -0.1119  0.0458 -0.2414
   68MPD2     H 1060   0.192   4.541  14.132 -0.4317 -0.8004  1.6845
   68MPD2    H1 1061   0.054   4.201  13.916 -0.5457  1.7165 -1.1104
   68MPD2    H2 1062   0.399   4.165  14.143  1.0701  2.1237  0.7432
   68MPD2    H3 1063   0.223   4.060  14.015  0.2271 -0.1655  1.2175
   68MPD2     N 1064   0.018   4.469  13.956 -0.2545  0.6008 -0.3477
   68MPD2    H5 1065   4.682   4.423  13.907  0.0056 -0.3250  0.1206
   68MPD2    N1 1066   0.408   4.430  14.222 -0.5777 -0.0216  0.3020
   68MPD2    H7 1067   0.416   4.531  14.214 -0.4808 -0.0068  0.5611
   69TMC2    C1 1068   2.571   0.556  12.937  0.3998  0.0931 -0.2378
   69TMC2    C2 1069   2.489   0.659  12.965 -0.1530  0.3893  0.0820
   69TMC2    C3 1070   2.463   0.745  12.861 -0.6365 -0.0197  0.5815
   69TMC2    C4 1071   2.618   0.529  12.814  0.4967  0.0413  0.2402
   69TMC2    C5 1072   2.595   0.624  12.724 -0.2532 -0.4732 -0.0635
   69TMC2    C6 1073   2.513   0.732  12.735 -0.3411 -0.1741 -0.6076
   69TMC2     C 1074   2.586   0.463  13.045 -0.2698 -0.4891  0.1694
   69TMC2     O 1075   2.503   0.461  13.132  0.3659  0.1582 -0.0303
   69TMC2     H 1076   2.434   0.658  13.058  0.4691  0.4099  0.4525
   69TMC2    H1 1077   2.672   0.438  12.791  0.0037 -0.2627  0.2987
   69TMC2    H2 1078   2.482   0.802  12.659 -2.1421  1.8179  1.9803
   69TMC2    C7 1079   2.667   0.618  12.595  0.2393  0.4695  0.5301
   69TMC2    C8 1080   2.345   0.823  12.876  0.1959  0.0674 -1.0502
   69TMC2    O1 1081   2.785   0.588  12.603  0.4126 -0.4174 -0.1844
   69TMC2    O2 1082   2.321   0.929  12.823 -0.3818  0.0553 -0.5662
   69TMC2    O5 1083   2.250   0.727  12.897  1.0081 -0.1186  0.2263
   69TMC2    H5 1084   2.286   0.637  12.886  0.2770 -0.3354 -0.3626
   70MPD2     C 1085   2.880   0.278  13.124  0.3375 -0.2202 -0.1971
   70MPD2    C1 1086   2.752   0.311  13.129 -0.0896 -0.3346  0.4995
   70MPD2    C2 1087   2.659   0.233  13.205 -0.4380 -0.4970  0.5314
   70MPD2    C3 1088   2.705   0.122  13.278 -0.1434 -0.4543  0.2172
   70MPD2    C4 1089   2.838   0.098  13.276 -0.1719 -0.1777  0.2045
   70MPD2    C5 1090   2.919   0.175  13.199 -0.3696  0.1551  0.3812
   70MPD2     H 1091   2.551   0.242  13.196 -0.2902 -0.5050 -1.2797
   70MPD2    H1 1092   2.885   0.013  13.325 -1.5807 -2.0232 -1.6395
   70MPD2    H2 1093   2.953   0.321  13.056  0.5854  1.4316  1.1317
   70MPD2    H3 1094   3.022   0.142  13.193 -0.6416 -0.8158  1.1437
   70MPD2     N 1095   2.618   0.028  13.346 -0.5529 -0.6173 -0.2263
   70MPD2    H5 1096   2.666   4.687  13.385 -0.1978 -0.0743  0.4503
   70MPD2    N1 1097   2.705   0.412  13.036  0.5982  0.3294  0.4387
   70MPD2    H7 1098   2.772   0.444  12.967  0.5729 -1.6202 -0.5004
   71TMC2    C1 1099   0.403   0.965   1.659 -0.2263  0.0552  0.5648
   71TMC2    C2 1100   0.501   0.901   1.732 -0.5269 -0.1415 -0.2090
   71TMC2    C3 1101   0.509   0.926   1.860 -0.0801  0.1086 -0.3505
   71TMC2    C4 1102   0.323   1.063   1.705  0.1016 -0.0741  0.0910
   71TMC2    C5 1103   0.336   1.090   1.839  0.0214  0.1182  0.4218
   71TMC2    C6 1104   0.436   1.026   1.918  0.0287  0.2392 -0.0816
   71TMC2     C 1105   0.392   0.928   1.520 -0.4900  0.1484  0.1331
   71TMC2     O 1106   0.343   1.017   1.451  0.5555 -0.7463  0.1066
   71TMC2     H 1107   0.562   0.824   1.687  2.0913  1.2198  1.0009
   71TMC2    H1 1108   0.268   1.127   1.638 -1.2376  1.8003  2.9737
   71TMC2    H2 1109   0.434   1.044   2.025  2.3712  0.4504 -0.0744
   71TMC2    C7 1110   0.242   1.185   1.903 -0.1457 -0.7123  0.4529
   71TMC2    C8 1111   0.611   0.866   1.945 -0.4776  0.0463  0.2890
   71TMC2    O1 1112   0.259   1.212   2.020  0.0566  0.0225 -0.1583
   71TMC2    O2 1113   0.720   0.829   1.900 -0.2413 -0.5876 -0.7199
   71TMC2    O5 1114   0.532   0.799   2.037 -0.2277 -0.8811  0.5376
   71TMC2    H5 1115   0.444   0.839   2.054 -0.8801 -1.4606 -1.3921
   72MPD2     C 1116   0.277   0.603   1.140 -0.2356  0.2797  0.3879
   72MPD2    C1 1117   0.301   0.737   1.138  0.2241  0.7703  0.3269
   72MPD2    C2 1118   0.341   0.803   1.255  0.9970 -0.2126 -0.1253
   72MPD2    C3 1119   0.356   0.734   1.372  0.1144  0.0910  0.5457
   72MPD2    C4 1120   0.331   0.602   1.371  0.2773 -0.0268 -0.1534
   72MPD2    C5 1121   0.290   0.535   1.255  0.1631  0.1851 -0.0004
   72MPD2     H 1122   0.343   0.911   1.253 -0.0315 -0.2117 -1.0517
   72MPD2    H1 1123   0.339   0.541   1.460  4.4929 -0.8430 -1.0946
   72MPD2    H2 1124   0.257   0.554   1.045  1.9844 -0.9663  0.5709
   72MPD2    H3 1125   0.282   0.427   1.255 -0.0370  0.1919  2.5592
   72MPD2     N 1126   0.386   0.795   1.497  0.6771  0.3676  0.1190
   72MPD2    H5 1127   0.395   0.730   1.574  2.2837 -0.4860 -0.7976
   72MPD2    N1 1128   0.289   0.817   1.024  0.3253 -0.4591 -0.2005
   72MPD2    H7 1129   0.318   0.914   1.033 -0.6601 -0.1014 -0.8336
   73TMC2    C1 1130   0.234   3.239  14.187  0.5255  0.4439 -0.7342
   73TMC2    C2 1131   0.150   3.157  14.248  0.1197  0.1023  0.3132
   73TMC2    C3 1132   0.093   3.199  14.372  0.1596 -0.1239  0.2486
   73TMC2    C4 1133   0.266   3.358  14.237 -0.0905 -0.3553  0.2173
   73TMC2    C5 1134   0.215   3.402  14.354  0.7895 -0.1805 -0.2132
   73TMC2    C6 1135   0.130   3.318  14.422  0.1435  0.1661  0.3801
   73TMC2     C 1136   0.198   3.270  14.052 -0.2278 -0.5252 -0.0674
   73TMC2     O 1137   0.183   3.389  14.025  0.6072  0.5410 -0.0208
   73TMC2     H 1138   0.115   3.065  14.201 -1.4862  1.6067 -1.4314
   73TMC2    H1 1139   0.345   3.416  14.190  0.4218  0.6246  2.2872
   73TMC2    H2 1140   0.086   3.360  14.511 -0.0284 -0.7350  0.7198
   73TMC2    C7 1141   0.191   3.541  14.347  0.1381  0.0412  0.1323
   73TMC2    C8 1142   4.723   3.126  14.425  0.0209 -0.2753 -0.0827
   73TMC2    O1 1143   0.185   3.601  14.450  0.1257 -0.9261  0.1017
   73TMC2    O2 1144   4.645   3.066  14.350  0.0959  0.2598 -0.9665
   73TMC2    O5 1145   4.693   3.181  14.547  0.3665  0.5556 -0.1649
   73TMC2    H5 1146   0.044   3.191  14.584  0.0438 -0.0369  0.7910
   74MPD2     C 1147   4.717   3.154  13.608  0.1755  0.7323  0.6485
   74MPD2    C1 1148   4.719   3.272  13.676  0.7481  0.4817  0.8037
   74MPD2    C2 1149   0.043   3.277  13.794  0.7272 -0.2491 -0.4889
   74MPD2    C3 1150   0.092   3.163  13.853  1.0415  0.6304  0.2420
   74MPD2    C4 1151   0.084   3.046  13.785 -0.5151  0.2949  0.7609
   74MPD2    C5 1152   0.027   3.041  13.662  0.2435  0.2609 -0.6929
   74MPD2     H 1153   0.050   3.372  13.846 -2.9998 -2.1801  3.5383
   74MPD2    H1 1154   0.128   2.958  13.829 -0.5737  0.5004  1.2313
   74MPD2    H2 1155   4.673   3.143  13.509 -0.0644  2.0391  0.6172
   74MPD2    H3 1156   0.025   2.946  13.610 -0.3945  1.1667 -2.2904
   74MPD2     N 1157   0.171   3.159  13.972  0.4644  0.4339  0.2473
   74MPD2    H5 1158   0.190   3.068  14.012 -1.6618 -0.4577 -0.8136
   74MPD2    N1 1159   4.661   3.382  13.610 -0.2304  0.0482  0.6237
   74MPD2    H7 1160   4.648   3.381  13.509 -2.3566  1.3883  0.8730
   75TMC2    C1 1161   4.660   4.656  13.869  0.3397 -0.0119 -0.2452
   75TMC2    C2 1162   4.611   0.042  13.897  0.0139  0.2645 -0.4794
   75TMC2    C3 1163   4.496   0.077  13.832 -0.4921 -0.4798 -0.9960
   75TMC2    C4 1164   4.594   4.566  13.784  0.5889  0.0704  0.3453
   75TMC2    C5 1165   4.474   4.614  13.740 -0.0169 -0.4768 -0.6774
   75TMC2    C6 1166   4.412   4.727  13.770 -0.5179  0.5136  0.8995
   75TMC2     C 1167   0.027   4.610  13.956  0.1147  0.2601 -0.3579
   75TMC2     O 1168   0.102   4.694  14.008 -0.1582 -0.1587  0.0324
   75TMC2     H 1169   4.686   0.116  13.923  0.6345 -0.9620  1.3202
   75TMC2    H1 1170   4.647   4.477  13.749 -2.0476 -0.6453 -1.8316
   75TMC2    H2 1171   4.321   0.021  13.721  1.1536  1.7895 -1.2949
   75TMC2    C7 1172   4.389   4.514  13.695  0.6921 -0.4821 -0.4487
   75TMC2    C8 1173   4.447   0.200  13.856  0.1875 -0.0169  0.3435
   75TMC2    O1 1174   4.442   4.411  13.648  0.0631  0.3618  0.1459
   75TMC2    O2 1175   4.404   0.274  13.763 -0.0245 -0.3723  0.4255
   75TMC2    O5 1176   4.414   0.193  13.987 -0.0035 -0.2656  0.2269
   75TMC2    H5 1177   4.470   0.132  14.039 -0.2545  1.2898  2.3335
   76TMC2    C1 1178   3.824   4.511  11.891 -0.4469  0.5721  0.8913
   76TMC2    C2 1179   3.834   4.478  11.762  0.4453 -0.1251  0.4041
   76TMC2    C3 1180   3.889   4.359  11.724  0.6137  0.2476 -0.0834
   76TMC2    C4 1181   3.885   4.438  11.984  0.5215 -0.4279 -0.5879
   76TMC2    C5 1182   3.947   4.323  11.945 -0.1320  0.2163 -0.4825
   76TMC2    C6 1183   3.944   4.277  11.818  0.2338  0.1012  0.1728
   76TMC2     C 1184   3.772   4.643  11.924 -0.3242 -0.3527  0.6461
   76TMC2     O 1185   3.662   4.674  11.875 -0.3254 -0.2319 -0.0770
   76TMC2     H 1186   3.777   4.545  11.699 -0.7551 -1.8359 -0.3427
   76TMC2    H1 1187   3.870   4.456  12.090 -1.0872 -0.1606 -0.8719
   76TMC2    H2 1188   4.007   4.193  11.790 -0.6629 -0.2820 -0.6867
   76TMC2    C7 1189   4.003   4.231  12.051  0.0480  0.1235 -0.3150
   76TMC2    C8 1190   3.845   4.311  11.597  0.2901 -0.8642  0.1041
   76TMC2    O1 1191   4.011   4.111  12.022 -0.1903  0.1469 -0.1618
   76TMC2    O2 1192   3.856   4.399  11.505 -0.0608 -0.4205 -0.1988
   76TMC2    O5 1193   3.872   4.183  11.597  0.0783 -0.6343 -0.1910
   76TMC2    H5 1194   3.839   4.147  11.683  0.4725  1.0591  0.6505
   77MPD2     C 1195   3.731   0.337  12.195 -0.6675  0.4109 -0.4789
   77MPD2    C1 1196   3.667   0.297  12.081  0.3573 -0.0398 -0.4144
   77MPD2    C2 1197   3.698   0.176  12.024  0.1228 -0.5059 -0.1811
   77MPD2    C3 1198   3.809   0.101  12.070 -0.0939  0.2999 -0.4159
   77MPD2    C4 1199   3.891   0.161  12.166  0.6276 -0.1103 -0.5335
   77MPD2    C5 1200   3.844   0.275  12.234 -0.4339  0.1222  0.4471
   77MPD2     H 1201   3.637   0.147  11.940  0.0735 -1.6000  0.2199
   77MPD2    H1 1202   3.979   0.110  12.202  1.0597  1.4154  0.5477
   77MPD2    H2 1203   3.696   0.430  12.238  1.4556  1.2506 -0.5463
   77MPD2    H3 1204   3.906   0.318  12.312 -0.0239 -1.1043  0.8007
   77MPD2     N 1205   3.847   4.714  12.016 -0.2321  0.6461  0.2439
   77MPD2    H5 1206   3.937   4.671  12.036 -0.6018 -0.5218 -0.6088
   77MPD2    N1 1207   3.554   0.365  12.023  0.3797  0.0679  0.1609
   77MPD2    H7 1208   3.508   0.318  11.946 -1.6793  1.1585  0.6965
   78TMC2    C1 1209   4.681   1.460   1.530  0.5869 -0.0177  0.3355
   78TMC2    C2 1210   4.639   1.568   1.600  0.6114 -0.0266  0.1405
   78TMC2    C3 1211   4.739   1.642   1.657  0.5203 -0.1377  0.5070
   78TMC2    C4 1212   0.074   1.426   1.541  0.0782 -0.0634  0.7544
   78TMC2    C5 1213   0.159   1.493   1.617  0.6354 -0.2039 -0.2644
   78TMC2    C6 1214   0.131   1.605   1.673 -0.3640  0.2170  0.2193
   78TMC2     C 1215   4.591   1.424   1.416 -0.2484  0.5017  0.0876
   78TMC2     O 1216   4.479   1.475   1.393 -0.3054  0.0854 -0.0593
   78TMC2     H 1217   4.539   1.611   1.601 -0.0413 -1.5237 -1.1035
   78TMC2    H1 1218   0.116   1.341   1.489 -1.2536 -1.1256  1.4163
   78TMC2    H2 1219   0.211   1.663   1.717 -0.3576 -1.4959  2.4821
   78TMC2    C7 1220   0.297   1.440   1.631 -0.1730  0.2835 -0.9660
   78TMC2    C8 1221   4.693   1.778   1.687 -0.3167 -0.2287  0.1506
   78TMC2    O1 1222   0.332   1.351   1.551 -0.2263  0.1211 -0.0963
   78TMC2    O2 1223   4.580   1.806   1.722  0.2116  0.0744 -0.6458
   78TMC2    O5 1224   0.064   1.847   1.711  0.4436 -0.4690 -0.0206
   78TMC2    H5 1225   0.127   1.801   1.652 -0.5738 -1.5933 -0.2376
   79MPD1     C 1226   4.534   1.170   0.965 -0.1392 -0.0322 -0.2591
   79MPD1    C1 1227   4.467   1.282   1.010  0.1020 -0.1438 -0.3623
   79MPD1    C2 1228   4.503   1.335   1.136 -0.2360 -0.7184 -0.6238
   79MPD1    C3 1229   4.600   1.273   1.217 -0.9081  0.2790 -0.8430
   79MPD1    C4 1230   4.676   1.169   1.158 -0.5937 -0.3667 -0.3837
   79MPD1    C5 1231   4.646   1.126   1.033 -0.7240 -0.0921  0.5570
   79MPD1     H 1232   4.452   1.424   1.172  0.3610  0.1098 -1.8130
   79MPD1    H1 1233   0.020   1.131   1.215  0.6818  1.3596 -1.1281
   79MPD1    H2 1234   4.523   1.122   0.869  0.9023  0.1855 -0.4860
   79MPD1    H3 1235   4.701   1.044   0.989  0.4324  1.8342 -1.6056
   79MPD1     N 1236   4.647   1.323   1.346  0.1676  0.7209 -0.5107
   79MPD1    H5 1237   4.729   1.273   1.379 -0.1007  1.0447  0.6502
   79MPD1    N1 1238   4.377   1.342   0.921  0.7267  0.1010 -0.1489
   79MPD1    H6 1239   4.326   1.277   0.861  0.7590 -1.2916  1.3412
   79MPD1    H7 1240   4.308   1.404   0.963 -0.2294 -1.4593  0.6239
   80TMC2    C1 1241   2.787   4.189  11.731 -0.3789 -0.0269  0.2856
   80TMC2    C2 1242   2.813   4.199  11.594 -0.0373  0.2339  0.3871
   80TMC2    C3 1243   2.711   4.158  11.508 -0.7960  0.4749 -0.1674
   80TMC2    C4 1244   2.665   4.146  11.776 -0.6419 -0.2576  1.0330
   80TMC2    C5 1245   2.573   4.092  11.691 -0.8561  0.4321 -0.2575
   80TMC2    C6 1246   2.590   4.104  11.557 -0.1226  0.6226 -0.5098
   80TMC2     C 1247   2.870   4.259  11.823 -0.2199 -0.4307 -0.5925
   80TMC2     O 1248   2.809   4.306  11.916  0.6436  0.1321  0.1481
   80TMC2     H 1249   2.888   4.268  11.557  0.3486 -1.1866 -1.4585
   80TMC2    H1 1250   2.659   4.141  11.884 -2.7612 -1.8625  0.8259
   80TMC2    H2 1251   2.516   4.079  11.481  1.1327 -2.2984 -0.7610
   80TMC2    C7 1252   2.461   4.020  11.743  0.2704 -0.1320  0.1259
   80TMC2    C8 1253   2.742   4.142  11.367 -0.6501 -0.0928 -0.0593
   80TMC2    O1 1254   2.376   3.979  11.661 -0.4425 -1.0396 -0.2135
   80TMC2    O2 1255   2.651   4.140  11.283 -0.3025  0.5610  0.1252
   80TMC2    O5 1256   2.867   4.109  11.339 -0.0048 -0.3556  0.1349
   80TMC2    H5 1257   2.917   4.071  11.415  0.3521  0.5790  0.3661
   81MPD2     C 1258   3.234   4.302  11.815 -0.3438  0.9635 -0.0294
   81MPD2    C1 1259   3.105   4.330  11.862  0.1073  0.0518  0.5629
   81MPD2    C2 1260   3.087   4.395  11.984  0.4506  0.7362  0.0820
   81MPD2    C3 1261   3.203   4.436  12.056  0.1486  0.9163  0.2144
   81MPD2    C4 1262   3.329   4.402  12.011  0.2354  0.6838  0.8715
   81MPD2    C5 1263   3.347   4.344  11.890 -0.4148  0.2302 -0.4312
   81MPD2     H 1264   2.991   4.384  12.033  0.8757 -0.4861  0.6548
   81MPD2    H1 1265   3.410   4.450  12.064  2.3641 -1.5955 -0.3645
   81MPD2    H2 1266   3.249   4.250  11.721  2.6478 -1.3783  1.7442
   81MPD2    H3 1267   3.449   4.331  11.856  0.0096 -0.2959  1.0756
   81MPD2     N 1268   3.199   4.508  12.180  0.0433 -0.3353 -0.6309
   81MPD2    H5 1269   3.283   4.523  12.234 -0.1124  0.5103 -0.6177
   81MPD2    N1 1270   3.000   4.275  11.783  0.1168  0.2058  0.1306
   81MPD2    H7 1271   3.025   4.220  11.702  0.1357  1.1911 -0.5252
   82TMC2    C1 1272   1.156   3.275  11.169 -0.3837  0.6868 -0.4456
   82TMC2    C2 1273   1.245   3.321  11.259  0.0362  0.0004  0.4152
   82TMC2    C3 1274   1.266   3.255  11.381  0.0619 -0.2428  0.1268
   82TMC2    C4 1275   1.086   3.153  11.201  0.5205 -0.0690 -0.7103
   82TMC2    C5 1276   1.107   3.096  11.323  0.6354 -0.0156 -0.4280
   82TMC2    C6 1277   1.198   3.144  11.412  0.9266  0.6721  0.2554
   82TMC2     C 1278   1.074   3.366  11.089  0.1947  0.1953  0.1263
   82TMC2     O 1279   0.984   3.324  11.022  0.1329  0.0743 -0.4009
   82TMC2     H 1280   1.299   3.413  11.239 -1.9002  0.6075 -1.9807
   82TMC2    H1 1281   1.035   3.099  11.122  0.1573 -1.3509  0.4009
   82TMC2    H2 1282   1.211   3.086  11.503 -1.0944  3.4275  2.3478
   82TMC2    C7 1283   1.004   3.002  11.374 -0.0722  0.2364  0.0191
   82TMC2    C8 1284   1.369   3.313  11.459  0.0244 -0.0481  0.2467
   82TMC2    O1 1285   1.021   2.950  11.484 -0.0945  0.1330 -0.0029
   82TMC2    O2 1286   1.463   3.374  11.409  0.2497 -0.1561 -0.6285
   82TMC2    O5 1287   1.342   3.293  11.592 -0.3086  0.1520  0.5104
   82TMC2    H5 1288   1.259   3.242  11.608 -1.9163  3.0425  1.3497
   83MPD2     C 1289   0.879   3.829  11.030 -0.4292 -0.1429 -0.0347
   83MPD2    C1 1290   0.823   3.698  11.018  0.1300 -0.3452 -0.5903
   83MPD2    C2 1291   0.899   3.592  11.037  0.2578 -0.0010  0.5793
   83MPD2    C3 1292   1.032   3.607  11.083 -0.7134  0.1005 -0.1339
   83MPD2    C4 1293   1.084   3.733  11.102  0.2903 -0.2727 -0.3951
   83MPD2    C5 1294   1.006   3.840  11.077 -0.2617  0.4611  0.8168
   83MPD2     H 1295   0.851   3.499  11.008  0.2475  0.0273  0.5048
   83MPD2    H1 1296   1.182   3.752  11.143  1.0030 -0.2288 -2.1081
   83MPD2    H2 1297   0.813   3.912  11.008  0.3509  0.7013  0.8369
   83MPD2    H3 1298   1.057   3.936  11.084 -2.8667  2.0854 -2.4776
   83MPD2     N 1299   1.115   3.494  11.112 -0.7561 -0.6200  0.2615
   83MPD2    H5 1300   1.200   3.503  11.167  0.2231 -0.3300 -1.3214
   83MPD2    N1 1301   0.688   3.694  10.991  0.4591  0.0124  0.6098
   83MPD2    H7 1302   0.653   3.783  10.958 -2.9792 -1.0603  1.3271
   84TMC2    C1 1303   1.443   2.815  11.273  0.5818 -0.2039  0.2187
   84TMC2    C2 1304   1.326   2.794  11.333  1.1895 -0.4442 -0.0535
   84TMC2    C3 1305   1.238   2.699  11.290 -0.3248  0.6338 -0.1991
   84TMC2    C4 1306   1.463   2.780  11.147 -0.4420  0.0023 -0.4940
   84TMC2    C5 1307   1.374   2.684  11.098 -0.2552  0.4301  0.4886
   84TMC2    C6 1308   1.257   2.644  11.163 -0.2879 -0.3319  0.3041
   84TMC2     C 1309   1.534   2.919  11.322  0.4574 -0.5035  0.0826
   84TMC2     O 1310   1.490   3.013  11.386  0.3940 -0.2543  0.3109
   84TMC2     H 1311   1.311   2.822  11.437 -0.3942 -0.4093 -0.2878
   84TMC2    H1 1312   1.550   2.816  11.094  1.0233 -1.9923  0.5189
   84TMC2    H2 1313   1.196   2.567  11.117  1.0409 -1.6379  0.7379
   84TMC2    C7 1314   1.421   2.591  11.001 -0.1990 -0.1885 -0.6887
   84TMC2    C8 1315   1.128   2.668  11.382  0.1088 -0.3736 -0.6628
   84TMC2    O1 1316   1.336   2.519  10.948  0.5769  0.4997 -0.0372
   84TMC2    O2 1317   1.142   2.623  11.494 -0.4727 -0.1980  0.1649
   84TMC2    O5 1318   1.047   2.615  11.294  0.1871  0.5912  0.0102
   84TMC2    H5 1319   1.055   2.661  11.208  2.4169  0.2181  0.0323
   85TMC2    C1 1320   2.588   1.359  16.031  0.2482  0.0345  0.6093
   85TMC2    C2 1321   2.560   1.441  16.133  0.5267  0.4095 -0.6250
   85TMC2    C3 1322   2.583   1.573  16.102  0.6534  0.0986 -0.4122
   85TMC2    C4 1323   2.639   1.392  15.908 -0.0772 -0.0208  0.0161
   85TMC2    C5 1324   2.663   1.522  15.884  0.1875 -0.0102 -0.3044
   85TMC2    C6 1325   2.634   1.616  15.980 -0.4140 -0.6076 -0.2661
   85TMC2     C 1326   2.596   1.215  16.069  0.5372  0.1065  0.5548
   85TMC2     O 1327   2.593   1.131  15.981  0.8401 -0.4867 -0.1632
   85TMC2     H 1328   2.497   1.410  16.216  1.2574 -0.7103 -0.4895
   85TMC2    H1 1329   2.681   1.317  15.842 -0.4252  1.1022 -1.4832
   85TMC2    H2 1330   2.666   1.719  15.986 -0.7090 -0.5989  1.2839
   85TMC2    C7 1331   2.734   1.566  15.767 -0.2562 -0.3775 -0.3084
   85TMC2    C8 1332   2.529   1.668  16.192 -0.9217  0.5378 -0.1411
   85TMC2    O1 1333   2.806   1.485  15.707 -0.0580 -0.0348 -0.4096
   85TMC2    O2 1334   2.523   1.786  16.154 -0.5998  0.4092  0.1972
   85TMC2    O5 1335   2.570   1.641  16.324 -0.5558 -0.1646 -0.0544
   85TMC2    H5 1336   2.603   1.550  16.340 -0.0204  0.5985  3.2253
   86MPD2     C 1337   2.582   0.870  16.433 -0.2906  0.1882  0.9113
   86MPD2    C1 1338   2.525   0.867  16.309 -0.0756 -0.4438 -0.4941
   86MPD2    C2 1339   2.546   0.975  16.227 -0.2282 -0.4463 -0.0251
   86MPD2    C3 1340   2.621   1.084  16.270  0.5114  0.5467  0.6682
   86MPD2    C4 1341   2.685   1.076  16.388 -0.7578  0.1577  0.5014
   86MPD2    C5 1342   2.661   0.974  16.476  0.6062  0.1906  0.6566
   86MPD2     H 1343   2.486   0.982  16.137  0.6454  1.0525 -0.4805
   86MPD2    H1 1344   2.751   1.151  16.431 -0.9660  1.2424 -1.0570
   86MPD2    H2 1345   2.567   0.789  16.503 -1.2720 -1.2762 -0.9913
   86MPD2    H3 1346   2.696   0.968  16.578  1.1598  0.7304  0.4957
   86MPD2     N 1347   2.624   1.208  16.200  0.0884  0.1497  0.2532
   86MPD2    H5 1348   2.658   1.296  16.238  1.7684  0.3199 -1.6289
   86MPD2    N1 1349   2.431   0.768  16.267  0.1156 -0.3817  0.3408
   86MPD2    H7 1350   2.396   0.773  16.173  0.6512  0.7597  0.2042
   87TMC2    C1 1351   4.276   4.188   0.566 -0.1621  0.3307  0.3850
   87TMC2    C2 1352   4.190   4.280   0.506 -0.3900 -0.0843 -0.1974
   87TMC2    C3 1353   4.126   4.360   0.591  0.7047  0.3011 -0.2267
   87TMC2    C4 1354   4.282   4.174   0.703 -0.2539 -0.3391 -0.1539
   87TMC2    C5 1355   4.216   4.265   0.785  0.1617 -0.3439  0.8538
   87TMC2    C6 1356   4.143   4.359   0.728 -0.2166  0.3114 -1.0410
   87TMC2     C 1357   4.367   4.116   0.480 -0.5864 -0.7480 -0.5195
   87TMC2     O 1358   4.401   4.176   0.379  0.0248 -0.0157 -0.4338
   87TMC2     H 1359   4.169   4.281   0.400  1.6679  1.8259 -0.5898
   87TMC2    H1 1360   4.364   4.113   0.739 -0.2467  0.7089  1.5971
   87TMC2    H2 1361   4.084   4.425   0.791  0.2601  1.5485 -1.9023
   87TMC2    C7 1362   4.256   4.292   0.924 -0.3314 -0.1540  0.9493
   87TMC2    C8 1363   4.072   4.474   0.538 -1.1128 -0.4329 -0.0442
   87TMC2    O1 1364   4.185   4.366   0.989 -0.7401 -0.1088  0.4775
   87TMC2    O2 1365   3.984   4.534   0.602 -0.3658 -0.4336 -0.1898
   87TMC2    O5 1366   4.164   4.535   0.459  0.9564  0.0428  0.1280
   87TMC2    H5 1367   4.242   4.476   0.453  0.6438 -0.3964  0.3473
   88MPD2     C 1368   4.503   4.108   1.130 -0.3568  0.3080 -0.5582
   88MPD2    C1 1369   4.419   4.206   1.098  0.0874  0.2782 -0.3314
   88MPD2    C2 1370   4.396   4.311   1.190 -0.5112 -0.2738 -0.5202
   88MPD2    C3 1371   4.484   4.326   1.295 -0.0857  0.4912 -0.4088
   88MPD2    C4 1372   4.575   4.228   1.322 -1.0191  0.8475 -0.1214
   88MPD2    C5 1373   4.584   4.118   1.243  0.3411  0.3464 -0.0460
   88MPD2     H 1374   4.334   4.396   1.166  0.1376  0.0577 -1.0101
   88MPD2    H1 1375   4.634   4.234   1.413 -0.3748  0.0249 -0.4820
   88MPD2    H2 1376   4.515   4.028   1.057 -3.0331 -1.0756  0.5248
   88MPD2    H3 1377   4.657   4.045   1.276 -0.2376 -0.2553 -0.1074
   88MPD2     N 1378   4.492   4.447   1.370 -0.1738 -0.4998 -0.4737
   88MPD2    H5 1379   4.573   4.458   1.429 -0.2822  1.0182 -0.6039
   88MPD2    N1 1380   4.359   4.212   0.969  0.3051 -1.2841 -0.6619
   88MPD2    H7 1381   4.400   4.147   0.902  1.5511 -2.1512  0.9298
   89TMC2    C1 1382   1.414   2.459   1.466 -0.1551 -0.1151  0.1717
   89TMC2    C2 1383   1.545   2.498   1.454 -0.1629 -0.0320 -0.2584
   89TMC2    C3 1384   1.564   2.631   1.435 -0.0413 -0.8935 -0.1899
   89TMC2    C4 1385   1.306   2.544   1.480 -0.7816  0.0703  0.1595
   89TMC2    C5 1386   1.340   2.678   1.484 -0.2515  0.3049  0.0007
   89TMC2    C6 1387   1.464   2.722   1.456  0.5486 -1.0164 -0.0673
   89TMC2     C 1388   1.391   2.332   1.407  0.0006  0.2015 -0.3398
   89TMC2     O 1389   1.480   2.282   1.339 -0.4664 -0.6445 -0.1578
   89TMC2     H 1390   1.637   2.439   1.452 -0.8920 -1.1849  0.0550
   89TMC2    H1 1391   1.206   2.517   1.514 -1.1973  0.3936 -0.8109
   89TMC2    H2 1392   1.504   2.820   1.478  0.2980 -0.8203 -0.4962
   89TMC2    C7 1393   1.238   2.775   1.479  0.3825  0.0559  0.3782
   89TMC2    C8 1394   1.699   2.673   1.402  0.5097  0.1855  1.0311
   89TMC2    O1 1395   1.132   2.743   1.531  0.0547 -0.0027 -0.7857
   89TMC2    O2 1396   1.805   2.623   1.439 -0.0706  0.0868  0.5029
   89TMC2    O5 1397   1.678   2.779   1.331 -0.4423  0.2643 -0.5529
   89TMC2    H5 1398   1.583   2.791   1.310 -0.4291  0.3052 -0.5891
   90MPD2     C 1399   1.075   1.953   1.265  0.4483 -0.7003 -0.1295
   90MPD2    C1 1400   1.030   2.008   1.385 -0.3635  0.0401  0.0703
   90MPD2    C2 1401   1.100   2.111   1.443 -0.6680 -0.0045  0.1032
   90MPD2    C3 1402   1.215   2.158   1.386  0.3463  0.2496 -0.0675
   90MPD2    C4 1403   1.267   2.100   1.272  0.3414 -0.4302 -0.3827
   90MPD2    C5 1404   1.192   1.999   1.210  0.4107  0.3809  0.3015
   90MPD2     H 1405   1.063   2.142   1.540 -1.4446  0.6611 -0.4093
   90MPD2    H1 1406   1.356   2.135   1.221  0.1779  0.1455 -0.2762
   90MPD2    H2 1407   1.020   1.873   1.216  0.0781 -0.4211 -0.1632
   90MPD2    H3 1408   1.232   1.969   1.114  1.6965 -0.4919  1.1066
   90MPD2     N 1409   1.270   2.273   1.442 -0.4490 -0.0736  0.1035
   90MPD2    H5 1410   1.219   2.322   1.514 -1.3793 -0.8162 -0.0592
   90MPD2    N1 1411   0.915   1.966   1.452  0.1284 -0.6083  0.1540
   90MPD2    H7 1412   0.887   2.014   1.536  0.5547 -0.8539  0.4380
   91TMC2    C1 1413   2.302   1.991  16.327  0.5278  0.1102  0.2664
   91TMC2    C2 1414   2.379   1.980  16.439  0.6852  0.3256 -0.1162
   91TMC2    C3 1415   2.382   1.861  16.510  0.1243 -0.3460 -0.4526
   91TMC2    C4 1416   2.201   1.903  16.304  0.1909 -1.1659 -0.0474
   91TMC2    C5 1417   2.198   1.787  16.386  0.0818 -0.1127  0.0880
   91TMC2    C6 1418   2.288   1.765  16.485 -0.7557  0.3155 -0.5424
   91TMC2     C 1419   2.315   2.116  16.249  0.7990 -0.2421 -0.7199
   91TMC2     O 1420   2.233   2.145  16.168  0.2870  0.2746  0.0136
   91TMC2     H 1421   2.444   2.059  16.476  1.7757 -0.5770 -0.1258
   91TMC2    H1 1422   2.142   1.927  16.217  1.2409  0.7430 -0.2246
   91TMC2    H2 1423   2.265   1.682  16.551 -0.3841  0.8171  0.2252
   91TMC2    C7 1424   2.158   1.671  16.317  0.2248 -0.3097  0.2111
   91TMC2    C8 1425   2.469   1.837  16.627 -0.0935 -0.0422  0.2272
   91TMC2    O1 1426   2.225   1.571  16.341 -0.6992  0.2925 -0.2688
   91TMC2    O2 1427   2.523   1.920  16.704  0.2641 -0.7127  0.6391
   91TMC2    O5 1428   2.484   1.705  16.639 -0.3654 -0.1250 -0.1585
   91TMC2    H5 1429   2.450   1.646  16.569  0.0178 -0.6639  0.1073
   92MPD2     C 1430   2.434   2.314  16.049  0.2525  0.6463 -0.9968
   92MPD2    C1 1431   2.504   2.246  16.145 -0.2458 -0.6206 -0.4012
   92MPD2    C2 1432   2.642   2.270  16.147  0.2084  0.0566  0.1227
   92MPD2    C3 1433   2.710   2.349  16.055 -0.1704 -0.4855  0.2529
   92MPD2    C4 1434   2.636   2.407  15.959  0.0745  0.0670  1.0312
   92MPD2    C5 1435   2.501   2.385  15.954  0.9806 -0.1892 -0.4166
   92MPD2     H 1436   2.704   2.213  16.216  0.0413 -0.9196 -0.5481
   92MPD2    H1 1437   2.670   2.487  15.895  1.8284 -2.0550 -0.6994
   92MPD2    H2 1438   2.326   2.311  16.040 -0.1362  0.7665  3.6970
   92MPD2    H3 1439   2.443   2.425  15.872 -0.9151 -2.0381  0.0051
   92MPD2     N 1440   2.855   2.363  16.061  0.4430  0.2705  0.0625
   92MPD2    H5 1441   2.904   2.318  16.138  1.3236 -0.0128 -0.6613
   92MPD2    N1 1442   2.443   2.161  16.244 -0.1561  0.6358  0.3793
   92MPD2    H7 1443   2.504   2.108  16.306 -1.8736 -1.0735  0.6411
   93TMC2    C1 1444   4.353   2.373  14.185 -0.0924 -0.2260 -0.4279
   93TMC2    C2 1445   4.367   2.328  14.316 -0.3858 -0.4314  0.6321
   93TMC2    C3 1446   4.487   2.368  14.382 -0.2877  0.5267  0.0267
   93TMC2    C4 1447   4.450   2.440  14.120  1.0525 -0.3869  0.1202
   93TMC2    C5 1448   4.569   2.474  14.187 -0.1431  0.6526 -0.2939
   93TMC2    C6 1449   4.591   2.428  14.315  0.2191 -0.7103  0.2791
   93TMC2     C 1450   4.268   2.296  14.096 -0.1827  0.3435 -0.6724
   93TMC2     O 1451   4.296   2.305  13.977  0.0695  0.4274 -0.0518
   93TMC2     H 1452   4.289   2.280  14.373  0.0399 -1.2334  0.5293
   93TMC2    H1 1453   4.437   2.461  14.014  0.4880  3.0448  0.8796
   93TMC2    H2 1454   4.682   2.455  14.367  0.1838  1.2153 -0.6465
   93TMC2    C7 1455   4.680   2.546  14.113  1.2992  0.0283  0.2799
   93TMC2    C8 1456   4.520   2.326  14.519  0.2143 -0.1806  0.4046
   93TMC2    O1 1457   0.044   2.555  14.178 -0.2696  0.4048 -0.4836
   93TMC2    O2 1458   4.633   2.335  14.561 -0.2048 -0.2103 -0.2038
   93TMC2    O5 1459   4.412   2.360  14.586 -0.4231 -0.2623 -0.0446
   93TMC2    H5 1460   4.346   2.393  14.521 -0.2934 -3.1702 -1.6375
   94MPD2     C 1461   4.145   2.052  13.993 -0.3602 -0.2703  0.0618
   94MPD2    C1 1462   4.099   2.115  14.106  0.6756 -0.5101  0.4807
   94MPD2    C2 1463   3.975   2.084  14.161 -0.0881 -0.2379 -1.0381
   94MPD2    C3 1464   3.895   1.996  14.087  0.7641 -0.1946  1.1094
   94MPD2    C4 1465   3.937   1.938  13.970 -0.1308  0.1699 -0.0367
   94MPD2    C5 1466   4.064   1.966  13.922 -0.7266 -1.2890  0.0842
   94MPD2     H 1467   3.946   2.143  14.247  2.7242  0.2833 -0.4409
   94MPD2    H1 1468   3.882   1.869  13.908  0.9723 -1.0279  0.3178
   94MPD2    H2 1469   4.243   2.073  13.952 -0.7672  1.0198 -0.2485
   94MPD2    H3 1470   4.095   1.911  13.834  0.3919  0.2934 -0.5158
   94MPD2     N 1471   3.765   1.956  14.120 -0.0296  0.0918 -0.5932
   94MPD2    H5 1472   3.716   1.884  14.067 -1.5695  0.9209 -0.2901
   94MPD2    N1 1473   4.174   2.225  14.161 -0.3844 -0.4997  0.0909
   94MPD2    H7 1474   4.139   2.261  14.249 -1.6358  2.5288 -1.6691
   95TMC2    C1 1475   4.100   4.238  15.851  0.2089  0.7281  0.5269
   95TMC2    C2 1476   4.037   4.349  15.802 -0.0485 -0.7307 -0.4877
   95TMC2    C3 1477   3.910   4.336  15.760 -0.9220  0.2079  0.2755
   95TMC2    C4 1478   4.039   4.121  15.861  0.9676 -0.2336 -0.0816
   95TMC2    C5 1479   3.904   4.106  15.830 -0.2151 -0.2067 -0.5338
   95TMC2    C6 1480   3.842   4.212  15.758 -0.3007  0.2155  0.4293
   95TMC2     C 1481   4.246   4.234  15.847  0.2706 -0.6704 -0.5032
   95TMC2     O 1482   4.293   4.121  15.831 -0.0725 -0.0948 -0.5131
   95TMC2     H 1483   4.093   4.442  15.794  2.4510 -2.2627 -0.6130
   95TMC2    H1 1484   4.093   4.040  15.908  0.2388 -1.3926 -1.2679
   95TMC2    H2 1485   3.738   4.197  15.730 -0.0080 -1.2452  0.1420
   95TMC2    C7 1486   3.822   3.981  15.849  0.8265 -0.3937 -0.2041
   95TMC2    C8 1487   3.849   4.458  15.697  0.2760  0.5267  0.1017
   95TMC2    O1 1488   3.707   3.990  15.811 -0.0387 -0.0537 -0.1618
   95TMC2    O2 1489   3.897   4.568  15.718  0.5196  0.4769 -0.1483
   95TMC2    O5 1490   3.733   4.429  15.625 -0.7256  0.4898  0.1374
   95TMC2    H5 1491   3.743   4.339  15.588 -0.0621 -0.0803  1.6907
   96MPD2     C 1492   4.704   4.424  15.971  0.5901  0.5019 -0.6791
   96MPD2    C1 1493   4.672   4.312  15.900 -0.3597 -0.0474  0.7658
   96MPD2    C2 1494   4.536   4.277  15.873 -0.5000  0.1208 -0.3302
   96MPD2    C3 1495   4.438   4.366  15.922  0.2025 -0.6064  0.7538
   96MPD2    C4 1496   4.473   4.482  15.989 -0.8094 -0.2361 -0.2923
   96MPD2    C5 1497   4.604   4.517  16.002 -0.4709  0.6932 -0.0936
   96MPD2     H 1498   4.512   4.183  15.824 -0.0039  0.9479 -2.1399
   96MPD2    H1 1499   4.405   4.557  16.029  1.2364  0.4300  1.9141
   96MPD2    H2 1500   0.068   4.442  15.997  0.4506  0.7920 -0.3320
   96MPD2    H3 1501   4.631   4.612  16.047 -0.8241  0.6498  0.2073
   96MPD2     N 1502   4.301   4.345  15.898 -0.1928  0.0256 -0.2115
   96MPD2    H5 1503   4.239   4.422  15.921 -1.6180 -0.7992 -1.2988
   96MPD2    N1 1504   0.043   4.244  15.835 -0.0908 -0.3927  0.7419
   96MPD2    H7 1505   0.133   4.285  15.856 -0.4391 -0.5381  2.4831
   97TMC2    C1 1506   1.874   2.024  17.344 -0.3164  0.0286 -0.4091
   97TMC2    C2 1507   1.909   1.973  17.220 -0.2957 -0.5659 -0.4811
   97TMC2    C3 1508   2.023   2.012  17.165  0.5187 -0.5558  0.1919
   97TMC2    C4 1509   1.947   2.122  17.402 -0.2039  0.1439 -0.5249
   97TMC2    C5 1510   2.060   2.166  17.340  0.3688  0.5701  0.0204
   97TMC2    C6 1511   2.109   2.101  17.225 -0.3479 -1.1025 -0.4785
   97TMC2     C 1512   1.797   1.941  17.436  0.3922 -0.0086  0.4709
   97TMC2     O 1513   1.760   1.985  17.541 -0.5970  0.6138  0.0761
   97TMC2     H 1514   1.835   1.909  17.171 -0.7747 -1.0400  0.8406
   97TMC2    H1 1515   1.913   2.158  17.498 -0.0316 -1.2473  0.0687
   97TMC2    H2 1516   2.202   2.122  17.173  0.1847  1.2878  1.4361
   97TMC2    C7 1517   2.133   2.279  17.400  0.3243 -0.1692 -0.1305
   97TMC2    C8 1518   2.038   1.994  17.027  0.1369 -0.0015  0.5558
   97TMC2    O1 1519   2.105   2.302  17.514  0.2864 -0.3201 -0.3319
   97TMC2    O2 1520   2.147   1.972  16.975  0.1927 -0.8201 -0.1507
   97TMC2    O5 1521   1.948   2.079  16.978  0.2797  0.0911 -0.0931
   97TMC2    H5 1522   1.886   2.120  17.041 -1.0856 -0.2559 -1.2199
   98MPD2     C 1523   1.674   1.483  17.632  0.0509  0.0862  0.1982
   98MPD2    C1 1524   1.643   1.607  17.673  0.2221 -0.4615 -0.3356
   98MPD2    C2 1525   1.684   1.715  17.606 -0.4454 -0.2908  0.3702
   98MPD2    C3 1526   1.762   1.698  17.491  0.3389  0.1704 -0.0925
   98MPD2    C4 1527   1.796   1.572  17.446 -1.0075  0.3341 -0.8436
   98MPD2    C5 1528   1.753   1.466  17.525 -0.7819  0.2163  0.8795
   98MPD2     H 1529   1.654   1.815  17.638 -1.6853 -1.5144  3.0184
   98MPD2    H1 1530   1.846   1.547  17.354 -1.3293  0.5088 -1.0644
   98MPD2    H2 1531   1.645   1.391  17.680  1.7812 -1.1082 -1.0692
   98MPD2    H3 1532   1.788   1.365  17.507  1.6011  1.0046  1.1802
   98MPD2     N 1533   1.800   1.805  17.409 -0.1889  0.1917 -0.3488
   98MPD2    H5 1534   1.842   1.775  17.322 -2.1726 -0.9705 -0.9025
   98MPD2    N1 1535   1.573   1.608   0.040 -0.4153 -0.1786 -0.9224
   98MPD2    H7 1536   1.536   1.523   0.081  0.9385 -1.0785 -1.5185
   99TMC2    C1 1537   0.970   3.594   1.429 -0.6590  0.4791 -0.8966
   99TMC2    C2 1538   1.062   3.538   1.509 -0.4611 -0.4026  0.6014
   99TMC2    C3 1539   1.017   3.430   1.584  0.1394 -0.1175  0.1810
   99TMC2    C4 1540   0.838   3.558   1.416  0.4620 -0.2579 -0.1522
   99TMC2    C5 1541   0.803   3.465   1.504  0.3547 -0.2134 -0.1643
   99TMC2    C6 1542   0.885   3.394   1.584 -0.2215 -0.5102 -0.7409
   99TMC2     C 1543   1.037   3.660   1.314  0.1728  0.1168  0.0917
   99TMC2     O 1544   1.160   3.676   1.316  0.1623  0.1608  0.1153
   99TMC2     H 1545   1.168   3.560   1.508 -0.5252 -0.1400 -0.0578
   99TMC2    H1 1546   0.764   3.610   1.354 -0.7763 -1.6903  0.1340
   99TMC2    H2 1547   0.845   3.316   1.648 -2.6610  2.0777  0.9131
   99TMC2    C7 1548   0.663   3.443   1.524  0.5886 -0.0775  0.8247
   99TMC2    C8 1549   1.112   3.359   1.669  0.0945  0.5443  0.1749
   99TMC2    O1 1550   0.622   3.442   1.639 -0.4997  0.8800  0.2462
   99TMC2    O2 1551   1.228   3.341   1.636  0.0671 -0.2308  0.2552
   99TMC2    O5 1552   1.064   3.342   1.794  0.1821  0.0310  0.0523
   99TMC2    H5 1553   0.976   3.382   1.809 -0.6226 -1.7928  0.2942
  100MPD2     C 1554   1.110   3.776   1.056 -0.5460  0.1591 -0.0179
  100MPD2    C1 1555   0.983   3.733   1.084 -0.0702  0.1741 -0.1596
  100MPD2    C2 1556   0.883   3.738   0.989  0.0269  0.8616  1.0197
  100MPD2    C3 1557   0.896   3.804   0.868 -0.2183  1.0640  0.3764
  100MPD2    C4 1558   1.027   3.844   0.835 -0.4938  0.3862 -0.3290
  100MPD2    C5 1559   1.126   3.832   0.928  0.2860  0.4619 -0.0436
  100MPD2     H 1560   0.782   3.700   1.001 -0.0405  0.1389 -1.7926
  100MPD2    H1 1561   1.053   3.877   0.735 -1.0807 -1.2335 -1.0111
  100MPD2    H2 1562   1.191   3.766   1.126 -1.8092 -0.1460  1.3900
  100MPD2    H3 1563   1.228   3.856   0.900 -0.1764  1.2710 -1.0291
  100MPD2     N 1564   0.786   3.808   0.784 -0.6264  0.0247 -0.4598
  100MPD2    H5 1565   0.702   3.756   0.807  0.6028 -1.9891 -0.5342
  100MPD2    N1 1566   0.953   3.683   1.212 -0.3018 -0.6246  0.6655
  100MPD2    H7 1567   0.857   3.652   1.220  0.1449 -2.3564 -0.6763
  101TMC2    C1 1568   1.745   0.151  13.126 -0.1258  0.2255  0.0024
  101TMC2    C2 1569   1.649   0.228  13.068  0.0024  0.1457  0.1821
  101TMC2    C3 1570   1.680   0.312  12.970 -0.0856  0.8786  0.7877
  101TMC2    C4 1571   1.878   0.170  13.094  0.1519  0.1274 -0.0886
  101TMC2    C5 1572   1.906   0.255  12.991 -0.1908 -0.4686 -0.2090
  101TMC2    C6 1573   1.810   0.326  12.927  1.0151 -0.6182  0.6432
  101TMC2     C 1574   1.697   0.058  13.222  0.1610  0.4714 -0.0054
  101TMC2     O 1575   1.583   0.069  13.261  0.1595  0.0245 -0.5435
  101TMC2     H 1576   1.543   0.230  13.092 -0.1166  0.3506 -0.3571
  101TMC2    H1 1577   1.949   0.111  13.151 -0.3444 -1.7525 -1.3956
  101TMC2    H2 1578   1.835   0.392  12.844 -0.5285 -0.4440  0.3127
  101TMC2    C7 1579   2.039   0.256  12.922  0.1843 -0.0302  0.0042
  101TMC2    C8 1580   1.578   0.390  12.904  0.0618 -0.3223 -0.4163
  101TMC2    O1 1581   2.037   0.292  12.811  0.3454 -0.2831  0.1238
  101TMC2    O2 1582   1.471   0.410  12.960  0.2263  0.3986  0.0714
  101TMC2    O5 1583   1.598   0.382  12.771 -0.1712 -0.4876 -0.0336
  101TMC2    H5 1584   1.678   0.330  12.746  1.2812  1.2394  1.0450
  102MPD2     C 1585   1.884   4.535  13.398  0.3070 -0.4619 -0.0599
  102MPD2    C1 1586   1.783   4.611  13.364  0.0056 -1.0704  0.2458
  102MPD2    C2 1587   1.676   4.596  13.445  0.6930  0.3978 -0.4130
  102MPD2    C3 1588   1.667   4.503  13.549 -0.3106  0.5291 -0.1858
  102MPD2    C4 1589   1.770   4.413  13.566 -0.0047  0.3578 -0.7600
  102MPD2    C5 1590   1.883   4.447  13.501  0.0215 -0.4314  1.0625
  102MPD2     H 1591   1.587   4.654  13.423 -0.6686 -0.9924  1.4268
  102MPD2    H1 1592   1.763   4.339  13.644 -1.5654  0.2024 -1.0320
  102MPD2    H2 1593   1.980   4.552  13.350  0.9198 -1.1125  0.9294
  102MPD2    H3 1594   1.979   4.401  13.521  0.7868  0.5844 -0.2291
  102MPD2     N 1595   1.565   4.506  13.650 -0.7701  0.7072 -0.0443
  102MPD2    H5 1596   1.476   4.548  13.622 -1.3213 -1.1819 -1.1165
  102MPD2    N1 1597   1.793   4.704  13.252 -0.1806 -0.1681  0.3969
  102MPD2    H7 1598   1.884   4.707  13.207  0.0701 -2.1426  0.8031
  103TMC2    C1 1599   4.362   4.410  12.743  0.0278  0.4490  0.2182
  103TMC2    C2 1600   4.482   4.477  12.725  0.1803 -0.4961  0.6414
  103TMC2    C3 1601   4.519   4.558  12.828 -0.2831  0.8909 -0.1267
  103TMC2    C4 1602   4.273   4.429  12.848  0.0500 -0.6517 -0.4009
  103TMC2    C5 1603   4.318   4.523  12.942 -0.6624  0.4231  0.3523
  103TMC2    C6 1604   4.442   4.591  12.937 -1.0593 -0.2781  0.0107
  103TMC2     C 1605   4.308   4.375  12.614  0.4400 -0.0274 -0.1352
  103TMC2     O 1606   4.348   4.432  12.516 -0.6019 -0.7520 -0.1598
  103TMC2     H 1607   4.541   4.447  12.640 -1.1475 -1.0610 -0.0844
  103TMC2    H1 1608   4.175   4.385  12.865 -0.0242 -1.0264 -1.8044
  103TMC2    H2 1609   4.478   4.653  13.018 -0.4198  0.3888 -0.7859
  103TMC2    C7 1610   4.219   4.584  13.031  0.6718 -0.0010 -0.2225
  103TMC2    C8 1611   4.662   4.571  12.847  0.0254 -0.0845  0.9479
  103TMC2    O1 1612   4.128   4.518  13.081 -0.3807  0.0934  0.3310
  103TMC2    O2 1613   4.700   4.637  12.944 -0.2048  0.1684  0.0230
  103TMC2    O5 1614   0.003   4.509  12.766  0.0173 -0.0155  0.1514
  103TMC2    H5 1615   4.689   4.443  12.719 -0.2659  0.1589  0.2285
  104MPD2     C 1616   4.075   4.107  12.546  0.6179  0.0669 -0.3899
  104MPD2    C1 1617   4.128   4.235  12.523 -0.6004  0.5043 -0.8356
  104MPD2    C2 1618   4.123   4.286  12.394  0.7049  0.3670 -0.2708
  104MPD2    C3 1619   4.050   4.227  12.294  0.2463 -0.0077 -0.2588
  104MPD2    C4 1620   3.998   4.098  12.319 -0.4461  0.0617 -0.2977
  104MPD2    C5 1621   4.012   4.039  12.444  0.3473  0.0235 -0.0340
  104MPD2     H 1622   4.181   4.376  12.377 -0.0536  1.2493  1.7988
  104MPD2    H1 1623   3.944   4.046  12.241  1.8186 -1.1984 -0.9949
  104MPD2    H2 1624   4.086   4.048  12.636 -1.4895 -0.2706 -0.3456
  104MPD2    H3 1625   3.974   3.938  12.457 -0.5016  0.7279  3.0377
  104MPD2     N 1626   4.027   4.292  12.171 -0.5419  0.0326  0.1214
  104MPD2    H5 1627   4.043   4.392  12.165  1.3352 -0.2665 -0.0504
  104MPD2    N1 1628   4.213   4.277  12.622  0.5343 -0.5111  0.3563
  104MPD2    H7 1629   4.201   4.227  12.710 -1.6893 -1.6586 -0.6055
  105TMC2    C1 1630   0.326   3.905  17.661 -0.1139  0.8385  0.5950
  105TMC2    C2 1631   0.361   4.041  17.675  0.1062  0.1826 -0.0559
  105TMC2    C3 1632   0.325   4.103   0.033 -0.3243  0.4135  0.3219
  105TMC2    C4 1633   0.267   3.848   0.009 -0.4188 -0.5452 -0.4141
  105TMC2    C5 1634   0.200   3.915   0.093  0.7199 -0.0898 -0.4461
  105TMC2    C6 1635   0.235   4.051   0.112  0.2256 -0.1934  0.4219
  105TMC2     C 1636   0.411   3.816  17.579 -0.2022  0.2977 -0.2546
  105TMC2     O 1637   0.419   3.699  17.613  0.1329 -0.1523  0.6349
  105TMC2     H 1638   0.408   4.093  17.592 -1.1200 -0.2530 -1.0239
  105TMC2    H1 1639   0.246   3.742   0.003  2.8922 -1.1680 -0.7291
  105TMC2    H2 1640   0.194   4.103   0.198  0.0718 -1.2497  0.9893
  105TMC2    C7 1641   0.134   3.848   0.199  0.5939 -0.4047  0.7255
  105TMC2    C8 1642   0.340   4.245   0.041  0.1435  0.4298 -0.0333
  105TMC2    O1 1643   0.183   3.740   0.230 -0.1047  0.0982 -0.2330
  105TMC2    O2 1644   0.338   4.322  17.702  0.0970 -0.0673 -0.0582
  105TMC2    O5 1645   0.352   4.277   0.173 -0.0159  0.0837  0.1353
  105TMC2    H5 1646   0.364   4.203   0.237  0.7342 -0.4577 -0.6312
  106MPD2     C 1647   0.771   3.744  17.224  0.6599  0.1042  0.2369
  106MPD2    C1 1648   0.729   3.875  17.211 -0.5024  0.5061 -0.5727
  106MPD2    C2 1649   0.640   3.923  17.308  0.2742 -0.2602 -0.6340
  106MPD2    C3 1650   0.589   3.833  17.402  0.7679  0.1276  0.1456
  106MPD2    C4 1651   0.634   3.705  17.406 -0.4517 -0.3680 -0.5806
  106MPD2    C5 1652   0.729   3.658  17.321  0.0722 -0.0736  0.0094
  106MPD2     H 1653   0.617   4.029  17.309 -1.0426 -0.5358 -1.4101
  106MPD2    H1 1654   0.595   3.634  17.478  0.4608  0.4904  0.7660
  106MPD2    H2 1655   0.833   3.693  17.150  1.0420  0.6697  0.1702
  106MPD2    H3 1656   0.758   3.554  17.333 -1.0727 -0.3498  0.3470
  106MPD2     N 1657   0.489   3.885  17.490  0.2564 -0.3292 -0.1288
  106MPD2    H5 1658   0.456   3.980  17.478  0.0333 -0.3940 -0.0204
  106MPD2    N1 1659   0.775   3.969  17.109  0.2303  0.2927  0.8842
  106MPD2    H7 1660   0.744   4.066  17.118  0.2855  0.3804  0.1531
  107TMC2    C1 1661   1.700   3.694  11.539  0.1451 -0.0008  0.3744
  107TMC2    C2 1662   1.775   3.813  11.520 -1.2027 -0.2091  0.8011
  107TMC2    C3 1663   1.889   3.807  11.451 -0.7663 -0.0050  0.4181
  107TMC2    C4 1664   1.726   3.590  11.467  0.0087  0.1631  1.0341
  107TMC2    C5 1665   1.837   3.591  11.392 -0.5109  0.0614 -0.2420
  107TMC2    C6 1666   1.916   3.703  11.370  1.1011  0.8477  0.4418
  107TMC2     C 1667   1.561   3.715  11.577 -0.7735 -0.2430  0.6255
  107TMC2     O 1668   1.496   3.629  11.628  0.1585  0.7127 -0.6339
  107TMC2     H 1669   1.757   3.906  11.572 -3.8736  0.1754 -0.8439
  107TMC2    H1 1670   1.656   3.508  11.467  1.4850 -1.1084  1.1185
  107TMC2    H2 1671   2.007   3.701  11.311  2.2911  1.2246  2.2408
  107TMC2    C7 1672   1.895   3.469  11.339  0.5972 -0.3101 -0.4811
  107TMC2    C8 1673   1.973   3.921  11.448  0.4902 -0.1652 -0.1052
  107TMC2    O1 1674   2.013   3.474  11.308  0.2078  0.1030  0.0058
  107TMC2    O2 1675   2.045   3.932  11.359  0.1957  0.8731  0.0154
  107TMC2    O5 1676   2.008   3.956  11.572 -0.6237 -0.3344 -0.6676
  107TMC2    H5 1677   1.950   3.924  11.645 -1.5266  1.3424 -0.6524
  108MPD2     C 1678   1.334   3.981  11.449  0.2981  0.6020  0.2721
  108MPD2    C1 1679   1.384   3.884  11.542 -0.1270 -0.1270 -0.5350
  108MPD2    C2 1680   1.294   3.839  11.638 -0.5897  0.6443 -0.1849
  108MPD2    C3 1681   1.160   3.885  11.641  0.9481 -0.1580 -0.2519
  108MPD2    C4 1682   1.113   3.973  11.549 -0.5749  0.6643  0.0519
  108MPD2    C5 1683   1.200   4.018  11.454  0.1073 -0.4873  0.1390
  108MPD2     H 1684   1.320   3.765  11.713  3.8997  0.8235 -1.6067
  108MPD2    H1 1685   1.010   4.006  11.544 -0.5244  0.7328 -0.5277
  108MPD2    H2 1686   1.398   4.021  11.371 -1.5936  1.6443 -0.7473
  108MPD2    H3 1687   1.167   4.091  11.381 -0.6529 -0.4201  0.5461
  108MPD2     N 1688   1.070   3.849  11.738  0.7519 -0.3480 -0.1271
  108MPD2    H5 1689   0.976   3.889  11.741  0.5685 -0.6878 -1.3089
  108MPD2    N1 1690   1.515   3.838  11.527 -0.0275 -0.1532 -0.0631
  108MPD2    H7 1691   1.573   3.901  11.474 -1.8055  0.9945 -0.6389
  109TMC2    C1 1692   0.916   0.692   0.562 -0.3608  0.8179 -0.0847
  109TMC2    C2 1693   0.937   0.602   0.458 -0.4026 -0.0868  0.5632
  109TMC2    C3 1694   1.043   0.631   0.365 -0.5477  0.3504  0.2633
  109TMC2    C4 1695   0.992   0.809   0.580 -0.3692  0.6976 -0.2866
  109TMC2    C5 1696   1.096   0.828   0.487  0.0318 -0.2879  0.7520
  109TMC2    C6 1697   1.113   0.749   0.375 -0.3197  0.3922 -0.2070
  109TMC2     C 1698   0.835   0.636   0.667 -0.0538 -0.1819 -0.5312
  109TMC2     O 1699   0.769   0.535   0.650  0.6367 -0.0231  0.3232
  109TMC2     H 1700   0.886   0.506   0.457  1.4278 -1.0225 -2.6955
  109TMC2    H1 1701   0.958   0.884   0.651  0.3924  1.8135 -1.1099
  109TMC2    H2 1702   1.178   0.779   0.294 -0.3643 -0.7690 -0.6719
  109TMC2    C7 1703   1.183   0.944   0.509 -0.1787 -0.2438  0.1894
  109TMC2    C8 1704   1.079   0.541   0.265  0.1254  0.2307  0.7178
  109TMC2    O1 1705   1.274   0.964   0.432 -0.2383  0.3411 -0.2536
  109TMC2    O2 1706   1.196   0.516   0.234 -0.8058 -0.2053  0.0168
  109TMC2    O5 1707   0.973   0.514   0.184  0.0529  0.4326 -0.7818
  109TMC2    H5 1708   0.886   0.530   0.225 -0.1623 -3.4009  0.2746
  110MPD2     C 1709   0.673   0.617   1.159 -0.2149  0.2701  0.1829
  110MPD2    C1 1710   0.787   0.695   1.150  0.5756  0.6882  0.4119
  110MPD2    C2 1711   0.831   0.729   1.024 -0.1575  0.1512 -0.6215
  110MPD2    C3 1712   0.787   0.660   0.904 -0.0823  0.2263 -0.5763
  110MPD2    C4 1713   0.681   0.573   0.921  0.4713  0.3205  0.0356
  110MPD2    C5 1714   0.628   0.553   1.044 -0.4313 -0.1481  0.1606
  110MPD2     H 1715   0.925   0.783   1.022  1.6950 -3.0885 -0.2217
  110MPD2    H1 1716   0.640   0.522   0.834 -1.0319  1.0557  0.3150
  110MPD2    H2 1717   0.623   0.603   1.253 -0.3117 -2.3139 -0.2536
  110MPD2    H3 1718   0.536   0.497   1.051 -1.2232  1.2278  0.9618
  110MPD2     N 1719   0.849   0.701   0.784  0.7227 -0.1480 -0.5958
  110MPD2    H5 1720   0.918   0.775   0.788  0.7499 -0.1663 -0.7537
  110MPD2    N1 1721   0.829   0.747   1.271  1.0548  0.1559 -0.0607
  110MPD2    H7 1722   0.783   0.710   1.354  0.0230  1.4843 -0.0314
  111TMC2    C1 1723   1.932   0.047  11.356 -1.0001  0.1809 -0.2022
  111TMC2    C2 1724   1.978   4.707  11.252 -0.5712 -0.6326 -0.3939
  111TMC2    C3 1725   2.113   4.694  11.235  0.3983 -0.1796  0.4966
  111TMC2    C4 1726   2.012   0.107  11.451 -0.1682 -0.3405  1.3419
  111TMC2    C5 1727   2.141   0.085  11.430 -0.5274  0.1196  0.1480
  111TMC2    C6 1728   2.195   0.015  11.319 -0.2275 -0.0287  0.7124
  111TMC2     C 1729   1.794   0.087  11.349 -0.0356  0.1186  0.0332
  111TMC2     O 1730   1.735   0.090  11.241  0.0577 -0.2963  0.0720
  111TMC2     H 1731   1.905   4.664  11.184  0.3187  2.7417 -3.5003
  111TMC2    H1 1732   1.977   0.181  11.521  1.8676  1.7762  0.1620
  111TMC2    H2 1733   2.301   4.738  11.304  0.1254  0.9479  2.0952
  111TMC2    C7 1734   2.236   0.128  11.535  0.0276 -0.2054 -0.6372
  111TMC2    C8 1735   2.159   4.571  11.176  0.6795 -0.3535 -0.2791
  111TMC2    O1 1736   2.185   0.189  11.629  0.2743  0.4580 -0.1236
  111TMC2    O2 1737   2.234   4.504  11.243  0.6499  0.3022  0.4893
  111TMC2    O5 1738   2.071   4.527  11.090  0.3614 -0.0007 -0.1035
  111TMC2    H5 1739   2.024   4.604  11.051 -0.2379 -1.0908 -1.5191
  112MPD2     C 1740   1.410   0.289  11.620  0.8513  0.2395 -0.0683
  112MPD2    C1 1741   1.426   0.263  11.488 -0.2336 -0.4337 -0.8011
  112MPD2    C2 1742   1.538   0.203  11.434  0.2551 -0.4736 -0.0588
  112MPD2    C3 1743   1.635   0.171  11.521 -0.2222  0.2707 -0.8049
  112MPD2    C4 1744   1.626   0.209  11.654  0.2217 -0.9601 -0.0606
  112MPD2    C5 1745   1.514   0.266  11.702  0.3132 -0.0647 -0.6056
  112MPD2     H 1746   1.542   0.183  11.328 -0.7236 -0.4785 -0.0887
  112MPD2    H1 1747   1.711   0.185  11.718  0.1417  1.4398  0.9695
  112MPD2    H2 1748   1.321   0.339  11.657  1.6971 -0.1028  2.4809
  112MPD2    H3 1749   1.503   0.298  11.805  0.0105 -1.3242 -0.2436
  112MPD2     N 1750   1.754   0.112  11.480 -0.3126  0.8631 -0.3920
  112MPD2    H5 1751   1.813   0.082  11.557  0.4134 -0.7922 -1.5820
  112MPD2    N1 1752   1.319   0.279  11.399  0.7208  0.4701 -0.1673
  112MPD2    H7 1753   1.332   0.237  11.307  1.4998 -1.6977  0.9194
  113TMC2    C1 1754   4.099   3.553   0.501  0.2431  0.2586  0.0740
  113TMC2    C2 1755   4.014   3.652   0.529  0.5650 -0.0758  0.2175
  113TMC2    C3 1756   3.890   3.651   0.471  0.6274 -0.7770 -0.5336
  113TMC2    C4 1757   4.061   3.442   0.422 -0.6247 -0.4047 -0.4093
  113TMC2    C5 1758   3.935   3.444   0.380  0.9666 -0.1409  0.3277
  113TMC2    C6 1759   3.853   3.546   0.394 -0.0843 -0.7264 -0.4916
  113TMC2     C 1760   4.211   3.553   0.585 -0.1159 -0.2987  0.0687
  113TMC2     O 1761   4.200   3.617   0.688 -0.3467 -0.0788  0.0141
  113TMC2     H 1762   4.044   3.742   0.583 -1.1731  0.6560 -0.0153
  113TMC2    H1 1763   4.126   3.360   0.393  1.4836  1.5079 -1.1220
  113TMC2    H2 1764   3.750   3.549   0.360 -0.1122  1.8211 -0.1720
  113TMC2    C7 1765   3.880   3.327   0.323  0.0567  0.0952  0.7782
  113TMC2    C8 1766   3.800   3.767   0.493 -0.6859 -0.6303 -0.7307
  113TMC2    O1 1767   3.787   3.348   0.248 -0.1428  0.0265  0.0231
  113TMC2    O2 1768   3.855   3.873   0.523  0.2868  0.0733 -0.0175
  113TMC2    O5 1769   3.686   3.723   0.542 -0.2761 -0.1665 -0.5318
  113TMC2    H5 1770   3.678   3.629   0.514  0.0513 -0.3818  0.0746
  114MPD2     C 1771   4.671   3.392   0.744 -0.2823 -1.3270 -0.0964
  114MPD2    C1 1772   4.583   3.477   0.803  0.5935  0.4342 -0.7683
  114MPD2    C2 1773   4.469   3.508   0.731  0.3754  0.3397  0.1673
  114MPD2    C3 1774   4.436   3.449   0.610  0.0598  0.7854  0.2264
  114MPD2    C4 1775   4.520   3.359   0.563  0.3504 -0.0439 -0.2257
  114MPD2    C5 1776   4.635   3.331   0.631 -0.1363 -0.5763 -0.0430
  114MPD2     H 1777   4.406   3.580   0.782  0.1109  0.7700 -0.7622
  114MPD2    H1 1778   4.505   3.307   0.468 -1.5781  1.9635 -1.0113
  114MPD2    H2 1779   0.029   3.365   0.782  0.0487  0.7736  0.5446
  114MPD2    H3 1780   4.713   3.266   0.591  0.5973 -0.8120  1.7768
  114MPD2     N 1781   4.313   3.473   0.543  0.0189  0.3357 -0.5317
  114MPD2    H5 1782   4.295   3.443   0.448 -1.9008 -1.6011  0.4441
  114MPD2    N1 1783   4.605   3.532   0.930 -0.3674  0.1831  0.2599
  114MPD2    H7 1784   4.543   3.605   0.962  1.7120  1.3284  1.6592
  115TMC2    C1 1785   0.358   0.656   0.076  1.1697  0.1456  0.2408
  115TMC2    C2 1786   0.485   0.632   0.126  0.0515 -0.3958  0.5502
  115TMC2    C3 1787   0.570   0.741   0.150  0.3300 -0.2557  0.2969
  115TMC2    C4 1788   0.317   0.788   0.057 -0.4255 -0.0912  0.1237
  115TMC2    C5 1789   0.411   0.892   0.082  0.2812  0.4887  0.8884
  115TMC2    C6 1790   0.538   0.871   0.126 -0.3638  0.5864 -0.3742
  115TMC2     C 1791   0.270   0.558   0.022  0.3532 -0.2604  0.2257
  115TMC2     O 1792   0.185   0.596  17.705  0.0045  0.0976  0.1752
  115TMC2     H 1793   0.529   0.533   0.127 -0.7038 -0.7341 -0.1975
  115TMC2    H1 1794   0.214   0.805   0.028 -0.0712  1.3039 -0.3091
  115TMC2    H2 1795   0.593   0.943   0.186 -0.4182  0.8935 -0.6864
  115TMC2    C7 1796   0.365   1.032   0.066  0.2099  0.3078 -0.1254
  115TMC2    C8 1797   0.706   0.722   0.198 -0.3612 -0.0554 -0.1004
  115TMC2    O1 1798   0.247   1.055   0.052  0.0609  0.0490 -0.2803
  115TMC2    O2 1799   0.805   0.787   0.159 -0.1956 -0.5002 -0.6640
  115TMC2    O5 1800   0.717   0.604   0.254 -0.0886  0.6640 -0.0549
  115TMC2    H5 1801   0.640   0.582   0.311 -0.8605  0.0265 -1.3671
  116MPD2     C 1802   0.123   0.068  17.690 -0.5747 -0.0097  0.0290
  116MPD2    C1 1803   0.087   0.192  17.640 -0.1106  0.3434 -0.0989
  116MPD2    C2 1804   0.132   0.318  17.686 -0.2543  1.2518 -0.4834
  116MPD2    C3 1805   0.224   0.317   0.029  0.1113 -0.1483  0.0757
  116MPD2    C4 1806   0.262   0.192   0.086 -0.3366 -0.4677 -0.4006
  116MPD2    C5 1807   0.216   0.071   0.035 -0.2753  0.0901  0.1462
  116MPD2     H 1808   0.101   0.408  17.633 -0.1914  2.2656  1.2235
  116MPD2    H1 1809   0.336   0.189   0.165  0.7385 -2.1502 -1.4603
  116MPD2    H2 1810   0.091   4.712  17.652 -0.3765 -0.5262  1.1551
  116MPD2    H3 1811   0.260   4.727   0.088 -0.7774 -1.5115 -1.9949
  116MPD2     N 1812   0.300   0.431   0.059 -0.7858  0.1389  0.6731
  116MPD2    H5 1813   0.360   0.419   0.140 -0.0184 -2.0877 -0.2343
  116MPD2    N1 1814   4.728   0.188  17.544 -0.0890 -0.6045  0.4332
  116MPD2    H7 1815   4.702   0.093  17.518  0.0510 -0.4547 -0.2587
  117TMC2    C1 1816   3.694   2.379  14.069  0.7298  1.3662 -0.1919
  117TMC2    C2 1817   3.716   2.300  13.964  0.2321 -0.3088  0.4200
  117TMC2    C3 1818   3.841   2.309  13.903 -0.4119 -0.2866 -0.6090
  117TMC2    C4 1819   3.786   2.476  14.098 -0.2950  0.9431 -0.4944
  117TMC2    C5 1820   3.914   2.478  14.036  0.0846  0.5727 -0.1050
  117TMC2    C6 1821   3.940   2.392  13.942  0.4186  0.1143  0.0325
  117TMC2     C 1822   3.565   2.383  14.128  0.5607 -1.0046  0.5683
  117TMC2     O 1823   3.510   2.274  14.146  0.3641  0.0731  0.1775
  117TMC2     H 1824   3.646   2.222  13.936  0.8127 -0.6986  0.0543
  117TMC2    H1 1825   3.764   2.534  14.187 -1.1960 -1.3313  0.7953
  117TMC2    H2 1826   4.042   2.394  13.905  0.2907  0.9229 -0.2804
  117TMC2    C7 1827   3.969   2.603  14.000 -0.5807 -0.0850  0.0492
  117TMC2    C8 1828   3.864   2.242  13.774 -0.4530  0.2835  0.2306
  117TMC2    O1 1829   4.042   2.627  13.904 -0.2528  0.7019  0.7001
  117TMC2    O2 1830   3.974   2.249  13.719  0.5673 -0.0530 -0.0979
  117TMC2    O5 1831   3.751   2.265  13.710  0.8496 -0.1003 -0.1042
  117TMC2    H5 1832   3.674   2.305  13.756 -0.4875 -0.6300 -1.8340
  118MPD2     C 1833   3.992   2.877  14.246 -0.0531 -0.1544  0.6700
  118MPD2    C1 1834   4.006   2.819  14.118  0.4815 -0.4135 -0.7460
  118MPD2    C2 1835   4.061   2.890  14.010  0.4506 -0.4837  0.1449
  118MPD2    C3 1836   4.102   3.023  14.035 -0.7841 -0.2430  0.1216
  118MPD2    C4 1837   4.101   3.068  14.165 -0.4576 -0.0561  0.2312
  118MPD2    C5 1838   4.044   3.000  14.270 -0.1846  0.4035  0.2945
  118MPD2     H 1839   4.071   2.851  13.909  1.8046 -0.2806  0.1973
  118MPD2    H1 1840   4.157   3.156  14.195  0.2963 -0.0334 -1.2553
  118MPD2    H2 1841   3.941   2.833  14.330  0.4833  1.0179  1.6143
  118MPD2    H3 1842   4.048   3.041  14.370 -1.5630 -0.2791  0.6305
  118MPD2     N 1843   4.161   3.108  13.942  0.7465  0.0504 -0.0451
  118MPD2    H5 1844   4.207   3.187  13.986  0.0514 -0.4926  1.6536
  118MPD2    N1 1845   3.962   2.682  14.112  0.8026 -0.1816 -0.0134
  118MPD2    H7 1846   3.920   2.642  14.196  1.6099 -1.1479 -0.0715
  119TMC2    C1 1847   1.470   3.984  13.621 -0.5616  0.0490  0.7066
  119TMC2    C2 1848   1.478   3.865  13.553 -0.6567 -0.3531 -0.6097
  119TMC2    C3 1849   1.432   3.751  13.611  0.1450  0.1249 -0.5868
  119TMC2    C4 1850   1.416   3.986  13.747  0.0578 -0.6735  0.7474
  119TMC2    C5 1851   1.384   3.866  13.803  0.2248 -0.4362  0.4747
  119TMC2    C6 1852   1.384   3.747  13.739 -0.7566 -0.7910 -0.2242
  119TMC2     C 1853   1.597   4.052  13.630 -0.1902 -0.6350 -0.3077
  119TMC2     O 1854   1.609   4.143  13.708  0.0211 -0.3113 -0.2865
  119TMC2     H 1855   1.531   3.854  13.459  0.0660  0.2521 -0.2688
  119TMC2    H1 1856   1.393   4.081  13.795 -0.7465 -0.5320  0.0965
  119TMC2    H2 1857   1.389   3.655  13.796  1.9838 -0.8533 -0.5361
  119TMC2    C7 1858   1.349   3.878  13.944  0.3258  0.2036  0.4386
  119TMC2    C8 1859   1.424   3.627  13.528  1.0827 -0.1487 -0.7059
  119TMC2    O1 1860   1.376   3.986  13.998  0.1761 -0.0971  0.2870
  119TMC2    O2 1861   1.500   3.606  13.440  0.0318  0.2331  0.7105
  119TMC2    O5 1862   1.330   3.545  13.578 -0.1077  0.6600  0.4636
  119TMC2    H5 1863   1.273   3.586  13.647 -1.6145 -1.9109  0.7669
  120MPD2     C 1864   2.120   4.053  13.599 -0.0112  0.3181  0.4529
  120MPD2    C1 1865   2.036   4.113  13.694  0.0532  0.0953  0.2655
  120MPD2    C2 1866   1.896   4.099  13.682 -0.4334  0.2153  0.2777
  120MPD2    C3 1867   1.837   4.028  13.577  0.4017 -0.1866  0.1635
  120MPD2    C4 1868   1.922   3.974  13.484 -0.4284 -0.3464 -0.3521
  120MPD2    C5 1869   2.059   3.994  13.494 -0.0271 -0.2716  0.7116
  120MPD2     H 1870   1.823   4.149  13.745  0.7260  0.5605  1.3473
  120MPD2    H1 1871   1.881   3.926  13.395 -2.1111  2.0898 -0.8908
  120MPD2    H2 1872   2.223   4.042  13.629 -0.7457  2.7455  3.8560
  120MPD2    H3 1873   2.128   3.941  13.430 -1.0046 -0.3585 -0.2790
  120MPD2     N 1874   1.696   3.996  13.561 -0.2916  0.4075 -0.2231
  120MPD2    H5 1875   1.677   3.928  13.488  0.6957  0.6692 -0.7238
  120MPD2    N1 1876   2.101   4.178  13.807 -0.1652 -0.0336 -0.1240
  120MPD2    H7 1877   2.193   4.217  13.785  0.9701 -2.5922  0.1081
  121TMC2    C1 1878   3.464   0.941  14.446 -0.5861 -0.3063  0.6152
  121TMC2    C2 1879   3.401   0.829  14.502  0.3929 -0.6305  0.0935
  121TMC2    C3 1880   3.267   0.822  14.491  0.1882 -0.0374 -0.4290
  121TMC2    C4 1881   3.389   1.048  14.388 -0.2151 -0.2710  0.3193
  121TMC2    C5 1882   3.248   1.031  14.378 -0.1358 -0.5463  0.2091
  121TMC2    C6 1883   3.184   0.915  14.429 -0.2011  0.2181 -0.1349
  121TMC2     C 1884   3.596   0.919  14.390  0.0960  0.2696 -0.0510
  121TMC2     O 1885   3.659   0.822  14.430 -0.2511 -0.5619 -0.8220
  121TMC2     H 1886   3.472   0.754  14.533  0.4352 -0.2630  0.8830
  121TMC2    H1 1887   3.431   1.125  14.324 -0.7626 -0.7734 -0.6329
  121TMC2    H2 1888   3.076   0.904  14.420 -0.1497  0.1937 -0.7281
  121TMC2    C7 1889   3.183   1.104  14.268 -0.4825  0.3821 -0.1293
  121TMC2    C8 1890   3.201   0.690  14.485 -0.1619  1.1184  0.0712
  121TMC2    O1 1891   3.244   1.204  14.228  0.2896 -0.0616  0.3065
  121TMC2    O2 1892   3.146   0.662  14.381  0.4089  0.3197 -0.3121
  121TMC2    O5 1893   3.268   0.617  14.568 -0.1319 -0.1038 -0.1171
  121TMC2    H5 1894   3.313   0.664  14.641  0.9938 -1.6752  0.1957
  122MPD2     C 1895   3.870   0.953  14.255  0.4862  0.2130 -0.5146
  122MPD2    C1 1896   3.755   1.018  14.222  0.7114  0.4851 -0.1510
  122MPD2    C2 1897   3.751   1.089  14.104 -0.0341  0.0018  0.1627
  122MPD2    C3 1898   3.863   1.092  14.023 -0.5148 -0.9983 -1.0966
  122MPD2    C4 1899   3.987   1.053  14.073  0.2799  0.3234 -0.2617
  122MPD2    C5 1900   3.986   0.977  14.187  0.7734 -0.0061  0.3155
  122MPD2     H 1901   3.660   1.123  14.057  0.5781 -2.9879 -3.2521
  122MPD2    H1 1902   4.076   1.066  14.013  0.4865  0.7538  0.1404
  122MPD2    H2 1903   3.888   0.903  14.350  0.9168  2.6194  0.6790
  122MPD2    H3 1904   4.080   0.935  14.219  0.5325 -3.0827 -3.0134
  122MPD2     N 1905   3.875   1.139  13.890  0.0239  0.3310  0.5845
  122MPD2    H5 1906   3.969   1.143  13.852  0.5639 -1.4648  1.7089
  122MPD2    N1 1907   3.634   1.013  14.291 -0.3057  0.2195  0.1339
  122MPD2    H7 1908   3.566   1.058  14.231  1.5927  1.2790 -1.2195
  123TMC2    C1 1909   2.368   3.048  10.533  0.1095  0.0290 -0.1962
  123TMC2    C2 1910   2.459   3.027  10.434  0.0334  0.1794  0.7797
  123TMC2    C3 1911   2.496   3.138  10.365  0.1848  0.0973 -0.1636
  123TMC2    C4 1912   2.318   3.172  10.567  0.6776 -0.0164  0.0343
  123TMC2    C5 1913   2.360   3.279  10.493  0.4980  0.4857  0.6409
  123TMC2    C6 1914   2.451   3.269  10.393 -0.2264  0.4786 -0.1713
  123TMC2     C 1915   2.281   2.933  10.546  0.1836 -0.0704 -0.2789
  123TMC2     O 1916   2.324   2.820  10.531  0.4824  0.4860 -0.0427
  123TMC2     H 1917   2.510   2.934  10.412 -0.3396  0.2650 -0.4337
  123TMC2    H1 1918   2.248   3.176  10.650 -2.2505  1.5561 -2.5146
  123TMC2    H2 1919   2.486   3.353  10.336 -3.1240  1.4439 -0.5561
  123TMC2    C7 1920   2.236   3.361  10.462 -0.2974 -0.2032 -0.2537
  123TMC2    C8 1921   2.606   3.120  10.275 -0.3075 -0.4835  0.0466
  123TMC2    O1 1922   2.129   3.302  10.485  0.4095 -0.1570  0.5643
  123TMC2    O2 1923   2.683   3.022  10.279  0.1543  0.0232 -0.0624
  123TMC2    O5 1924   2.565   3.174  10.160 -0.1757 -0.0449 -0.6289
  123TMC2    H5 1925   2.478   3.218  10.171  0.5317  1.4968 -1.1973
  124MPD2     C 1926   1.809   2.740  10.595 -0.1098  0.5896  0.4168
  124MPD2    C1 1927   1.797   2.875  10.575 -0.5074 -0.5862  0.0238
  124MPD2    C2 1928   1.917   2.948  10.564 -0.3865 -0.2091  0.5998
  124MPD2    C3 1929   2.042   2.890  10.580 -0.4787 -0.1268  0.0352
  124MPD2    C4 1930   2.046   2.758  10.609  0.9448 -0.3408  0.7424
  124MPD2    C5 1931   1.935   2.681  10.618 -0.6237 -0.3424 -0.3836
  124MPD2     H 1932   1.914   3.055  10.542 -0.3609 -0.0696  1.2749
  124MPD2    H1 1933   2.141   2.709  10.628  0.4223 -1.7204 -0.1814
  124MPD2    H2 1934   1.720   2.680  10.609 -0.3555  0.4191 -1.8683
  124MPD2    H3 1935   1.936   2.575  10.638 -0.6205 -0.2524  0.0986
  124MPD2     N 1936   2.150   2.978  10.571 -0.8149 -0.5301  0.0129
  124MPD2    H5 1937   2.134   3.078  10.564 -0.3054 -0.4040  0.6213
  124MPD2    N1 1938   1.666   2.934  10.576  0.0008 -0.1173 -0.1480
  124MPD2    H7 1939   1.598   2.865  10.608 -1.2320 -0.2374 -3.1029
  125TMC2    C1 1940   2.800   0.238  10.197 -0.6979 -0.1487  0.0492
  125TMC2    C2 1941   2.873   0.158  10.282 -0.3224 -0.2110 -0.3802
  125TMC2    C3 1942   2.980   0.083  10.229 -0.1225 -0.5442  0.3628
  125TMC2    C4 1943   2.828   0.249  10.061 -0.7808  0.0597 -0.0225
  125TMC2    C5 1944   2.930   0.174  10.014  0.0747  0.1027  0.3225
  125TMC2    C6 1945   2.996   0.085  10.089  0.2555 -0.4451  0.5147
  125TMC2     C 1946   2.683   0.313  10.247  1.1112  0.3230  0.4698
  125TMC2     O 1947   2.658   0.300  10.366  0.3273  0.5366  0.3976
  125TMC2     H 1948   2.852   0.137  10.386  1.1782  0.9200  0.1496
  125TMC2    H1 1949   2.764   0.314  10.002 -0.8428  0.8117  0.8723
  125TMC2    H2 1950   3.045   0.004  10.036 -1.2781 -1.4536  0.6533
  125TMC2    C7 1951   2.932   0.155   9.871  0.3482  0.1905  0.1718
  125TMC2    C8 1952   3.040   4.714  10.302  0.2757  0.7798 -0.7705
  125TMC2    O1 1953   2.824   0.150   9.813  0.0543 -0.4023  0.0142
  125TMC2    O2 1954   3.076   4.615  10.238  0.4445 -0.2670 -0.2523
  125TMC2    O5 1955   3.102   0.014  10.412 -0.5643 -0.1219  0.1093
  125TMC2    H5 1956   3.070   0.100  10.446  1.2189  1.0807 -1.2032
  126MPD1     C 1957   2.314   0.654  10.218  0.5639  0.4059 -0.3420
  126MPD1    C1 1958   2.400   0.678  10.109 -0.2012 -0.6897 -0.5212
  126MPD1    C2 1959   2.498   0.587  10.087  0.4395 -0.2896  0.3487
  126MPD1    C3 1960   2.530   0.493  10.187 -0.3097 -0.6087 -0.2733
  126MPD1    C4 1961   2.453   0.484  10.302 -0.5561 -0.6016  0.0411
  126MPD1    C5 1962   2.344   0.564  10.316 -0.0505 -0.1435 -0.2451
  126MPD1     H 1963   2.577   0.600  10.014  1.3463 -1.0993  1.1883
  126MPD1    H1 1964   2.472   0.422  10.389 -0.4906  2.4922  2.2226
  126MPD1    H2 1965   2.227   0.715  10.239  0.0567 -0.4313 -0.0237
  126MPD1    H3 1966   2.283   0.553  10.404 -2.8268  2.6922 -1.8103
  126MPD1     N 1967   2.634   0.401  10.164 -0.4617  0.0971  0.5252
  126MPD1    H5 1968   2.674   0.420  10.073 -1.5389 -0.5194 -0.0669
  126MPD1    N1 1969   2.364   0.782  10.017  0.5904 -0.4413  0.4531
  126MPD1    H6 1970   2.430   0.816   9.948 -1.6467  2.4803 -0.2465
  126MPD1    H7 1971   2.305   0.857  10.052  0.7430  0.1687 -0.6235
  127TMC2    C1 1972   3.995   3.982  10.502 -0.2885 -0.1125  0.4234
  127TMC2    C2 1973   4.054   3.875  10.561  0.1634 -0.2763  0.0829
  127TMC2    C3 1974   3.971   3.776  10.617  0.3886 -0.5872 -0.6592
  127TMC2    C4 1975   3.864   3.986  10.478 -0.3549 -0.2729  0.2444
  127TMC2    C5 1976   3.786   3.882  10.529 -0.8425 -0.4819 -0.1471
  127TMC2    C6 1977   3.840   3.775  10.596 -0.2266 -0.1013  0.0566
  127TMC2     C 1978   4.074   4.065  10.423 -0.7402 -0.0683 -0.7133
  127TMC2     O 1979   4.014   4.160  10.375 -0.1008  0.3848 -0.7066
  127TMC2     H 1980   4.156   3.892  10.596  0.2714 -0.8926  0.0643
  127TMC2    H1 1981   3.816   4.068  10.425  2.0578  0.7599 -0.3198
  127TMC2    H2 1982   3.768   3.696  10.617 -1.0668  0.3574 -1.1272
  127TMC2    C7 1983   3.640   3.908  10.527  0.0812  0.1062  0.4218
  127TMC2    C8 1984   4.038   3.673  10.681 -0.2153  0.7530  0.4175
  127TMC2    O1 1985   3.600   4.021  10.508 -0.1136 -0.7435 -0.2886
  127TMC2    O2 1986   4.149   3.641  10.637  0.1125 -0.2187  0.1448
  127TMC2    O5 1987   3.953   3.589  10.751 -0.6851  0.2547 -0.1055
  127TMC2    H5 1988   3.869   3.633  10.778 -2.0369 -1.7067 -1.1355
  128MPD2     C 1989   4.425   4.042  10.289 -0.6413 -0.4715 -0.0194
  128MPD2    C1 1990   4.298   4.094  10.329  0.1739 -0.5072  0.0534
  128MPD2    C2 1991   4.281   4.228  10.306  0.3134  0.0671 -0.1562
  128MPD2    C3 1992   4.379   4.312  10.248 -0.7291 -0.6204 -0.1975
  128MPD2    C4 1993   4.499   4.255  10.209 -0.2960  0.6075 -0.7688
  128MPD2    C5 1994   4.523   4.127  10.236 -0.6721 -0.4635  0.0847
  128MPD2     H 1995   4.192   4.282  10.337  0.8245 -0.4129  2.1353
  128MPD2    H1 1996   4.582   4.306  10.160  0.6054 -0.2562 -0.1498
  128MPD2    H2 1997   4.446   3.937  10.300  0.9258 -0.1757 -0.1738
  128MPD2    H3 1998   4.615   4.076  10.209 -0.4909  0.2347 -0.6391
  128MPD2     N 1999   4.348   4.445  10.237  0.8579  0.2750  0.6624
  128MPD2    H5 2000   4.272   4.467  10.300  0.0868 -0.7668  0.0800
  128MPD2    N1 2001   4.200   4.017  10.396 -0.1415 -0.2083 -0.4380
  128MPD2    H7 2002   4.231   3.922  10.413 -1.2834 -0.4359  0.3422
  129TMC2    C1 2003   2.797   0.373   1.002 -0.1916 -0.4535  0.2228
  129TMC2    C2 2004   2.780   0.489   1.068 -0.2027  0.6411 -0.2284
  129TMC2    C3 2005   2.667   0.496   1.138 -0.7015  0.4951 -0.1637
  129TMC2    C4 2006   2.733   0.253   1.023  0.6423  0.1300  0.0078
  129TMC2    C5 2007   2.618   0.265   1.102  0.1382 -0.5357  1.0874
  129TMC2    C6 2008   2.583   0.387   1.159  0.5250  0.4235 -0.2440
  129TMC2     C 2009   2.886   0.369   0.891 -0.0906  0.4851 -0.0301
  129TMC2     O 2010   2.874   0.272   0.815  0.1994 -0.1666 -0.5149
  129TMC2     H 2011   2.836   0.576   1.036 -1.3922  2.0663  1.5799
  129TMC2    H1 2012   2.768   0.166   0.970 -0.1877 -0.7706  0.9511
  129TMC2    H2 2013   2.503   0.387   1.232 -2.7227  0.7099 -3.8126
  129TMC2    C7 2014   2.537   0.145   1.101  0.5223  0.2680  0.9511
  129TMC2    C8 2015   2.671   0.584   1.258  0.3658 -0.5078  1.0177
  129TMC2    O1 2016   2.418   0.166   1.132  1.0816 -0.3446 -0.5438
  129TMC2    O2 2017   2.578   0.606   1.336  0.2972 -0.2130 -0.1985
  129TMC2    O5 2018   2.797   0.624   1.273 -0.0238 -0.5422  0.5405
  129TMC2    H5 2019   2.856   0.595   1.200  0.0742  1.5082 -0.1919
  130MPD2     C 2020   3.140   0.386   0.725  0.2706  0.1022  0.0734
  130MPD2    C1 2021   3.103   0.481   0.814 -0.0404 -0.2125  0.3974
  130MPD2    C2 2022   3.195   0.583   0.836 -0.0629  0.0739  0.0374
  130MPD2    C3 2023   3.320   0.581   0.782 -0.4343  0.3347  0.0308
  130MPD2    C4 2024   3.354   0.483   0.696  0.2000 -0.0457  0.4536
  130MPD2    C5 2025   3.259   0.397   0.656 -0.1052 -0.6318  0.7108
  130MPD2     H 2026   3.168   0.661   0.906 -0.0937  1.1304 -1.1499
  130MPD2    H1 2027   3.441   0.485   0.630  1.3969 -1.2671  2.0141
  130MPD2    H2 2028   3.085   0.296   0.697  0.9748 -0.2469 -0.1907
  130MPD2    H3 2029   3.277   0.324   0.577  0.1415  0.9462 -0.6885
  130MPD2     N 2030   3.411   0.689   0.810  0.1338 -0.6731 -0.3027
  130MPD2    H5 2031   3.375   0.764   0.868  0.2526 -0.3511 -0.6378
  130MPD2    N1 2032   2.981   0.472   0.887  0.3885 -0.1879  0.2210
  130MPD2    H7 2033   2.964   0.555   0.942  0.5360  1.8751 -2.8594
  131TMC2    C1 2034   1.676   4.033  10.454 -0.3150  0.1454 -0.3575
  131TMC2    C2 2035   1.809   4.053  10.464  0.5901  0.1904  0.3816
  131TMC2    C3 2036   1.845   4.179  10.487 -0.0885 -0.3778 -0.1584
  131TMC2    C4 2037   1.581   4.134  10.471 -0.3693 -0.5108 -0.2276
  131TMC2    C5 2038   1.634   4.257  10.490  0.8953 -0.1740 -0.5760
  131TMC2    C6 2039   1.759   4.281  10.509 -0.1524 -0.5035 -1.1246
  131TMC2     C 2040   1.621   3.899  10.415  0.1982  0.6854 -0.7149
  131TMC2     O 2041   1.682   3.798  10.447 -0.2176 -0.0340 -0.1878
  131TMC2     H 2042   1.873   3.967  10.448 -0.1239 -0.3430  0.3852
  131TMC2    H1 2043   1.475   4.116  10.475 -0.7776  1.9563  0.3796
  131TMC2    H2 2044   1.801   4.378  10.533 -1.2908 -0.7013  1.6280
  131TMC2    C7 2045   1.537   4.356  10.514  0.0054  0.2040  1.0367
  131TMC2    C8 2046   1.982   4.191  10.532  0.0504 -0.3150 -0.1599
  131TMC2    O1 2047   1.427   4.333  10.559 -0.1651  0.3598  0.5954
  131TMC2    O2 2048   2.046   4.090  10.568 -0.4313 -0.6934  0.1667
  131TMC2    O5 2049   2.044   4.298  10.478 -0.0322 -0.5405  0.5095
  131TMC2    H5 2050   1.973   4.362  10.455  0.1008  0.6545  3.3845
  132MPD2     C 2051   1.298   3.818  10.263  0.5925  0.4511 -0.3839
  132MPD2    C1 2052   1.414   3.793  10.339  0.3091  1.0496  0.8616
  132MPD2    C2 2053   1.436   3.665  10.391 -0.3356 -0.1152  0.0179
  132MPD2    C3 2054   1.339   3.572  10.358 -0.5614 -0.2266  0.1298
  132MPD2    C4 2055   1.240   3.596  10.262  0.0410 -0.5298  0.3359
  132MPD2    C5 2056   1.209   3.723  10.224  0.0155  0.2885  0.6219
  132MPD2     H 2057   1.519   3.644  10.457  0.7474  2.3930 -0.5123
  132MPD2    H1 2058   1.153   3.534  10.246  0.2583 -0.2542 -1.8743
  132MPD2    H2 2059   1.266   3.916  10.229 -0.4232 -0.5403 -2.2966
  132MPD2    H3 2060   1.120   3.745  10.166 -1.5717 -0.7225  2.6919
  132MPD2     N 2061   1.352   3.441  10.415  0.5006  0.7079 -0.2215
  132MPD2    H5 2062   1.429   3.428  10.480  1.0425 -0.3179 -1.0729
  132MPD2    N1 2063   1.495   3.906  10.365 -0.3699 -0.6969 -0.1377
  132MPD2    H7 2064   1.463   3.995  10.328  1.4306  0.8279  2.0007
  133TMC2    C1 2065   4.529   1.263   9.762 -0.3862  0.5854 -0.8507
  133TMC2    C2 2066   4.459   1.359   9.692  0.0508 -0.2018 -0.3830
  133TMC2    C3 2067   4.470   1.491   9.727 -0.1451 -1.4626 -0.0517
  133TMC2    C4 2068   4.602   1.302   9.864 -0.2206  0.2540 -0.1370
  133TMC2    C5 2069   4.617   1.433   9.890 -0.2981 -0.2125  0.5048
  133TMC2    C6 2070   4.545   1.529   9.835 -0.3846 -0.3819 -0.0600
  133TMC2     C 2071   4.495   1.131   9.760 -0.1462  0.4506 -0.0111
  133TMC2     O 2072   4.514   1.059   9.859  0.3073  0.0033 -0.5686
  133TMC2     H 2073   4.402   1.332   9.604 -1.8750  2.0399  0.1683
  133TMC2    H1 2074   4.663   1.230   9.918 -1.0769 -0.0029  0.4806
  133TMC2    H2 2075   4.572   1.632   9.856  1.3455 -0.9359  0.4985
  133TMC2    C7 2076   4.728   1.474   9.975  0.4774 -0.4355  0.4892
  133TMC2    C8 2077   4.418   1.594   9.642 -0.5937 -0.2650 -0.4073
  133TMC2    O1 2078   0.032   1.584   9.945  0.6331  0.1495  0.4440
  133TMC2    O2 2079   4.473   1.706   9.648 -0.5654 -0.3858 -0.7009
  133TMC2    O5 2080   4.288   1.568   9.614 -0.5795 -0.3066 -0.9439
  133TMC2    H5 2081   4.249   1.479   9.608 -0.9119 -0.3179  1.4253
  134MPD2     C 2082   4.348   0.951   9.474 -0.0463 -0.0135  0.1241
  134MPD2    C1 2083   4.422   0.963   9.590 -0.9079  0.2201  0.1439
  134MPD2    C2 2084   4.479   0.842   9.641 -0.2358 -0.8786  0.0195
  134MPD2    C3 2085   4.460   0.719   9.573  0.4662  0.1337  0.0114
  134MPD2    C4 2086   4.387   0.716   9.458  0.3940 -0.0312 -0.0450
  134MPD2    C5 2087   4.329   0.830   9.407  0.5078  0.0108 -0.1521
  134MPD2     H 2088   4.532   0.844   9.736  2.8635 -1.0527 -1.6972
  134MPD2    H1 2089   4.394   0.620   9.408 -1.3796 -1.0120  1.6154
  134MPD2    H2 2090   4.313   1.042   9.427  1.7674  0.4934 -0.2769
  134MPD2    H3 2091   4.284   0.814   9.310 -3.5463 -0.6223  1.8575
  134MPD2     N 2092   4.533   0.604   9.613  0.4820 -0.1635  0.1601
  134MPD2    H5 2093   4.522   0.515   9.565  1.6202 -0.4722  0.4685
  134MPD2    N1 2094   4.448   1.096   9.635 -0.2005 -0.8074  0.0418
  134MPD2    H7 2095   4.445   1.164   9.561  1.2457 -0.4516  0.2990
  135TMC2    C1 2096   2.870   1.220  10.297  0.3942  0.1479 -0.5120
  135TMC2    C2 2097   2.868   1.352  10.330 -0.6302  0.6308  0.1246
  135TMC2    C3 2098   2.800   1.381  10.445 -0.3729  0.3347 -0.2529
  135TMC2    C4 2099   2.837   1.113  10.382 -0.1474 -0.2616  0.2645
  135TMC2    C5 2100   2.775   1.154  10.501 -0.4157  0.4815  0.7194
  135TMC2    C6 2101   2.755   1.285  10.531 -0.1149  0.1665  0.1906
  135TMC2     C 2102   2.961   1.198  10.184  0.7161  0.2211 -0.1230
  135TMC2     O 2103   3.024   1.294  10.139  0.4556  0.1212 -0.2748
  135TMC2     H 2104   2.905   1.431  10.265  0.0497 -0.0243 -0.2763
  135TMC2    H1 2105   2.837   1.007  10.360 -1.0056  0.4273 -3.0526
  135TMC2    H2 2106   2.717   1.318  10.627 -0.7438  2.1006 -0.7342
  135TMC2    C7 2107   2.730   1.055  10.595 -0.8431  0.2722 -0.0464
  135TMC2    C8 2108   2.778   1.517  10.487 -0.6746 -0.1234  0.1599
  135TMC2    O1 2109   2.784   0.944  10.601  0.0492  0.0903 -0.1089
  135TMC2    O2 2110   2.753   1.532  10.608 -0.1548 -0.4947  0.0289
  135TMC2    O5 2111   2.728   1.583  10.383 -0.0878  0.3218  0.0871
  135TMC2    H5 2112   2.724   1.524  10.305 -1.2740  0.1762  0.2534
  136MPD2     C 2113   3.160   1.079  10.014 -0.0419  0.4423 -1.2658
  136MPD2    C1 2114   3.038   1.013  10.037  0.9665  0.3869 -0.2777
  136MPD2    C2 2115   3.023   0.882   9.987 -0.5352 -0.2471 -0.5256
  136MPD2    C3 2116   3.124   0.831   9.899  0.2074 -0.2261 -0.1696
  136MPD2    C4 2117   3.233   0.911   9.872  0.2793  0.0004  1.0697
  136MPD2    C5 2118   3.257   1.027   9.935  0.2356  0.7576 -0.0856
  136MPD2     H 2119   2.943   0.811  10.005 -0.7988  0.7014  2.0554
  136MPD2    H1 2120   3.310   0.886   9.800 -0.7636  1.4749 -0.5594
  136MPD2    H2 2121   3.191   1.171  10.063 -0.2185  0.0347 -0.3904
  136MPD2    H3 2122   3.351   1.080   9.937  0.4391  0.3968 -0.1885
  136MPD2     N 2123   3.115   0.703   9.829  0.3324  0.6406 -0.2042
  136MPD2    H5 2124   3.170   0.702   9.744  0.1191 -0.7158 -0.3203
  136MPD2    N1 2125   2.949   1.071  10.133 -0.6016  0.1396  0.0378
  136MPD2    H7 2126   2.868   1.017  10.163  1.2902 -2.4578  0.4019
  137TMC2    C1 2127   2.540   0.052   9.716 -0.1896  0.1021  0.1541
  137TMC2    C2 2128   2.633   4.727   9.636  0.4644  0.1630  0.7933
  137TMC2    C3 2129   2.622   0.003   9.499  0.2398 -0.0557 -0.6156
  137TMC2    C4 2130   2.438   0.118   9.662 -0.5781 -0.2207 -0.3362
  137TMC2    C5 2131   2.423   0.124   9.526  0.1883 -0.5111  0.0743
  137TMC2    C6 2132   2.516   0.064   9.443 -0.5800 -1.0484 -0.3125
  137TMC2     C 2133   2.538   0.027   9.860  0.3026 -0.1085  0.3172
  137TMC2     O 2134   2.454   0.094   9.917 -0.3357  0.1808  0.6043
  137TMC2     H 2135   2.716   4.675   9.682  0.8480 -0.4684 -0.6191
  137TMC2    H1 2136   2.353   0.155   9.718 -1.9184 -2.9415 -0.5572
  137TMC2    H2 2137   2.507   0.072   9.336  2.6197  0.6345 -0.4803
  137TMC2    C7 2138   2.288   0.118   9.468 -0.6345 -0.2770  1.2692
  137TMC2    C8 2139   2.721   4.691   9.406  0.3459  0.1296  0.2547
  137TMC2    O1 2140   2.276   0.050   9.369  0.1192  0.1171  0.0077
  137TMC2    O2 2141   2.741   4.735   9.297 -0.3439  0.7089 -0.3452
  137TMC2    O5 2142   2.786   4.584   9.462 -0.7913 -0.1783  0.5792
  137TMC2    H5 2143   2.751   4.537   9.541  0.4728  0.3113  1.4396
  138MPD2     C 2144   2.713   4.520  10.066 -0.2135  0.3319  0.2765
  138MPD2    C1 2145   2.624   4.621  10.039 -0.0406  0.3769  0.0466
  138MPD2    C2 2146   2.561   4.684  10.145  1.0459  0.4433  0.0372
  138MPD2    C3 2147   2.596   4.657  10.274  0.2783 -0.1425 -0.4859
  138MPD2    C4 2148   2.692   4.560  10.297  0.3054 -0.3282 -0.0919
  138MPD2    C5 2149   2.756   4.503  10.195  0.0894 -0.5179  0.3645
  138MPD2     H 2150   2.490   0.022  10.121  0.0875 -0.4305  0.0348
  138MPD2    H1 2151   2.725   4.545  10.399 -2.4707  3.8585  1.4433
  138MPD2    H2 2152   2.772   4.478   9.985  0.9174 -0.6756  1.6286
  138MPD2    H3 2153   2.830   4.426  10.216  0.1506 -0.1914  1.2997
  138MPD2     N 2154   2.545   4.725  10.384  0.6466 -0.3739 -0.4382
  138MPD2    H5 2155   2.598   4.722  10.470  0.9162  0.3944 -0.5798
  138MPD2    N1 2156   2.610   4.663   9.904 -0.0415  1.0298 -0.6233
  138MPD2    H7 2157   2.659   4.603   9.839  0.5925 -0.0219  0.8144
  139TMC2    C1 2158   2.510   3.244  13.673 -0.3438 -0.6779 -0.3953
  139TMC2    C2 2159   2.420   3.158  13.624 -0.1695 -0.8645  0.0438
  139TMC2    C3 2160   2.286   3.191  13.631  0.0019  0.3897  0.5143
  139TMC2    C4 2161   2.476   3.371  13.716 -0.0271  0.1986  0.2250
  139TMC2    C5 2162   2.345   3.401  13.720 -0.2929  0.3654 -0.0949
  139TMC2    C6 2163   2.247   3.320  13.675 -0.0124 -0.6807 -0.5818
  139TMC2     C 2164   2.645   3.196  13.667 -0.1205  0.6295 -0.0258
  139TMC2     O 2165   2.669   3.077  13.661 -0.6017  0.5535 -0.4483
  139TMC2     H 2166   2.444   3.055  13.601 -0.5443 -1.1773  1.0511
  139TMC2    H1 2167   2.543   3.453  13.739  1.4589 -1.4000  1.5473
  139TMC2    H2 2168   2.143   3.347  13.667 -0.8869 -3.1084  2.8881
  139TMC2    C7 2169   2.309   3.528  13.776  0.0317  0.0480  0.2042
  139TMC2    C8 2170   2.179   3.102  13.590 -0.2717 -0.3050 -0.6622
  139TMC2    O1 2171   2.394   3.614  13.747 -0.0328  0.1079 -0.7569
  139TMC2    O2 2172   2.064   3.137  13.599 -0.2161 -0.8754  0.1389
  139TMC2    O5 2173   2.227   2.980  13.619 -0.4403  0.1233 -0.1113
  139TMC2    H5 2174   2.322   2.982  13.641  0.1942 -0.5674 -2.8660
  140MPD2     C 2175   2.930   3.435  13.722 -0.3967 -1.2741  0.3528
  140MPD2    C1 2176   2.876   3.309  13.697  0.3219  0.9341  0.2554
  140MPD2    C2 2177   2.965   3.202  13.705  0.6412  0.3184 -0.1298
  140MPD2    C3 2178   3.096   3.215  13.738  0.1233  0.4469  0.2412
  140MPD2    C4 2179   3.144   3.339  13.758 -0.5742  0.5474 -0.0894
  140MPD2    C5 2180   3.064   3.452  13.739 -0.1194  0.2258 -0.0869
  140MPD2     H 2181   2.921   3.106  13.680 -0.1009  0.8359 -0.7780
  140MPD2    H1 2182   3.250   3.349  13.777 -0.5019  0.8846 -0.6540
  140MPD2    H2 2183   2.874   3.527  13.712  1.6169 -0.2325 -1.4412
  140MPD2    H3 2184   3.103   3.552  13.755 -1.0049  0.5889 -0.1779
  140MPD2     N 2185   3.167   3.091  13.754 -0.0370 -0.4537 -0.2310
  140MPD2    H5 2186   3.110   3.009  13.735  0.5631 -1.1230  0.8396
  140MPD2    N1 2187   2.734   3.303  13.675  0.0112  0.7215  0.3637
  140MPD2    H7 2188   2.690   3.393  13.665  1.6720  1.5520  0.5006
  141TMC2    C1 2189   4.029   4.700  14.253 -0.0357  0.4377 -0.1433
  141TMC2    C2 2190   4.019   4.599  14.349 -1.0606  0.2315  0.2584
  141TMC2    C3 2191   4.114   4.594  14.448 -0.0405  0.5466 -0.4708
  141TMC2    C4 2192   4.131   0.053  14.251 -0.7546  0.3414  0.0593
  141TMC2    C5 2193   4.218   0.051  14.353  0.8151 -0.1235  0.0893
  141TMC2    C6 2194   4.203   4.697  14.455  0.4891  1.0191  0.1794
  141TMC2     C 2195   3.957   4.693  14.135  0.1964 -0.5742  0.1167
  141TMC2     O 2196   3.964   0.048  14.056  0.5095 -0.3444 -0.7563
  141TMC2     H 2197   3.938   4.528  14.343  0.9150 -2.1500  1.6357
  141TMC2    H1 2198   4.141   0.126  14.171  2.2042 -0.9096 -0.7041
  141TMC2    H2 2199   4.267   4.699  14.542  1.6161  1.5184 -0.6667
  141TMC2    C7 2200   4.316   0.158  14.389 -0.0413 -0.7442  0.5856
  141TMC2    C8 2201   4.134   4.486  14.541 -0.2762 -0.3299  0.7670
  141TMC2    O1 2202   4.373   0.156  14.498  0.0874 -0.3807  0.0146
  141TMC2    O2 2203   4.190   4.500  14.649 -0.0112 -0.1167  0.1889
  141TMC2    O5 2204   4.069   4.375  14.498  0.1507  0.2173  0.1105
  141TMC2    H5 2205   4.022   4.376  14.412  0.6267 -1.6849 -0.1789
  142TMC2    C1 2206   1.477   3.300  10.135  0.1598 -1.0824  0.5708
  142TMC2    C2 2207   1.424   3.391  10.043  0.2439 -0.3396 -0.2349
  142TMC2    C3 2208   1.483   3.514  10.015  0.3622  0.0024 -0.1791
  142TMC2    C4 2209   1.582   3.337  10.215  0.0631  0.6710 -0.5752
  142TMC2    C5 2210   1.628   3.467  10.199 -0.1060  0.1207 -0.1116
  142TMC2    C6 2211   1.585   3.555  10.104 -0.3500  0.0479 -0.3314
  142TMC2     C 2212   1.432   3.164  10.124 -0.6458 -0.1060  0.5840
  142TMC2     O 2213   1.317   3.146  10.088 -0.8334 -0.5070 -0.7483
  142TMC2     H 2214   1.333   3.361   9.993  0.2248  0.4108 -0.6489
  142TMC2    H1 2215   1.630   3.271  10.286  1.0866  1.7776 -0.2167
  142TMC2    H2 2216   1.622   3.657  10.103  1.2420 -0.5250  1.3627
  142TMC2    C7 2217   1.751   3.488  10.274 -0.2855  0.8547 -0.6354
  142TMC2    C8 2218   1.406   3.620   9.954 -0.2459  0.3362 -0.0409
  142TMC2    O1 2219   1.786   3.407  10.361  0.0078  0.6329 -0.0521
  142TMC2    O2 2220   1.424   3.736   9.970  0.7927  0.1218 -0.0340
  142TMC2    O5 2221   1.318   3.566   9.864 -0.4784  0.1227  0.0973
  142TMC2    H5 2222   1.334   3.471   9.847 -3.9862 -0.0195 -2.3218
  143MPD2     C 2223   1.512   2.674  10.271 -0.1807  0.2459 -0.0068
  143MPD2    C1 2224   1.390   2.733  10.240 -0.4604  0.3606  0.2436
  143MPD2    C2 2225   1.397   2.875  10.211 -1.0399  0.7795  0.2007
  143MPD2    C3 2226   1.521   2.944  10.207  0.4207  0.6390 -0.2958
  143MPD2    C4 2227   1.634   2.873  10.229 -0.0525 -0.7091  0.2959
  143MPD2    C5 2228   1.632   2.743  10.270 -0.3844 -0.4534 -0.0855
  143MPD2     H 2229   1.311   2.935  10.183 -1.4579  0.8325  1.5870
  143MPD2    H1 2230   1.729   2.925  10.223 -1.2823  1.5824  0.6473
  143MPD2    H2 2231   1.519   2.568  10.296  0.3475  0.1641 -0.5223
  143MPD2    H3 2232   1.725   2.699  10.304  0.0396  0.9278  0.5453
  143MPD2     N 2233   1.533   3.081  10.173 -0.1364  0.7133  0.4637
  143MPD2    H5 2234   1.627   3.118  10.181 -0.4651  1.2360  1.8394
  143MPD2    N1 2235   1.279   2.650  10.234  0.5714 -0.7471 -0.5558
  143MPD2    H7 2236   1.293   2.552  10.259  1.5343 -0.0866  1.4716
  144TMC2    C1 2237   0.057   1.925   0.498  0.5328  0.4700  0.0958
  144TMC2    C2 2238   0.127   1.826   0.433 -0.8884  0.3108  0.6486
  144TMC2    C3 2239   0.262   1.837   0.445 -0.2965  0.1374 -0.4930
  144TMC2    C4 2240   0.115   2.032   0.564 -0.5440 -0.0787  0.8098
  144TMC2    C5 2241   0.254   2.027   0.574  0.3756 -0.3334 -0.1753
  144TMC2    C6 2242   0.327   1.927   0.520  0.2800  0.0968  0.6958
  144TMC2     C 2243   4.656   1.921   0.477  0.8863 -0.3257  0.5256
  144TMC2     O 2244   4.611   1.853   0.386 -0.5186 -0.1546  0.1652
  144TMC2     H 2245   0.073   1.746   0.384 -1.6697  1.6935 -0.7457
  144TMC2    H1 2246   0.065   2.117   0.611  1.7173  1.3978  0.5363
  144TMC2    H2 2247   0.435   1.937   0.523 -0.0155  2.6570  1.8513
  144TMC2    C7 2248   0.320   2.099   0.681 -0.2562  0.3551  0.0834
  144TMC2    C8 2249   0.326   1.708   0.469 -0.4050  0.6209  0.4390
  144TMC2    O1 2250   0.433   2.058   0.710 -0.2982 -0.7464  0.2006
  144TMC2    O2 2251   0.251   1.615   0.482 -0.4452  0.0698  0.6113
  144TMC2    O5 2252   0.442   1.703   0.398 -0.3224 -0.8027 -0.4387
  144TMC2    H5 2253   0.468   1.790   0.362  0.8322 -0.7824  0.4875
  145MPD2     C 2254   4.188   2.078   0.578  0.2050 -0.1143 -0.0457
  145MPD2    C1 2255   4.239   2.022   0.458  0.2900  0.4315 -0.0857
  145MPD2    C2 2256   4.375   1.994   0.453  0.0926  0.4719  0.6521
  145MPD2    C3 2257   4.454   2.017   0.563  0.8745 -0.3588 -0.1227
  145MPD2    C4 2258   4.403   2.064   0.677 -0.2927  0.4705 -0.0843
  145MPD2    C5 2259   4.278   2.102   0.679 -0.7141  0.5710 -0.0916
  145MPD2     H 2260   4.411   1.955   0.358 -1.2984  0.7468  0.0080
  145MPD2    H1 2261   4.473   2.096   0.754 -2.6756 -0.2079  2.3262
  145MPD2    H2 2262   4.087   2.113   0.600  0.8642  0.9370  1.2765
  145MPD2    H3 2263   4.247   2.147   0.773 -0.1179  0.3840  0.1986
  145MPD2     N 2264   4.592   2.003   0.566  0.1977  0.1913  0.1855
  145MPD2    H5 2265   4.646   2.031   0.647 -0.1190  2.1472 -0.2700
  145MPD2    N1 2266   4.166   1.995   0.342  0.3755 -0.5386 -0.2755
  145MPD2    H7 2267   4.220   1.965   0.261 -1.8490 -0.0796 -1.9051
  146TMC2    C1 2268   0.754   1.446  12.972  0.2793 -0.0178 -0.2562
  146TMC2    C2 2269   0.672   1.552  12.962 -0.4531 -0.0957 -0.5294
  146TMC2    C3 2270   0.646   1.603  12.836 -0.2966  0.1852 -0.2230
  146TMC2    C4 2271   0.826   1.399  12.864  0.3584  0.2411 -0.2343
  146TMC2    C5 2272   0.799   1.456  12.744  0.3640 -0.1483 -0.1227
  146TMC2    C6 2273   0.714   1.557  12.730  0.6804  0.1816  0.0391
  146TMC2     C 2274   0.781   1.390  13.102  0.4038 -0.0290  0.7744
  146TMC2     O 2275   0.702   1.423  13.190 -0.5261  0.3815 -0.2045
  146TMC2     H 2276   0.633   1.603  13.050  0.6015 -2.9792  1.5925
  146TMC2    H1 2277   0.882   1.307  12.862  0.9225  0.5716  0.3141
  146TMC2    H2 2278   0.697   1.599  12.631 -0.5386  1.2028  0.6767
  146TMC2    C7 2279   0.838   1.393  12.623 -0.1257 -0.3914  0.1011
  146TMC2    C8 2280   0.557   1.708  12.808  0.3419  0.3292 -0.2158
  146TMC2    O1 2281   0.769   1.397  12.520 -0.3028  0.2893 -0.3364
  146TMC2    O2 2282   0.493   1.706  12.702 -0.5858 -0.3591  0.2533
  146TMC2    O5 2283   0.519   1.775  12.918  0.3482 -0.3320  0.6120
  146TMC2    H5 2284   0.574   1.781  12.999 -1.1984  1.2996  1.5364
  147MPD2     C 2285   1.183   1.112  12.363 -0.2349 -0.7402 -0.0254
  147MPD2    C1 2286   1.209   1.107  12.493 -0.0163 -0.4156  0.0152
  147MPD2    C2 2287   1.138   1.187  12.582  0.1566 -0.2046  0.7027
  147MPD2    C3 2288   1.036   1.269  12.538 -0.0308 -0.2110  0.2573
  147MPD2    C4 2289   1.010   1.271  12.401 -0.4294 -0.2538 -0.3966
  147MPD2    C5 2290   1.085   1.198  12.310  1.0788  0.0324  0.1707
  147MPD2     H 2291   1.155   1.184  12.689 -1.2167  0.3899  0.9512
  147MPD2    H1 2292   0.930   1.334  12.365  0.3513  1.1538  0.3622
  147MPD2    H2 2293   1.233   1.054  12.287  2.4950  1.0809  0.3776
  147MPD2    H3 2294   1.074   1.210  12.203  2.9942  2.9256  0.2864
  147MPD2     N 2295   0.963   1.343  12.636 -0.3112 -0.4047 -0.4157
  147MPD2    H5 2296   1.004   1.344  12.729 -0.0572  2.1892 -0.5435
  147MPD2    N1 2297   1.298   1.007  12.533  0.4880  0.4514 -0.3435
  147MPD2    H7 2298   1.326   0.939  12.463  2.2532  0.5378  0.2545
  148TMC2    C1 2299   1.214   4.599  10.824 -0.2901 -0.2640  0.1444
  148TMC2    C2 2300   1.313   4.694  10.834  0.7243  0.7486  0.0673
  148TMC2    C3 2301   1.437   4.648  10.851  0.1865 -0.7051 -0.3061
  148TMC2    C4 2302   1.235   4.471  10.854  0.0865 -0.2762 -0.3895
  148TMC2    C5 2303   1.363   4.429  10.874 -0.5971  0.4398 -0.2466
  148TMC2    C6 2304   1.467   4.518  10.874  0.3465 -0.2344 -0.5668
  148TMC2     C 2305   1.084   4.646  10.781  0.2069  1.0719 -0.1289
  148TMC2     O 2306   1.053   0.018  10.817  0.6993  0.4465 -0.2064
  148TMC2     H 2307   1.294   0.054  10.796 -0.0288  0.2491 -0.9015
  148TMC2    H1 2308   1.158   4.396  10.843  1.2464 -1.6492  0.8917
  148TMC2    H2 2309   1.566   4.476  10.877  0.3746  0.0917  3.0097
  148TMC2    C7 2310   1.382   4.285  10.871 -0.6474  0.0253  0.4353
  148TMC2    C8 2311   1.543   4.730  10.792  0.1181  0.7638 -0.2365
  148TMC2    O1 2312   1.276   4.228  10.869 -0.1210 -0.5622 -0.3350
  148TMC2    O2 2313   1.646   4.689  10.736 -0.4618 -0.3037 -0.4130
  148TMC2    O5 2314   1.523   0.109  10.852 -0.4320  0.0619  0.2067
  148TMC2    H5 2315   1.448   0.118  10.915  0.0841  1.3423  0.6324
  149MPD2     C 2316   0.796   4.681  10.659  0.9708 -0.7686  0.3034
  149MPD2    C1 2317   0.877   4.565  10.653  0.3260 -0.1850 -0.3500
  149MPD2    C2 2318   0.827   4.450  10.590  0.2241  0.6132 -0.1375
  149MPD2    C3 2319   0.704   4.452  10.525 -0.2564 -0.7138 -0.1235
  149MPD2    C4 2320   0.629   4.571  10.522 -0.4027 -0.2081 -0.2639
  149MPD2    C5 2321   0.674   4.677  10.593  0.0017 -0.2286  0.9368
  149MPD2     H 2322   0.866   4.350  10.603  0.6865  0.7455 -0.5276
  149MPD2    H1 2323   0.529   4.575  10.480 -1.5328 -1.1552  2.3813
  149MPD2    H2 2324   0.822   0.038  10.701  1.8907 -1.8258  2.2116
  149MPD2    H3 2325   0.605   0.020  10.591  1.8706  1.3650  2.6677
  149MPD2     N 2326   0.640   4.342  10.465 -0.1722 -0.1235  0.6073
  149MPD2    H5 2327   0.541   4.352  10.444  0.2730  1.3910 -0.7606
  149MPD2    N1 2328   1.016   4.557  10.702 -0.2498  0.3142  0.5767
  149MPD2    H7 2329   1.061   4.473  10.669 -0.0692  0.4773  0.4099
  150TMC2    C1 2330   3.212   3.404  12.350 -0.2115  1.2837 -0.0822
  150TMC2    C2 2331   3.179   3.476  12.238  0.3824  0.3569 -0.3527
  150TMC2    C3 2332   3.278   3.500  12.146  1.1589  0.3298 -0.3804
  150TMC2    C4 2333   3.338   3.355  12.368 -0.0399  0.3623  0.3373
  150TMC2    C5 2334   3.439   3.389  12.276 -0.0778  0.6710 -0.6740
  150TMC2    C6 2335   3.407   3.449  12.158 -0.1440 -0.3655 -0.6632
  150TMC2     C 2336   3.106   3.357  12.439  0.2474 -0.4355 -0.1585
  150TMC2     O 2337   3.133   3.321  12.548 -0.1594  0.0800  0.3073
  150TMC2     H 2338   3.088   3.534  12.240  0.7341  0.8959 -0.2552
  150TMC2    H1 2339   3.366   3.307  12.461  1.6173 -0.2002 -0.4579
  150TMC2    H2 2340   3.478   3.481  12.082  0.2744 -0.1710 -0.1922
  150TMC2    C7 2341   3.571   3.326  12.277  1.2486 -0.0715  0.2924
  150TMC2    C8 2342   3.259   3.613  12.055  0.2178  0.5988  0.3085
  150TMC2    O1 2343   3.629   3.333  12.170 -0.3356 -0.5630  0.5174
  150TMC2    O2 2344   3.145   3.645  12.016 -0.2186 -0.1315 -0.1872
  150TMC2    O5 2345   3.372   3.697  12.066 -0.3794 -0.4077  0.1145
  150TMC2    H5 2346   3.436   3.654  12.127 -0.4975 -0.0300  0.5084
  151MPD2     C 2347   2.600   3.317  12.537 -0.6743 -0.3205 -0.2087
  151MPD2    C1 2348   2.611   3.367  12.408 -0.3848  0.6640 -0.3877
  151MPD2    C2 2349   2.741   3.382  12.361 -0.1912 -0.0180  1.0353
  151MPD2    C3 2350   2.849   3.353  12.445  1.0575 -0.0341 -0.5814
  151MPD2    C4 2351   2.832   3.306  12.574  0.4261  0.0918 -1.0961
  151MPD2    C5 2352   2.703   3.286  12.619  0.3891 -0.2899  0.9408
  151MPD2     H 2353   2.775   3.412  12.263 -1.5026  1.5786  1.0614
  151MPD2    H1 2354   2.914   3.274  12.638  0.9868  0.7184 -1.4986
  151MPD2    H2 2355   2.502   3.302  12.581  1.3569 -1.2118  4.0027
  151MPD2    H3 2356   2.669   3.231  12.706 -0.0583  0.8842  1.5088
  151MPD2     N 2357   2.978   3.377  12.388 -0.1572 -0.0560  0.0228
  151MPD2    H5 2358   2.985   3.416  12.294  0.8721 -1.2530 -0.3921
  151MPD2    N1 2359   2.505   3.406  12.327 -0.3174  0.3579 -0.2124
  151MPD2    H7 2360   2.419   3.355  12.343 -0.1744  0.0406 -0.4534
  152TMC2    C1 2361   3.121   3.325  12.961  0.2519 -0.3431  0.3329
  152TMC2    C2 2362   3.122   3.190  12.959  0.8461  0.0323  0.4340
  152TMC2    C3 2363   3.219   3.128  12.886 -0.5810  0.1420 -0.0824
  152TMC2    C4 2364   3.225   3.402  12.908  0.8058 -0.0825 -0.2038
  152TMC2    C5 2365   3.325   3.336  12.839  0.5990  0.0944 -0.3059
  152TMC2    C6 2366   3.322   3.197  12.828 -0.1138 -0.7797  0.0507
  152TMC2     C 2367   2.984   3.387  12.958 -0.2391  0.0626 -0.6773
  152TMC2     O 2368   2.977   3.507  12.929 -0.0067 -0.0727 -0.1754
  152TMC2     H 2369   3.054   3.119  13.004 -1.1279  1.9888  0.5414
  152TMC2    H1 2370   3.223   3.509  12.923  1.5870 -0.0152 -0.6164
  152TMC2    H2 2371   3.392   3.143  12.765 -0.1572  1.5233 -1.9640
  152TMC2    C7 2372   3.422   3.401  12.759 -0.4624 -0.9077  0.0214
  152TMC2    C8 2373   3.241   2.997  12.947 -0.4832 -0.2414  0.5074
  152TMC2    O1 2374   3.481   3.324  12.684  0.2018 -0.0944  0.4496
  152TMC2    O2 2375   3.170   2.900  12.939  0.1564 -0.4693  0.9308
  152TMC2    O5 2376   3.349   3.003  13.024  0.3078  0.1184 -0.4616
  152TMC2    H5 2377   3.381   3.094  13.042 -1.8279  0.8273 -0.2793
  153MPD2     C 2378   2.654   3.222  13.009  0.5792  0.1640 -0.1966
  153MPD2    C1 2379   2.739   3.331  12.984  0.6724  0.5315 -0.0191
  153MPD2    C2 2380   2.691   3.446  12.924 -0.6854 -0.1447  0.6049
  153MPD2    C3 2381   2.555   3.446  12.893  0.1480 -0.1867 -0.2017
  153MPD2    C4 2382   2.475   3.335  12.917  0.0044  0.3634 -0.0709
  153MPD2    C5 2383   2.525   3.222  12.967  0.0192  0.4236 -0.2063
  153MPD2     H 2384   2.749   3.533  12.893 -1.2015  0.2516  0.7513
  153MPD2    H1 2385   2.374   3.334  12.878  0.1861 -0.8505 -0.5069
  153MPD2    H2 2386   2.685   3.122  13.037 -0.9760 -0.4891 -0.8306
  153MPD2    H3 2387   2.464   3.133  12.978 -0.4973  0.7267 -0.6077
  153MPD2     N 2388   2.515   3.552  12.817  0.3423  0.0562 -0.0877
  153MPD2    H5 2389   2.587   3.620  12.794  1.5498 -1.4212 -0.6732
  153MPD2    N1 2390   2.875   3.307  13.005  0.2496  0.0983 -0.2568
  153MPD2    H7 2391   2.889   3.216  13.047 -2.2802 -0.2425 -0.1973
  154TMC2    C1 2392   4.120   3.695   0.006  0.3919  0.3202 -0.4959
  154TMC2    C2 2393   4.144   3.738  17.638 -0.1553  0.2794 -0.2428
  154TMC2    C3 2394   4.151   3.640  17.535 -0.1750  0.3744  0.1976
  154TMC2    C4 2395   4.097   3.562   0.035 -0.7637 -0.4300  0.0459
  154TMC2    C5 2396   4.097   3.473  17.683  0.8035 -0.1817 -0.0209
  154TMC2    C6 2397   4.118   3.510  17.555 -0.4372 -0.1805  0.4052
  154TMC2     C 2398   4.059   3.788   0.097 -0.2474  0.3302 -0.4922
  154TMC2     O 2399   4.031   3.743   0.209  0.7414  0.1732  0.6986
  154TMC2     H 2400   4.175   3.839  17.612 -1.5364  0.4257 -1.3062
  154TMC2    H1 2401   4.081   3.536   0.139  0.7452 -0.8355  0.1885
  154TMC2    H2 2402   4.120   3.440  17.472 -2.1394  2.3545 -1.7906
  154TMC2    C7 2403   4.082   3.334  17.716 -0.1656 -0.3228 -0.2479
  154TMC2    C8 2404   4.126   3.690  17.393 -0.1188  0.3234  0.0386
  154TMC2    O1 2405   4.020   3.254  17.644 -0.3143  0.1881  0.5958
  154TMC2    O2 2406   4.101   3.808  17.377  0.0659  0.9825  0.1486
  154TMC2    O5 2407   4.189   3.605  17.305  0.0887  0.3922 -0.4338
  154TMC2    H5 2408   4.228   3.522  17.340 -0.3010  0.5410  0.3533
  155MPD2     C 2409   4.026   4.155   0.052  0.2124  0.9268  0.4826
  155MPD2    C1 2410   4.022   4.036   0.117 -0.9352  0.5601  0.0041
  155MPD2    C2 2411   3.973   4.033   0.252  0.2703  0.0587 -0.0892
  155MPD2    C3 2412   3.927   4.144   0.319  0.3523  0.2551 -0.2723
  155MPD2    C4 2413   3.922   4.264   0.242 -0.3249  0.6242  0.3545
  155MPD2    C5 2414   3.977   4.268   0.118 -0.1011 -0.3919  0.9094
  155MPD2     H 2415   3.967   3.939   0.307  0.9239  1.4612  2.3833
  155MPD2    H1 2416   3.883   4.357   0.282 -0.8571  1.6241 -2.5034
  155MPD2    H2 2417   4.050   4.165  17.705 -0.8505 -1.2419  0.0346
  155MPD2    H3 2418   3.975   4.366   0.071  0.9438 -1.8631 -2.2474
  155MPD2     N 2419   3.892   4.139   0.460 -0.4554  0.1320  0.3680
  155MPD2    H5 2420   3.905   4.048   0.504 -2.1548 -0.1237  0.3630
  155MPD2    N1 2421   4.066   3.919   0.052 -0.2189  0.3342  0.4441
  155MPD2    H7 2422   4.099   3.927  17.713  0.4403 -0.6070  0.5980
  156TMC2    C1 2423   3.162   0.745  11.453  0.0670  0.2635  0.0694
  156TMC2    C2 2424   3.082   0.651  11.398 -0.1569  0.3382  0.7978
  156TMC2    C3 2425   3.054   0.654  11.265 -0.3657  0.7286 -0.0122
  156TMC2    C4 2426   3.205   0.859  11.386  0.2143  0.1270 -0.6209
  156TMC2    C5 2427   3.173   0.859  11.250 -0.5059 -0.3386  0.0760
  156TMC2    C6 2428   3.105   0.756  11.189 -0.4951 -0.0736  0.0161
  156TMC2     C 2429   3.153   0.756  11.600  0.8361  0.6551  0.0486
  156TMC2     O 2430   3.048   0.727  11.658  0.5085  0.5151  0.4852
  156TMC2     H 2431   3.044   0.577  11.468  0.4075  1.1365  1.9570
  156TMC2    H1 2432   3.268   0.939  11.424 -0.3916  0.3705 -0.1059
  156TMC2    H2 2433   3.076   0.763  11.085  2.1603 -0.3025 -0.7476
  156TMC2    C7 2434   3.136   0.991  11.211 -0.3214 -0.2339 -0.1644
  156TMC2    C8 2435   2.951   0.568  11.210  0.1849 -0.4253 -0.2041
  156TMC2    O1 2436   3.216   1.075  11.237 -0.2945  1.0584  0.1800
  156TMC2    O2 2437   2.832   0.596  11.218 -0.3608  0.3836  0.7149
  156TMC2    O5 2438   3.006   0.519  11.091  0.2075 -0.2330 -0.0719
  156TMC2    H5 2439   3.093   0.481  11.113  0.2974 -0.2321 -0.4152
  157MPD2     C 2440   3.446   0.824  11.821  0.4238  0.1940  0.6194
  157MPD2    C1 2441   3.313   0.829  11.780  0.3933  1.1600  0.0647
  157MPD2    C2 2442   3.219   0.860  11.876 -0.1263 -0.0651 -0.5489
  157MPD2    C3 2443   3.250   0.901  12.012 -0.2623 -0.6903 -0.0810
  157MPD2    C4 2444   3.385   0.903  12.038  0.1664  0.2524  0.3557
  157MPD2    C5 2445   3.480   0.857  11.950  0.0747 -0.2505  0.7454
  157MPD2     H 2446   3.114   0.853  11.851  0.0670  1.0934 -1.7399
  157MPD2    H1 2447   3.423   0.947  12.130  1.2708  2.0016 -0.9550
  157MPD2    H2 2448   3.524   0.808  11.747 -0.6624 -0.5514 -0.3690
  157MPD2    H3 2449   3.582   0.855  11.985 -0.4778 -0.8105  2.3168
  157MPD2     N 2450   3.148   0.940  12.095  0.0388 -0.4019 -0.3585
  157MPD2    H5 2451   3.057   0.958  12.052  0.6208  2.7349 -0.2447
  157MPD2    N1 2452   3.277   0.792  11.647 -0.1248 -0.1951 -0.5826
  157MPD2    H7 2453   3.349   0.813  11.578  1.0618 -2.7897 -0.1393
  158TMC2    C1 2454   2.947   0.452  13.449 -0.2948 -0.0237  0.3148
  158TMC2    C2 2455   2.915   0.562  13.367 -0.1837 -0.1775  0.3940
  158TMC2    C3 2456   2.781   0.591  13.371  0.0399 -0.2547  0.3493
  158TMC2    C4 2457   2.848   0.381  13.522  0.6777  0.7879  0.6033
  158TMC2    C5 2458   2.714   0.401  13.494  0.5993  0.3625  0.1939
  158TMC2    C6 2459   2.684   0.514  13.420 -0.2221 -0.8141  0.5462
  158TMC2     C 2460   3.086   0.426  13.459  0.4492 -0.6504 -0.0460
  158TMC2     O 2461   3.158   0.503  13.397 -0.6538 -0.2121 -0.0301
  158TMC2     H 2462   2.990   0.619  13.312  0.0588 -1.0886 -0.2260
  158TMC2    H1 2463   2.874   0.297  13.586  3.5835 -0.0553 -1.7157
  158TMC2    H2 2464   2.581   0.540  13.399 -0.1351 -1.0342 -0.1713
  158TMC2    C7 2465   2.605   0.328  13.548  0.1391  0.4190  0.5567
  158TMC2    C8 2466   2.727   0.694  13.283  0.7682 -0.6043 -0.2583
  158TMC2    O1 2467   2.492   0.361  13.512  0.4798  0.5961  0.1824
  158TMC2    O2 2468   2.761   0.716  13.168 -0.4405 -0.2482  0.2128
  158TMC2    O5 2469   2.692   0.787  13.375 -0.7200  0.1389  0.1509
  158TMC2    H5 2470   2.683   0.746  13.464  2.9281 -0.5868  0.2098
  159MPD2     C 2471   3.472   0.297  13.762  0.1955 -0.1056  0.1783
  159MPD2    C1 2472   3.368   0.204  13.778  0.0620  0.0404  0.9017
  159MPD2    C2 2473   3.248   0.221  13.715  0.4110 -0.1740  0.4110
  159MPD2    C3 2474   3.242   0.314  13.611 -0.1729  1.0160  0.1558
  159MPD2    C4 2475   3.351   0.398  13.592 -0.8157 -0.5870 -0.1589
  159MPD2    C5 2476   3.466   0.388  13.660  0.0775  0.0038  1.0234
  159MPD2     H 2477   3.156   0.167  13.731 -0.0388  0.2754 -0.6828
  159MPD2    H1 2478   3.354   0.479  13.520  2.1585  1.8318  2.6989
  159MPD2    H2 2479   3.563   0.291  13.820  0.2747  0.0906  0.0712
  159MPD2    H3 2480   3.545   0.456  13.632  0.0196 -0.5301 -0.4619
  159MPD2     N 2481   3.121   0.333  13.550 -0.0466  0.1786 -0.4128
  159MPD2    H5 2482   3.048   0.272  13.587  1.1553  1.2828  3.8289
  159MPD2    N1 2483   3.390   0.102  13.879  0.2779  0.0524 -0.1155
  159MPD2    H7 2484   3.480   0.092  13.923 -0.0091  2.2447  0.9677
  160TMC2    C1 2485   3.344   2.960   1.416 -0.1794  0.2066  0.4701
  160TMC2    C2 2486   3.327   2.856   1.506  0.4559  0.0268 -0.5517
  160TMC2    C3 2487   3.368   2.729   1.470 -0.1308 -0.2541 -0.0091
  160TMC2    C4 2488   3.408   2.947   1.300 -0.4226 -0.0027  0.0035
  160TMC2    C5 2489   3.441   2.821   1.266 -0.0250  0.2517  0.1581
  160TMC2    C6 2490   3.411   2.712   1.341 -0.0494 -0.1438 -0.5948
  160TMC2     C 2491   3.312   3.093   1.456  0.1336  0.1083 -0.5691
  160TMC2     O 2492   3.329   3.106   1.576 -0.0457 -0.1666 -0.4310
  160TMC2     H 2493   3.287   2.883   1.603 -0.6449 -2.0824 -0.4129
  160TMC2    H1 2494   3.422   3.036   1.241 -1.9435 -0.4423 -1.0198
  160TMC2    H2 2495   3.446   2.616   1.305  0.4137 -0.0775 -0.3223
  160TMC2    C7 2496   3.523   2.798   1.145  1.0553  0.1805 -0.2303
  160TMC2    C8 2497   3.335   2.609   1.549  0.0075  0.4594  0.5443
  160TMC2    O1 2498   3.515   2.685   1.093 -0.5092 -0.0213 -0.3411
  160TMC2    O2 2499   3.318   2.496   1.499  0.4170  0.2965  0.0958
  160TMC2    O5 2500   3.305   2.645   1.679  0.4389 -0.1660  0.4057
  160TMC2    H5 2501   3.344   2.729   1.713  2.8436 -0.8347 -0.6927
  161MPD2     C 2502   3.209   3.372   1.508 -0.0870  0.5054 -0.3059
  161MPD2    C1 2503   3.205   3.308   1.384 -0.2271  0.1966 -0.0370
  161MPD2    C2 2504   3.138   3.372   1.275  0.5453 -0.4418  0.5642
  161MPD2    C3 2505   3.082   3.503   1.290  0.4482 -0.6320 -0.9058
  161MPD2    C4 2506   3.086   3.557   1.414 -0.5921 -0.2137  0.3127
  161MPD2    C5 2507   3.144   3.494   1.522 -0.1965  0.3807 -0.1319
  161MPD2     H 2508   3.140   3.318   1.182 -0.7883 -1.1400  0.9354
  161MPD2    H1 2509   3.057   3.661   1.419 -0.4165 -0.0868 -1.3922
  161MPD2    H2 2510   3.254   3.322   1.594 -1.9853  0.4217  0.6338
  161MPD2    H3 2511   3.141   3.554   1.612 -1.0919 -0.3298  0.3207
  161MPD2     N 2512   3.001   3.566   1.194  0.5909  0.6345 -0.0634
  161MPD2    H5 2513   2.957   3.652   1.225  1.6740  1.5195 -1.0115
  161MPD2    N1 2514   3.265   3.183   1.359 -0.0927 -0.2358 -0.1814
  161MPD2    H7 2515   3.255   3.150   1.263  0.2076  1.1655 -0.6966
  162TMC2    C1 2516   1.194   0.406   0.943  0.2388 -0.3545  0.1407
  162TMC2    C2 2517   1.155   0.534   0.908 -0.0207 -0.1934 -0.5055
  162TMC2    C3 2518   1.214   0.632   0.978  0.0918  0.2952 -0.0372
  162TMC2    C4 2519   1.286   0.382   1.040  0.5403  0.3488 -0.9243
  162TMC2    C5 2520   1.337   0.490   1.112  0.0714 -0.1688  0.4407
  162TMC2    C6 2521   1.291   0.615   1.087 -0.3473 -0.5073  0.5842
  162TMC2     C 2522   1.153   0.299   0.847 -0.4628  0.0560  0.0774
  162TMC2     O 2523   1.094   0.332   0.746 -0.3186 -0.6168  1.0858
  162TMC2     H 2524   1.074   0.562   0.842  0.9907 -1.4672 -2.2794
  162TMC2    H1 2525   1.313   0.280   1.062  0.0971  0.2064 -1.0486
  162TMC2    H2 2526   1.332   0.709   1.124 -0.5578  0.5179 -1.8091
  162TMC2    C7 2527   1.462   0.472   1.189  0.0254  0.3853 -0.2966
  162TMC2    C8 2528   1.203   0.765   0.918  0.2923  0.0846  0.0366
  162TMC2    O1 2529   1.490   0.561   1.275 -0.6925 -0.1374  0.0147
  162TMC2    O2 2530   1.106   0.785   0.850  0.1015 -0.2293  0.4856
  162TMC2    O5 2531   1.324   0.805   0.881 -0.3146 -0.0173  0.1116
  162TMC2    H5 2532   1.392   0.769   0.941  0.7654  1.1494 -0.4144
  163MPD2     C 2533   1.187   4.527   0.717  0.6541 -0.4042  0.6263
  163MPD2    C1 2534   1.164   4.638   0.630  0.5610  0.5981  0.8576
  163MPD2    C2 2535   1.152   0.023   0.694  0.1028 -0.4516  0.9590
  163MPD2    C3 2536   1.166   0.044   0.829  0.0222  0.9252  0.3284
  163MPD2    C4 2537   1.202   4.679   0.903 -1.2106  0.2389  0.0902
  163MPD2    C5 2538   1.200   4.552   0.854  0.4406  0.6186 -0.8361
  163MPD2     H 2539   1.116   0.110   0.641 -1.6109 -3.2490 -2.4983
  163MPD2    H1 2540   1.233   4.683   1.007  0.4727  1.5158 -0.4674
  163MPD2    H2 2541   1.193   4.427   0.677  1.0944  0.0192 -0.3605
  163MPD2    H3 2542   1.212   4.471   0.925  0.5548  0.1635 -1.3796
  163MPD2     N 2543   1.173   0.172   0.894  0.1609  0.1560 -0.0523
  163MPD2    H5 2544   1.196   0.175   0.993 -1.2910 -0.3789  0.3118
  163MPD2    N1 2545   1.159   4.616   0.493  0.0295 -0.2793  0.8023
  163MPD2    H7 2546   1.162   4.518   0.465  2.5846 -0.0205  0.1094
  164TMC2    C1 2547   1.799   4.170  11.216  0.1119  0.2027 -0.4273
  164TMC2    C2 2548   1.854   4.188  11.088 -0.5449  0.5472 -0.4202
  164TMC2    C3 2549   1.847   4.311  11.032  0.5680 -0.0811 -0.1709
  164TMC2    C4 2550   1.758   4.278  11.289 -0.4611 -0.4771 -0.0015
  164TMC2    C5 2551   1.743   4.398  11.223 -0.8572  0.6960  0.3692
  164TMC2    C6 2552   1.776   4.415  11.089  0.9637 -0.1841 -0.1034
  164TMC2     C 2553   1.727   4.045  11.238 -0.1774 -0.4705 -0.6069
  164TMC2     O 2554   1.654   4.042  11.344  0.4425 -0.4226 -0.8519
  164TMC2     H 2555   1.873   4.100  11.026 -0.1170 -0.5584  1.2841
  164TMC2    H1 2556   1.704   4.259  11.381 -1.1089 -1.1764 -0.5278
  164TMC2    H2 2557   1.781   4.510  11.036 -0.2836 -0.2786 -0.3990
  164TMC2    C7 2558   1.643   4.491  11.269 -0.3728 -0.5475  0.6048
  164TMC2    C8 2559   1.865   4.329  10.887  0.7007  0.3804 -0.2232
  164TMC2    O1 2560   1.586   4.554  11.186  0.1615 -0.1723  0.0176
  164TMC2    O2 2561   1.772   4.365  10.821 -0.1203 -0.7323  0.1907
  164TMC2    O5 2562   1.969   4.240  10.851 -0.1549 -1.1786 -0.5857
  164TMC2    H5 2563   2.044   4.254  10.912 -2.5218  1.3379  1.7520
  165TMC2    C1 2564   4.069   1.870   1.733  0.3217  0.5733  0.3974
  165TMC2    C2 2565   4.153   1.943   1.806  0.5577  0.2326 -0.8191
  165TMC2    C3 2566   4.162   2.076   1.766 -0.1873 -0.6399  0.3173
  165TMC2    C4 2567   4.010   1.907   1.615 -0.2844 -0.3379 -0.1558
  165TMC2    C5 2568   4.044   2.033   1.573 -0.0697  0.2273  0.1025
  165TMC2    C6 2569   4.103   2.128   1.657 -0.2750 -0.1873  0.7457
  165TMC2     C 2570   4.051   1.738   1.786  0.1615  0.4186  0.0947
  165TMC2     O 2571   4.134   1.685   1.858 -0.1496 -0.0001 -0.6270
  165TMC2     H 2572   4.191   1.912   1.903  0.6722  0.0694 -0.9171
  165TMC2    H1 2573   3.961   1.841   1.544 -0.4617  1.3818 -1.6416
  165TMC2    H2 2574   4.126   2.228   1.622  1.9274 -0.2006  2.1814
  165TMC2    C7 2575   3.972   2.091   1.455  0.7154 -0.2646  0.6836
  165TMC2    C8 2576   4.206   2.162   1.868  0.7114  0.6795 -0.1547
  165TMC2    O1 2577   3.939   2.207   1.477 -0.6843  0.4324  0.1707
  165TMC2    O2 2578   4.253   2.123   1.971  0.3315  0.4828 -0.7149
  165TMC2    O5 2579   4.153   2.284   1.853  0.0955  0.3424 -0.0729
  165TMC2    H5 2580   4.108   2.297   1.766 -1.1029 -1.4881  0.2825
  166MPD2     C 2581   3.738   1.341   1.846 -0.1432 -0.0928  0.4689
  166MPD2    C1 2582   3.872   1.351   1.850  0.0905 -0.2964  0.1415
  166MPD2    C2 2583   3.937   1.471   1.833 -0.6748 -0.1255  0.6965
  166MPD2    C3 2584   3.862   1.578   1.800  0.4312  0.0369 -0.3277
  166MPD2    C4 2585   3.728   1.564   1.781  0.0560  0.4867 -0.1611
  166MPD2    C5 2586   3.661   1.441   1.801 -0.5168 -0.4896 -0.3316
  166MPD2     H 2587   4.043   1.484   1.852 -0.6726  0.4182  0.3143
  166MPD2    H1 2588   3.662   1.647   1.757 -2.1334 -1.0440  0.5089
  166MPD2    H2 2589   3.684   1.247   1.850 -0.4561  0.1613  2.2509
  166MPD2    H3 2590   3.556   1.424   1.776 -1.1240 -0.0398  1.9711
  166MPD2     N 2591   3.919   1.701   1.758  0.2481  0.1316  0.1648
  166MPD2    H5 2592   3.855   1.763   1.708 -0.1322 -1.2104 -1.0257
  166MPD2    N1 2593   3.945   1.233   1.864  0.2384 -0.0592  0.4498
  166MPD2    H7 2594   3.895   1.145   1.860 -1.8184  1.0646  1.3676
  167TMC2    C1 2595   2.095   4.484  12.699 -0.0838  0.5728 -0.4946
  167TMC2    C2 2596   2.198   4.533  12.775  0.0779  0.4774 -0.3736
  167TMC2    C3 2597   2.287   4.442  12.830 -0.9656  0.4074 -0.4026
  167TMC2    C4 2598   2.078   4.348  12.683  0.2193 -0.4857 -1.0254
  167TMC2    C5 2599   2.174   4.261  12.728 -0.4383  0.0983 -0.4785
  167TMC2    C6 2600   2.284   4.307  12.808 -0.1106  0.0153  0.2034
  167TMC2     C 2601   1.969   4.562  12.706 -0.5751  0.4391  0.4399
  167TMC2     O 2602   1.978   4.678  12.675 -0.4440  0.2894  0.7472
  167TMC2     H 2603   2.211   4.639  12.793 -0.8312  0.2971  1.3872
  167TMC2    H1 2604   1.987   4.302  12.646  1.2239 -2.4156 -1.1049
  167TMC2    H2 2605   2.348   4.239  12.864 -0.5797 -2.2922 -2.0672
  167TMC2    C7 2606   2.157   4.114  12.719 -0.3743 -0.6808  0.2215
  167TMC2    C8 2607   2.358   4.480  12.954 -0.2810  0.1823 -0.7236
  167TMC2    O1 2608   2.228   4.048  12.791 -0.1730 -0.0086  0.6590
  167TMC2    O2 2609   2.311   4.491  13.066 -0.4288 -0.4998  0.2117
  167TMC2    O5 2610   2.480   4.433  12.926  0.1262 -0.0401 -0.3939
  167TMC2    H5 2611   2.506   4.429  12.832  1.3224  1.3401 -0.1245
  168MPD2     C 2612   1.693   4.683  12.781  0.2845  0.5862 -0.4060
  168MPD2    C1 2613   1.750   4.569  12.843  0.6309 -0.2069 -0.5153
  168MPD2    C2 2614   1.687   4.510  12.948 -0.0249 -0.5584  0.0113
  168MPD2    C3 2615   1.574   4.575  12.998  0.7953  0.5076  0.0846
  168MPD2    C4 2616   1.522   4.686  12.937 -0.7927 -0.3767 -0.3429
  168MPD2    C5 2617   1.579   4.734  12.824  0.4009 -0.5476  0.4518
  168MPD2     H 2618   1.724   4.417  12.991 -3.2684 -0.7402  2.4189
  168MPD2    H1 2619   1.428   4.727  12.974  0.4560  2.0260  0.0893
  168MPD2    H2 2620   1.734   0.004  12.701  1.0791  0.7598  0.1345
  168MPD2    H3 2621   1.534   0.071  12.763  0.2261  0.8386  2.3444
  168MPD2     N 2622   1.498   4.517  13.102  0.2065  0.7337  0.5334
  168MPD2    H5 2623   1.412   4.569  13.115 -0.3286  0.5839 -2.4244
  168MPD2    N1 2624   1.875   4.512  12.797 -0.4360  0.1563 -0.3757
  168MPD2    H7 2625   1.897   4.422  12.838  1.9703  1.2675  0.7836
  169MPD1     C 2626   2.837   4.181   9.398  0.3178  0.0608 -0.5711
  169MPD1    C1 2627   2.767   4.120   9.495  0.9938 -0.1693 -0.3215
  169MPD1    C2 2628   2.829   4.076   9.615  0.2995  0.0720  0.2642
  169MPD1    C3 2629   2.973   4.069   9.617  0.3106  0.7257  0.2612
  169MPD1    C4 2630   3.044   4.131   9.515 -0.4273  0.4340 -0.6230
  169MPD1    C5 2631   2.974   4.188   9.410 -0.7464 -0.2081  0.6659
  169MPD1     H 2632   2.766   4.036   9.693  1.0292  2.4435  2.0722
  169MPD1    H1 2633   3.152   4.125   9.509 -0.4649 -0.9761  0.0807
  169MPD1    H2 2634   2.794   4.228   9.310  1.3012 -0.9346 -1.5828
  169MPD1    H3 2635   3.038   4.228   9.333 -1.5797 -2.1130 -1.0355
  169MPD1     N 2636   3.034   4.014   9.733 -0.1508 -0.7543  0.5847
  169MPD1    H5 2637   2.971   3.974   9.802  0.9826 -0.3737  1.8491
  169MPD1    N1 2638   2.630   4.138   9.497 -0.0160 -0.6133 -0.2079
  169MPD1    H6 2639   2.579   4.057   9.534 -0.1874  0.1655  1.2515
  169MPD1    H7 2640   2.586   4.158   9.408  0.8903  0.3061 -0.4512
  170MPD1     C 2641   2.517   2.029  13.530  0.2827 -0.3542 -0.0022
  170MPD1    C1 2642   2.404   2.060  13.454 -0.6496  0.1190 -0.1122
  170MPD1    C2 2643   2.296   2.113  13.522 -0.8565  0.0202  0.3070
  170MPD1    C3 2644   2.305   2.144  13.661  0.9359 -0.1281 -0.1895
  170MPD1    C4 2645   2.427   2.120  13.725  0.7937  0.2081 -1.0423
  170MPD1    C5 2646   2.532   2.067  13.657 -0.4077 -0.7287  1.0405
  170MPD1     H 2647   2.214   2.147  13.459 -1.7424  0.6717  1.8100
  170MPD1    H1 2648   2.457   2.144  13.826 -2.4629  0.8729 -0.2219
  170MPD1    H2 2649   2.601   1.993  13.473  0.9348  0.2111  0.5968
  170MPD1    H3 2650   2.623   2.048  13.714  0.4437 -1.8356 -0.6528
  170MPD1     N 2651   2.192   2.201  13.732 -0.0922  0.2270 -0.3504
  170MPD1    H5 2652   2.110   2.219  13.675 -0.3952  0.1303  0.0558
  170MPD1    N1 2653   2.387   2.014  13.326 -0.5611 -0.6243 -0.1854
  170MPD1    H6 2654   2.474   2.018  13.275 -1.3348 -1.9623 -1.5852
  170MPD1    H7 2655   2.315   2.066  13.275  1.0790  0.5995 -1.2187
  171MPD1     C 2656   0.623   3.067  16.137  0.6762  0.0158  0.4635
  171MPD1    C1 2657   0.554   2.962  16.078 -0.1859 -0.1864  0.3906
  171MPD1    C2 2658   0.592   2.833  16.107  0.1426  0.5261  0.7415
  171MPD1    C3 2659   0.711   2.812  16.172 -0.0273  0.1855  0.2456
  171MPD1    C4 2660   0.782   2.915  16.225  0.0064 -1.4128  0.6237
  171MPD1    C5 2661   0.732   3.046  16.219 -0.7113 -0.0630 -0.3643
  171MPD1     H 2662   0.539   2.754  16.055  2.3244  1.1860 -2.5138
  171MPD1    H1 2663   0.874   2.894  16.279 -0.0823  0.2439  1.4147
  171MPD1    H2 2664   0.594   3.171  16.124  0.9998 -0.1949 -1.9444
  171MPD1    H3 2665   0.794   3.129  16.251 -1.1572 -0.7680  2.2921
  171MPD1     N 2666   0.750   2.689  16.217  0.1708  0.1799  0.3774
  171MPD1    H5 2667   0.837   2.695  16.268 -0.1653 -0.8303  1.0698
  171MPD1    N1 2668   0.447   2.985  15.997  0.3963 -0.4128  0.5414
  171MPD1    H6 2669   0.440   2.922  15.917  0.0380 -0.6959  0.7913
  171MPD1    H7 2670   0.418   3.081  15.980 -0.2665 -0.9178 -1.1227
  172MPD1     C 2671   4.524   2.143   0.096  0.1118  0.9080 -0.7702
  172MPD1    C1 2672   4.641   2.116   0.167 -0.4510  0.0540  0.4605
  172MPD1    C2 2673   4.671   2.208   0.261 -0.0173 -0.1248  0.0577
  172MPD1    C3 2674   4.590   2.318   0.292 -0.3537 -0.6185 -0.5546
  172MPD1    C4 2675   4.464   2.331   0.233  0.6300 -0.5207 -0.2223
  172MPD1    C5 2676   4.434   2.242   0.128 -0.4799  0.0509  0.1347
  172MPD1     H 2677   0.032   2.208   0.299 -0.0401 -1.3171  0.1183
  172MPD1    H1 2678   4.400   2.417   0.245  0.1639 -0.8188 -0.5566
  172MPD1    H2 2679   4.493   2.085   0.009  3.0562 -0.2246 -1.0929
  172MPD1    H3 2680   4.355   2.270   0.059  1.7425  1.7988 -1.6574
  172MPD1     N 2681   4.627   2.416   0.388  0.3905 -0.1151 -0.0983
  172MPD1    H5 2682   4.564   2.495   0.396  1.8151  0.9777  0.2749
  172MPD1    N1 2683   4.733   2.029   0.108  0.3698 -0.4514  0.0225
  172MPD1    H6 2684   0.044   1.992   0.187  0.3028 -2.1253 -0.7179
  172MPD1    H7 2685   4.676   1.949   0.082 -0.4171  1.8417 -5.4518
  173MPD1     C 2686   1.048   1.740  13.969  0.2340  0.2316 -0.6252
  173MPD1    C1 2687   1.068   1.864  13.914 -0.3994  0.0558  0.1429
  173MPD1    C2 2688   1.038   1.962  13.998 -0.0938  0.0597  0.5544
  173MPD1    C3 2689   0.989   1.954  14.132 -0.3528 -0.3025 -0.2012
  173MPD1    C4 2690   0.973   1.828  14.178 -0.2986  0.4222  0.4139
  173MPD1    C5 2691   1.003   1.723  14.097  0.0044 -0.3227  0.5449
  173MPD1     H 2692   1.053   2.062  13.959 -1.0213 -0.0792 -0.1549
  173MPD1    H1 2693   0.948   1.801  14.280  1.8391 -0.7795  0.6307
  173MPD1    H2 2694   1.088   1.649  13.927  1.4617 -0.4522  2.0039
  173MPD1    H3 2695   1.013   1.621  14.134 -0.4994 -0.2248  0.9537
  173MPD1     N 2696   0.967   2.072  14.206 -0.5757  0.7892 -0.4959
  173MPD1    H5 2697   0.976   2.160  14.156  1.9830  1.0819  0.4687
  173MPD1    N1 2698   1.142   1.881  13.794  0.5045 -0.0902  0.6365
  173MPD1    H6 2699   1.128   1.970  13.748 -1.1285  0.5113  2.2621
  173MPD1    H7 2700   1.126   1.797  13.739 -0.4346  1.4147 -1.3687
  174MPD1     C 2701   1.183   2.842  13.902 -0.0254  0.3847 -0.3790
  174MPD1    C1 2702   1.070   2.876  13.986  0.5166 -0.0480  0.1696
  174MPD1    C2 2703   1.037   2.790  14.085  0.2562  0.5087  0.3841
  174MPD1    C3 2704   1.093   2.660  14.083 -0.5439 -0.2018 -0.0590
  174MPD1    C4 2705   1.182   2.620  13.984  0.0638 -1.0427 -0.6059
  174MPD1    C5 2706   1.226   2.715  13.896 -0.1207 -0.8304 -0.0583
  174MPD1     H 2707   0.982   2.818  14.174 -0.6566 -0.5684  0.1566
  174MPD1    H1 2708   1.237   2.528  13.971  0.1703 -1.5232  3.2779
  174MPD1    H2 2709   1.220   2.905  13.823 -4.4990  3.2593 -0.1246
  174MPD1    H3 2710   1.303   2.689  13.824 -1.5131 -1.4504 -1.3277
  174MPD1     N 2711   1.070   2.551  14.176 -0.4785 -0.2416 -0.8874
  174MPD1    H5 2712   1.129   2.470  14.168  0.5023  0.5165 -1.3187
  174MPD1    N1 2713   1.035   3.010  13.992 -0.4105  0.0456 -0.3864
  174MPD1    H6 2714   0.944   3.030  14.031  0.3719  3.3928 -0.2931
  174MPD1    H7 2715   1.047   3.056  13.902  0.4095  0.6360  0.0273
  175MPD1     C 2716   0.081   3.579  15.616 -0.5124  0.2458 -0.2329
  175MPD1    C1 2717   4.690   3.593  15.592 -0.3814 -0.6167  0.6948
  175MPD1    C2 2718   4.609   3.496  15.640 -0.2805  0.1176 -0.7180
  175MPD1    C3 2719   4.657   3.385  15.713 -0.7827  0.3138 -0.5516
  175MPD1    C4 2720   0.059   3.372  15.730 -0.3142  0.4521  0.4144
  175MPD1    C5 2721   0.134   3.472  15.673 -0.0736  0.0379  0.5490
  175MPD1     H 2722   4.504   3.501  15.617 -0.5212 -0.7755  0.1562
  175MPD1    H1 2723   0.111   3.288  15.775  0.2275 -0.4175 -1.8153
  175MPD1    H2 2724   0.148   3.651  15.568 -0.7941  0.1256 -0.8105
  175MPD1    H3 2725   0.242   3.465  15.663 -0.2548 -2.6308  0.3544
  175MPD1     N 2726   4.581   3.281  15.763  0.0041  0.1098  0.1093
  175MPD1    H5 2727   4.638   3.207  15.803  0.7583  0.5772 -0.1085
  175MPD1    N1 2728   4.642   3.708  15.525  0.7288 -0.3157 -0.4118
  175MPD1    H6 2729   4.716   3.741  15.463  1.2228  1.0727  0.9220
  175MPD1    H7 2730   4.550   3.693  15.486  0.1529 -0.7294  1.1059
  176MPD1     C 2731   0.527   4.629   0.016 -0.0417 -0.1022 -0.0474
  176MPD1    C1 2732   0.582   4.605  17.654 -0.0598 -0.0659 -0.6826
  176MPD1    C2 2733   0.702   4.663  17.612 -0.0156 -0.0721  0.3740
  176MPD1    C3 2734   0.766   0.009  17.696 -0.1859 -0.3572 -0.4205
  176MPD1    C4 2735   0.705   0.051   0.055  0.1907 -0.3737  0.4132
  176MPD1    C5 2736   0.586   4.730   0.095  0.0500  0.5336 -0.2260
  176MPD1     H 2737   0.745   4.641  17.515  1.5239 -0.0998  1.0658
  176MPD1    H1 2738   0.738   0.131   0.120  1.4657  0.4863 -1.2901
  176MPD1    H2 2739   0.435   4.582   0.050  1.1504 -0.5468  2.5492
  176MPD1    H3 2740   0.554   0.019   0.194 -1.1253  0.9821 -0.7364
  176MPD1     N 2741   0.889   0.064  17.658  0.3214 -0.1192  0.8321
  176MPD1    H5 2742   0.925   0.036  17.567  0.4275  2.8117 -0.0465
  176MPD1    N1 2743   0.519   4.522  17.558  0.7912  0.4863 -0.2111
  176MPD1    H6 2744   0.476   4.444  17.606 -0.6562  1.0748 -0.5480
  176MPD1    H7 2745   0.583   4.485  17.488  0.7924 -0.0506  0.0779
  177MPD1     C 2746   4.728   0.058  10.965  0.7677  0.1527 -0.6181
  177MPD1    C1 2747   4.699   4.675  10.911  0.3038  0.0177 -0.0671
  177MPD1    C2 2748   4.633   4.675  10.793  0.5886  0.1490 -0.4155
  177MPD1    C3 2749   4.597   0.046  10.727 -0.3394 -0.4026 -0.4685
  177MPD1    C4 2750   4.622   0.169  10.786 -0.1699  0.0961 -0.2875
  177MPD1    C5 2751   4.690   0.175  10.910  0.6961  0.0593 -0.8212
  177MPD1     H 2752   4.616   4.582  10.742 -1.8363  1.5173 -2.0781
  177MPD1    H1 2753   4.603   0.264  10.737  1.1302 -0.5774 -2.0917
  177MPD1    H2 2754   0.043   0.050  11.058 -1.5986 -0.2390  0.7337
  177MPD1    H3 2755   4.725   0.264  10.960  1.5868 -0.1656 -1.0425
  177MPD1     N 2756   4.532   0.034  10.600  0.1896  0.3204 -0.2191
  177MPD1    H5 2757   4.536   4.682  10.557 -0.7949 -0.2183  0.8369
  177MPD1    N1 2758   4.713   4.560  10.985 -0.2871 -0.1256  0.1143
  177MPD1    H6 2759   4.704   4.479  10.923 -0.7012 -1.2078  1.6022
  177MPD1    H7 2760   0.062   4.542  11.031 -1.0635  1.7585  2.3360
  178MPD1     C 2761   2.006   1.143   0.607  0.0235 -0.7632 -0.5706
  178MPD1    C1 2762   1.917   1.111   0.504 -0.4749  0.4272  0.4648
  178MPD1    C2 2763   1.972   1.092   0.380  0.3868 -0.2885 -0.5329
  178MPD1    C3 2764   2.106   1.071   0.362  0.7070 -0.1545 -0.4950
  178MPD1    C4 2765   2.191   1.105   0.466 -0.0404  0.1936 -0.0600
  178MPD1    C5 2766   2.143   1.140   0.586 -0.3000  0.3210 -0.5851
  178MPD1     H 2767   1.909   1.094   0.292 -2.0632  1.0118  1.2549
  178MPD1    H1 2768   2.297   1.110   0.445  0.4307 -3.7289  1.3329
  178MPD1    H2 2769   1.969   1.169   0.706 -0.9599  0.1809 -1.1793
  178MPD1    H3 2770   2.212   1.162   0.667 -0.5742 -3.1494  0.5728
  178MPD1     N 2771   2.164   1.051   0.235 -0.2802 -0.5603  0.1534
  178MPD1    H5 2772   2.265   1.059   0.234 -0.2967 -0.1434  1.6426
  178MPD1    N1 2773   1.773   1.127   0.522 -0.0695  0.2386  0.0470
  178MPD1    H6 2774   1.725   1.112   0.611 -1.2085  1.7375 -0.3074
  178MPD1    H7 2775   1.722   1.074   0.450  0.2277  2.2989 -1.6775
  179MPD1     C 2776   2.020   3.276  15.762  1.2808 -0.2579  0.6816
  179MPD1    C1 2777   1.902   3.253  15.702  0.6268  0.0789 -0.3987
  179MPD1    C2 2778   1.785   3.296  15.760 -0.1835 -0.0940 -0.1817
  179MPD1    C3 2779   1.788   3.354  15.882  0.1983  0.5416  0.5149
  179MPD1    C4 2780   1.913   3.375  15.943 -0.3288  0.0269 -0.0676
  179MPD1    C5 2781   2.027   3.333  15.883 -0.7068  0.4102  0.3756
  179MPD1     H 2782   1.692   3.283  15.707 -0.9008 -1.2977  1.3696
  179MPD1    H1 2783   1.915   3.430  16.037 -0.4601 -0.7961  0.4192
  179MPD1    H2 2784   2.114   3.242  15.719  1.9430  0.1295  1.8388
  179MPD1    H3 2785   2.125   3.350  15.927  0.5806  1.6434 -3.0061
  179MPD1     N 2786   1.669   3.414  15.938 -0.0104 -0.0000 -0.5898
  179MPD1    H5 2787   1.687   3.461  16.026 -1.2007 -1.4755  0.4306
  179MPD1    N1 2788   1.884   3.167  15.588 -0.6423  0.6447  0.5337
  179MPD1    H6 2789   1.805   3.200  15.533  0.6664  0.9336 -1.1684
  179MPD1    H7 2790   1.961   3.171  15.522 -1.4049  0.3050 -0.3670
  180MPD1     C 2791   1.131   1.002  15.192 -0.6663  0.4941  0.0763
  180MPD1    C1 2792   1.258   1.046  15.160  0.1169 -0.1937 -0.0918
  180MPD1    C2 2793   1.310   1.008  15.037  0.4425 -0.2939  0.1011
  180MPD1    C3 2794   1.237   0.938  14.945  0.5442 -0.4379 -0.5458
  180MPD1    C4 2795   1.102   0.911  14.975 -0.1729  0.0167 -0.0958
  180MPD1    C5 2796   1.050   0.942  15.098  0.2800  0.3116  0.4601
  180MPD1     H 2797   1.414   1.021  15.011  0.1173  0.2559 -0.9324
  180MPD1    H1 2798   1.039   0.866  14.899  0.6149 -1.2104 -0.0155
  180MPD1    H2 2799   1.082   1.021  15.286  0.7131 -0.4553  0.9953
  180MPD1    H3 2800   0.945   0.923  15.116  0.5841 -2.0529 -0.1931
  180MPD1     N 2801   1.304   0.901  14.830  0.6376 -0.0040  0.1335
  180MPD1    H5 2802   1.406   0.906  14.837  0.5813 -1.3831  2.0254
  180MPD1    N1 2803   1.339   1.108  15.253  0.2869  1.0064  0.1947
  180MPD1    H6 2804   1.292   1.164  15.324  0.9843  2.5706 -0.5847
  180MPD1    H7 2805   1.401   1.171  15.203  1.0819  0.4331  0.4660
  181MPD1     C 2806   2.245   1.809  10.203  0.4025 -0.3217  0.1341
  181MPD1    C1 2807   2.255   1.934  10.263  0.5935 -0.0197  0.3711
  181MPD1    C2 2808   2.376   2.001  10.255 -0.1519  0.0881 -0.2095
  181MPD1    C3 2809   2.486   1.943  10.196  0.3260  0.3211  0.3066
  181MPD1    C4 2810   2.472   1.816  10.148 -0.4733  0.2427 -0.1716
  181MPD1    C5 2811   2.354   1.747  10.142  0.5239 -0.4395  0.0547
  181MPD1     H 2812   2.379   2.106  10.283 -0.9280  0.8367 -2.8501
  181MPD1    H1 2813   2.563   1.772  10.107 -0.7918  0.6987 -1.3833
  181MPD1    H2 2814   2.149   1.764  10.180  0.2890  0.1109 -0.2390
  181MPD1    H3 2815   2.349   1.656  10.084  1.7366  0.2202 -1.0996
  181MPD1     N 2816   2.616   2.005  10.185  1.2525 -0.0417  0.3060
  181MPD1    H5 2817   2.686   1.941  10.150 -0.6244 -1.6186 -0.5288
  181MPD1    N1 2818   2.136   2.001  10.304  0.5375  1.0768  0.0927
  181MPD1    H6 2819   2.167   2.066  10.375  0.9748 -0.6087  1.4308
  181MPD1    H7 2820   2.089   1.923  10.351  1.6065 -0.2940 -1.0883
  182MPD1     C 2821   3.948   1.941  17.398  0.2811  0.3437 -0.0518
  182MPD1    C1 2822   3.852   2.032  17.455  0.2935  0.5760 -0.7012
  182MPD1    C2 2823   3.763   1.986  17.553  0.1757  0.2049 -0.1973
  182MPD1    C3 2824   3.781   1.852  17.599  0.3483 -0.0231 -0.2442
  182MPD1    C4 2825   3.864   1.764  17.534 -0.1488  0.6750 -0.9240
  182MPD1    C5 2826   3.951   1.812  17.443 -0.7965  0.1034  0.2501
  182MPD1     H 2827   3.684   2.048  17.593  0.3638  0.2562  0.0957
  182MPD1    H1 2828   3.876   1.662  17.567 -0.8394  1.2145  1.0231
  182MPD1    H2 2829   4.013   1.970  17.316 -0.1968 -0.5123 -0.7252
  182MPD1    H3 2830   4.025   1.744  17.402 -0.2381 -0.0477  1.4976
  182MPD1     N 2831   3.714   1.798  17.712  0.1345  0.0553 -0.5130
  182MPD1    H5 2832   3.731   1.700  17.734 -0.2395 -0.2363 -1.5171
  182MPD1    N1 2833   3.820   2.153  17.393  0.3589  0.1827  0.5297
  182MPD1    H6 2834   3.896   2.198  17.343 -1.3465  2.4620  0.0211
  182MPD1    H7 2835   3.762   2.224  17.436  2.2139  2.8347 -1.3282
  183MPD1     C 2836   0.032   2.497   9.542 -0.1358 -0.8045 -0.1646
  183MPD1    C1 2837   0.015   2.381   9.618 -0.4387 -0.3602 -1.0779
  183MPD1    C2 2838   4.626   2.350   9.643 -0.5303 -0.0837  0.3898
  183MPD1    C3 2839   4.515   2.426   9.612  0.3301  0.3905 -0.1753
  183MPD1    C4 2840   4.537   2.540   9.535  0.5163 -0.3809  0.1562
  183MPD1    C5 2841   4.668   2.568   9.495  0.3331  0.7118 -0.3095
  183MPD1     H 2842   4.606   2.256   9.694  0.3662 -0.7730 -0.5297
  183MPD1    H1 2843   4.459   2.605   9.495 -0.9555 -1.2682  1.6064
  183MPD1    H2 2844   0.130   2.526   9.505 -1.3141  1.0225 -1.8672
  183MPD1    H3 2845   4.678   2.646   9.421  2.2102  0.2775 -0.5212
  183MPD1     N 2846   4.383   2.386   9.645 -0.4085  0.2959  0.0903
  183MPD1    H5 2847   4.384   2.291   9.682  1.5789  1.0118  1.8216
  183MPD1    N1 2848   0.118   2.296   9.660  0.1274 -0.2958 -0.1206
  183MPD1    H6 2849   0.100   2.240   9.743 -1.8357  1.3556  0.5617
  183MPD1    H7 2850   0.209   2.339   9.669 -0.4387  0.9217 -0.2675
  184MPD1     C 2851   3.120   4.509  10.873  0.7432  0.1295  1.0557
  184MPD1    C1 2852   3.236   4.588  10.875  0.1115  0.6992 -0.3164
  184MPD1    C2 2853   3.315   4.598  10.765 -0.1549  0.4946 -0.1834
  184MPD1    C3 2854   3.258   4.572  10.636 -0.0333  0.3351  0.2222
  184MPD1    C4 2855   3.136   4.510  10.641  0.8328  0.3750 -0.7695
  184MPD1    C5 2856   3.065   4.479  10.754  0.0264  0.2339  0.4658
  184MPD1     H 2857   3.410   4.649  10.775 -0.7387  1.5768 -0.0782
  184MPD1    H1 2858   3.093   4.481  10.546  1.1743 -3.3482  0.2082
  184MPD1    H2 2859   3.068   4.471  10.960 -2.0467  1.6719  0.0585
  184MPD1    H3 2860   2.979   4.413  10.746 -1.1913  1.7871  0.7629
  184MPD1     N 2861   3.318   4.611  10.507 -0.0576 -0.1902  0.0872
  184MPD1    H5 2862   3.259   4.608  10.425 -0.1387 -1.4362  0.1982
  184MPD1    N1 2863   3.283   4.629  11.000  1.3736 -0.3317  0.4041
  184MPD1    H6 2864   3.338   4.714  10.991 -1.8958  1.5596 -1.7751
  184MPD1    H7 2865   3.203   4.642  11.062  0.1499  1.5755 -1.5558
  185MPD1     C 2866   3.009   4.393   9.720 -0.5104  1.0023  0.4618
  185MPD1    C1 2867   3.117   4.470   9.685  0.1526 -0.6038  0.1032
  185MPD1    C2 2868   3.192   4.531   9.781 -0.6894  0.2443  0.3219
  185MPD1    C3 2869   3.172   4.506   9.921 -0.0295  0.0167 -0.5791
  185MPD1    C4 2870   3.061   4.428   9.953  0.5213 -0.6629 -0.0480
  185MPD1    C5 2871   2.989   4.375   9.849 -0.0095  0.0565 -0.3773
  185MPD1     H 2872   3.276   4.587   9.742  0.3465 -1.8219 -0.4174
  185MPD1    H1 2873   3.029   4.407  10.054 -0.7289  1.1917 -0.0517
  185MPD1    H2 2874   2.945   4.346   9.646 -0.1102  0.8796  0.1892
  185MPD1    H3 2875   2.903   4.311   9.868 -0.4451  0.3978 -1.2340
  185MPD1     N 2876   3.254   4.555  10.021 -0.8071  0.1519  0.2326
  185MPD1    H5 2877   3.219   4.553  10.116 -0.9347 -0.0508  0.1821
  185MPD1    N1 2878   3.145   4.477   9.549 -0.2082 -0.2258  0.5286
  185MPD1    H6 2879   3.052   4.469   9.510 -0.0643  0.1481  0.1155
  185MPD1    H7 2880   3.188   4.562   9.513 -3.0286  1.2611  0.6985
  186MPD1     C 2881   2.104   3.699  15.887  0.4293 -0.0227 -0.2713
  186MPD1    C1 2882   2.223   3.724  15.962 -0.6589  0.2255 -0.1061
  186MPD1    C2 2883   2.241   3.855  16.011  0.4582 -0.1663 -0.1553
  186MPD1    C3 2884   2.149   3.947  15.993 -0.0172  0.1568  0.0059
  186MPD1    C4 2885   2.037   3.920  15.922 -0.2300 -0.5700  0.7506
  186MPD1    C5 2886   2.019   3.799  15.868  0.0902 -0.7208  0.4096
  186MPD1     H 2887   2.327   3.866  16.076  0.9446  0.9222 -0.9717
  186MPD1    H1 2888   1.949   3.984  15.920  0.2549  0.0005 -2.7824
  186MPD1    H2 2889   2.085   3.611  15.828 -1.0729 -0.4352  0.8048
  186MPD1    H3 2890   1.925   3.783  15.817  0.0254 -0.1448  0.3485
  186MPD1     N 2891   2.157   4.072  16.074  0.1985  0.1762  0.4791
  186MPD1    H5 2892   2.079   4.136  16.061 -0.7619 -1.1760 -0.4871
  186MPD1    N1 2893   2.323   3.630  15.975 -0.0628 -0.1146  0.0332
  186MPD1    H6 2894   2.389   3.651  16.050 -0.5641 -1.1673  0.7663
  186MPD1    H7 2895   2.277   3.540  15.989 -0.3825 -0.5179 -3.5810
  187MPD1     C 2896   1.766   0.970  17.568  0.7107  0.3687  0.2161
  187MPD1    C1 2897   1.716   0.925  17.449  0.3842 -0.4642  0.5490
  187MPD1    C2 2898   1.592   0.979  17.405 -0.8538 -0.2551  0.5710
  187MPD1    C3 2899   1.528   1.076  17.480 -0.4783  0.1562 -0.4737
  187MPD1    C4 2900   1.588   1.126  17.594  0.0506  0.1924  0.2329
  187MPD1    C5 2901   1.706   1.064  17.634 -0.0367 -0.0007  0.0822
  187MPD1     H 2902   1.544   0.937  17.317 -1.2020  2.3003 -0.4604
  187MPD1    H1 2903   1.548   1.204  17.658  1.8779  1.5889 -0.3500
  187MPD1    H2 2904   1.863   0.937  17.605  1.2071  1.3715 -0.1867
  187MPD1    H3 2905   1.758   1.105  17.719  0.6477  1.1059 -0.8778
  187MPD1     N 2906   1.396   1.128  17.450 -0.2439  0.2605  0.3860
  187MPD1    H5 2907   1.363   1.214  17.494  2.3189  0.1802  2.5262
  187MPD1    N1 2908   1.765   0.806  17.391 -0.6334 -0.1378 -0.0463
  187MPD1    H6 2909   1.857   0.788  17.429 -1.1903 -1.7027  0.5728
  187MPD1    H7 2910   1.777   0.826  17.292  2.0011 -0.7448  0.1607
  188MPD1     C 2911   1.049   1.268  10.324 -0.2834 -0.2128 -0.0780
  188MPD1    C1 2912   1.107   1.201  10.222 -0.5948 -0.1062 -0.0883
  188MPD1    C2 2913   1.092   1.065  10.221 -0.3172  0.2208 -0.3833
  188MPD1    C3 2914   1.024   0.999  10.322 -0.5091  1.0543 -0.2990
  188MPD1    C4 2915   0.964   1.069  10.425  0.1752  0.2617  0.3287
  188MPD1    C5 2916   0.988   1.202  10.426  0.0669  0.3504 -0.3934
  188MPD1     H 2917   1.142   1.007  10.144 -1.1069 -1.5013  0.3881
  188MPD1    H1 2918   0.926   1.022  10.515  1.8202  2.2855  2.0707
  188MPD1    H2 2919   1.069   1.374  10.327  4.3082 -1.1540  1.6574
  188MPD1    H3 2920   0.950   1.261  10.509 -1.0249 -1.1240  0.1557
  188MPD1     N 2921   1.021   0.858  10.332 -0.4553 -0.2630 -0.6552
  188MPD1    H5 2922   0.950   0.821  10.395 -1.5572  0.5705 -1.4033
  188MPD1    N1 2923   1.158   1.270  10.111  0.8532 -0.3748  0.3612
  188MPD1    H6 2924   1.236   1.217  10.072  0.2184  0.2766 -1.8067
  188MPD1    H7 2925   1.188   1.358  10.152 -1.5655  0.7253 -0.2024
  189MPD1     C 2926   2.300   2.371   0.765  0.4485 -0.1278  0.3823
  189MPD1    C1 2927   2.226   2.353   0.647 -0.8919  0.0247  0.1907
  189MPD1    C2 2928   2.231   2.452   0.542  0.2506  0.3202  0.0696
  189MPD1    C3 2929   2.313   2.560   0.550  0.3848 -0.1579  0.0664
  189MPD1    C4 2930   2.388   2.581   0.668 -0.1833  0.0974  0.0863
  189MPD1    C5 2931   2.381   2.488   0.768 -0.3519 -0.3380 -0.0549
  189MPD1     H 2932   2.193   2.420   0.446  0.7433  0.5895 -0.2155
  189MPD1    H1 2933   2.453   2.667   0.680  0.9679 -1.0483  2.0142
  189MPD1    H2 2934   2.301   2.296   0.843  1.1478 -0.8556 -0.3243
  189MPD1    H3 2935   2.433   2.507   0.861 -0.0441 -1.5405  0.0182
  189MPD1     N 2936   2.325   2.637   0.432 -0.4493  0.9976  0.0353
  189MPD1    H5 2937   2.269   2.617   0.350 -1.1426 -0.7108  0.9295
  189MPD1    N1 2938   2.146   2.232   0.635 -0.0049  0.0342  0.0848
  189MPD1    H6 2939   2.152   2.159   0.706  0.7976 -0.5689 -0.6107
  189MPD1    H7 2940   2.134   2.187   0.544  1.4387 -0.4356  0.1274
  190MPD1     C 2941   1.556   0.021  15.531 -0.2091 -1.0462 -0.1777
  190MPD1    C1 2942   1.689   4.734  15.562 -0.3682  0.0106  0.0020
  190MPD1    C2 2943   1.762   0.098  15.618 -0.0383 -0.7511  0.0003
  190MPD1    C3 2944   1.701   0.221  15.653  0.0733  0.7068 -0.5418
  190MPD1    C4 2945   1.571   0.240  15.629 -0.1730  0.1293 -0.0472
  190MPD1    C5 2946   1.500   0.142  15.562 -0.1822  0.0538  0.3239
  190MPD1     H 2947   1.866   0.084  15.644  0.4065 -1.7817 -2.3802
  190MPD1    H1 2948   1.513   0.330  15.647  1.9492  1.9905 -2.5119
  190MPD1    H2 2949   1.487   4.683  15.499 -1.4579 -0.4706  1.1060
  190MPD1    H3 2950   1.395   0.161  15.545  0.0473  1.2317  0.2256
  190MPD1     N 2951   1.783   0.327  15.693  0.1675  0.2621 -0.0994
  190MPD1    H5 2952   1.881   0.301  15.701 -0.2861 -0.8041  2.1263
  190MPD1    N1 2953   1.758   4.615  15.522 -0.0909  0.0859 -0.1713
  190MPD1    H6 2954   1.699   4.547  15.475 -0.3924 -0.0955  0.4687
  190MPD1    H7 2955   1.825   4.640  15.449 -1.4423 -0.3464 -1.5727
  191MPD1     C 2956   0.670   2.769  12.756  0.5380 -0.4912  0.0155
  191MPD1    C1 2957   0.796   2.810  12.786 -0.6526 -0.0020  0.8156
  191MPD1    C2 2958   0.869   2.878  12.685 -0.1424  0.3565 -0.4010
  191MPD1    C3 2959   0.810   2.906  12.557  0.2631 -0.0822  0.1113
  191MPD1    C4 2960   0.680   2.870  12.539  1.1119  0.3293  0.6158
  191MPD1    C5 2961   0.614   2.801  12.633  0.2123 -0.8145  0.4206
  191MPD1     H 2962   0.968   2.918  12.703  0.8117 -2.2198  0.1198
  191MPD1    H1 2963   0.626   2.882  12.446  1.0934 -1.8642  0.3293
  191MPD1    H2 2964   0.619   2.718  12.837 -0.7950  1.3169  0.3245
  191MPD1    H3 2965   0.513   2.767  12.615 -0.0524  0.7888 -1.0766
  191MPD1     N 2966   0.887   2.981  12.462 -0.1441  0.4830 -0.3018
  191MPD1    H5 2967   0.982   3.004  12.488 -0.4626  0.6781  0.6613
  191MPD1    N1 2968   0.855   2.760  12.905 -0.1038  0.0238 -0.2983
  191MPD1    H6 2969   0.784   2.770  12.978 -1.5891 -1.9058 -1.4835
  191MPD1    H7 2970   0.936   2.812  12.938  0.0491  0.7616 -1.8474
  192MPD1     C 2971   0.962   3.547  11.500  0.6387 -0.4142  0.3059
  192MPD1    C1 2972   1.082   3.537  11.555  0.4686  0.8236 -0.2045
  192MPD1    C2 2973   1.102   3.471  11.673  0.5125  0.6946 -0.4547
  192MPD1    C3 2974   0.996   3.428  11.748 -0.0236 -0.1804  0.7218
  192MPD1    C4 2975   0.869   3.440  11.691 -0.2150 -0.6375  0.1442
  192MPD1    C5 2976   0.853   3.496  11.568  0.0701 -0.3292 -0.3904
  192MPD1     H 2977   1.203   3.466  11.712  0.0727  0.6767  0.6735
  192MPD1    H1 2978   0.785   3.407  11.752  0.7704  0.2391  1.9883
  192MPD1    H2 2979   0.930   3.602  11.412  1.7897 -1.5906 -0.8347
  192MPD1    H3 2980   0.753   3.505  11.527 -0.1536 -1.1231 -0.0133
  192MPD1     N 2981   1.024   3.357  11.872  0.7464  0.1352  0.5074
  192MPD1    H5 2982   1.121   3.337  11.895 -0.1543 -1.3209  3.1247
  192MPD1    N1 2983   1.193   3.572  11.473 -0.6540 -0.0952 -0.1142
  192MPD1    H6 2984   1.193   3.664  11.428  0.5999  0.9632  2.0661
  192MPD1    H7 2985   1.276   3.575  11.531 -1.3290 -1.0478  0.8965
  193MPD1     C 2986   0.644   2.460  16.936  0.5015 -0.0263 -0.1396
  193MPD1    C1 2987   0.625   2.539  17.048 -0.0161  1.0713  0.1167
  193MPD1    C2 2988   0.726   2.555  17.138 -0.5481 -0.5337  1.0105
  193MPD1    C3 2989   0.841   2.476  17.136  0.1821  1.0356 -0.1721
  193MPD1    C4 2990   0.840   2.380  17.042  0.3943 -0.0315 -1.3448
  193MPD1    C5 2991   0.751   2.379  16.939  0.2144  0.3234  0.1566
  193MPD1     H 2992   0.717   2.623  17.222  0.2208 -0.7998  1.3069
  193MPD1    H1 2993   0.919   2.306  17.031  0.6556  0.3967 -2.2935
  193MPD1    H2 2994   0.564   2.444  16.864  0.8879  0.6754 -0.7214
  193MPD1    H3 2995   0.768   2.319  16.849  0.4592 -1.3402  1.3109
  193MPD1     N 2996   0.951   2.485  17.225 -0.0682  0.8006  0.0145
  193MPD1    H5 2997   1.018   2.410  17.207 -0.0337  0.8640 -0.1245
  193MPD1    N1 2998   0.514   2.632  17.055 -0.2608 -0.4251 -0.2678
  193MPD1    H6 2999   0.432   2.586  17.016  0.0735 -1.0445 -0.2206
  193MPD1    H7 3000   0.481   2.656  17.149 -0.1267  1.3151 -0.6636
  194MPD1     C 3001   3.194   0.128  16.643 -0.0080  0.4140 -0.0676
  194MPD1    C1 3002   3.300   0.132  16.728 -0.8687 -0.1264 -0.5220
  194MPD1    C2 3003   3.342   0.013  16.778 -0.0357  0.8025 -0.3111
  194MPD1    C3 3004   3.287   4.636  16.741 -0.0019 -0.3278 -0.5896
  194MPD1    C4 3005   3.182   4.630  16.655  0.4352  0.8665 -0.4402
  194MPD1    C5 3006   3.137   0.010  16.613  0.0002 -0.0021  0.2083
  194MPD1     H 3007   3.427   0.028  16.844  1.2491 -0.7366 -1.6060
  194MPD1    H1 3008   3.131   4.543  16.615  1.6028 -1.3427  2.8261
  194MPD1    H2 3009   3.156   0.214  16.589 -0.4058 -0.3873 -1.0841
  194MPD1    H3 3010   3.056   0.013  16.541  0.3940 -4.9176 -0.4747
  194MPD1     N 3011   3.324   4.511  16.798  0.5988 -0.9440 -0.1195
  194MPD1    H5 3012   3.270   4.432  16.764 -1.7777  0.1676  1.0416
  194MPD1    N1 3013   3.380   0.248  16.728  0.2681 -0.2649 -0.0088
  194MPD1    H6 3014   3.327   0.332  16.704 -2.3496 -1.6395  1.0450
  194MPD1    H7 3015   3.431   0.273  16.812  1.0332 -1.4705 -0.1266
  195MPD1     C 3016   0.745   1.919   0.625 -0.0584 -0.0671  0.4714
  195MPD1    C1 3017   0.868   1.878   0.572  0.2525 -0.3889  0.2143
  195MPD1    C2 3018   0.882   1.745   0.535 -0.3916  0.9409 -0.0199
  195MPD1    C3 3019   0.782   1.654   0.560  0.0474  0.3061 -0.2185
  195MPD1    C4 3020   0.666   1.692   0.615  0.2739  0.4989 -0.0674
  195MPD1    C5 3021   0.658   1.821   0.661  0.6255  0.6834 -0.2934
  195MPD1     H 3022   0.973   1.712   0.488  0.2479  2.0637  0.4374
  195MPD1    H1 3023   0.581   1.627   0.628 -0.1141  1.0148 -0.0228
  195MPD1    H2 3024   0.713   2.022   0.636  0.1110  0.1142 -0.7292
  195MPD1    H3 3025   0.569   1.851   0.716  0.6118 -0.4033  0.2721
  195MPD1     N 3026   0.783   1.517   0.520  0.7335  0.4127  0.1327
  195MPD1    H5 3027   0.706   1.460   0.552 -0.7052  1.6099 -1.2153
  195MPD1    N1 3028   0.953   1.971   0.523  0.0159  0.1504 -0.3373
  195MPD1    H6 3029   0.949   2.067   0.557 -1.9456 -0.7349  1.9196
  195MPD1    H7 3030   1.051   1.945   0.535  0.0670 -0.7052 -2.6402
  196MPD1     C 3031   4.350   1.016   0.207  0.4210  0.3394 -1.0302
  196MPD1    C1 3032   4.412   0.893   0.234 -0.4448  0.8316 -0.8050
  196MPD1    C2 3033   4.493   0.892   0.349  1.2568 -0.2520  0.1114
  196MPD1    C3 3034   4.506   1.010   0.425 -0.0316  0.4066 -0.6589
  196MPD1    C4 3035   4.445   1.124   0.400  0.0728  0.2895 -0.0168
  196MPD1    C5 3036   4.364   1.119   0.289  0.0806 -0.0261 -0.4274
  196MPD1     H 3037   4.538   0.798   0.380 -2.5659 -2.0882  0.1777
  196MPD1    H1 3038   4.443   1.215   0.460  2.2961 -0.4182  1.0977
  196MPD1    H2 3039   4.284   1.024   0.121 -1.1729  0.7769  0.2467
  196MPD1    H3 3040   4.311   1.209   0.260  1.2020  0.8742  0.3534
  196MPD1     N 3041   4.590   1.020   0.539  0.0206  0.1856  0.1850
  196MPD1    H5 3042   4.598   1.116   0.570  0.3682  0.0952  0.3735
  196MPD1    N1 3043   4.378   0.776   0.171 -0.4642  0.5927 -0.1308
  196MPD1    H6 3044   4.362   0.789   0.072 -0.2801  0.1836 -0.2173
  196MPD1    H7 3045   4.465   0.722   0.179 -0.2462  1.0933  0.9137
  197MPD1     C 3046   4.734   3.564   0.034 -0.4730 -0.3385 -0.0398
  197MPD1    C1 3047   4.622   3.640   0.040  0.3419 -0.3895 -0.2755
  197MPD1    C2 3048   4.564   3.675  17.670 -0.5395  0.3645 -0.6794
  197MPD1    C3 3049   4.634   3.643  17.552  0.5624 -0.4088  0.2858
  197MPD1    C4 3050   0.009   3.567  17.558  0.1873 -0.0954 -0.0245
  197MPD1    C5 3051   0.062   3.532  17.674  0.1744 -0.4066 -0.1644
  197MPD1     H 3052   4.464   3.717  17.662  0.6218  3.3311  0.2270
  197MPD1    H1 3053   0.068   3.544  17.470 -0.4309  1.0112 -0.7285
  197MPD1    H2 3054   0.033   3.529   0.129  3.0275  0.5675 -1.1367
  197MPD1    H3 3055   0.157   3.481  17.670 -0.3140 -1.2862 -0.4795
  197MPD1     N 3056   4.590   3.676  17.426 -0.0206 -0.3421  0.2784
  197MPD1    H5 3057   4.641   3.634  17.349  1.0653 -1.0361  1.3879
  197MPD1    N1 3058   4.551   3.662   0.160 -0.1610  0.4600 -0.4755
  197MPD1    H6 3059   4.501   3.751   0.163  0.9865  1.1555 -2.0279
  197MPD1    H7 3060   4.606   3.647   0.244 -0.2321 -1.8331 -0.8420
  198MPD1     C 3061   1.549   1.835  14.985 -0.0064 -0.1119  0.5583
  198MPD1    C1 3062   1.659   1.782  15.049  0.4906 -0.7279 -0.4897
  198MPD1    C2 3063   1.640   1.773  15.185 -0.0713  0.1660  0.5889
  198MPD1    C3 3064   1.527   1.796  15.257 -0.5221 -0.2360 -0.3182
  198MPD1    C4 3065   1.416   1.841  15.185  0.7116 -0.1448 -1.0270
  198MPD1    C5 3066   1.430   1.858  15.050  0.3140 -0.3963  0.6435
  198MPD1     H 3067   1.725   1.745  15.246 -0.9890 -0.5503  1.5096
  198MPD1    H1 3068   1.320   1.854  15.233  0.4994 -1.6986 -1.0280
  198MPD1    H2 3069   1.544   1.856  14.879  0.6485 -0.7855  0.3951
  198MPD1    H3 3070   1.350   1.894  14.985  1.2171  0.1170 -0.1970
  198MPD1     N 3071   1.524   1.773  15.397  0.3149 -0.2906  0.0302
  198MPD1    H5 3072   1.601   1.716  15.432  2.7214  1.6700 -2.0795
  198MPD1    N1 3073   1.788   1.769  14.985  0.3300  0.5638 -0.2385
  198MPD1    H6 3074   1.857   1.705  15.024  2.1913  2.0282 -1.1573
  198MPD1    H7 3075   1.784   1.747  14.886  1.0266  0.6171 -0.2749
  199MPD1     C 3076   4.025   2.980   9.995  0.3707  0.0123 -0.8091
  199MPD1    C1 3077   3.940   2.882   9.948 -0.6068 -0.2997  0.3120
  199MPD1    C2 3078   3.824   2.846  10.021  0.2821  0.0612  0.8584
  199MPD1    C3 3079   3.780   2.926  10.128  0.2704  0.1282 -0.5292
  199MPD1    C4 3080   3.864   3.022  10.175  0.1189 -0.2378  0.0076
  199MPD1    C5 3081   3.985   3.048  10.108 -0.4253 -0.2317  0.3307
  199MPD1     H 3082   3.770   2.766   9.970  2.6818 -2.2801  1.9797
  199MPD1    H1 3083   3.837   3.076  10.266  1.8945 -1.4120  1.2475
  199MPD1    H2 3084   4.122   3.004   9.954  0.6702  0.2240  0.0205
  199MPD1    H3 3085   4.059   3.118  10.146  0.7090 -1.3211  0.1382
  199MPD1     N 3086   3.658   2.912  10.194  0.3650  0.5592  0.1481
  199MPD1    H5 3087   3.627   2.984  10.258  1.3530  2.0496 -1.0650
  199MPD1    N1 3088   3.989   2.794   9.846 -0.7176 -0.4149  1.0032
  199MPD1    H6 3089   4.053   2.847   9.787 -3.1081  0.7322 -0.5706
  199MPD1    H7 3090   3.911   2.766   9.787  1.4641 -0.4006 -1.8760
  200MPD1     C 3091   2.084   2.317  15.245  0.1158 -0.2009 -0.4566
  200MPD1    C1 3092   1.953   2.348  15.263  0.1716  0.0130  0.5896
  200MPD1    C2 3093   1.900   2.448  15.181  0.3407 -0.5122 -0.3921
  200MPD1    C3 3094   1.971   2.502  15.071 -0.3355  0.5212  0.3746
  200MPD1    C4 3095   2.105   2.462  15.050 -0.2282 -0.6081 -0.3050
  200MPD1    C5 3096   2.157   2.379  15.147  0.1387  0.9525 -0.1431
  200MPD1     H 3097   1.797   2.480  15.196  1.1979  1.7153  0.7336
  200MPD1    H1 3098   2.172   2.501  14.975 -0.5207  0.3002 -0.0942
  200MPD1    H2 3099   2.131   2.245  15.311 -1.2025  0.7969  1.5957
  200MPD1    H3 3100   2.264   2.358  15.148 -0.0658 -0.0551  0.5793
  200MPD1     N 3101   1.894   2.577  14.980 -0.1093 -0.3029 -0.5910
  200MPD1    H5 3102   1.797   2.586  15.006 -0.8867 -1.1173 -3.1699
  200MPD1    N1 3103   1.875   2.308  15.379 -0.0241 -0.4414 -0.0719
  200MPD1    H6 3104   1.900   2.217  15.418  0.5530 -1.0833 -1.9222
  200MPD1    H7 3105   1.783   2.307  15.334 -0.6725 -0.9535  1.2563
  201MPD1     C 3106   4.504   2.325  13.253 -0.4423  0.7295  0.8074
  201MPD1    C1 3107   4.601   2.335  13.357 -0.5228  0.0155  0.3319
  201MPD1    C2 3108   4.704   2.248  13.350 -0.6947  0.5532 -0.3803
  201MPD1    C3 3109   4.716   2.147  13.252 -0.0397 -0.4758 -0.2191
  201MPD1    C4 3110   4.616   2.135  13.154  0.0649 -0.6488 -0.9075
  201MPD1    C5 3111   4.509   2.224  13.159  0.0941 -0.4165 -0.1787
  201MPD1     H 3112   0.047   2.257  13.419 -2.2005 -1.3379  1.6616
  201MPD1    H1 3113   4.606   2.057  13.079  0.1161 -1.7134  0.1887
  201MPD1    H2 3114   4.420   2.393  13.252  0.1425  1.4563  2.5788
  201MPD1    H3 3115   4.435   2.220  13.080  0.0213 -0.4509 -0.1100
  201MPD1     N 3116   0.080   2.048  13.263  0.0915 -0.8607 -0.5085
  201MPD1    H5 3117   0.129   2.050  13.352  1.2764  2.9182 -1.2340
  201MPD1    N1 3118   4.608   2.452  13.441  0.1566 -0.2800 -0.9175
  201MPD1    H6 3119   4.520   2.497  13.463  0.1726 -0.2702 -0.8734
  201MPD1    H7 3120   4.663   2.432  13.524  0.3045 -0.3366 -1.0272
  202MPD1     C 3121   0.551   2.101  10.372 -0.2787 -0.1280 -0.1997
  202MPD1    C1 3122   0.473   2.110  10.257  0.3102  0.3967 -0.1523
  202MPD1    C2 3123   0.379   2.008  10.262 -0.2972 -0.6773 -0.5585
  202MPD1    C3 3124   0.337   1.936  10.373  0.2250 -0.1192 -0.4850
  202MPD1    C4 3125   0.412   1.946  10.486 -0.8101 -0.2986  0.0366
  202MPD1    C5 3126   0.522   2.025  10.485 -0.2688 -0.1685  0.5944
  202MPD1     H 3127   0.319   1.987  10.174  0.0036  1.0893 -1.1839
  202MPD1    H1 3128   0.384   1.888  10.574 -0.8242 -0.0525  0.1944
  202MPD1    H2 3129   0.627   2.178  10.382 -0.7023  0.2414  0.1880
  202MPD1    H3 3130   0.583   2.029  10.574 -1.2734  0.2419  1.2689
  202MPD1     N 3131   0.236   1.846  10.383 -0.1474 -0.2295 -0.7709
  202MPD1    H5 3132   0.220   1.806  10.475 -0.7294  3.1280  0.5705
  202MPD1    N1 3133   0.519   2.163  10.135 -0.4257  0.2769  0.4250
  202MPD1    H6 3134   0.548   2.259  10.147  0.4760  0.6566 -4.8374
  202MPD1    H7 3135   0.450   2.176  10.060  1.0685 -0.8849 -1.1524
  203MPD1     C 3136   3.193   2.194  12.463  0.5743 -0.1147 -0.9289
  203MPD1    C1 3137   3.278   2.128  12.378 -0.1392 -0.1759  0.4622
  203MPD1    C2 3138   3.411   2.098  12.421  0.0588  0.0763 -0.7724
  203MPD1    C3 3139   3.455   2.138  12.550  0.4826  0.3654  0.2664
  203MPD1    C4 3140   3.360   2.210  12.629 -0.6459 -0.1934  0.4024
  203MPD1    C5 3141   3.237   2.238  12.590 -0.2551  0.2684  0.0903
  203MPD1     H 3142   3.475   2.039  12.357 -0.2327 -1.1288  0.0597
  203MPD1    H1 3143   3.379   2.248  12.729  1.2647 -0.5900  0.1846
  203MPD1    H2 3144   3.093   2.223  12.432  0.4544 -0.5359 -0.9445
  203MPD1    H3 3145   3.178   2.301  12.655 -1.5344 -2.7241  1.8334
  203MPD1     N 3146   3.583   2.099  12.596 -0.5341 -0.4069 -0.2933
  203MPD1    H5 3147   3.623   2.021  12.544  2.2165  1.3959 -0.8527
  203MPD1    N1 3148   3.226   2.070  12.261 -0.0286  0.3613 -0.2698
  203MPD1    H6 3149   3.304   2.061  12.196 -1.1886  2.0484 -1.8976
  203MPD1    H7 3150   3.155   2.125  12.213 -1.6044 -0.4307  1.1388
  204MPD1     C 3151   3.497   3.752  17.283  0.2610 -0.5103  0.0360
  204MPD1    C1 3152   3.525   3.645  17.216  0.4105 -0.1387  0.8913
  204MPD1    C2 3153   3.470   3.533  17.273 -0.5853  0.4260  0.2556
  204MPD1    C3 3154   3.406   3.528  17.394 -0.1120  0.7681  0.3958
  204MPD1    C4 3155   3.390   3.640  17.464  0.0810  0.1394 -0.0572
  204MPD1    C5 3156   3.436   3.760  17.407  0.6327  0.6083  0.7888
  204MPD1     H 3157   3.486   3.445  17.212 -0.8618  1.1383 -0.8389
  204MPD1    H1 3158   3.342   3.638  17.561  2.5521 -2.4882  1.0981
  204MPD1    H2 3159   3.524   3.852  17.251 -0.0616 -0.1261  0.9354
  204MPD1    H3 3160   3.429   3.855  17.458  2.9903  0.1448  1.9932
  204MPD1     N 3161   3.355   3.402  17.434  0.1310 -0.0978  0.5457
  204MPD1    H5 3162   3.378   3.326  17.371  1.5923  1.3970 -0.7133
  204MPD1    N1 3163   3.568   3.643  17.083  0.2589  0.0262  0.0506
  204MPD1    H6 3164   3.616   3.558  17.053  1.2134  0.1286  1.3028
  204MPD1    H7 3165   3.633   3.719  17.066 -1.1995  1.2925  0.1468
  205MPD1     C 3166   3.129   2.132   1.211 -0.0064  0.2426 -0.0245
  205MPD1    C1 3167   3.139   2.262   1.172  0.1910 -1.0556  0.1603
  205MPD1    C2 3168   3.108   2.285   1.037 -0.0269  0.0858  0.2320
  205MPD1    C3 3169   3.087   2.183   0.937  0.0578  0.2682  0.0389
  205MPD1    C4 3170   3.079   2.052   0.991 -0.4934 -0.0503 -0.5653
  205MPD1    C5 3171   3.104   2.026   1.125 -0.2329  0.1098  0.1603
  205MPD1     H 3172   3.095   2.384   0.997 -1.3614 -0.9288 -1.8723
  205MPD1    H1 3173   3.062   1.966   0.928 -1.3774  0.6293 -1.2612
  205MPD1    H2 3174   3.142   2.102   1.315  0.8813 -0.9265 -0.4646
  205MPD1    H3 3175   3.107   1.923   1.159 -0.3192  1.2437  3.5640
  205MPD1     N 3176   3.053   2.200   0.803  0.1258  0.3849 -0.1659
  205MPD1    H5 3177   3.052   2.116   0.746  2.2975 -0.0692  0.4525
  205MPD1    N1 3178   3.141   2.375   1.260  0.3578  0.0795  0.2165
  205MPD1    H6 3179   3.150   2.467   1.219  0.5805 -0.0896 -0.1118
  205MPD1    H7 3180   3.203   2.375   1.341 -0.0835 -1.0220  0.5646
  206MPD1     C 3181   3.854   0.360  16.982 -0.6022  0.1804 -0.0526
  206MPD1    C1 3182   3.780   0.474  16.989  0.0402 -0.4076  0.7509
  206MPD1    C2 3183   3.717   0.511  16.878 -0.1483 -0.3872 -0.4654
  206MPD1    C3 3184   3.716   0.434  16.762  1.0406  0.1481 -0.2560
  206MPD1    C4 3185   3.793   0.324  16.760  0.0852 -0.4558  0.5871
  206MPD1    C5 3186   3.864   0.287  16.867 -0.6549 -0.3890 -0.1175
  206MPD1     H 3187   3.654   0.598  16.890  1.4750  0.4670  1.8330
  206MPD1    H1 3188   3.782   0.259  16.674 -0.8889  2.0566 -1.1912
  206MPD1    H2 3189   3.918   0.323  17.062  0.6267  0.8346 -0.7330
  206MPD1    H3 3190   3.913   0.190  16.866 -1.1083 -0.5958 -1.6761
  206MPD1     N 3191   3.630   0.457  16.650  0.0658  0.1904 -0.3236
  206MPD1    H5 3192   3.655   0.399  16.570 -2.8009 -1.5242  0.0197
  206MPD1    N1 3193   3.764   0.545  17.109  0.5271 -0.1733 -0.3726
  206MPD1    H6 3194   3.742   0.643  17.090  2.0147  0.2413  0.0804
  206MPD1    H7 3195   3.854   0.537  17.155  0.3730 -0.2571 -0.0856
  207MPD1     C 3196   0.512   2.184   9.633  0.4481 -1.1562 -0.2425
  207MPD1    C1 3197   0.523   2.320   9.642  0.2987  0.2296 -0.4250
  207MPD1    C2 3198   0.596   2.375   9.744  0.1776 -0.2230  0.6421
  207MPD1    C3 3199   0.673   2.292   9.823 -0.4651 -0.2083  0.6327
  207MPD1    C4 3200   0.669   2.155   9.805  0.7760  0.0150  0.3485
  207MPD1    C5 3201   0.586   2.107   9.711  0.9603 -0.1491 -0.3586
  207MPD1     H 3202   0.591   2.483   9.756  0.3790 -0.3677  1.9412
  207MPD1    H1 3203   0.713   2.077   9.866  0.9863 -1.5639 -1.8508
  207MPD1    H2 3204   0.444   2.132   9.567 -0.6199 -2.1852  1.6734
  207MPD1    H3 3205   0.573   2.000   9.700  1.2920  0.1331 -3.6670
  207MPD1     N 3206   0.764   2.347   9.922  0.0501 -0.3979 -0.5151
  207MPD1    H5 3207   0.818   2.277   9.973  1.8507  0.4285 -1.2697
  207MPD1    N1 3208   0.421   2.396   9.584  0.1322  0.6353  0.6053
  207MPD1    H6 3209   0.390   2.358   9.495 -0.5536  0.8189  0.7668
  207MPD1    H7 3210   0.452   2.492   9.572  0.8122  0.4149  0.6044
  208MPD1     C 3211   2.433   0.606  17.727 -0.0938 -0.1866 -0.3447
  208MPD1    C1 3212   2.549   0.655  17.670  0.4979  0.0717  0.2335
  208MPD1    C2 3213   2.601   0.769  17.734 -0.4594 -0.0167 -0.2875
  208MPD1    C3 3214   2.547   0.821   0.091 -0.2744 -0.7831 -0.8502
  208MPD1    C4 3215   2.443   0.756   0.151  0.4322 -0.0492  0.5669
  208MPD1    C5 3216   2.378   0.654   0.090 -0.4138  0.0226 -0.0018
  208MPD1     H 3217   2.677   0.826  17.681  0.5478 -1.1008 -0.0166
  208MPD1    H1 3218   2.397   0.780   0.246  2.0558  0.6852  1.1725
  208MPD1    H2 3219   2.371   0.524  17.691  1.4286 -1.3818 -0.2605
  208MPD1    H3 3220   2.290   0.607   0.130 -0.0796 -0.1408  0.5365
  208MPD1     N 3221   2.614   0.933   0.153 -0.1669  0.2563  0.1526
  208MPD1    H5 3222   2.706   0.956   0.115  0.0595 -2.9697 -1.2044
  208MPD1    N1 3223   2.590   0.614  17.542 -0.7918 -0.4615 -0.4057
  208MPD1    H6 3224   2.577   0.513  17.535  1.0818 -0.6845 -0.5805
  208MPD1    H7 3225   2.690   0.624  17.526 -0.7095 -2.2148 -0.9779
  209MPD1     C 3226   0.790   1.619  11.600 -0.1576  0.0854 -0.2733
  209MPD1    C1 3227   0.764   1.592  11.467  0.1185  1.0552 -0.0120
  209MPD1    C2 3228   0.824   1.684  11.383 -0.1787  0.2122 -0.2761
  209MPD1    C3 3229   0.907   1.789  11.412 -0.0807 -0.2192 -0.7926
  209MPD1    C4 3230   0.925   1.808  11.547 -0.4357  0.5019  0.3743
  209MPD1    C5 3231   0.872   1.723  11.641 -0.8974  0.1466 -0.0056
  209MPD1     H 3232   0.784   1.677  11.283 -0.1177  0.2632 -0.3033
  209MPD1    H1 3233   0.997   1.881  11.578  1.3355 -1.6577  1.3386
  209MPD1    H2 3234   0.742   1.563  11.679 -0.9999  1.6216  0.3176
  209MPD1    H3 3235   0.879   1.748  11.746  2.2281 -0.3565 -0.0869
  209MPD1     N 3236   0.969   1.876  11.312  0.0196  0.6784 -0.3915
  209MPD1    H5 3237   0.948   1.845  11.217  0.1847  0.6181 -0.4077
  209MPD1    N1 3238   0.663   1.503  11.428  0.5424 -0.1407 -0.2941
  209MPD1    H6 3239   0.654   1.426  11.494 -0.2846 -0.4942 -0.8248
  209MPD1    H7 3240   0.667   1.469  11.332  3.9218  1.3312 -0.6738
  210MPD1     C 3241   1.622   2.614  11.456 -1.0247  0.1556  0.0134
  210MPD1    C1 3242   1.660   2.556  11.336  0.3133 -0.1920 -0.0261
  210MPD1    C2 3243   1.568   2.469  11.280 -0.0977 -0.6838  0.0041
  210MPD1    C3 3244   1.455   2.420  11.343 -0.1371 -0.7054 -0.5975
  210MPD1    C4 3245   1.426   2.465  11.464 -0.1482  0.0314  0.4222
  210MPD1    C5 3246   1.512   2.562  11.515 -0.3090  0.0352 -0.3199
  210MPD1     H 3247   1.610   2.426  11.190  0.3531 -0.1823 -0.0284
  210MPD1    H1 3248   1.344   2.426  11.523 -0.8858  0.9090 -0.0092
  210MPD1    H2 3249   1.690   2.680  11.508 -1.1936 -1.3757  2.2021
  210MPD1    H3 3250   1.482   2.603  11.611 -0.1190  1.5349 -0.8855
  210MPD1     N 3251   1.373   2.325  11.290  0.1308  0.0451  0.6208
  210MPD1    H5 3252   1.297   2.289  11.347 -1.0898 -0.5011 -1.3756
  210MPD1    N1 3253   1.761   2.615  11.266 -0.1968 -0.2443  0.4350
  210MPD1    H6 3254   1.843   2.643  11.321  2.4445 -2.6786 -2.2866
  210MPD1    H7 3255   1.798   2.541  11.206  1.3644  0.4334  0.5504
  211MPD1     C 3256   3.565   2.244  15.369  0.4198  0.0452  0.6989
  211MPD1    C1 3257   3.429   2.270  15.360  0.4165  0.4545  0.6948
  211MPD1    C2 3258   3.363   2.301  15.475  0.0435 -0.6970  0.4561
  211MPD1    C3 3259   3.433   2.318  15.594 -0.0473 -0.5860 -0.2477
  211MPD1    C4 3260   3.566   2.299  15.596 -0.0494  0.7921  0.7648
  211MPD1    C5 3261   3.629   2.255  15.486 -0.0959  0.0316  0.0742
  211MPD1     H 3262   3.259   2.329  15.469  0.6028  1.1408 -0.7882
  211MPD1    H1 3263   3.627   2.320  15.683  0.5448  0.7871  0.3489
  211MPD1    H2 3264   3.620   2.215  15.280 -2.4614 -0.9408 -0.7784
  211MPD1    H3 3265   3.736   2.243  15.476 -0.5470 -3.7477 -0.1668
  211MPD1     N 3266   3.364   2.367  15.706 -0.8457 -0.3150  0.3462
  211MPD1    H5 3267   3.264   2.368  15.691 -0.7945 -3.5904 -0.3736
  211MPD1    N1 3268   3.344   2.234  15.252  0.4468  0.6360 -0.3436
  211MPD1    H6 3269   3.394   2.238  15.164 -0.2970  1.2431 -0.7373
  211MPD1    H7 3270   3.264   2.294  15.234  1.1368  2.1299  1.5209
  212MPD1     C 3271   2.902   0.504  16.431  1.0226 -0.8997  0.1289
  212MPD1    C1 3272   2.825   0.554  16.532 -0.3417  0.9666  0.4208
  212MPD1    C2 3273   2.762   0.477  16.627 -0.9478 -1.0725 -0.2034
  212MPD1    C3 3274   2.760   0.339  16.603 -0.4377  0.3995  0.5676
  212MPD1    C4 3275   2.844   0.284  16.498 -0.0606 -0.0954  1.0263
  212MPD1    C5 3276   2.920   0.370  16.423  0.7780 -0.3083  0.6367
  212MPD1     H 3277   2.699   0.529  16.698 -1.1598 -0.3682 -0.9056
  212MPD1    H1 3278   2.861   0.179  16.481  0.1874  0.2829 -0.9974
  212MPD1    H2 3279   2.957   0.571  16.366  1.1603 -0.6822  0.4709
  212MPD1    H3 3280   2.969   0.335  16.334 -0.3141 -0.5893  0.1536
  212MPD1     N 3281   2.676   0.252  16.671 -0.0022  0.2258 -0.1896
  212MPD1    H5 3282   2.704   0.157  16.652 -0.3972  0.0468  0.1306
  212MPD1    N1 3283   2.830   0.692  16.552  0.0286  0.2557  0.9546
  212MPD1    H6 3284   2.868   0.741  16.471 -0.8869  1.0613  1.0111
  212MPD1    H7 3285   2.742   0.730  16.586 -0.0266  1.0981 -0.1046
  213MPD1     C 3286   1.015   0.612  16.081 -0.1164  0.5758 -0.0933
  213MPD1    C1 3287   1.047   0.732  16.027 -0.7165 -0.2843  0.5700
  213MPD1    C2 3288   1.008   0.748  15.892  0.9330 -0.5114  0.4040
  213MPD1    C3 3289   0.915   0.666  15.830 -0.1567 -0.6696 -0.2885
  213MPD1    C4 3290   0.869   0.560  15.901 -0.5743  0.5324  0.4358
  213MPD1    C5 3291   0.923   0.528  16.022  0.2958  0.4349  0.4683
  213MPD1     H 3292   1.032   0.836  15.833  1.8482 -2.0723 -1.5502
  213MPD1    H1 3293   0.798   0.492  15.854  1.1332 -0.9327 -0.0396
  213MPD1    H2 3294   1.039   0.591  16.185  1.1342 -0.0415 -0.5067
  213MPD1    H3 3295   0.889   0.435  16.067  0.0331  0.9120  1.2600
  213MPD1     N 3296   0.872   0.705  15.700 -0.1853  0.0678  0.2321
  213MPD1    H5 3297   0.921   0.777  15.649  0.6850  0.6689  1.9054
  213MPD1    N1 3298   1.163   0.798  16.067  0.2926 -0.0765  0.3683
  213MPD1    H6 3299   1.156   0.892  16.029 -0.0681  0.1493  0.9968
  213MPD1    H7 3300   1.162   0.808  16.168 -0.2554 -0.1335  0.3681
  214MPD1     C 3301   0.167   0.459  14.901 -0.2625  0.1276  0.6485
  214MPD1    C1 3302   0.290   0.405  14.920 -0.1572 -0.6686 -0.4838
  214MPD1    C2 3303   0.390   0.473  14.998 -0.2220 -0.2901 -0.2121
  214MPD1    C3 3304   0.361   0.594  15.052 -0.1539  0.2374 -0.7166
  214MPD1    C4 3305   0.246   0.653  15.013 -0.7310 -0.2275 -0.4048
  214MPD1    C5 3306   0.151   0.586  14.946 -0.2613 -0.4571 -0.6005
  214MPD1     H 3307   0.485   0.423  15.012  0.5561  1.3249  0.3035
  214MPD1    H1 3308   0.219   0.752  15.047  1.4476  0.9522 -2.1071
  214MPD1    H2 3309   0.092   0.400  14.850  0.6179 -0.4498  0.0062
  214MPD1    H3 3310   0.055   0.635  14.929 -1.4824 -2.0440  1.6774
  214MPD1     N 3311   0.460   0.650  15.141  0.2315  0.2353 -0.1182
  214MPD1    H5 3312   0.443   0.745  15.172 -1.9852 -1.0562  2.6818
  214MPD1    N1 3313   0.317   0.274  14.872  0.2252 -0.0701 -0.2175
  214MPD1    H6 3314   0.415   0.264  14.847 -0.0117 -1.2739 -0.6392
  214MPD1    H7 3315   0.269   0.264  14.783  0.7221 -0.8130 -0.4018
  215MPD1     C 3316   0.029   1.318  11.362  0.7123  0.5799 -0.1143
  215MPD1    C1 3317   0.134   1.306  11.451  0.4758  0.1280  0.6052
  215MPD1    C2 3318   0.232   1.402  11.450  1.2613 -0.1994 -0.0957
  215MPD1    C3 3319   0.239   1.498  11.361  0.0489  0.3979  0.3883
  215MPD1    C4 3320   0.136   1.510  11.275  0.4669  0.1465 -0.3117
  215MPD1    C5 3321   0.036   1.419  11.274 -0.1549 -0.3695 -0.7376
  215MPD1     H 3322   0.306   1.399  11.529  1.0448 -0.2261  0.1061
  215MPD1    H1 3323   0.124   1.578  11.191  0.0163  0.5785  0.1001
  215MPD1    H2 3324   4.688   1.247  11.348  1.6256 -0.6659  0.8454
  215MPD1    H3 3325   4.690   1.446  11.214 -0.0606  0.9063 -0.3063
  215MPD1     N 3326   0.349   1.590  11.365 -0.8424  0.1756  0.1826
  215MPD1    H5 3327   0.423   1.572  11.431 -0.7424  1.4179  0.4014
  215MPD1    N1 3328   0.147   1.183  11.521  1.4983  0.0439  0.3285
  215MPD1    H6 3329   0.054   1.150  11.547  1.3023 -0.0959 -0.5437
  215MPD1    H7 3330   0.198   1.171  11.608  2.5434 -4.2395 -0.8594
  216MPD1     C 3331   2.732   0.458  17.023 -0.1078  0.4174  0.5449
  216MPD1    C1 3332   2.794   0.340  17.035 -0.8102  0.3457 -0.2383
  216MPD1    C2 3333   2.787   0.270  17.156  0.1825  0.2750  0.0945
  216MPD1    C3 3334   2.699   0.304  17.252 -0.4114 -0.2100 -0.4406
  216MPD1    C4 3335   2.626   0.421  17.237  0.1052 -0.7682  0.1397
  216MPD1    C5 3336   2.637   0.490  17.116 -0.6596  0.1525  0.2634
  216MPD1     H 3337   2.841   0.177  17.165  1.9385  1.2651 -0.1071
  216MPD1    H1 3338   2.548   0.453  17.304 -1.5950  1.4180 -2.8507
  216MPD1    H2 3339   2.738   0.517  16.932 -1.4544  0.3798  0.4319
  216MPD1    H3 3340   2.576   0.578  17.100 -1.6831 -0.2686  1.8425
  216MPD1     N 3341   2.671   0.211  17.355  0.1166  0.6456  0.0376
  216MPD1    H5 3342   2.712   0.118  17.353 -0.2228  0.5154 -0.8229
  216MPD1    N1 3343   2.899   0.315  16.951  0.3766 -0.1683 -0.1418
  216MPD1    H6 3344   2.866   0.342  16.858 -0.9960  2.7925  1.1905
  216MPD1    H7 3345   2.919   0.216  16.947  0.0318 -0.2878  1.4371
  217MPD1     C 3346   2.429   0.316   9.115 -0.1592 -0.4325  0.0612
  217MPD1    C1 3347   2.409   0.363   9.243  0.3180  0.5669 -0.8645
  217MPD1    C2 3348   2.510   0.400   9.328 -0.0847 -0.8841  1.2233
  217MPD1    C3 3349   2.638   0.354   9.286 -0.0271  0.4324 -0.4251
  217MPD1    C4 3350   2.657   0.295   9.160  1.1431  0.0194 -0.1286
  217MPD1    C5 3351   2.549   0.270   9.076  0.2388 -0.3080  0.0693
  217MPD1     H 3352   2.495   0.453   9.421 -0.2333  0.3828  0.4842
  217MPD1    H1 3353   2.754   0.253   9.133 -0.8984 -2.4572 -3.5819
  217MPD1    H2 3354   2.343   0.294   9.053 -1.5828  2.9226  0.8383
  217MPD1    H3 3355   2.560   0.236   8.974 -1.2195  0.7329 -0.4289
  217MPD1     N 3356   2.754   0.365   9.368 -0.1198 -0.4762  0.2537
  217MPD1    H5 3357   2.837   0.342   9.315  0.3370  1.9223 -0.0782
  217MPD1    N1 3358   2.276   0.410   9.267 -0.1752 -0.1508 -0.4649
  217MPD1    H6 3359   2.253   0.418   9.366 -3.5012  0.1590 -1.2599
  217MPD1    H7 3360   2.210   0.344   9.227  1.0530 -0.9242 -1.2108
  218MPD1     C 3361   4.395   2.669  12.927 -0.3016 -0.6957  0.4745
  218MPD1    C1 3362   4.530   2.685  12.943 -0.8298 -1.1897  0.5922
  218MPD1    C2 3363   4.613   2.585  12.891 -0.2791 -0.2395 -0.6054
  218MPD1    C3 3364   4.568   2.460  12.846 -0.2717 -0.5182  0.1180
  218MPD1    C4 3365   4.430   2.452  12.829 -0.0927  0.0057  0.5651
  218MPD1    C5 3366   4.351   2.558  12.864 -0.0497 -1.1066  0.8214
  218MPD1     H 3367   4.721   2.593  12.899 -0.2290 -1.1212 -0.3030
  218MPD1    H1 3368   4.372   2.368  12.792 -2.9347  2.1848  0.1078
  218MPD1    H2 3369   4.318   2.735  12.965  0.1412 -0.1938  0.4918
  218MPD1    H3 3370   4.245   2.537  12.872 -0.8193  1.4772 -2.5530
  218MPD1     N 3371   4.667   2.359  12.822  0.0622  0.2420  0.7662
  218MPD1    H5 3372   0.024   2.388  12.829 -0.0295  1.2194 -1.9802
  218MPD1    N1 3373   4.580   2.805  12.978 -0.2806 -0.3320 -0.3439
  218MPD1    H6 3374   4.515   2.873  13.017 -0.7425 -1.4945  0.9165
  218MPD1    H7 3375   4.664   2.797  13.036 -1.1558  0.2376  1.0149
  219MPD1     C 3376   0.084   1.686  12.076 -0.1211  0.7623  0.9303
  219MPD1    C1 3377   0.190   1.767  12.097  1.0094 -0.6592  0.1392
  219MPD1    C2 3378   0.208   1.837  12.210 -0.6435 -0.6663 -0.2319
  219MPD1    C3 3379   0.111   1.834  12.309 -0.7026  0.0957  0.3824
  219MPD1    C4 3380   4.730   1.770  12.283 -0.2186 -0.1038 -0.0087
  219MPD1    C5 3381   4.719   1.705  12.165 -0.3944 -0.5363  0.5150
  219MPD1     H 3382   0.301   1.891  12.226 -0.9323  0.0489 -0.9461
  219MPD1    H1 3383   4.644   1.790  12.346  0.4742 -0.6480  1.1206
  219MPD1    H2 3384   0.071   1.613  11.997  2.5002  1.2293  0.0663
  219MPD1    H3 3385   4.626   1.651  12.149 -1.0143  0.4764  0.6849
  219MPD1     N 3386   0.115   1.908  12.427  0.2298  0.1438  0.6246
  219MPD1    H5 3387   0.038   1.913  12.492 -0.4786  1.3362 -0.2922
  219MPD1    N1 3388   0.293   1.771  12.001 -0.5203  0.3553 -0.0228
  219MPD1    H6 3389   0.356   1.851  12.009  2.2157 -1.5498 -2.4464
  219MPD1    H7 3390   0.268   1.743  11.907  1.9640  2.4067 -1.3152
  220MPD1     C 3391   0.322   2.718   9.776 -0.0855  0.7213  0.7359
  220MPD1    C1 3392   0.436   2.700   9.856 -0.4736  0.0354 -0.6853
  220MPD1    C2 3393   0.416   2.614   9.961 -0.0955  0.7216  0.2952
  220MPD1    C3 3394   0.294   2.550   9.987  0.8661  0.5447 -0.4283
  220MPD1    C4 3395   0.191   2.568   9.901 -0.0814  0.0676  0.4492
  220MPD1    C5 3396   0.201   2.655   9.798 -0.3335 -0.0546 -0.3751
  220MPD1     H 3397   0.497   2.601  10.031 -1.2193  2.6411  1.9340
  220MPD1    H1 3398   0.097   2.516   9.917  0.1983 -1.2012 -1.9063
  220MPD1    H2 3399   0.318   2.797   9.703 -0.1468 -0.4897 -0.5692
  220MPD1    H3 3400   0.120   2.660   9.726  0.2278  0.5763 -0.9694
  220MPD1     N 3401   0.279   2.470  10.105  1.0145 -0.0739  0.2016
  220MPD1    H5 3402   0.365   2.462  10.159  0.7264  1.8837  0.9569
  220MPD1    N1 3403   0.552   2.776   9.843 -0.1953 -0.4905  0.2163
  220MPD1    H6 3404   0.569   2.807   9.748  0.3346 -0.3740  0.3529
  220MPD1    H7 3405   0.630   2.718   9.872  0.3716  0.9424  1.5517
  221MPD1     C 3406   2.921   1.633  16.305  1.2028  0.1165  0.0126
  221MPD1    C1 3407   2.965   1.556  16.408 -0.2731 -0.0915 -0.2183
  221MPD1    C2 3408   3.052   1.452  16.373  0.6212  0.2151  0.5439
  221MPD1    C3 3409   3.101   1.425  16.243  0.2244  0.0013 -0.2251
  221MPD1    C4 3410   3.059   1.513  16.147 -0.2017 -0.6810 -0.9534
  221MPD1    C5 3411   2.963   1.614  16.173 -0.8620  0.2190  0.1654
  221MPD1     H 3412   3.070   1.378  16.449  1.1557 -0.4419 -0.2223
  221MPD1    H1 3413   3.082   1.506  16.041 -0.8335 -0.0816 -1.1370
  221MPD1    H2 3414   2.853   1.715  16.325  0.5091 -0.2384 -0.8639
  221MPD1    H3 3415   2.938   1.691  16.100 -0.7292 -0.5674 -0.7068
  221MPD1     N 3416   3.202   1.333  16.216  0.8049 -0.0123  0.2761
  221MPD1    H5 3417   3.233   1.345  16.120  2.8066  0.4549  0.9782
  221MPD1    N1 3418   2.908   1.557  16.534  0.5631 -0.5416  0.6016
  221MPD1    H6 3419   2.900   1.655  16.562 -0.2003 -0.2761 -0.5504
  221MPD1    H7 3420   2.970   1.524  16.608  0.7189 -1.6280 -0.0192
  222MPD1     C 3421   2.156   4.705   0.309  0.4551  0.6733  0.4494
  222MPD1    C1 3422   2.255   0.053   0.265 -0.4048  0.2407  0.2173
  222MPD1    C2 3423   2.259   0.180   0.323 -0.4894 -0.1719  0.2079
  222MPD1    C3 3424   2.178   0.214   0.435 -0.0203 -0.1455  0.4950
  222MPD1    C4 3425   2.097   0.114   0.486 -0.3371 -0.4433  0.4089
  222MPD1    C5 3426   2.082   4.734   0.419  0.6234  0.0608  0.6437
  222MPD1     H 3427   2.313   0.256   0.267 -0.2959  0.1372  0.8114
  222MPD1    H1 3428   2.030   0.131   0.569  0.5147 -1.8210  1.3777
  222MPD1    H2 3429   2.154   4.607   0.263 -1.0920  0.7956  0.2622
  222MPD1    H3 3430   2.013   4.660   0.459  0.6672 -0.1042  0.4122
  222MPD1     N 3431   2.175   0.343   0.493  0.6561  0.3717  0.8639
  222MPD1    H5 3432   2.118   0.347   0.577  1.9789  0.9898  1.7347
  222MPD1    N1 3433   2.330   0.022   0.155 -0.1459 -0.2130  0.4064
  222MPD1    H6 3434   2.402   0.094   0.155 -0.5252  0.1533  1.6509
  222MPD1    H7 3435   2.278   0.039   0.069  0.4469  1.5473  0.3956
  223MPD1     C 3436   1.585   1.027   0.883  0.6621  0.1260 -0.4841
  223MPD1    C1 3437   1.691   1.046   0.970  1.0209  0.3197 -0.2614
  223MPD1    C2 3438   1.813   0.998   0.930 -0.0348  0.3519 -0.0210
  223MPD1    C3 3439   1.826   0.927   0.814  0.1588 -0.4157 -0.0390
  223MPD1    C4 3440   1.712   0.918   0.732 -0.4253 -0.2900  0.4243
  223MPD1    C5 3441   1.593   0.978   0.759  0.4733 -0.5160 -0.4301
  223MPD1     H 3442   1.902   0.988   0.991  0.7603  0.8174 -1.0891
  223MPD1    H1 3443   1.723   0.868   0.637  0.3604  0.1922  0.2572
  223MPD1    H2 3444   1.489   1.065   0.917  1.0393  1.2028 -0.6203
  223MPD1    H3 3445   1.502   0.987   0.701 -0.5927 -1.3500  1.1175
  223MPD1     N 3446   1.947   0.854   0.789 -0.3449 -0.5333 -0.1695
  223MPD1    H5 3447   2.028   0.873   0.847 -0.8453  0.8597  0.0789
  223MPD1    N1 3448   1.670   1.088   1.106  0.6908 -0.0297  0.2043
  223MPD1    H6 3449   1.758   1.113   1.151 -0.1676 -0.0705  1.8884
  223MPD1    H7 3450   1.602   1.162   1.118  0.9928 -0.1385  2.4292
  224MPD1     C 3451   2.552   1.181   9.773 -1.0865  0.3860 -0.7592
  224MPD1    C1 3452   2.622   1.176   9.656  0.0733  0.7378 -0.6504
  224MPD1    C2 3453   2.754   1.202   9.665 -0.3805  0.2784  0.1244
  224MPD1    C3 3454   2.822   1.246   9.787 -0.5912 -0.3084 -0.7184
  224MPD1    C4 3455   2.747   1.243   9.897 -0.6465 -0.6655 -0.0138
  224MPD1    C5 3456   2.617   1.203   9.888  0.1999  0.8159  0.5825
  224MPD1     H 3457   2.810   1.176   9.576 -2.4825 -1.5488 -0.6780
  224MPD1    H1 3458   2.784   1.263   9.997  0.3193  0.6460 -0.6355
  224MPD1    H2 3459   2.445   1.165   9.780 -0.8007 -1.2331 -0.1703
  224MPD1    H3 3460   2.571   1.190   9.986 -0.6454  3.4096  0.5381
  224MPD1     N 3461   2.962   1.272   9.803  0.6819  0.4720 -0.1956
  224MPD1    H5 3462   2.987   1.282   9.901 -1.7237  3.2112  0.1551
  224MPD1    N1 3463   2.567   1.132   9.539  0.6634  0.3780 -0.3338
  224MPD1    H6 3464   2.471   1.163   9.549  0.8901  0.5523  1.4284
  224MPD1    H7 3465   2.609   1.156   9.450  3.4864  0.5772  1.0575
  225MPD1     C 3466   0.743   2.601  12.016 -0.1049 -0.7650 -0.2013
  225MPD1    C1 3467   0.719   2.734  12.043  0.4961 -0.0674 -0.4444
  225MPD1    C2 3468   0.616   2.764  12.127  0.5358  0.5786 -0.1262
  225MPD1    C3 3469   0.536   2.666  12.184 -0.5071 -0.0048 -0.1004
  225MPD1    C4 3470   0.551   2.536  12.139 -0.4946  0.4079  0.4907
  225MPD1    C5 3471   0.658   2.503  12.058 -0.0997  0.2247  0.4647
  225MPD1     H 3472   0.597   2.866  12.159 -0.8096  0.0929  0.6122
  225MPD1    H1 3473   0.482   2.454  12.159  1.4995 -0.7084  2.8735
  225MPD1    H2 3474   0.829   2.569  11.956  0.8147 -0.3420  0.8967
  225MPD1    H3 3475   0.679   2.400  12.033 -2.1851 -0.1738  0.2906
  225MPD1     N 3476   0.427   2.691  12.270 -0.0497  0.6177 -0.3997
  225MPD1    H5 3477   0.384   2.610  12.312 -0.8386  0.7217 -1.0226
  225MPD1    N1 3478   0.820   2.825  12.009 -0.1476  0.6192 -0.7868
  225MPD1    H6 3479   0.858   2.798  11.919  1.4530 -2.5898  0.8694
  225MPD1    H7 3480   0.789   2.922  12.006  0.9431  1.0006  0.4104
  226MPD1     C 3481   2.653   3.432   9.791 -0.3033 -0.1327 -0.5448
  226MPD1    C1 3482   2.659   3.316   9.862  1.1462  0.2394 -0.1415
  226MPD1    C2 3483   2.788   3.270   9.889  0.0038 -0.6894 -0.4812
  226MPD1    C3 3484   2.907   3.349   9.879 -0.2976 -0.1316  0.0901
  226MPD1    C4 3485   2.903   3.464   9.808  0.1776  0.3313  0.2415
  226MPD1    C5 3486   2.777   3.500   9.767  0.7523 -0.7875  0.3803
  226MPD1     H 3487   2.789   3.177   9.943 -4.2278  0.4442  1.5790
  226MPD1    H1 3488   2.995   3.514   9.777 -1.0724  2.8872  0.6904
  226MPD1    H2 3489   2.558   3.471   9.758 -1.3143 -0.7906  1.5739
  226MPD1    H3 3490   2.777   3.592   9.709  0.3758 -1.8772 -1.3386
  226MPD1     N 3491   3.022   3.282   9.921  0.3922 -0.0899 -0.1602
  226MPD1    H5 3492   3.008   3.187   9.952  0.7211  0.6931  2.3453
  226MPD1    N1 3493   2.549   3.233   9.874 -0.0025  0.2692 -0.6697
  226MPD1    H6 3494   2.462   3.286   9.873  1.0211  1.9399 -0.2443
  226MPD1    H7 3495   2.550   3.184   9.963  0.7486 -3.1431 -2.5429
  227MPD1     C 3496   4.102   3.349   9.806  0.2532  0.0462  0.1932
  227MPD1    C1 3497   4.046   3.255   9.730 -0.2926  0.6094 -0.5534
  227MPD1    C2 3498   3.916   3.199   9.750  0.1593  0.2324 -0.6240
  227MPD1    C3 3499   3.835   3.258   9.851 -0.2738 -0.4087  0.1752
  227MPD1    C4 3500   3.888   3.363   9.925  0.1868 -0.7351 -0.1534
  227MPD1    C5 3501   4.016   3.407   9.904  0.0620 -0.9217 -0.1491
  227MPD1     H 3502   3.869   3.129   9.682  0.1865 -1.4072  1.0570
  227MPD1    H1 3503   3.834   3.418  10.001 -0.0858  1.8511 -2.2192
  227MPD1    H2 3504   4.204   3.384   9.792 -0.4031  1.1358 -1.7587
  227MPD1    H3 3505   4.056   3.487   9.965 -0.9089  0.0353 -0.7746
  227MPD1     N 3506   3.705   3.213   9.865 -1.1094  0.6633  0.7164
  227MPD1    H5 3507   3.685   3.128   9.814  2.8176 -0.0107  0.2763
  227MPD1    N1 3508   4.139   3.199   9.639  0.1328 -0.4249 -0.1151
  227MPD1    H6 3509   4.098   3.145   9.564  0.2709 -2.0433  0.9652
  227MPD1    H7 3510   4.221   3.253   9.612  0.2371 -0.2047  0.6484
  228MPD1     C 3511   2.173   0.781  12.253 -0.1546  0.3393 -0.8411
  228MPD1    C1 3512   2.194   0.813  12.388 -0.5504  0.5083 -0.2245
  228MPD1    C2 3513   2.082   0.793  12.472 -0.4403 -0.8413 -0.2229
  228MPD1    C3 3514   1.958   0.779  12.416 -0.1285 -0.1567 -0.1261
  228MPD1    C4 3515   1.943   0.748  12.279 -0.0764 -0.2715  0.3890
  228MPD1    C5 3516   2.051   0.750  12.200  0.3485  0.0411  0.2147
  228MPD1     H 3517   2.095   0.799  12.579 -1.4177  0.5707 -0.1858
  228MPD1    H1 3518   1.846   0.729  12.234 -0.0990  0.1736  0.2542
  228MPD1    H2 3519   2.254   0.774  12.181 -1.2997 -0.0641 -2.0832
  228MPD1    H3 3520   2.042   0.737  12.093 -1.8006  2.1891  0.1270
  228MPD1     N 3521   1.849   0.783  12.513 -0.1037 -0.3190  0.0736
  228MPD1    H5 3522   1.870   0.767  12.611 -0.5711 -0.1034  0.2057
  228MPD1    N1 3523   2.320   0.849  12.440 -0.5371  1.4320 -0.4250
  228MPD1    H6 3524   2.324   0.899  12.528 -0.1944 -0.4523  0.6141
  228MPD1    H7 3525   2.374   0.902  12.372  0.6674  1.2522  0.4062
  229MPD1     C 3526   2.527   3.507  14.262 -0.2881  0.7819 -0.2439
  229MPD1    C1 3527   2.459   3.619  14.237  0.9905 -0.4953 -0.6761
  229MPD1    C2 3528   2.368   3.655  14.326  0.3273 -0.6918  0.5445
  229MPD1    C3 3529   2.335   3.573  14.441  0.8876 -0.5397  0.5941
  229MPD1    C4 3530   2.396   3.451  14.445 -0.7271 -0.2548 -1.0415
  229MPD1    C5 3531   2.485   3.415  14.353 -0.4019  0.3344  0.6199
  229MPD1     H 3532   2.319   3.750  14.308 -0.0723 -1.0611 -0.3041
  229MPD1    H1 3533   2.381   3.380  14.526 -0.6195  0.3274 -0.5062
  229MPD1    H2 3534   2.604   3.472  14.194 -1.9187 -1.5651 -0.8800
  229MPD1    H3 3535   2.536   3.320  14.366 -0.5593  0.1810  0.0958
  229MPD1     N 3536   2.245   3.614  14.543 -0.5167 -0.0890  0.0462
  229MPD1    H5 3537   2.232   3.546  14.617 -2.6357  2.2004  1.7755
  229MPD1    N1 3538   2.503   3.711  14.142 -0.2280 -0.0761 -0.1737
  229MPD1    H6 3539   2.427   3.760  14.096 -1.3454  0.4147  2.2156
  229MPD1    H7 3540   2.574   3.680  14.076 -1.1634 -1.5001 -0.5281
  230MPD1     C 3541   2.079   4.177  15.407 -0.0718 -0.4158 -0.1583
  230MPD1    C1 3542   2.070   4.040  15.423 -0.8544 -0.0699  0.2356
  230MPD1    C2 3543   2.024   3.968  15.313  0.0668 -0.1277  0.0604
  230MPD1    C3 3544   2.021   4.023  15.188  0.0162 -0.3047 -0.0199
  230MPD1    C4 3545   2.036   4.161  15.172 -0.6377 -0.8602 -0.2583
  230MPD1    C5 3546   2.060   4.236  15.284  0.0759  0.5958 -0.3831
  230MPD1     H 3547   1.991   3.865  15.321 -0.5680  0.2362  2.0496
  230MPD1    H1 3548   2.015   4.210  15.078  0.3619  0.4893  0.2246
  230MPD1    H2 3549   2.111   4.236  15.493 -0.5846 -1.0134  0.4465
  230MPD1    H3 3550   2.068   4.343  15.273  2.1011  0.3000 -1.6803
  230MPD1     N 3551   2.000   3.933  15.073 -0.5953 -0.5589 -0.5009
  230MPD1    H5 3552   1.975   3.838  15.099  0.9132 -1.7194 -3.2725
  230MPD1    N1 3553   2.053   3.974  15.551  0.4092  0.2416 -0.4583
  230MPD1    H6 3554   2.105   4.017  15.628 -0.2476  0.0860  0.0701
  230MPD1    H7 3555   2.074   3.874  15.552 -2.2953 -0.3247 -0.9179
  231MPD1     C 3556   4.684   1.441  15.653 -0.1713 -0.0899 -0.1690
  231MPD1    C1 3557   4.659   1.415  15.519 -0.4634  0.2271  1.0962
  231MPD1    C2 3558   0.015   1.452  15.434  0.7607  0.2359  0.0429
  231MPD1    C3 3559   0.140   1.501  15.469 -0.1677 -0.1147 -0.1215
  231MPD1    C4 3560   0.160   1.526  15.606  0.7472 -0.0772  0.3334
  231MPD1    C5 3561   0.054   1.503  15.694 -0.0529  0.3817 -0.6831
  231MPD1     H 3562   4.729   1.444  15.329 -2.5122 -1.2140  0.9582
  231MPD1    H1 3563   0.254   1.558  15.648  1.6766 -0.4054 -1.4801
  231MPD1    H2 3564   4.599   1.423  15.719 -0.7041  0.3646 -0.7308
  231MPD1    H3 3565   0.080   1.530  15.796  0.0330  1.3981 -0.9753
  231MPD1     N 3566   0.226   1.535  15.365 -0.0866 -0.0073 -0.4215
  231MPD1    H5 3567   0.202   1.516  15.268  1.3100  0.8850 -0.9424
  231MPD1    N1 3568   4.539   1.353  15.484  1.5252  0.8029  0.2746
  231MPD1    H6 3569   4.463   1.383  15.545  1.0362  2.3010 -1.0775
  231MPD1    H7 3570   4.506   1.365  15.389 -0.9390 -1.5823  0.8086
  232MPD1     C 3571   1.989   4.002   0.197 -0.1778  0.4139 -0.5921
  232MPD1    C1 3572   2.011   3.867   0.220 -0.1076  0.1702 -0.0163
  232MPD1    C2 3573   1.924   3.784   0.152 -0.3763 -0.4479  0.1116
  232MPD1    C3 3574   1.818   3.835   0.088 -1.1531  0.5158 -0.2985
  232MPD1    C4 3575   1.791   3.972   0.077  0.0757  0.0168  0.0089
  232MPD1    C5 3576   1.878   4.053   0.140 -0.0088 -0.6870 -0.6793
  232MPD1     H 3577   1.941   3.677   0.153  5.1090  0.4175 -2.1750
  232MPD1    H1 3578   1.708   4.009   0.017  0.0011  0.0103  0.1069
  232MPD1    H2 3579   2.057   4.075   0.239  0.6367 -0.3518 -0.5925
  232MPD1    H3 3580   1.866   4.160   0.132  0.2272 -0.4894  1.6338
  232MPD1     N 3581   1.744   3.740   0.021  0.1086 -0.3290  0.4812
  232MPD1    H5 3582   1.776   3.645   0.037 -0.4315 -0.5880  0.0531
  232MPD1    N1 3583   2.132   3.812   0.267  0.0960 -0.7065 -0.4207
  232MPD1    H6 3584   2.120   3.718   0.305  0.1255  0.9784  3.7509
  232MPD1    H7 3585   2.188   3.866   0.332  1.0243 -0.6403 -1.2646
  233MPD1     C 3586   3.754   2.681   1.705  0.6352 -0.0281  0.1778
  233MPD1    C1 3587   3.760   2.678   1.566 -0.1269  0.2569 -0.1382
  233MPD1    C2 3588   3.696   2.570   1.506 -0.8219 -0.3163 -0.2252
  233MPD1    C3 3589   3.637   2.465   1.577  0.8669 -0.1560  0.0302
  233MPD1    C4 3590   3.637   2.466   1.708 -0.3765  0.2938 -0.3286
  233MPD1    C5 3591   3.695   2.572   1.774 -0.4268  0.3356 -0.7188
  233MPD1     H 3592   3.701   2.568   1.397 -0.6128 -1.2516 -0.1972
  233MPD1    H1 3593   3.589   2.387   1.765 -1.4387  0.4596 -0.9787
  233MPD1    H2 3594   3.800   2.755   1.769 -0.8706  1.2314 -0.2134
  233MPD1    H3 3595   3.691   2.572   1.882  1.3541 -0.8627 -0.6589
  233MPD1     N 3596   3.599   2.337   1.531 -0.6016  0.5908 -0.6389
  233MPD1    H5 3597   3.571   2.266   1.598 -0.6024  1.8909  0.7452
  233MPD1    N1 3598   3.803   2.787   1.501  0.2327  0.1743  0.2003
  233MPD1    H6 3599   3.883   2.825   1.551 -0.2548  0.5982  0.6498
  233MPD1    H7 3600   3.846   2.772   1.410 -0.8559  1.2076 -0.4759
  234MPD1     C 3601   4.438   0.194   8.851 -0.2916 -0.2168  0.4075
  234MPD1    C1 3602   4.305   0.167   8.871  0.1171  0.2149 -0.2447
  234MPD1    C2 3603   4.222   0.255   8.948 -0.6950 -0.0039 -0.3863
  234MPD1    C3 3604   4.264   0.383   8.980  0.6363 -0.2305  0.4200
  234MPD1    C4 3605   4.403   0.411   8.965 -0.1118  0.5328 -0.3710
  234MPD1    C5 3606   4.481   0.306   8.910 -0.7657 -0.4078 -0.2314
  234MPD1     H 3607   4.121   0.229   8.978 -0.1484 -0.6310  0.9015
  234MPD1    H1 3608   4.456   0.492   9.013 -1.1790  0.8446  0.2914
  234MPD1    H2 3609   4.504   0.133   8.789 -1.7101  0.6986 -1.9882
  234MPD1    H3 3610   4.586   0.330   8.912 -0.6887 -0.8892  1.3113
  234MPD1     N 3611   4.170   0.461   9.044  0.2966  0.2545 -0.3773
  234MPD1    H5 3612   4.080   0.415   9.054 -1.6200  3.8394 -1.2189
  234MPD1    N1 3613   4.261   0.038   8.837 -0.2344  0.3695  0.0851
  234MPD1    H6 3614   4.165   0.045   8.804 -0.0949 -1.4013 -0.6870
  234MPD1    H7 3615   4.309   4.739   8.756  0.2737  1.8844 -0.3398
  235MPD1     C 3616   0.749   2.595  10.496  0.4138 -0.8856  0.2272
  235MPD1    C1 3617   0.749   2.696  10.402 -0.2046  0.5656  0.6232
  235MPD1    C2 3618   0.862   2.770  10.383 -0.1618  0.4577 -0.0959
  235MPD1    C3 3619   0.962   2.772  10.478 -0.5742  0.0503  0.0597
  235MPD1    C4 3620   0.963   2.673  10.573 -0.9513  0.2059 -0.2248
  235MPD1    C5 3621   0.868   2.576  10.573 -0.2008  0.2932 -0.1366
  235MPD1     H 3622   0.868   2.837  10.298 -1.2151  0.8655  0.1466
  235MPD1    H1 3623   1.045   2.659  10.642 -1.7106 -0.1576  0.5995
  235MPD1    H2 3624   0.668   2.523  10.502  2.8146 -3.5493  0.8380
  235MPD1    H3 3625   0.874   2.500  10.650 -1.8859 -1.6923 -1.9241
  235MPD1     N 3626   1.069   2.864  10.464  0.6893  0.5363  0.0770
  235MPD1    H5 3627   1.063   2.931  10.388  1.1506  0.8930  0.3538
  235MPD1    N1 3628   0.641   2.713  10.312  0.8263  0.5135 -0.2713
  235MPD1    H6 3629   0.626   2.808  10.279  0.3997  0.0339 -1.4453
  235MPD1    H7 3630   0.556   2.671  10.350  2.5524  0.7814  3.8576
  236MPD1     C 3631   0.023   4.180   9.873  0.4646  0.7491  0.7410
  236MPD1    C1 3632   0.037   4.055   9.929 -0.3313 -0.3632  0.2933
  236MPD1    C2 3633   0.117   4.032  10.044 -0.5629 -0.0969  0.2278
  236MPD1    C3 3634   0.175   4.142  10.103 -0.6589  0.4162  0.3607
  236MPD1    C4 3635   0.160   4.265  10.043  0.1523 -0.4332 -0.5785
  236MPD1    C5 3636   0.089   4.281   9.933  0.3676 -0.4907 -0.0822
  236MPD1     H 3637   0.126   3.926  10.068  0.2888 -0.1744 -0.4286
  236MPD1    H1 3638   0.202   4.355  10.086  0.3405 -1.3731  1.2095
  236MPD1    H2 3639   4.703   4.199   9.785  0.3953 -1.7391  0.2585
  236MPD1    H3 3640   0.080   4.376   9.883 -1.5092 -1.1905 -1.0670
  236MPD1     N 3641   0.250   4.134  10.218 -0.4158  1.0350  0.0919
  236MPD1    H5 3642   0.287   4.221  10.255 -0.5460  1.0980  0.0744
  236MPD1    N1 3643   4.708   3.945   9.869  0.2275  0.0137 -0.0972
  236MPD1    H6 3644   4.616   3.975   9.839  1.0858  1.9768 -0.7987
  236MPD1    H7 3645   4.695   3.867   9.933 -0.0293  1.6150  1.7816
  237MPD1     C 3646   0.952   2.878  15.431 -0.8049 -0.4717  0.8542
  237MPD1    C1 3647   0.864   2.981  15.395  0.6770 -0.1390 -0.4510
  237MPD1    C2 3648   0.739   2.951  15.357 -0.6324 -0.5365 -0.0467
  237MPD1    C3 3649   0.681   2.831  15.388 -0.8110  0.1445 -0.3076
  237MPD1    C4 3650   0.760   2.738  15.452  0.0421 -0.9769  0.1886
  237MPD1    C5 3651   0.893   2.762  15.470 -0.4696 -0.3993 -0.8412
  237MPD1     H 3652   0.673   3.027  15.317 -0.7114 -0.5532  0.0509
  237MPD1    H1 3653   0.728   2.635  15.453 -2.2656 -0.2717 -1.4925
  237MPD1    H2 3654   1.060   2.884  15.438 -0.9176  0.4346  1.8006
  237MPD1    H3 3655   0.965   2.682  15.476 -2.4307 -2.0213  0.8173
  237MPD1     N 3656   0.541   2.793  15.355 -0.1764 -0.3657  0.1634
  237MPD1    H5 3657   0.512   2.708  15.402 -1.1704  0.7806  1.6505
  237MPD1    N1 3658   0.912   3.106  15.355 -0.4280 -0.7981  0.3777
  237MPD1    H6 3659   0.836   3.171  15.374 -0.7041 -1.0917  0.2727
  237MPD1    H7 3660   0.992   3.137  15.409 -0.7300  0.1822  0.2627
  238MPD1     C 3661   2.659   1.120  14.655  0.8334  0.6962 -0.3372
  238MPD1    C1 3662   2.601   1.029  14.744  0.6959  0.2486  0.5107
  238MPD1    C2 3663   2.461   1.025  14.748 -1.0659  0.5338  0.8191
  238MPD1    C3 3664   2.385   1.106  14.665 -0.2752  0.4221 -0.1312
  238MPD1    C4 3665   2.446   1.190  14.571  0.0806 -0.4784  0.0910
  238MPD1    C5 3666   2.586   1.197  14.574  0.4821  0.6068  0.3688
  238MPD1     H 3667   2.409   0.969  14.824  2.5932 -0.6867  2.4355
  238MPD1    H1 3668   2.401   1.247  14.491  0.9287  0.3742  0.2211
  238MPD1    H2 3669   2.766   1.121  14.668  1.1129  1.4507 -2.7654
  238MPD1    H3 3670   2.644   1.258  14.506 -0.3089  0.8185 -0.1192
  238MPD1     N 3671   2.242   1.127  14.677  0.4728  0.1662 -0.3585
  238MPD1    H5 3672   2.207   1.197  14.613  1.4975 -1.0475 -2.2845
  238MPD1    N1 3673   2.677   0.965  14.842 -0.5745 -0.2568  0.3202
  238MPD1    H6 3674   2.772   0.938  14.817 -1.6959 -2.1340 -1.8817
  238MPD1    H7 3675   2.623   0.893  14.889 -1.0592  0.8475  1.4509
  239MPD1     C 3676   1.805   1.905  15.645 -0.5731 -0.9380 -0.0562
  239MPD1    C1 3677   1.903   1.847  15.576 -0.4158  0.3460 -0.4180
  239MPD1    C2 3678   1.925   1.891  15.446  0.2768  0.5904 -0.2158
  239MPD1    C3 3679   1.845   1.979  15.381  0.1257  0.3151 -0.1043
  239MPD1    C4 3680   1.742   2.026  15.454  0.4244  0.4015 -0.1518
  239MPD1    C5 3681   1.724   2.000  15.588 -0.6293 -0.3849 -0.0249
  239MPD1     H 3682   2.011   1.855  15.391 -1.3023 -0.4623 -1.9958
  239MPD1    H1 3683   1.664   2.083  15.404 -0.8812 -0.8757  0.3894
  239MPD1    H2 3684   1.787   1.876  15.748 -0.6936 -0.1383  0.1467
  239MPD1    H3 3685   1.650   2.039  15.658  0.5618 -0.2136  1.1339
  239MPD1     N 3686   1.868   2.030  15.252  0.0182 -0.1360  0.0218
  239MPD1    H5 3687   1.799   2.097  15.221 -1.5231 -1.7957 -0.1618
  239MPD1    N1 3688   1.997   1.770  15.645  0.0828 -0.1329 -0.2078
  239MPD1    H6 3689   2.020   1.693  15.583  2.5425 -0.2480  0.8462
  239MPD1    H7 3690   1.953   1.728  15.727  2.2962  1.4161  1.7811
  240MPD1     C 3691   1.757   2.064  13.730  0.2829  0.3300  0.2398
  240MPD1    C1 3692   1.632   2.076  13.789 -0.6173  0.2755  0.5493
  240MPD1    C2 3693   1.621   2.042  13.915 -0.1089  0.8615 -0.2480
  240MPD1    C3 3694   1.724   1.976  13.983 -0.0201  0.1318  0.7968
  240MPD1    C4 3695   1.847   1.960  13.922  0.4318 -0.1713 -0.3591
  240MPD1    C5 3696   1.863   2.010  13.796  0.1783 -0.1535 -0.3942
  240MPD1     H 3697   1.521   2.056  13.956 -1.1257 -0.7886 -2.1365
  240MPD1    H1 3698   1.925   1.894  13.957  0.0245 -0.8199 -0.6886
  240MPD1    H2 3699   1.784   2.096  13.630  0.7814 -2.4051 -0.4783
  240MPD1    H3 3700   1.955   1.990  13.742  1.0640  1.5784  0.4898
  240MPD1     N 3701   1.696   1.896  14.100 -0.4078  0.3006 -0.1854
  240MPD1    H5 3702   1.602   1.896  14.137 -0.2003 -0.7770  0.3490
  240MPD1    N1 3703   1.517   2.121  13.722  0.1783  0.0953 -0.7098
  240MPD1    H6 3704   1.466   2.190  13.776  2.2281  1.6341 -0.7285
  240MPD1    H7 3705   1.526   2.183  13.642  0.2152  1.1108  0.0806
  241MPD1     C 3706   2.266   1.442  14.811 -0.3327  0.1477  0.4150
  241MPD1    C1 3707   2.134   1.430  14.859 -0.6637  0.4524 -0.4814
  241MPD1    C2 3708   2.040   1.499  14.790  0.7969 -0.2271 -0.4172
  241MPD1    C3 3709   2.068   1.549  14.665  0.0242 -0.5191 -0.0863
  241MPD1    C4 3710   2.194   1.549  14.610  0.4531  0.2045 -0.4863
  241MPD1    C5 3711   2.297   1.496  14.688 -0.6869 -0.8406 -0.2715
  241MPD1     H 3712   1.946   1.516  14.842 -0.0562 -1.4567 -1.5623
  241MPD1    H1 3713   2.212   1.598  14.515 -0.9852  0.0901 -0.8117
  241MPD1    H2 3714   2.344   1.392  14.867 -0.5948 -2.8162 -1.8472
  241MPD1    H3 3715   2.397   1.501  14.647 -0.1595  0.3138  1.1777
  241MPD1     N 3716   1.971   1.595  14.576  0.9154  0.0747 -0.9813
  241MPD1    H5 3717   2.003   1.634  14.488  0.7768  0.5464 -0.8260
  241MPD1    N1 3718   2.118   1.385  14.988  0.3996  0.2204  0.0677
  241MPD1    H6 3719   2.182   1.314  15.022  0.6271  0.9640  1.2160
  241MPD1    H7 3720   2.026   1.351  15.017  0.0435  2.4300  1.5203
  242MPD1     C 3721   1.738   0.133  16.163 -0.1357  0.1158  0.2073
  242MPD1    C1 3722   1.830   0.232  16.143  0.8512  0.0902 -0.2972
  242MPD1    C2 3723   1.919   0.204  16.047 -0.5428  0.3060  0.8418
  242MPD1    C3 3724   1.934   0.081  15.986  0.1899  0.9684 -0.4637
  242MPD1    C4 3725   1.857   4.716  16.024 -0.3555 -0.2818 -0.1209
  242MPD1    C5 3726   1.751   0.008  16.105 -0.9459  0.6427 -0.2211
  242MPD1     H 3727   1.983   0.284  16.012  2.2658 -1.6007  1.5323
  242MPD1    H1 3728   1.852   4.627  15.961 -2.4099 -0.5260  0.3679
  242MPD1    H2 3729   1.656   0.147  16.232 -2.2538  0.8667 -2.4680
  242MPD1    H3 3730   1.670   4.677  16.114 -0.0698 -0.4160 -0.6879
  242MPD1     N 3731   2.026   0.055  15.884  0.3215  0.4991  0.0501
  242MPD1    H5 3732   2.039   4.695  15.872  0.7679  0.7490 -1.5623
  242MPD1    N1 3733   1.799   0.362  16.187 -0.5861 -0.1353  0.0893
  242MPD1    H6 3734   1.883   0.417  16.203 -0.4780 -0.6478  1.2815
  242MPD1    H7 3735   1.755   0.351  16.278  1.4766 -0.9422  0.9742
  243MPD1     C 3736   2.469   4.415   0.354 -0.3662 -0.0664 -0.0048
  243MPD1    C1 3737   2.453   4.278   0.349 -0.1041 -0.0582 -0.3948
  243MPD1    C2 3738   2.544   4.204   0.277  0.5774 -0.2617 -0.8389
  243MPD1    C3 3739   2.659   4.260   0.233 -0.0734  0.1114 -0.6272
  243MPD1    C4 3740   2.687   4.385   0.271 -0.2762 -0.2652  0.3217
  243MPD1    C5 3741   2.588   4.465   0.319 -0.5926 -0.0429  0.0772
  243MPD1     H 3742   2.529   4.097   0.266  1.3770 -0.6022  1.4057
  243MPD1    H1 3743   2.779   4.434   0.241 -0.2103 -1.2168 -1.0393
  243MPD1    H2 3744   2.393   4.478   0.400  1.2645  0.8125  1.4485
  243MPD1    H3 3745   2.618   4.569   0.331 -0.8969 -0.0346  0.7914
  243MPD1     N 3746   2.740   4.180   0.148  0.0900 -0.8711  0.0744
  243MPD1    H5 3747   2.705   4.090   0.120 -1.8207 -1.0057  2.8469
  243MPD1    N1 3748   2.336   4.220   0.392 -0.0343 -0.0145  1.3708
  243MPD1    H6 3749   2.294   4.284   0.459  0.7475  0.1297  1.7297
  243MPD1    H7 3750   2.342   4.127   0.433 -3.2999 -0.1222  1.6111
  244MPD1     C 3751   2.815   3.258  17.717  0.0161  0.0667 -0.1435
  244MPD1    C1 3752   2.860   3.306  17.595 -0.4993  0.2761  0.1818
  244MPD1    C2 3753   2.923   3.432  17.593 -0.1538 -0.1771  0.6816
  244MPD1    C3 3754   2.908   3.522  17.695 -0.7028 -0.4612 -0.0708
  244MPD1    C4 3755   2.843   3.481   0.051  0.5735  0.2094 -1.2284
  244MPD1    C5 3756   2.799   3.355   0.058  0.2976  0.5604 -0.0918
  244MPD1     H 3757   2.975   3.458  17.501 -2.8846 -1.5006 -1.2335
  244MPD1    H1 3758   2.820   3.544   0.136 -0.6952  0.2130 -1.5638
  244MPD1    H2 3759   2.781   3.162  17.754 -1.5250  0.6391 -0.0433
  244MPD1    H3 3760   2.768   3.326   0.157  0.6533 -1.5817 -0.6025
  244MPD1     N 3761   2.971   3.647  17.682 -0.4405  0.5568 -0.9341
  244MPD1    H5 3762   3.009   3.672  17.592  0.5594  1.1855 -0.3369
  244MPD1    N1 3763   2.875   3.216  17.487  0.3452  1.4659 -0.0323
  244MPD1    H6 3764   2.901   3.265  17.403 -0.1000  1.0675 -0.4039
  244MPD1    H7 3765   2.787   3.167  17.474  0.4593  1.0617  0.6614
  245MPD1     C 3766   0.266   3.587  13.755  0.2452  0.4038 -0.0544
  245MPD1    C1 3767   0.315   3.662  13.857  0.7457  0.2915  0.1861
  245MPD1    C2 3768   0.309   3.797  13.841 -0.1968  0.3559 -0.0459
  245MPD1    C3 3769   0.260   3.859  13.730  0.2981 -0.2173 -0.2166
  245MPD1    C4 3770   0.235   3.779  13.619  0.1362 -0.3020  0.5094
  245MPD1    C5 3771   0.223   3.645  13.636 -0.0248  0.5515 -0.2414
  245MPD1     H 3772   0.341   3.862  13.921  2.4270 -0.4717 -0.4127
  245MPD1    H1 3773   0.220   3.817  13.518  2.1771  0.9189  0.6800
  245MPD1    H2 3774   0.270   3.478  13.761  1.6921  0.5396  1.4981
  245MPD1    H3 3775   0.212   3.579  13.551 -0.1871 -0.0426  0.2382
  245MPD1     N 3776   0.279   3.999  13.720 -0.4639 -0.3891 -0.2729
  245MPD1    H5 3777   0.318   4.042  13.803 -1.3714  0.4522 -0.2861
  245MPD1    N1 3778   0.380   3.602  13.968 -0.0529 -0.0984  0.3508
  245MPD1    H6 3779   0.348   3.506  13.979  1.9249 -0.8048 -0.1650
  245MPD1    H7 3780   0.358   3.654  14.053  1.9669  1.3732 -0.0465
  246MPD1     C 3781   0.346   1.395  10.327  0.3991 -0.2078 -0.0309
  246MPD1    C1 3782   0.256   1.290  10.334  0.8884 -0.4951 -0.2578
  246MPD1    C2 3783   0.143   1.295  10.256 -0.6542 -0.2093  0.4625
  246MPD1    C3 3784   0.119   1.400  10.169 -1.1637  0.3599  0.3104
  246MPD1    C4 3785   0.212   1.501  10.160  0.3628 -0.5769 -0.4331
  246MPD1    C5 3786   0.318   1.501  10.247  0.2195  0.0259  0.1418
  246MPD1     H 3787   0.070   1.215  10.255  1.7431 -2.3667 -1.6804
  246MPD1    H1 3788   0.212   1.587  10.094  4.9254  0.4796  0.9701
  246MPD1    H2 3789   0.436   1.395  10.388  0.4997 -1.6672 -0.1828
  246MPD1    H3 3790   0.391   1.580  10.230 -2.2333  2.2583 -0.0173
  246MPD1     N 3791   0.014   1.393  10.080 -0.1716  0.2380 -0.3809
  246MPD1    H5 3792   4.696   1.309  10.089  0.7778 -0.4490 -0.6968
  246MPD1    N1 3793   0.293   1.174  10.403  0.3017  0.0811  0.2973
  246MPD1    H6 3794   0.360   1.192  10.478 -0.0451  1.7042  0.2097
  246MPD1    H7 3795   0.213   1.117  10.430  0.0817  0.9921  1.5539
  247MPD1     C 3796   3.717   3.487  15.966  0.3802 -0.0577 -0.0973
  247MPD1    C1 3797   3.636   3.586  15.916 -0.0100 -0.2879  0.3514
  247MPD1    C2 3798   3.690   3.713  15.896  0.0832 -0.8652 -0.1606
  247MPD1    C3 3799   3.830   3.742  15.919  0.2980  0.0536 -0.2132
  247MPD1    C4 3800   3.908   3.633  15.942 -0.2050 -0.0974  0.5514
  247MPD1    C5 3801   3.850   3.511  15.964 -0.1798  0.0364  0.2543
  247MPD1     H 3802   3.622   3.791  15.864  3.2156  1.7701 -0.3783
  247MPD1    H1 3803   4.016   3.638  15.945 -0.2030 -0.6561  1.2871
  247MPD1    H2 3804   3.687   3.384  15.977 -1.0879  0.2978 -0.6657
  247MPD1    H3 3805   3.907   3.424  15.991 -0.8542 -0.8791 -1.2639
  247MPD1     N 3806   3.891   3.870  15.898 -0.3436  0.1477 -0.0385
  247MPD1    H5 3807   3.990   3.879  15.920 -0.2893 -1.8470  0.5125
  247MPD1    N1 3808   3.498   3.575  15.914 -0.2237 -0.7613  0.1509
  247MPD1    H6 3809   3.465   3.481  15.893 -0.3733 -0.6766  0.0086
  247MPD1    H7 3810   3.451   3.639  15.850  0.3672  0.8128  1.2927
  248MPD1     C 3811   4.211   2.930   0.275  0.3795 -0.4126 -0.0026
  248MPD1    C1 3812   4.265   3.044   0.327 -0.7185  0.0367  0.6073
  248MPD1    C2 3813   4.244   3.164   0.255  0.3903 -0.1798  0.3299
  248MPD1    C3 3814   4.162   3.170   0.142  0.4165  0.4260 -0.7581
  248MPD1    C4 3815   4.103   3.050   0.104  0.3916  0.2345  0.7885
  248MPD1    C5 3816   4.131   2.933   0.164  0.0182  0.5761 -0.6291
  248MPD1     H 3817   4.284   3.262   0.278 -0.4184  0.0733  0.6792
  248MPD1    H1 3818   4.034   3.042   0.021  0.3952 -0.7012  0.8733
  248MPD1    H2 3819   4.235   2.831   0.313 -1.1693 -1.0164 -0.5633
  248MPD1    H3 3820   4.093   2.846   0.110 -2.4958  1.0665  0.3150
  248MPD1     N 3821   4.151   3.299   0.079 -0.4092 -0.6191  0.2552
  248MPD1    H5 3822   4.203   3.373   0.124 -0.0742 -1.2928  0.9801
  248MPD1    N1 3823   4.355   3.046   0.437 -0.0777 -0.1565  0.1108
  248MPD1    H6 3824   4.447   3.085   0.416  0.0067 -2.3072 -3.5332
  248MPD1    H7 3825   4.374   2.961   0.490  1.2781 -0.2382 -0.5189
  249MPD1     C 3826   1.099   2.271   9.732  0.0778  0.0755 -0.2413
  249MPD1    C1 3827   1.075   2.139   9.775  0.3817  0.2702 -0.2556
  249MPD1    C2 3828   1.128   2.104   9.904  0.5418  0.0294 -0.9562
  249MPD1    C3 3829   1.192   2.203   9.987  0.3922  0.2271 -0.1346
  249MPD1    C4 3830   1.216   2.323   9.933  0.4175 -0.1316  0.0061
  249MPD1    C5 3831   1.170   2.357   9.809 -0.0267 -0.0392  0.6844
  249MPD1     H 3832   1.124   2.003   9.944  0.5949  0.4223  0.0434
  249MPD1    H1 3833   1.257   2.406   9.991 -1.7948  1.6878 -1.0275
  249MPD1    H2 3834   1.061   2.295   9.633  0.3298  1.6253  0.0339
  249MPD1    H3 3835   1.190   2.457   9.772 -0.0610 -0.2652  0.0456
  249MPD1     N 3836   1.202   2.170  10.123 -0.3647  0.4222  0.3334
  249MPD1    H5 3837   1.163   2.080  10.146  1.3101 -0.4326 -0.1826
  249MPD1    N1 3838   1.029   2.036   9.694 -0.1936  0.0001  0.4715
  249MPD1    H6 3839   0.962   2.072   9.627  1.1151  1.4331 -0.0806
  249MPD1    H7 3840   0.985   1.957   9.740 -1.5434  0.1036 -0.6594
  250MPD2     C 3841   3.399   2.328  13.071  0.2287 -0.2409 -0.5530
  250MPD2    C1 3842   3.281   2.404  13.069  0.2435 -0.6038  1.1821
  250MPD2    C2 3843   3.168   2.355  13.006 -0.2586  0.3470 -0.5185
  250MPD2    C3 3844   3.170   2.234  12.940 -0.0885 -0.4716 -0.0365
  250MPD2    C4 3845   3.287   2.160  12.949  0.1686  0.5423  0.1053
  250MPD2    C5 3846   3.401   2.204  13.016  0.0999  0.6326  1.0953
  250MPD2     H 3847   3.076   2.411  12.996 -0.4946 -0.2149 -1.4129
  250MPD2    H1 3848   3.295   2.069  12.890 -1.0324  1.1924 -1.0462
  250MPD2    H2 3849   3.484   2.366  13.126  0.9521 -0.4406 -1.5318
  250MPD2    H3 3850   3.495   2.149  13.012 -0.1181  0.2812  0.8583
  250MPD2     N 3851   3.062   2.168  12.873 -0.1133  0.2443 -0.6266
  250MPD2    H5 3852   3.071   2.067  12.866 -0.8720  0.1259  0.0974
  250MPD2    N1 3853   3.283   2.515  13.159 -0.2341  0.4880  0.0419
  250MPD2    H7 3854   3.372   2.533  13.204 -0.5744  1.2736  0.4097
  251TMC3    C1 3855   3.209   2.712  13.257  0.1419  0.9313  1.0384
  251TMC3    C2 3856   3.116   2.809  13.248 -0.8265 -0.6013  0.3399
  251TMC3    C3 3857   3.140   2.926  13.318 -0.1691 -0.2032 -0.6898
  251TMC3    C4 3858   3.328   2.728  13.324  0.0186  0.8691  0.1270
  251TMC3    C5 3859   3.358   2.851  13.377  1.2477 -0.3957 -0.2532
  251TMC3    C6 3860   3.267   2.955  13.384  0.2458 -0.2901 -0.5661
  251TMC3     C 3861   3.175   2.587  13.199 -0.5444 -0.0991  0.0966
  251TMC3     O 3862   3.061   2.563  13.190  0.8229  0.2729 -0.1324
  251TMC3     H 3863   3.025   2.804  13.190 -1.0510 -1.2422  0.7497
  251TMC3    H1 3864   3.404   2.651  13.331  0.3976  1.1660 -0.7842
  251TMC3    H2 3865   3.281   3.037  13.453 -0.8712 -1.4823  1.0930
  251TMC3    C7 3866   3.467   2.850  13.470  0.3422  0.4829 -0.2310
  251TMC3    C8 3867   3.026   3.024  13.330  0.5350 -1.0119 -0.1409
  251TMC3    O1 3868   3.491   2.741  13.520  0.4952  0.2502 -0.2686
  251TMC3    O2 3869   2.917   2.989  13.288  0.3014  0.0629  0.4193
  252TMC3    C1 3870   3.212   3.959   9.892 -0.0034  0.2323 -1.0875
  252TMC3    C2 3871   3.348   3.970   9.921  0.0076 -0.1163  0.6896
  252TMC3    C3 3872   3.396   3.900  10.027  0.3583 -0.7042  0.5131
  252TMC3    C4 3873   3.123   3.884   9.969  1.0579 -0.3749  0.1832
  252TMC3    C5 3874   3.180   3.812  10.070  0.6548 -0.2783 -0.2980
  252TMC3    C6 3875   3.309   3.817  10.101  0.8353 -0.1466  0.0371
  252TMC3     C 3876   3.170   4.014   9.761 -0.2866  0.5994  0.0121
  252TMC3     O 3877   3.266   4.046   9.696 -0.5420 -0.2456  0.2312
  252TMC3     H 3878   3.417   4.038   9.872 -0.1302 -1.3279 -1.1968
  252TMC3    H1 3879   3.019   3.870   9.941  1.1173  4.1426 -2.3039
  252TMC3    H2 3880   3.351   3.785  10.196 -0.8734  1.0698  1.1941
  252TMC3    C7 3881   3.085   3.736  10.139  0.5243 -0.1487  0.3696
  252TMC3    C8 3882   3.539   3.919  10.053 -0.3037 -0.7517  0.6087
  252TMC3    O1 3883   2.975   3.788  10.143  0.2873 -0.0379  0.4586
  252TMC3    O2 3884   3.584   4.029  10.013 -0.2607 -0.4231 -0.6682
  253MPD2     C 3885   4.719   3.113  15.503  0.0028 -0.2452 -0.1535
  253MPD2    C1 3886   4.593   3.070  15.482 -0.1205 -0.4745 -0.6265
  253MPD2    C2 3887   4.533   2.981  15.565  0.4430 -0.4292  0.3916
  253MPD2    C3 3888   4.603   2.921  15.674  0.2075  1.2331 -0.3109
  253MPD2    C4 3889   4.734   2.961  15.689  0.4592  0.4392  0.2934
  253MPD2    C5 3890   0.044   3.061  15.612 -0.4560  0.2898 -0.4065
  253MPD2     H 3891   4.436   2.940  15.541  0.3841 -0.3326  0.4640
  253MPD2    H1 3892   0.058   2.917  15.765  0.1553 -1.3094 -0.4641
  253MPD2    H2 3893   0.029   3.187  15.441  0.1214  2.6206  3.4185
  253MPD2    H3 3894   0.146   3.092  15.629  0.1295 -2.1435  0.5140
  253MPD2     N 3895   4.545   2.832  15.770  0.3838 -0.6118 -0.1115
  253MPD2    H5 3896   4.608   2.803  15.844 -2.2171 -1.2107  1.8639
  253MPD2    N1 3897   4.505   3.120  15.380  0.0291 -0.2773 -0.0564
  253MPD2    H7 3898   4.415   3.074  15.379 -0.5880  0.9568 -1.5139
  254TMC3    C1 3899   4.370   2.718  15.880  0.3209  0.6264 -0.0888
  254TMC3    C2 3900   4.238   2.693  15.901 -0.6714  0.1990  0.0005
  254TMC3    C3 3901   4.201   2.623  16.013 -0.2740 -1.3051  0.0263
  254TMC3    C4 3902   4.472   2.675  15.966  0.0491  0.1945  0.4070
  254TMC3    C5 3903   4.425   2.601  16.077  0.3819 -0.2019  0.2558
  254TMC3    C6 3904   4.296   2.578  16.103 -0.3318  0.4699 -0.6035
  254TMC3     C 3905   4.408   2.808  15.775 -0.4237 -0.0792  0.2847
  254TMC3     O 3906   4.319   2.850  15.705 -0.0215 -0.2552  0.0082
  254TMC3     H 3907   4.170   2.732  15.826 -0.9301 -0.4453 -0.0994
  254TMC3    H1 3908   4.579   2.695  15.972 -0.4956  2.8259  1.5161
  254TMC3    H2 3909   4.261   2.522  16.189  1.4065 -2.3335 -1.6889
  254TMC3    C7 3910   4.516   2.516  16.158  0.0410 -0.2196 -0.4616
  254TMC3    C8 3911   4.074   2.645  16.067  0.4676  0.2554  0.0551
  254TMC3    O1 3912   4.478   2.405  16.185  0.8280  0.1534  0.2267
  254TMC3    O2 3913   4.052   2.623  16.183  0.2574 -1.1117 -0.3467
  255MPD2     C 3914   1.687   0.515  10.790  0.3963  0.6238 -0.3214
  255MPD2    C1 3915   1.796   0.591  10.815  0.0606  0.1573 -0.1171
  255MPD2    C2 3916   1.926   0.545  10.785 -0.0581  0.3420  0.0494
  255MPD2    C3 3917   1.951   0.408  10.755  0.3324  0.0615  0.2946
  255MPD2    C4 3918   1.835   0.328  10.745  0.1760 -0.3512 -0.6884
  255MPD2    C5 3919   1.705   0.376  10.761 -0.3362  0.0834  0.6717
  255MPD2     H 3920   2.009   0.611  10.810  0.9732 -1.1374  0.5197
  255MPD2    H1 3921   1.838   0.228  10.702 -0.7896 -1.4348  1.7686
  255MPD2    H2 3922   1.590   0.556  10.817  1.1168  0.5806  2.3176
  255MPD2    H3 3923   1.621   0.308  10.754 -0.2728  0.1042 -0.2310
  255MPD2     N 3924   2.079   0.362  10.715  0.2166 -0.3142  0.2616
  255MPD2    H5 3925   2.141   0.441  10.699 -0.5883  0.4416  0.7822
  255MPD2    N1 3926   1.768   0.723  10.862  0.6458  0.0051  0.3846
  255MPD2    H7 3927   1.675   0.756  10.841  0.5552 -0.6835 -0.2756
  256TMC3    C1 3928   1.826   0.953  10.911 -0.5086 -0.7708 -0.2266
  256TMC3    C2 3929   1.942   1.036  10.938  0.4172  0.0140 -0.2907
  256TMC3    C3 3930   1.972   1.111  10.831 -0.0585 -0.8429  0.1898
  256TMC3    C4 3931   1.731   0.985  10.817 -0.0190 -0.1321  0.2684
  256TMC3    C5 3932   1.774   1.067  10.716  1.4303 -0.3607  0.5250
  256TMC3    C6 3933   1.890   1.133  10.725 -0.8894 -0.1558  0.2387
  256TMC3     C 3934   1.861   0.809  10.915 -0.8806 -0.3288  0.5340
  256TMC3     O 3935   1.979   0.794  10.943  0.2601 -0.9841  0.5325
  256TMC3     H 3936   2.007   1.012  11.021  0.0583  1.3797  0.4001
  256TMC3    H1 3937   1.637   0.931  10.807  0.9854 -1.6478 -0.8889
  256TMC3    H2 3938   1.919   1.197  10.642 -0.2972  0.8845  1.2514
  256TMC3    C7 3939   1.736   1.013  10.589  0.1983  0.4027 -0.6086
  256TMC3    C8 3940   2.105   1.085  10.780 -0.2588 -0.3348  0.7610
  256TMC3    O1 3941   1.691   0.895  10.597 -0.1103 -0.4034  0.2667
  256TMC3    O2 3942   2.126   1.103  10.658 -0.8151  0.1866 -0.4639
  257MPD2     C 3943   1.546   2.712  13.447 -0.6136 -0.4623  0.1297
  257MPD2    C1 3944   1.673   2.680  13.410 -0.2862 -0.4181 -0.0268
  257MPD2    C2 3945   1.750   2.597  13.490 -0.0891 -1.2957 -0.7878
  257MPD2    C3 3946   1.701   2.561  13.616 -0.1817  0.0090  0.2256
  257MPD2    C4 3947   1.576   2.607  13.655  0.3414  0.1857  0.1840
  257MPD2    C5 3948   1.495   2.668  13.567 -0.4126  0.3634  0.2766
  257MPD2     H 3949   1.844   2.563  13.449 -0.2444 -2.0289 -0.5412
  257MPD2    H1 3950   1.541   2.600  13.757 -2.5845  1.9145 -0.7172
  257MPD2    H2 3951   1.492   2.787  13.390 -1.2234  0.4316  1.8811
  257MPD2    H3 3952   1.395   2.701  13.592 -0.7142 -0.9150  0.7770
  257MPD2     N 3953   1.788   2.485  13.701  0.5375 -0.0758  0.0699
  257MPD2    H5 3954   1.876   2.456  13.659  0.3752  1.8099 -1.5630
  257MPD2    N1 3955   1.728   2.719  13.285 -0.2090 -0.3094  0.1461
  257MPD2    H7 3956   1.828   2.706  13.270 -0.0767  0.8561 -0.0042
  258TMC3    C1 3957   1.854   2.366  13.903 -0.0118 -0.2784 -0.0541
  258TMC3    C2 3958   1.973   2.340  13.840 -0.8377  0.2499  0.3170
  258TMC3    C3 3959   2.061   2.265  13.914 -0.1691  0.5703 -0.1493
  258TMC3    C4 3960   1.817   2.324  14.026  0.4711  0.4611  0.4753
  258TMC3    C5 3961   1.904   2.245  14.092  0.3518  0.2356 -0.2013
  258TMC3    C6 3962   2.027   2.218  14.034  0.5479  0.3116  0.2425
  258TMC3     C 3963   1.751   2.439  13.826 -0.1810 -0.0269  0.2474
  258TMC3     O 3964   1.647   2.456  13.883 -0.0090 -0.4965 -0.1068
  258TMC3     H 3965   1.999   2.387  13.746 -0.1517 -2.2131 -0.7203
  258TMC3    H1 3966   1.718   2.345  14.066 -0.0050 -0.3708 -0.2776
  258TMC3    H2 3967   2.094   2.140  14.068 -0.8587 -0.8070  0.4287
  258TMC3    C7 3968   1.887   2.213  14.233 -0.8980 -0.0120  0.2819
  258TMC3    C8 3969   2.189   2.232  13.864  0.3379 -0.0502 -0.1970
  258TMC3    O1 3970   1.787   2.249  14.294 -0.2394  0.1563  0.8631
  258TMC3    O2 3971   2.270   2.214  13.955 -0.5698 -0.7625  0.3828
  259MPD2     C 3972   0.842   4.608   0.536  0.2580 -0.4253 -0.3617
  259MPD2    C1 3973   0.789   4.484   0.558 -0.1338  0.0812 -0.1528
  259MPD2    C2 3974   0.769   4.408   0.443 -0.3390 -0.3527 -0.3993
  259MPD2    C3 3975   0.806   4.451   0.315  0.0308  0.6358  0.3902
  259MPD2    C4 3976   0.834   4.578   0.291  0.0965  0.1331 -0.0864
  259MPD2    C5 3977   0.853   4.657   0.405 -0.5601  0.1867 -0.1212
  259MPD2     H 3978   0.730   4.308   0.458 -0.0882 -0.4718 -0.5494
  259MPD2    H1 3979   0.830   4.612   0.188 -1.3459 -1.3685 -0.5248
  259MPD2    H2 3980   0.892   4.667   0.611 -0.6697 -1.1863  0.8485
  259MPD2    H3 3981   0.888   0.018   0.386 -1.6920 -0.1411 -3.8071
  259MPD2     N 3982   0.798   4.352   0.217  0.4601  0.5758 -0.3458
  259MPD2    H5 3983   0.775   4.259   0.253 -1.9781  1.6591  0.8919
  259MPD2    N1 3984   0.784   4.426   0.690  0.2861 -0.4512  0.3918
  259MPD2    H7 3985   0.818   4.486   0.764  1.3750  1.3866 -1.6195
  260TMC3    C1 3986   0.835   4.229   0.015 -0.5478 -0.2292 -0.2981
  260TMC3    C2 3987   0.837   4.246  17.637 -0.6229  0.4788 -0.9158
  260TMC3    C3 3988   0.820   4.134  17.559  0.5767 -0.0013  0.1242
  260TMC3    C4 3989   0.821   4.110   0.074  0.2763 -0.1288  0.3078
  260TMC3    C5 3990   0.804   3.996  17.748  0.2666 -0.2642 -0.4261
  260TMC3    C6 3991   0.804   4.015  17.616  0.0298 -0.3697  0.5310
  260TMC3     C 3992   0.832   4.354   0.086  0.5119  0.2799 -0.3078
  260TMC3     O 3993   0.867   4.456   0.032 -0.5628 -0.4221  0.7347
  260TMC3     H 3994   0.832   4.341  17.586 -1.0728  0.4470 -0.9345
  260TMC3    H1 3995   0.804   4.096   0.180  1.7418 -0.6148  0.4841
  260TMC3    H2 3996   0.784   3.928  17.553  0.4985  1.6402 -2.3935
  260TMC3    C7 3997   0.788   3.869   0.042 -0.3922  0.4683  0.0120
  260TMC3    C8 3998   0.915   4.139  17.448 -0.2552  0.1148 -0.8304
  260TMC3    O1 3999   0.762   3.785  17.716  0.1745  0.2149  0.5913
  260TMC3    O2 4000   0.952   4.245  17.394  0.4144 -0.0209 -0.3154
  261MPD2     C 4001   2.952   1.994  12.145 -0.3567 -0.5190  0.1291
  261MPD2    C1 4002   2.910   2.109  12.207 -0.1747 -0.1094  0.0373
  261MPD2    C2 4003   2.910   2.222  12.121 -0.2035 -0.1788 -0.2493
  261MPD2    C3 4004   2.954   2.226  11.985  0.4730  0.0537  0.3761
  261MPD2    C4 4005   3.003   2.104  11.937 -0.6525 -0.6443 -0.5726
  261MPD2    C5 4006   2.989   1.990  12.013 -0.4160  0.0905  0.1464
  261MPD2     H 4007   2.877   2.314  12.168 -0.9988 -1.0963  0.9898
  261MPD2    H1 4008   3.040   2.100  11.835  0.0306 -2.9007 -0.2298
  261MPD2    H2 4009   2.951   1.891  12.177  0.7159 -0.4028  0.5360
  261MPD2    H3 4010   3.013   1.892  11.972 -1.2065  0.4063 -1.0756
  261MPD2     N 4011   2.950   2.348  11.912 -0.5289 -0.1684 -0.0546
  261MPD2    H5 4012   2.912   2.432  11.954 -0.5148  0.5752 -1.5045
  261MPD2    N1 4013   2.865   2.106  12.344  0.0146 -0.5248 -0.0960
  261MPD2    H7 4014   2.836   2.195  12.384  3.2625  0.5077 -0.0720
  262TMC3    C1 4015   2.977   2.481  11.715  1.0631  0.3050 -0.4046
  262TMC3    C2 4016   2.859   2.538  11.729  1.1985  0.8572  0.1295
  262TMC3    C3 4017   2.831   2.648  11.648  0.1338  0.2731 -0.5587
  262TMC3    C4 4018   3.062   2.516  11.613 -0.1246  0.3560  0.5450
  262TMC3    C5 4019   3.036   2.625  11.535 -0.0665  0.1087  0.5884
  262TMC3    C6 4020   2.921   2.697  11.561  0.0465  0.2835 -0.2312
  262TMC3     C 4021   3.012   2.361  11.787 -0.7633  0.4257 -0.2978
  262TMC3     O 4022   3.098   2.285  11.739 -0.2837 -0.1193 -0.1577
  262TMC3     H 4023   2.788   2.498  11.801  0.8131 -0.8593 -1.2097
  262TMC3    H1 4024   3.158   2.466  11.612  0.7945  2.1338  1.6031
  262TMC3    H2 4025   2.918   2.796  11.517 -0.7322  0.0412 -0.7191
  262TMC3    C7 4026   3.157   2.691  11.477 -0.1957  0.7444  0.3851
  262TMC3    C8 4027   2.710   2.722  11.683  0.2348 -0.5475 -0.6818
  262TMC3    O1 4028   3.240   2.613  11.437  0.0974  0.2428 -0.0991
  262TMC3    O2 4029   2.705   2.836  11.638 -0.3210 -0.5919 -0.1685
  263MPD2     C 4030   3.242   1.207  11.662 -0.2175 -0.1625  0.1776
  263MPD2    C1 4031   3.331   1.291  11.709 -0.3297 -0.2188 -0.5803
  263MPD2    C2 4032   3.369   1.399  11.629  0.2844  0.3830  0.3607
  263MPD2    C3 4033   3.324   1.420  11.503  0.2110 -0.7363  0.1172
  263MPD2    C4 4034   3.228   1.331  11.457 -0.3291  1.0521  0.0865
  263MPD2    C5 4035   3.191   1.223  11.533  0.3192 -0.4788 -1.3318
  263MPD2     H 4036   3.445   1.468  11.665 -0.6314  1.6146 -0.0618
  263MPD2    H1 4037   3.186   1.339  11.358  2.2185  2.4425 -0.8916
  263MPD2    H2 4038   3.195   1.127  11.719  0.6919 -0.4066  0.5735
  263MPD2    H3 4039   3.120   1.153  11.489 -1.7017 -0.5271  2.0485
  263MPD2     N 4040   3.375   1.527  11.428  0.1754  0.4363 -0.1551
  263MPD2    H5 4041   3.451   1.579  11.470  0.6166  0.0538 -0.4761
  263MPD2    N1 4042   3.393   1.254  11.827 -0.2766 -0.1516 -0.0569
  263MPD2    H7 4043   3.369   1.168  11.874  1.4567  0.3605  1.7862
  264TMC3    C1 4044   3.449   1.634  11.244  0.3559 -1.2174 -0.1091
  264TMC3    C2 4045   3.488   1.751  11.305 -0.1756  0.8004 -0.3006
  264TMC3    C3 4046   3.568   1.830  11.227  0.3859  0.1575  1.4819
  264TMC3    C4 4047   3.475   1.595  11.121 -0.5559 -0.7938  0.6056
  264TMC3    C5 4048   3.563   1.669  11.052 -0.4668 -0.4652  0.2699
  264TMC3    C6 4049   3.618   1.787  11.107  0.5615  0.9629 -0.0431
  264TMC3     C 4050   3.338   1.561  11.304  0.1032 -0.2396 -1.1756
  264TMC3     O 4051   3.248   1.515  11.239  0.1308  0.3656 -0.0570
  264TMC3     H 4052   3.460   1.784  11.404  0.6585  1.0561 -0.1454
  264TMC3    H1 4053   3.424   1.506  11.084 -0.0265  0.0077 -2.0468
  264TMC3    H2 4054   3.700   1.839  11.058 -0.2411  0.8195 -1.5218
  264TMC3    C7 4055   3.635   1.614  10.942  0.4685  1.1897  0.2577
  264TMC3    C8 4056   3.620   1.960  11.275  0.7476 -0.4043  0.5452
  264TMC3    O1 4057   3.749   1.656  10.938  0.2718  0.1714  0.1277
  264TMC3    O2 4058   3.714   2.005  11.212 -0.4733  0.6269  0.3605
  265MPD2     C 4059   1.010   1.927  16.015 -0.6442 -0.4773 -0.2765
  265MPD2    C1 4060   0.926   2.028  15.967  0.4235 -0.6235  0.0087
  265MPD2    C2 4061   0.904   2.028  15.827 -0.3559 -0.0784 -0.1592
  265MPD2    C3 4062   0.967   1.932  15.749 -0.2977 -0.0063 -0.5877
  265MPD2    C4 4063   1.066   1.850  15.800  0.3210  0.5765 -0.7167
  265MPD2    C5 4064   1.082   1.836  15.935  0.0379 -0.0018 -0.3726
  265MPD2     H 4065   0.839   2.098  15.776 -0.2114 -0.1808 -0.4778
  265MPD2    H1 4066   1.121   1.779  15.740  0.9009  1.3102 -1.0478
  265MPD2    H2 4067   1.024   1.907  16.121  0.8109  0.6144 -0.2659
  265MPD2    H3 4068   1.151   1.765  15.979  0.6898 -0.1113 -1.5725
  265MPD2     N 4069   0.949   1.934  15.610  0.3442  0.3641  0.0508
  265MPD2    H5 4070   0.885   1.999  15.567 -0.4513  1.1262  2.3741
  265MPD2    N1 4071   0.865   2.122  16.053 -0.1456  0.4034  0.9977
  265MPD2    H7 4072   0.825   2.207  16.013  1.4130  0.2062 -0.9274
  266TMC3    C1 4073   0.800   2.231  16.262 -0.5997  0.3644  1.0280
  266TMC3    C2 4074   0.856   2.248  16.384  0.5041 -0.6628 -0.2614
  266TMC3    C3 4075   0.850   2.370  16.444 -0.8819 -0.6655 -0.5874
  266TMC3    C4 4076   0.742   2.334  16.191 -0.2808  0.2729  0.1763
  266TMC3    C5 4077   0.752   2.455  16.248 -0.7032  0.3714  0.1779
  266TMC3    C6 4078   0.804   2.480  16.372  0.8382  0.4216  0.3403
  266TMC3     C 4079   0.853   2.111  16.191 -0.3348 -0.3248  0.9427
  266TMC3     O 4080   0.874   2.015  16.264 -0.1694 -0.7685 -0.3613
  266TMC3     H 4081   0.902   2.160  16.427  3.1829  0.7140 -0.3183
  266TMC3    H1 4082   0.695   2.322  16.094  1.9720  1.1547 -1.0526
  266TMC3    H2 4083   0.792   2.580  16.414  0.6555  1.7233 -2.8675
  266TMC3    C7 4084   0.691   2.565  16.191 -0.0861  0.3113  0.4827
  266TMC3    C8 4085   0.911   2.379  16.571  0.0987  0.3514  0.7110
  266TMC3    O1 4086   0.607   2.541  16.106  0.1978 -0.0258 -0.0582
  266TMC3    O2 4087   0.966   2.278  16.609  0.3243  0.4839 -0.0975
  267MPD2     C 4088   3.020   4.652   0.503 -0.2157 -0.1741  0.1266
  267MPD2    C1 4089   3.061   4.609   0.375  0.6192 -0.4079  0.3586
  267MPD2    C2 4090   2.982   4.640   0.262  0.2019 -0.3721 -0.2149
  267MPD2    C3 4091   2.865   4.704   0.272 -0.1344  0.5805 -0.2552
  267MPD2    C4 4092   2.838   0.027   0.392  0.0838 -0.6773 -0.4710
  267MPD2    C5 4093   2.912   4.740   0.504  0.4023 -0.1634  0.8924
  267MPD2     H 4094   3.006   4.614   0.159 -1.3675  0.7910 -0.8847
  267MPD2    H1 4095   2.756   0.096   0.401 -1.0353 -2.0844  0.1759
  267MPD2    H2 4096   3.083   4.643   0.590 -1.2814  1.2956  1.0513
  267MPD2    H3 4097   2.878   0.045   0.596  1.2159  1.8779  0.1960
  267MPD2     N 4098   2.798   4.725   0.148  0.8384  0.1818 -0.6182
  267MPD2    H5 4099   2.822   4.677   0.063  2.2200 -0.6250  0.2279
  267MPD2    N1 4100   3.173   4.522   0.368 -0.0819 -0.2635  0.4494
  267MPD2    H7 4101   3.211   4.497   0.458  0.7442  0.6281  0.3491
  268TMC3    C1 4102   3.340   4.379   0.264 -0.3072  0.2739  0.7311
  268TMC3    C2 4103   3.443   4.379   0.174  0.2756  0.1210  0.4180
  268TMC3    C3 4104   3.531   4.282   0.172  0.6146 -0.6422  0.2903
  268TMC3    C4 4105   3.341   4.293   0.375  0.0945 -0.8638 -0.1822
  268TMC3    C5 4106   3.442   4.203   0.373 -0.4738 -0.4558  0.1006
  268TMC3    C6 4107   3.534   4.191   0.277  1.1438  0.3268 -0.1900
  268TMC3     C 4108   3.229   4.478   0.247  0.3953 -0.4767  0.5387
  268TMC3     O 4109   3.226   4.537   0.141 -0.6872 -0.3748  0.3206
  268TMC3     H 4110   3.438   4.454   0.096 -0.5436  1.8241  2.0914
  268TMC3    H1 4111   3.255   4.293   0.441 -0.3813 -3.4195 -0.7901
  268TMC3    H2 4112   3.613   4.116   0.276  0.9435  0.0956  1.2169
  268TMC3    C7 4113   3.457   4.111   0.483 -0.0424 -0.6058 -0.2066
  268TMC3    C8 4114   3.585   4.253   0.044  0.3144  0.3614 -0.4844
  268TMC3    O1 4115   3.517   4.006   0.453 -0.7292 -0.0707  0.8853
  268TMC3    O2 4116   3.569   4.331  17.706  0.1326 -0.9197 -0.3040
  269MPD2     C 4117   4.107   3.175  15.488  0.0642 -0.4653 -0.0991
  269MPD2    C1 4118   3.966   3.186  15.490 -0.8814  0.7202  0.0180
  269MPD2    C2 4119   3.913   3.310  15.510 -0.2916 -0.1196  0.0015
  269MPD2    C3 4120   3.989   3.424  15.512 -0.7844 -0.3855 -1.1245
  269MPD2    C4 4121   4.125   3.414  15.510  0.2149  0.3343 -0.6520
  269MPD2    C5 4122   4.181   3.286  15.498  0.1144  0.6551  0.4116
  269MPD2     H 4123   3.805   3.320  15.513 -0.4180 -1.0880 -1.1056
  269MPD2    H1 4124   4.193   3.498  15.509  0.2129  0.3348 -0.7649
  269MPD2    H2 4125   4.154   3.079  15.474 -1.3355 -1.2219  0.3581
  269MPD2    H3 4126   4.288   3.269  15.503 -0.4650 -2.6903  1.2917
  269MPD2     N 4127   3.919   3.555  15.530 -0.4383  0.3634  0.0917
  269MPD2    H5 4128   3.818   3.561  15.526 -0.4259  1.5283  1.5437
  269MPD2    N1 4129   3.890   3.063  15.488  0.0066  0.3568 -0.5872
  269MPD2    H7 4130   3.942   2.976  15.500  1.4539  1.1480 -1.0688
  270TMC3    C1 4131   3.720   2.915  15.463  0.5682 -0.6498 -0.2905
  270TMC3    C2 4132   3.590   2.878  15.453  0.6808 -0.1365  0.2613
  270TMC3    C3 4133   3.560   2.752  15.425  0.5158  0.1488 -0.6026
  270TMC3    C4 4134   3.816   2.820  15.425  0.2526  0.1018  0.5040
  270TMC3    C5 4135   3.771   2.693  15.391  0.5676 -0.3083 -0.4169
  270TMC3    C6 4136   3.647   2.652  15.403  0.1646  0.5663  0.0370
  270TMC3     C 4137   3.754   3.049  15.475 -0.6817 -0.1713  0.5804
  270TMC3     O 4138   3.661   3.129  15.485 -0.3152 -0.0646 -0.2683
  270TMC3     H 4139   3.512   2.953  15.456 -0.9879 -1.8639  0.0805
  270TMC3    H1 4140   3.920   2.839  15.402  0.0795  3.3162  2.4304
  270TMC3    H2 4141   3.617   2.548  15.395  0.8228  0.2140  1.9761
  270TMC3    C7 4142   3.874   2.593  15.362 -0.1232 -0.1505  0.7130
  270TMC3    C8 4143   3.420   2.723  15.420  0.6511 -0.2349  0.2543
  270TMC3    O1 4144   3.984   2.613  15.410  0.3167  0.3557  0.9984
  270TMC3    O2 4145   3.350   2.781  15.499  0.3665 -0.1332  0.5615
  271MPD2     C 4146   2.346   2.842  14.439 -0.7886  0.4653  0.5404
  271MPD2    C1 4147   2.279   2.732  14.468  0.4898 -0.5853  0.4759
  271MPD2    C2 4148   2.156   2.708  14.405  0.7080 -0.7064 -0.3192
  271MPD2    C3 4149   2.111   2.797  14.307 -0.1000 -0.2702 -0.6332
  271MPD2    C4 4150   2.189   2.912  14.286 -0.8458  0.7110  0.7299
  271MPD2    C5 4151   2.303   2.935  14.354  0.1023 -0.4833  0.4023
  271MPD2     H 4152   2.092   2.623  14.426  0.7407 -0.6757 -0.0959
  271MPD2    H1 4153   2.158   2.986  14.214 -0.2618 -0.9753 -1.2460
  271MPD2    H2 4154   2.435   2.872  14.493  0.3622 -0.6776 -0.7391
  271MPD2    H3 4155   2.355   3.030  14.343  0.6064 -0.9230 -0.9240
  271MPD2     N 4156   2.012   2.771  14.218  0.1719 -0.2700 -0.2681
  271MPD2    H5 4157   1.995   2.842  14.147  0.6880 -0.0982 -0.2212
  271MPD2    N1 4158   2.311   2.648  14.571 -0.1245  0.4445 -0.3070
  271MPD2    H7 4159   2.261   2.560  14.582  1.1537 -0.1579  0.5914
  272TMC3    C1 4160   2.466   2.526  14.709 -0.0277 -0.0641  0.1681
  272TMC3    C2 4161   2.581   2.478  14.675  0.1584  0.4975 -0.0350
  272TMC3    C3 4162   2.666   2.428  14.772  0.2274 -0.5916  0.2299
  272TMC3    C4 4163   2.439   2.551  14.838  0.0596  0.4768 -0.1543
  272TMC3    C5 4164   2.517   2.491  14.939 -0.0887 -0.3835 -0.5329
  272TMC3    C6 4165   2.635   2.435  14.906  0.0795  0.0734  0.5735
  272TMC3     C 4166   2.439   2.644  14.626  0.2816  0.1947  0.1556
  272TMC3     O 4167   2.534   2.719  14.613  0.0182 -0.2269 -0.1055
  272TMC3     H 4168   2.600   2.471  14.569 -1.8095 -0.9183 -0.3049
  272TMC3    H1 4169   2.350   2.610  14.860 -2.6309 -3.3673 -0.8621
  272TMC3    H2 4170   2.707   2.407  14.981  1.7109 -1.0429 -1.4188
  272TMC3    C7 4171   2.537   2.560  15.059 -0.2850 -0.2590 -0.7848
  272TMC3    C8 4172   2.799   2.396  14.725 -0.2142 -0.1886  0.2967
  272TMC3    O1 4173   2.446   2.560  15.146  0.0101 -0.0848  0.2871
  272TMC3    O2 4174   2.825   2.435  14.611 -0.1934  0.2591  0.4287
  273MPD2     C 4175   4.698   0.159  11.936 -0.3648 -0.2286  0.7107
  273MPD2    C1 4176   4.601   0.242  11.990 -0.3049 -0.1321 -0.2998
  273MPD2    C2 4177   4.504   0.285  11.908 -0.2103 -1.0411  0.2983
  273MPD2    C3 4178   4.493   0.242  11.779 -0.2854 -0.1529  0.2137
  273MPD2    C4 4179   4.579   0.140  11.734  0.0904  0.1322 -0.3017
  273MPD2    C5 4180   4.684   0.110  11.811 -0.2873  0.1459  0.9181
  273MPD2     H 4181   4.439   0.361  11.952 -0.9594 -1.8491  0.5892
  273MPD2    H1 4182   4.590   0.103  11.633  0.0544 -1.2912  0.2257
  273MPD2    H2 4183   0.053   0.148  11.987  0.3267 -2.8319 -1.1190
  273MPD2    H3 4184   0.024   0.042  11.784 -2.0471 -2.0019  1.0420
  273MPD2     N 4185   4.390   0.299  11.697 -0.2134 -0.2356  0.0550
  273MPD2    H5 4186   4.330   0.372  11.732 -1.3262 -0.4527 -1.4021
  273MPD2    N1 4187   4.608   0.304  12.119 -0.2268  0.2109  0.0960
  273MPD2    H7 4188   4.539   0.376  12.138 -0.6648  0.2408 -1.5561
  274TMC3    C1 4189   4.256   0.355  11.524  0.2687 -0.0459  0.4917
  274TMC3    C2 4190   4.194   0.314  11.407  0.3269  0.5513  0.0203
  274TMC3    C3 4191   4.076   0.384  11.363  0.9153 -0.4380  0.3897
  274TMC3    C4 4192   4.214   0.457  11.597  0.4395  1.0880 -0.4650
  274TMC3    C5 4193   4.099   0.520  11.558 -0.2843  0.2348 -0.0997
  274TMC3    C6 4194   4.022   0.483  11.446 -1.3812  0.6592  0.5743
  274TMC3     C 4195   4.359   0.266  11.569 -0.6254  0.1172 -0.4804
  274TMC3     O 4196   4.402   0.175  11.494 -0.3575  0.7126 -0.2719
  274TMC3     H 4197   4.235   0.237  11.343  2.0727  0.8299  0.8071
  274TMC3    H1 4198   4.249   0.491  11.694 -0.0544 -0.9926  0.4436
  274TMC3    H2 4199   3.955   0.558  11.406  0.6566  3.5130  2.5254
  274TMC3    C7 4200   4.057   0.643  11.629  0.3961 -0.1573 -0.3590
  274TMC3    C8 4201   4.026   0.382  11.231 -0.1088  0.3881  0.1019
  274TMC3    O1 4202   3.938   0.673  11.623 -0.7511 -0.5191  0.1042
  274TMC3    O2 4203   3.920   0.322  11.216  0.3963  0.2012 -0.5665
  275MPD2     C 4204   4.044   3.817  14.356  0.2308  0.0455  0.5580
  275MPD2    C1 4205   3.973   3.892  14.449 -0.1678  0.1758 -0.0622
  275MPD2    C2 4206   3.840   3.857  14.470 -0.5399  0.0575  0.3412
  275MPD2    C3 4207   3.775   3.754  14.410 -0.0118 -0.1782 -0.5074
  275MPD2    C4 4208   3.853   3.678  14.320  0.0208  0.0203  0.4871
  275MPD2    C5 4209   3.984   3.713  14.295  0.3413 -0.1569  0.7118
  275MPD2     H 4210   3.787   3.923  14.538  0.9273  0.1070  1.4385
  275MPD2    H1 4211   3.804   3.592  14.276  3.0471 -1.5745  0.2565
  275MPD2    H2 4212   4.147   3.839  14.330  0.4622 -0.7035  0.8496
  275MPD2    H3 4213   4.043   3.644  14.235 -1.8039  0.6290 -2.2817
  275MPD2     N 4214   3.641   3.723  14.418 -0.6507  0.1294  0.9192
  275MPD2    H5 4215   3.615   3.635  14.374  1.3725 -0.4980  0.9703
  275MPD2    N1 4216   4.028   4.003  14.517  0.6148 -0.0294 -0.5809
  275MPD2    H7 4217   3.964   4.065  14.566  0.3869 -0.6828 -0.0476
  276TMC3    C1 4218   4.205   4.105  14.641  0.1297 -0.1376  0.5303
  276TMC3    C2 4219   4.108   4.171  14.713 -0.2101  0.5144 -0.0870
  276TMC3    C3 4220   4.142   4.227  14.827 -0.8208 -0.6745 -0.0751
  276TMC3    C4 4221   4.333   4.092  14.684  1.0158  0.0190 -0.3487
  276TMC3    C5 4222   4.368   4.160  14.794 -0.0229  0.5164 -0.0826
  276TMC3    C6 4223   4.268   4.222  14.864 -0.4580 -0.6524  1.2548
  276TMC3     C 4224   4.169   4.032  14.523 -0.0229  0.0824 -0.0629
  276TMC3     O 4225   4.267   3.979  14.465 -0.5838 -0.1874 -0.0856
  276TMC3     H 4226   4.003   4.158  14.691  0.0319 -2.3689  0.4803
  276TMC3    H1 4227   4.412   4.029  14.642  1.0090 -0.3776  0.2312
  276TMC3    H2 4228   4.302   4.268  14.956 -0.1053  0.4721  0.5672
  276TMC3    C7 4229   4.475   4.122  14.886  0.3612  0.0118 -0.3725
  276TMC3    C8 4230   4.053   4.188  14.937 -0.8955  0.0443 -0.1862
  276TMC3    O1 4231   4.537   4.210  14.946 -0.1269  0.6018 -0.6959
  276TMC3    O2 4232   3.934   4.203  14.923 -0.4122 -0.1419  0.2419
  277MPD2     C 4233   1.060   2.987  13.194 -0.0778  0.5179 -0.2151
  277MPD2    C1 4234   0.926   3.008  13.223 -0.0981  0.4522 -0.0729
  277MPD2    C2 4235   0.873   2.946  13.330 -0.3626  0.0868  0.2170
  277MPD2    C3 4236   0.950   2.874  13.421  0.1260  0.4354 -0.2141
  277MPD2    C4 4237   1.088   2.866  13.401 -0.2602  0.1553  0.1487
  277MPD2    C5 4238   1.137   2.920  13.290  0.1817  0.2166  0.0926
  277MPD2     H 4239   0.768   2.948  13.358  0.5634 -0.8773  3.7137
  277MPD2    H1 4240   1.155   2.822  13.474 -2.3687  0.3440  2.1864
  277MPD2    H2 4241   1.105   3.034  13.108 -0.6687 -0.8307 -1.2566
  277MPD2    H3 4242   1.245   2.911  13.278  0.2899 -0.1135  1.3688
  277MPD2     N 4243   0.877   2.815  13.534 -0.3730 -1.0698  0.1398
  277MPD2    H5 4244   0.778   2.837  13.531  0.1734  1.6167  1.4531
  277MPD2    N1 4245   0.848   3.078  13.124 -0.0821 -0.6865 -0.5974
  277MPD2    H7 4246   0.894   3.117  13.043  1.2921 -0.5731  0.2343
  278TMC3    C1 4247   0.827   2.675  13.717 -0.0631  0.8838  0.0513
  278TMC3    C2 4248   0.847   2.546  13.758 -0.3124  0.1565 -0.1539
  278TMC3    C3 4249   0.739   2.484  13.815 -0.4286 -0.4180  0.6220
  278TMC3    C4 4250   0.715   2.747  13.736  0.1631  0.1864  0.7216
  278TMC3    C5 4251   0.612   2.675  13.798  0.3365  0.1011  0.5115
  278TMC3    C6 4252   0.622   2.543  13.826 -0.1406 -0.0150 -0.0608
  278TMC3     C 4253   0.924   2.730  13.628  0.0859  0.3565 -0.2252
  278TMC3     O 4254   1.027   2.667  13.622  0.6498  0.7226 -0.6655
  278TMC3     H 4255   0.943   2.496  13.748 -0.3175  0.1230 -0.0398
  278TMC3    H1 4256   0.705   2.853  13.716 -0.5028 -0.0805 -0.3785
  278TMC3    H2 4257   0.545   2.493  13.884  0.8900 -0.5886  0.8130
  278TMC3    C7 4258   0.474   2.719  13.765  0.4336  1.4606 -0.5444
  278TMC3    C8 4259   0.751   2.340  13.839 -0.2787 -0.7347 -0.5446
  278TMC3    O1 4260   0.468   2.784  13.659 -0.1335 -0.4830  0.8021
  278TMC3    O2 4261   0.860   2.297  13.876 -0.0277  0.5796  0.2618
  279MPD2     C 4262   0.535   2.365   0.409  0.1768 -0.0894 -0.3836
  279MPD2    C1 4263   0.455   2.484   0.412  0.5239 -0.2668 -0.3556
  279MPD2    C2 4264   0.351   2.498   0.314  0.0918  0.3628 -0.4013
  279MPD2    C3 4265   0.312   2.388   0.235  0.4707  0.1253  0.1649
  279MPD2    C4 4266   0.391   2.277   0.237 -0.2770 -0.5036 -0.0069
  279MPD2    C5 4267   0.500   2.267   0.325  0.1574 -0.6405  0.2735
  279MPD2     H 4268   0.305   2.597   0.309  1.3103  0.8422 -1.9684
  279MPD2    H1 4269   0.362   2.202   0.164  1.3695 -0.3130 -0.8507
  279MPD2    H2 4270   0.609   2.336   0.482  0.0412  0.7303  0.0853
  279MPD2    H3 4271   0.561   2.178   0.314 -0.2401 -0.8268 -0.4132
  279MPD2     N 4272   0.208   2.395   0.142  0.0603  0.4474  0.1893
  279MPD2    H5 4273   0.196   2.308   0.091 -0.3009  1.5412 -1.5966
  279MPD2    N1 4274   0.472   2.575   0.521 -0.0553 -0.5530  0.1851
  279MPD2    H7 4275   0.554   2.564   0.580  0.5207  2.0540 -0.1298
  280TMC3    C1 4276   0.248   2.674   0.530  0.1610  0.3732 -0.2099
  280TMC3    C2 4277   0.178   2.558   0.543 -0.2488  0.6431  0.0099
  280TMC3    C3 4278   0.049   2.550   0.494  0.4342  0.9650 -0.3562
  280TMC3    C4 4279   0.187   2.787   0.486  0.0947 -0.6031  0.9281
  280TMC3    C5 4280   0.061   2.780   0.440 -0.8290  0.3508  0.0061
  280TMC3    C6 4281   4.729   2.665   0.452  0.1711 -0.4005 -0.1623
  280TMC3     C 4282   0.386   2.676   0.571  0.0464 -0.4677  0.5329
  280TMC3     O 4283   0.424   2.776   0.632 -0.2305 -0.5647 -0.1973
  280TMC3     H 4284   0.233   2.467   0.566 -1.6974 -0.4031 -0.6802
  280TMC3    H1 4285   0.240   2.882   0.496  1.2515 -1.2184  0.6853
  280TMC3    H2 4286   4.623   2.659   0.431  0.2015  1.3092 -0.8270
  280TMC3    C7 4287   4.732   2.904   0.411  0.0350  0.0757  0.5180
  280TMC3    C8 4288   0.001   2.412   0.470 -0.5612 -0.4581 -0.7070
  280TMC3    O1 4289   0.033   3.005   0.473 -0.5706  0.2608 -0.0811
  280TMC3    O2 4290   0.076   2.318   0.495  0.0128 -0.5519  0.3260
  281TMC3    C1 4291   3.305   2.951  13.874  0.5640 -0.1118 -0.3011
  281TMC3    C2 4292   3.438   2.942  13.916 -0.2475 -0.0529 -0.5090
  281TMC3    C3 4293   3.502   2.826  13.906 -0.1747  0.1316 -0.3293
  281TMC3    C4 4294   3.235   2.846  13.818 -0.1820  0.0529 -0.2442
  281TMC3    C5 4295   3.295   2.722  13.834 -0.2564  0.2355 -0.8896
  281TMC3    C6 4296   3.428   2.713  13.876 -0.0152  0.1665 -0.1919
  281TMC3     C 4297   3.282   3.082  13.819  0.2295 -0.5131  0.3563
  281TMC3     O 4298   3.372   3.164  13.843  0.3039 -0.2093  0.3701
  281TMC3     H 4299   3.486   3.019  13.975 -0.3030 -1.3493  1.2075
  281TMC3    H1 4300   3.133   2.853  13.782  0.1085 -0.3036 -1.1163
  281TMC3    H2 4301   3.489   2.625  13.889  2.2297  1.3607 -2.6449
  281TMC3    C7 4302   3.213   2.608  13.799  0.5122 -0.1787 -0.3732
  281TMC3    C8 4303   3.632   2.816  13.968 -0.0093 -0.4511  0.6287
  281TMC3    O1 4304   3.122   2.620  13.717 -0.1619 -0.0689 -0.1139
  281TMC3    O2 4305   3.640   2.727  14.050  0.3238 -0.3843 -0.1590
  282MPD2     C 4306   1.052   4.294  15.057  0.4211 -0.3511  0.4995
  282MPD2    C1 4307   0.959   4.397  15.077  0.9702 -0.7468  0.0625
  282MPD2    C2 4308   0.891   4.442  14.963 -0.1104  0.2808  0.3881
  282MPD2    C3 4309   0.923   4.391  14.834  0.4525 -0.2537 -0.1483
  282MPD2    C4 4310   1.023   4.292  14.819  0.3955  0.9176 -0.0754
  282MPD2    C5 4311   1.080   4.245  14.935 -1.0041 -0.5952 -0.5207
  282MPD2     H 4312   0.805   4.506  14.979 -0.8557 -0.3452 -1.0880
  282MPD2    H1 4313   1.058   4.251  14.724 -0.3658 -1.0493  0.5008
  282MPD2    H2 4314   1.106   4.236  15.131  0.1101 -1.5324 -0.2068
  282MPD2    H3 4315   1.160   4.175  14.913 -0.4726 -0.4719  1.0461
  282MPD2     N 4316   0.858   4.456  14.720 -0.2050 -0.0844  0.8037
  282MPD2    H5 4317   0.791   4.529  14.744  1.8049  1.7783  0.6842
  282MPD2    N1 4318   0.910   4.442  15.205 -0.1977  0.3727 -0.0307
  282MPD2    H7 4319   0.852   4.525  15.198 -2.7167 -1.3378  0.8541
  283TMC3    C1 4320   0.825   4.389  15.417  0.0580 -0.3635 -0.0150
  283TMC3    C2 4321   0.850   4.510  15.481  0.2350  0.4678 -0.1583
  283TMC3    C3 4322   0.802   4.520  15.607  0.5018 -0.5487 -0.0224
  283TMC3    C4 4323   0.781   4.279  15.485 -0.0529 -0.0578 -0.0061
  283TMC3    C5 4324   0.722   4.303  15.613  0.0427  0.0310  0.3000
  283TMC3    C6 4325   0.732   4.422  15.678 -0.6571  0.2398  0.1006
  283TMC3     C 4326   0.917   4.360  15.312  0.2848  0.0210  0.6815
  283TMC3     O 4327   0.961   4.245  15.327  0.0400 -0.1265  0.7132
  283TMC3     H 4328   0.891   4.596  15.430  2.5983 -0.0945  0.7670
  283TMC3    H1 4329   0.749   4.188  15.435 -0.6516  1.2564 -2.0113
  283TMC3    H2 4330   0.691   4.443  15.776  3.3063 -0.3754  1.8927
  283TMC3    C7 4331   0.619   4.212  15.669 -0.5034  0.7116 -0.9900
  283TMC3    C8 4332   0.840   4.634  15.683 -0.0245 -0.0684 -0.7328
  283TMC3    O1 4333   0.533   4.262  15.742 -0.2085 -0.7385  0.2260
  283TMC3    O2 4334   0.866   4.617  15.803 -0.1976  0.4638 -0.1676
  284MPD2     C 4335   3.279   3.039  12.345 -0.1850 -0.3215 -0.4297
  284MPD2    C1 4336   3.388   2.998  12.274 -0.0734 -0.0532  0.2859
  284MPD2    C2 4337   3.494   2.931  12.337  0.6586  0.0423  0.0291
  284MPD2    C3 4338   3.480   2.900  12.476 -0.8607 -0.1207 -0.1418
  284MPD2    C4 4339   3.372   2.949  12.545 -0.4505 -0.4427 -0.6914
  284MPD2    C5 4340   3.276   3.028  12.482 -0.1760 -0.5907 -0.3347
  284MPD2     H 4341   3.587   2.923  12.283  0.9646  0.4350  0.5030
  284MPD2    H1 4342   3.364   2.920  12.649  0.0617  0.4377 -0.4009
  284MPD2    H2 4343   3.197   3.096  12.302  0.1080 -0.1411 -0.7472
  284MPD2    H3 4344   3.195   3.075  12.537  0.9707  1.0297 -0.0417
  284MPD2     N 4345   3.597   2.853  12.548 -0.7602 -0.4327 -0.2704
  284MPD2    H5 4346   3.589   2.846  12.649 -1.6856 -1.9269 -0.4419
  284MPD2    N1 4347   3.405   3.025  12.130  0.0526  0.2933  0.9215
  284MPD2    H7 4348   3.500   2.998  12.106 -0.4981 -0.5560 -0.2836
  285TMC3    C1 4349   3.393   3.125  11.915  0.6270 -0.0680 -1.0062
  285TMC3    C2 4350   3.485   3.034  11.874  0.4172  1.0670 -0.1777
  285TMC3    C3 4351   3.585   3.070  11.794  0.0790  0.1029  0.2171
  285TMC3    C4 4352   3.390   3.251  11.865  0.2023  0.6631 -0.0910
  285TMC3    C5 4353   3.497   3.291  11.784  0.2984 -0.0998  0.7501
  285TMC3    C6 4354   3.598   3.199  11.750  0.6094  0.0723 -0.1205
  285TMC3     C 4355   3.326   3.096  12.045 -0.0329  0.2864  0.2471
  285TMC3     O 4356   3.220   3.149  12.075 -0.4407  0.2064 -0.0093
  285TMC3     H 4357   3.480   2.935  11.918  0.1828 -0.1658 -2.9856
  285TMC3    H1 4358   3.329   3.332  11.901 -1.3834 -1.5588  2.2432
  285TMC3    H2 4359   3.671   3.215  11.671  1.5078  1.4653  0.9878
  285TMC3    C7 4360   3.516   3.429  11.753 -0.6042 -0.1839  0.5162
  285TMC3    C8 4361   3.706   2.990  11.784  0.1215  0.2033 -0.3306
  285TMC3    O1 4362   3.428   3.505  11.780  0.0409 -0.5465 -0.0689
  285TMC3    O2 4363   3.701   2.868  11.807 -0.6222 -0.4802 -0.1642
  286MPD2     C 4364   4.122   2.593   1.351 -0.2237  0.1318  0.0682
  286MPD2    C1 4365   4.103   2.540   1.229 -0.3936 -0.8462  0.2154
  286MPD2    C2 4366   4.145   2.412   1.195 -0.4401  0.0858  0.2183
  286MPD2    C3 4367   4.236   2.352   1.277  0.5598  0.1561  0.0257
  286MPD2    C4 4368   4.271   2.405   1.400 -0.4227 -0.1556  0.2835
  286MPD2    C5 4369   4.204   2.520   1.436 -0.3947  0.7413  0.8978
  286MPD2     H 4370   4.105   2.372   1.103  0.0011  0.6018 -0.1960
  286MPD2    H1 4371   4.343   2.351   1.461 -1.2055 -0.0590  1.2923
  286MPD2    H2 4372   4.074   2.686   1.379  0.9650  0.2030  1.8341
  286MPD2    H3 4373   4.223   2.562   1.533  1.1227 -0.5357  1.1664
  286MPD2     N 4374   4.286   2.228   1.234 -0.3704 -0.6648 -0.4391
  286MPD2    H5 4375   4.336   2.173   1.304  0.2625  1.8209  1.0511
  286MPD2    N1 4376   4.029   2.606   1.127 -0.0541  0.6514  0.5874
  286MPD2    H7 4377   4.026   2.556   1.038  0.7044 -1.0391  1.5094
  287TMC3    C1 4378   4.339   2.039   1.099 -0.3899 -0.7607  0.3633
  287TMC3    C2 4379   4.265   1.956   1.023  1.0006 -0.5705 -0.0638
  287TMC3    C3 4380   4.294   1.822   1.022  0.1586  0.5264  0.1517
  287TMC3    C4 4381   4.447   2.003   1.176 -0.6530  0.0404  0.5458
  287TMC3    C5 4382   4.480   1.869   1.165  0.7199 -0.0281  0.2043
  287TMC3    C6 4383   4.403   1.779   1.098  0.3603 -0.1302  0.1890
  287TMC3     C 4384   4.283   2.170   1.105  1.1469  0.1183  0.0246
  287TMC3     O 4385   4.233   2.206   1.001  0.0471  0.0684 -0.0352
  287TMC3     H 4386   4.169   1.992   0.989  1.4678  0.3904 -0.3980
  287TMC3    H1 4387   4.523   2.070   1.216 -0.4558  1.1725 -1.7618
  287TMC3    H2 4388   4.424   1.672   1.095  2.1479  0.1909  0.8000
  287TMC3    C7 4389   4.607   1.829   1.225 -0.8725  0.6101  0.0202
  287TMC3    C8 4390   4.234   1.733   0.926 -0.1057  1.1749  0.0675
  287TMC3    O1 4391   4.651   1.912   1.307 -0.6614  1.2284 -0.4964
  287TMC3    O2 4392   4.260   1.614   0.942  0.0757  0.0418 -0.1185
  288TMC3    C1 4393   0.941   2.450  14.345  0.0856  0.0712 -0.0910
  288TMC3    C2 4394   0.928   2.476  14.478  0.5710 -0.4749  0.0983
  288TMC3    C3 4395   0.932   2.368  14.557 -0.5506 -0.0397 -0.5430
  288TMC3    C4 4396   0.962   2.329  14.292  0.9210  0.0363  0.0097
  288TMC3    C5 4397   0.946   2.222  14.382  0.3109  0.1130 -0.0361
  288TMC3    C6 4398   0.925   2.240  14.520  1.3579 -0.1262 -0.3162
  288TMC3     C 4399   0.969   2.565  14.268 -0.4042 -0.0666  0.7092
  288TMC3     O 4400   0.885   2.655  14.287 -0.5198 -0.4516 -0.4770
  288TMC3     H 4401   0.931   2.580  14.512  0.1204 -0.2970 -0.4046
  288TMC3    H1 4402   0.972   2.319  14.184 -1.0960 -1.3966 -0.0364
  288TMC3    H2 4403   0.936   2.158  14.590 -1.1014  1.2929  1.7344
  288TMC3    C7 4404   0.950   2.085  14.339 -0.4834 -0.2184 -0.2418
  288TMC3    C8 4405   0.920   2.394  14.699  0.3776 -0.0839  0.3065
  288TMC3    O1 4406   0.951   1.999  14.431 -0.0555  0.2682  0.5575
  288TMC3    O2 4407   0.954   2.503  14.744 -0.2868 -0.0226 -0.6925
  289MPD2     C 4408   1.326   1.220  14.428 -0.7164  0.3468  0.6152
  289MPD2    C1 4409   1.312   1.355  14.402  0.7828  0.0174  0.1848
  289MPD2    C2 4410   1.180   1.404  14.393 -0.5035  0.2724  0.4297
  289MPD2    C3 4411   1.065   1.325  14.401 -0.2668  0.7740  0.7295
  289MPD2    C4 4412   1.084   1.187  14.406 -0.3403 -0.3042  0.3205
  289MPD2    C5 4413   1.214   1.139  14.423  0.7742  0.1931 -1.2250
  289MPD2     H 4414   1.171   1.512  14.381 -0.7450  0.2388  0.3122
  289MPD2    H1 4415   1.006   1.112  14.399 -1.1598  0.7740 -2.0943
  289MPD2    H2 4416   1.422   1.174  14.450 -0.6818  0.1108 -0.0292
  289MPD2    H3 4417   1.223   1.032  14.433 -1.3951 -0.0154 -1.6278
  289MPD2     N 4418   0.935   1.369  14.382  0.0062 -0.4230 -0.0537
  289MPD2    H5 4419   0.863   1.298  14.389  1.0845 -1.4157  0.8680
  289MPD2    N1 4420   1.431   1.432  14.411 -0.0125  0.1652 -0.6402
  289MPD2    H7 4421   1.518   1.388  14.439 -0.1928 -0.1959 -0.6435
  290TMC3    C1 4422   0.754   1.518  14.338 -0.2027  0.2358  0.5695
  290TMC3    C2 4423   0.695   1.644  14.338  0.4146  0.4212  0.0552
  290TMC3    C3 4424   0.583   1.675  14.260 -0.0144 -0.4123 -0.4353
  290TMC3    C4 4425   0.700   1.425  14.257  0.3726 -0.4545 -0.7126
  290TMC3    C5 4426   0.589   1.451  14.183 -0.1989 -0.2959  0.2337
  290TMC3    C6 4427   0.527   1.576  14.180  0.5795  0.2017  0.1182
  290TMC3     C 4428   0.892   1.502  14.376 -1.0918  0.4040  0.0643
  290TMC3     O 4429   0.945   1.603  14.427  0.2967  0.1374  0.3196
  290TMC3     H 4430   0.739   1.723  14.398  0.1500 -0.3749  1.3087
  290TMC3    H1 4431   0.763   1.344  14.223  1.6943  0.4013 -0.2960
  290TMC3    H2 4432   0.446   1.607  14.115 -0.2640 -0.0536  1.0393
  290TMC3    C7 4433   0.516   1.348  14.116  0.1589 -0.1620  0.1434
  290TMC3    C8 4434   0.561   1.804  14.215 -0.5028  0.4584  0.8032
  290TMC3    O1 4435   0.441   1.383  14.025  0.0918  0.0719 -0.1268
  290TMC3    O2 4436   0.518   1.828  14.103 -0.8814  0.2241 -0.2050
  291MPD2     C 4437   0.196   0.874   0.381  0.2997  0.5179 -0.2687
  291MPD2    C1 4438   0.298   0.793   0.426 -0.1447 -0.0921 -0.1729
  291MPD2    C2 4439   0.419   0.858   0.455  0.2782 -0.0870  0.8376
  291MPD2    C3 4440   0.436   0.996   0.429  0.3099 -0.2903 -0.0594
  291MPD2    C4 4441   0.329   1.072   0.391  0.6631  0.3910 -0.3036
  291MPD2    C5 4442   0.211   1.012   0.372  0.1765  0.5715  0.6054
  291MPD2     H 4443   0.501   0.801   0.497 -0.8109 -2.9944 -0.9945
  291MPD2    H1 4444   0.333   1.180   0.381  0.2355  0.3006 -1.4806
  291MPD2    H2 4445   0.099   0.837   0.349 -0.6416  3.2011 -0.5384
  291MPD2    H3 4446   0.124   1.072   0.350 -0.9612 -0.3792  2.5017
  291MPD2     N 4447   0.553   1.064   0.448 -0.7030 -0.3041 -0.1714
  291MPD2    H5 4448   0.542   1.163   0.428  0.9599 -0.2632 -0.8947
  291MPD2    N1 4449   0.296   0.650   0.444  0.2137  0.0112  0.1798
  291MPD2    H7 4450   0.367   0.597   0.493 -0.5171 -0.3357  0.8724
  292TMC3    C1 4451   0.211   0.436   0.464  0.5127 -0.3682  0.1135
  292TMC3    C2 4452   0.263   0.413   0.587 -0.3230  0.3452  0.2590
  292TMC3    C3 4453   0.245   0.297   0.651  0.2008  0.6928 -0.5998
  292TMC3    C4 4454   0.122   0.341   0.410  0.0885 -0.8983  0.3477
  292TMC3    C5 4455   0.109   0.222   0.470 -0.3844 -0.2334  0.3762
  292TMC3    C6 4456   0.179   0.197   0.587  0.4630 -0.2446 -0.5005
  292TMC3     C 4457   0.190   0.566   0.416  0.1536  0.2490 -0.2687
  292TMC3     O 4458   0.095   0.582   0.337 -0.1452 -0.4627 -0.1240
  292TMC3     H 4459   0.311   0.492   0.644  1.0402  0.3018 -0.8094
  292TMC3    H1 4460   0.077   0.358   0.313  0.0599 -0.3216  0.4658
  292TMC3    H2 4461   0.185   0.098   0.630  1.2652 -1.0879 -2.5506
  292TMC3    C7 4462   0.052   0.120   0.387 -0.0249 -0.0071 -0.3858
  292TMC3    C8 4463   0.302   0.272   0.781  0.4829  0.5270 -0.1637
  292TMC3    O1 4464   0.035   0.128   0.267  0.0289 -0.1699 -0.7250
  292TMC3    O2 4465   0.409   0.330   0.804 -0.1616  0.0893  0.1586
  293MPD2     C 4466   2.337   2.369  13.165  0.2123  0.0374  0.1921
  293MPD2    C1 4467   2.225   2.444  13.207 -0.2437  0.4478  0.3812
  293MPD2    C2 4468   2.222   2.481  13.342 -0.5748 -0.8942 -0.0969
  293MPD2    C3 4469   2.330   2.464  13.424 -0.0013  0.2907  0.5916
  293MPD2    C4 4470   2.440   2.396  13.385  0.1670 -0.4563  0.2352
  293MPD2    C5 4471   2.447   2.352  13.255  0.2398  0.2234  0.5725
  293MPD2     H 4472   2.137   2.537  13.380  2.1765  2.1213  1.5814
  293MPD2    H1 4473   2.532   2.387  13.444 -0.6229 -1.8448  1.2714
  293MPD2    H2 4474   2.347   2.347  13.059  0.7494 -0.5127  0.3532
  293MPD2    H3 4475   2.536   2.301  13.219 -0.9393 -0.9246 -0.7198
  293MPD2     N 4476   2.313   2.514  13.558 -0.5502 -0.7766  1.1256
  293MPD2    H5 4477   2.243   2.586  13.574 -0.2615  0.2221 -2.1352
  293MPD2    N1 4478   2.123   2.485  13.111  0.4273  0.1223  0.4820
  293MPD2    H7 4479   2.122   2.429  13.027 -1.3672 -0.6611  1.0352
  294TMC3    C1 4480   1.916   2.542  13.029 -0.1297 -0.3575  0.4646
  294TMC3    C2 4481   1.784   2.507  13.045  0.2003  0.2797 -0.1803
  294TMC3    C3 4482   1.702   2.502  12.938 -0.6292  0.0788 -0.2125
  294TMC3    C4 4483   1.965   2.558  12.904  0.0420 -0.0744  0.5194
  294TMC3    C5 4484   1.883   2.554  12.795  0.2322  0.4833  0.4005
  294TMC3    C6 4485   1.749   2.529  12.810  0.5035  0.8258  0.4041
  294TMC3     C 4486   2.007   2.546  13.138 -0.1466  0.0193  0.2607
  294TMC3     O 4487   1.973   2.615  13.236  0.3429  0.5104  0.1346
  294TMC3     H 4488   1.752   2.477  13.145 -2.4058  0.5142 -0.9281
  294TMC3    H1 4489   2.068   2.586  12.884  0.0540 -0.9076 -0.5770
  294TMC3    H2 4490   1.677   2.539  12.730 -0.1817 -0.9760  0.7979
  294TMC3    C7 4491   1.937   2.595  12.665 -0.8042  0.9121  0.1853
  294TMC3    C8 4492   1.570   2.445  12.961 -0.2925 -0.1894  0.1528
  294TMC3    O1 4493   2.024   2.676  12.678 -0.3094 -0.3349  0.0049
  294TMC3    O2 4494   1.533   2.474  13.073 -0.3833 -0.0594 -0.0348
  295MPD2     C 4495   3.284   1.556   1.117 -0.9702  0.1974 -0.5824
  295MPD2    C1 4496   3.216   1.453   1.066  0.5898  0.6071 -0.4254
  295MPD2    C2 4497   3.279   1.335   1.041  0.2525 -0.3213 -0.0142
  295MPD2    C3 4498   3.407   1.327   1.080  0.2118 -0.5609 -0.7153
  295MPD2    C4 4499   3.477   1.442   1.127 -0.3177  0.1468 -0.3793
  295MPD2    C5 4500   3.415   1.556   1.147  1.0043  0.7775 -0.4133
  295MPD2     H 4501   3.221   1.250   1.007 -0.0883  1.0291 -2.8029
  295MPD2    H1 4502   3.577   1.433   1.169 -1.3799  0.6003  2.2683
  295MPD2    H2 4503   3.234   1.649   1.142 -2.3173  0.0534 -2.7234
  295MPD2    H3 4504   3.466   1.643   1.187  0.4380  1.1013 -0.3971
  295MPD2     N 4505   3.485   1.211   1.057  0.3552 -0.5583  0.5335
  295MPD2    H5 4506   3.582   1.216   1.086 -0.0913  2.0274  1.5955
  295MPD2    N1 4507   3.076   1.460   1.036 -0.2452  0.5391  0.4199
  295MPD2    H7 4508   3.043   1.380   0.983  1.6535  0.3056 -0.4299
  296TMC3    C1 4509   3.546   0.999   0.977 -0.2637 -0.1780 -0.0051
  296TMC3    C2 4510   3.656   0.986   1.058 -0.4638  0.1345 -0.8777
  296TMC3    C3 4511   3.731   0.878   1.033 -0.1398  0.9482 -0.3094
  296TMC3    C4 4512   3.528   0.916   0.867 -0.1171  0.3412  0.0709
  296TMC3    C5 4513   3.610   0.805   0.849 -0.1265  0.0639 -0.6806
  296TMC3    C6 4514   3.713   0.781   0.938 -0.2262  0.6173  0.4055
  296TMC3     C 4515   3.439   1.099   0.990  0.1555 -0.6060  0.4456
  296TMC3     O 4516   3.329   1.066   0.955 -0.0391 -0.2114 -0.3454
  296TMC3     H 4517   3.678   1.043   1.147 -1.8130 -1.1081  0.2270
  296TMC3    H1 4518   3.449   0.935   0.795  1.1333 -0.4603 -1.5437
  296TMC3    H2 4519   3.773   0.691   0.930  0.9593  1.2707  1.8019
  296TMC3    C7 4520   3.547   0.687   0.798 -0.2491  0.4495 -0.8713
  296TMC3    C8 4521   3.819   0.833   1.134  1.3016 -0.2727  0.3896
  296TMC3    O1 4522   3.620   0.594   0.760  0.3446  0.1285  0.2669
  296TMC3    O2 4523   3.788   0.867   1.249  0.1106 -0.2441  0.7641
  297MPD2     C 4524   4.689   2.985  16.419  0.3116 -0.2771 -0.2095
  297MPD2    C1 4525   4.699   3.084  16.322  0.8296 -0.8361  0.0012
  297MPD2    C2 4526   0.050   3.185  16.344 -0.0373  0.9344 -0.8344
  297MPD2    C3 4527   0.139   3.180  16.451  0.2829 -0.1593 -0.1616
  297MPD2    C4 4528   0.129   3.078  16.548 -0.3813  0.4271 -0.0349
  297MPD2    C5 4529   0.034   2.980  16.525 -0.4980 -0.0063  0.2116
  297MPD2     H 4530   0.060   3.263  16.270  3.2328 -0.2536 -1.6431
  297MPD2    H1 4531   0.185   3.076  16.640  0.9672 -1.9012 -0.8977
  297MPD2    H2 4532   4.616   2.905  16.407 -0.0469  0.1775 -1.0593
  297MPD2    H3 4533   0.019   2.902  16.599  1.4545 -0.1469  0.4677
  297MPD2     N 4534   0.231   3.291  16.461 -0.2515 -0.2035  0.4170
  297MPD2    H5 4535   0.225   3.369  16.395 -2.1100  0.4777  1.3957
  297MPD2    N1 4536   4.626   3.085  16.200 -0.1923  0.2837  0.1356
  297MPD2    H7 4537   4.633   3.169  16.144  0.6581 -0.9601 -1.5969
  298TMC3    C1 4538   4.448   3.049  16.055 -0.4247  0.0059  0.8042
  298TMC3    C2 4539   4.504   3.133  15.963  0.1472 -0.1324  0.5523
  298TMC3    C3 4540   4.414   3.168  15.867  0.2568  0.5079 -0.3312
  298TMC3    C4 4541   4.323   2.996  16.053 -0.4010 -0.5656 -0.3071
  298TMC3    C5 4542   4.239   3.048  15.962 -0.4854  0.1712 -0.1414
  298TMC3    C6 4543   4.283   3.125  15.859  0.3206 -0.1226 -0.5633
  298TMC3     C 4544   4.533   2.993  16.155  0.1383  0.6968 -0.0281
  298TMC3     O 4545   4.493   2.894  16.209  0.2107 -0.2035  0.0791
  298TMC3     H 4546   4.607   3.166  15.968  0.2581 -0.5062  0.7323
  298TMC3    H1 4547   4.285   2.941  16.139  0.9359  1.5885  1.6400
  298TMC3    H2 4548   4.214   3.181  15.798 -0.5909 -0.6400 -0.0011
  298TMC3    C7 4549   4.111   3.077  16.028  0.9835  0.0288 -0.1971
  298TMC3    C8 4550   4.450   3.274  15.769  0.0428  0.1733 -0.4866
  298TMC3    O1 4551   4.099   3.058  16.148  0.1956 -0.1460  0.3229
  298TMC3    O2 4552   4.376   3.365  15.743  0.2015 -0.0399  0.4314
  299MPD2     C 4553   0.499   2.978  10.514 -0.4331 -0.3492  0.4545
  299MPD2    C1 4554   0.463   2.859  10.568 -0.4182  0.2331  0.1077
  299MPD2    C2 4555   0.345   2.800  10.514 -0.0432  0.6280 -0.4057
  299MPD2    C3 4556   0.287   2.851  10.400  0.4599 -0.3112 -0.2482
  299MPD2    C4 4557   0.334   2.973  10.355  0.1172  0.1828  0.2251
  299MPD2    C5 4558   0.438   3.039  10.414  0.1567  0.4286 -0.1367
  299MPD2     H 4559   0.307   2.706  10.553  3.5643 -0.0820  1.4172
  299MPD2    H1 4560   0.294   3.035  10.275  1.7384  0.1896 -0.5765
  299MPD2    H2 4561   0.579   3.036  10.558 -1.1683  0.5920  0.5602
  299MPD2    H3 4562   0.476   3.135  10.380  1.0646 -0.4527 -1.5705
  299MPD2     N 4563   0.166   2.805  10.337 -0.3276  0.0876  0.0532
  299MPD2    H5 4564   0.125   2.862  10.264 -0.4087 -0.5083 -0.3630
  299MPD2    N1 4565   0.534   2.801  10.673  0.2283 -0.0255 -0.8418
  299MPD2    H7 4566   0.615   2.856  10.701  0.5731 -0.3105 -1.2898
  300TMC3    C1 4567   4.718   2.655  10.298  0.0216 -0.1460  0.0357
  300TMC3    C2 4568   4.694   2.705  10.170 -0.3131 -0.2456 -0.5162
  300TMC3    C3 4569   4.576   2.678  10.101  0.5956  0.3237  0.8821
  300TMC3    C4 4570   4.625   2.576  10.355  0.0529  0.0436 -0.2065
  300TMC3    C5 4571   4.514   2.547  10.282  0.3985 -0.3247 -0.0755
  300TMC3    C6 4572   4.485   2.595  10.159  0.2023  0.0035 -0.7189
  300TMC3     C 4573   0.091   2.696  10.380 -0.5778  0.7398 -0.4186
  300TMC3     O 4574   0.107   2.617  10.470 -1.1854 -0.3332 -0.1406
  300TMC3     H 4575   0.022   2.775  10.122 -0.9777  1.5091  1.0996
  300TMC3    H1 4576   4.645   2.529  10.451  0.4353  1.4170  0.3835
  300TMC3    H2 4577   4.399   2.556  10.105 -0.8125  0.2109  0.7589
  300TMC3    C7 4578   4.402   2.491  10.357  0.2846 -0.1244 -0.6789
  300TMC3    C8 4579   4.523   2.811  10.074  0.0924  0.0765  0.7620
  300TMC3    O1 4580   4.302   2.463  10.297  0.9371  0.1266 -0.4413
  300TMC3    O2 4581   4.601   2.906  10.065 -0.6101  0.1417  0.1982
  301MPD2     C 4582   2.981   4.407   0.937  0.3594  0.2505  0.1215
  301MPD2    C1 4583   2.870   4.354   0.880  0.4080  0.0152 -0.2560
  301MPD2    C2 4584   2.845   4.218   0.885  0.0764 -0.1740 -0.3110
  301MPD2    C3 4585   2.925   4.134   0.959 -0.0326  0.1897  0.8197
  301MPD2    C4 4586   3.042   4.187   1.013  0.1403 -0.4269  0.6592
  301MPD2    C5 4587   3.068   4.325   1.002  0.1574 -0.0146  0.1809
  301MPD2     H 4588   2.768   4.181   0.819  0.8526 -4.5555  1.2378
  301MPD2    H1 4589   3.120   4.129   1.062  1.4098  0.1260 -0.6927
  301MPD2    H2 4590   2.996   4.515   0.940  2.5042 -0.0625  0.8848
  301MPD2    H3 4591   3.162   4.365   1.038  0.5086 -0.6758 -0.0083
  301MPD2     N 4592   2.902   3.989   0.975 -0.0697 -0.7834 -0.3804
  301MPD2    H5 4593   2.951   3.928   1.039 -2.4958  0.5236  2.6701
  301MPD2    N1 4594   2.765   4.430   0.820 -0.5002 -0.3789  0.1323
  301MPD2    H7 4595   2.685   4.385   0.775 -0.4076  0.9600 -1.3615
  302TMC3    C1 4596   2.770   3.786   0.944  0.8337  0.8204 -0.7021
  302TMC3    C2 4597   2.867   3.712   1.000 -0.2644  0.0300 -0.2327
  302TMC3    C3 4598   2.848   3.582   1.012  0.3494 -0.3484 -0.2525
  302TMC3    C4 4599   2.659   3.722   0.890  0.3045  0.1920 -0.4678
  302TMC3    C5 4600   2.644   3.579   0.897 -0.0666 -0.9040 -0.0564
  302TMC3    C6 4601   2.740   3.515   0.960  0.0807  0.0404  0.0748
  302TMC3     C 4602   2.797   3.924   0.907  0.5359 -0.2768  0.3321
  302TMC3     O 4603   2.725   3.964   0.816  0.1773  0.3788 -0.2626
  302TMC3     H 4604   2.955   3.757   1.044 -0.3379  1.2028 -1.2802
  302TMC3    H1 4605   2.587   3.781   0.835  1.0788  0.9691 -0.6454
  302TMC3    H2 4606   2.729   3.408   0.972 -1.7618  0.0662 -1.4118
  302TMC3    C7 4607   2.552   3.508   0.814 -0.1905 -0.6039  0.0115
  302TMC3    C8 4608   2.937   3.498   1.091  0.4779  0.0166  0.1084
  302TMC3    O1 4609   2.578   3.398   0.767 -0.4175 -0.2195 -0.4429
  302TMC3    O2 4610   2.948   3.381   1.056 -0.2303 -0.1282  0.4467
  303MPD2     C 4611   2.709   1.948  10.564  0.8403  0.5702  0.0130
  303MPD2    C1 4612   2.579   1.923  10.583  0.0758  0.6350  0.2750
  303MPD2    C2 4613   2.492   2.029  10.578 -0.0789  0.2612 -0.1710
  303MPD2    C3 4614   2.537   2.160  10.570  0.0941 -0.2408  0.3886
  303MPD2    C4 4615   2.677   2.182  10.560  0.1072  0.1693 -0.6670
  303MPD2    C5 4616   2.759   2.075  10.558  0.3721 -0.8196 -1.3436
  303MPD2     H 4617   2.386   2.008  10.581 -0.0790 -0.0859 -2.4875
  303MPD2    H1 4618   2.721   2.281  10.560  1.9563 -0.6528 -0.3314
  303MPD2    H2 4619   2.776   1.863  10.563  0.5484  0.3367  0.1503
  303MPD2    H3 4620   2.867   2.090  10.550  0.4022 -0.4697 -0.2919
  303MPD2     N 4621   2.452   2.272  10.554 -0.2534  0.3055  0.3169
  303MPD2    H5 4622   2.496   2.360  10.530  0.0462 -0.0231 -0.3350
  303MPD2    N1 4623   2.541   1.786  10.599  0.3784  0.2661 -0.7372
  303MPD2    H7 4624   2.618   1.721  10.585  1.2490  1.0193  0.5080
  304TMC3    C1 4625   2.409   1.594  10.642 -0.5123  0.2651 -0.3333
  304TMC3    C2 4626   2.312   1.532  10.721 -0.3518 -0.4856 -0.6131
  304TMC3    C3 4627   2.250   1.419  10.686 -0.2316 -0.2617 -0.4639
  304TMC3    C4 4628   2.452   1.542  10.521 -0.1336 -0.0029 -0.2000
  304TMC3    C5 4629   2.394   1.420  10.499 -0.4242  0.3802  0.4131
  304TMC3    C6 4630   2.298   1.358  10.575 -0.0694  0.8520  0.4047
  304TMC3     C 4631   2.429   1.735  10.664 -0.1170 -0.0905  0.6088
  304TMC3     O 4632   2.329   1.797  10.701 -0.2080 -0.0350  0.3658
  304TMC3     H 4633   2.273   1.578  10.811  0.5238  1.5156 -1.2483
  304TMC3    H1 4634   2.506   1.595  10.443  0.8642  0.9983  1.1601
  304TMC3    H2 4635   2.249   1.264  10.555 -0.9300  2.5082 -5.3285
  304TMC3    C7 4636   2.392   1.395  10.352 -0.3357  0.4337  0.1715
  304TMC3    C8 4637   2.111   1.439  10.649 -0.1944 -0.2704 -0.1422
  304TMC3    O1 4638   2.490   1.422  10.286 -0.1686 -0.1942  0.6336
  304TMC3    O2 4639   2.092   1.414  10.532  1.4191 -0.0562  0.7923
  305MPD2     C 4640   1.599   0.153  14.474  0.9636 -0.0148  0.3465
  305MPD2    C1 4641   1.491   0.070  14.506 -0.1340  0.1937  0.0524
  305MPD2    C2 4642   1.447   4.721  14.411  0.7553  0.2724  1.0133
  305MPD2    C3 4643   1.481   0.006  14.271 -0.2596  0.1288 -0.7863
  305MPD2    C4 4644   1.587   0.096  14.245  0.6764 -0.1165 -0.2452
  305MPD2    C5 4645   1.644   0.164  14.348 -0.5168  0.3690  0.4733
  305MPD2     H 4646   1.379   4.646  14.451  1.7369 -0.8255  0.6338
  305MPD2    H1 4647   1.626   0.106  14.144  2.7060  0.0852  0.5496
  305MPD2    H2 4648   1.656   0.206  14.550 -0.4043  0.5216  0.9881
  305MPD2    H3 4649   1.735   0.219  14.328  1.0370 -2.8405 -1.3814
  305MPD2     N 4650   1.423   4.680  14.159  0.3669 -0.0447  0.3362
  305MPD2    H5 4651   1.466   4.706  14.070 -1.2886 -0.5868 -0.6210
  305MPD2    N1 4652   1.444   0.070  14.643 -0.1318  0.7475 -0.2918
  305MPD2    H7 4653   1.497   0.128  14.707 -1.8044  0.7622  1.0650
  306TMC3    C1 4654   1.334   0.033  14.838 -0.3427 -0.4078 -0.0405
  306TMC3    C2 4655   1.318   4.673  14.934  0.0828  0.1835  0.4440
  306TMC3    C3 4656   1.333   4.713  15.061 -0.7465 -0.2605  0.2423
  306TMC3    C4 4657   1.357   0.165  14.881  0.8778 -0.5763 -0.1100
  306TMC3    C5 4658   1.380   0.196  15.009  0.1081 -0.2999 -0.1949
  306TMC3    C6 4659   1.360   0.100  15.105  0.2485  0.0717  0.9294
  306TMC3     C 4660   1.344   4.736  14.700  0.2467 -0.7054  0.2359
  306TMC3     O 4661   1.267   4.649  14.661 -0.1304 -0.1015 -0.3246
  306TMC3     H 4662   1.305   4.569  14.905 -0.0142 -0.2799  2.1767
  306TMC3    H1 4663   1.381   0.239  14.806 -0.3425  0.0749  0.1562
  306TMC3    H2 4664   1.377   0.119  15.210 -2.8192 -2.6678  1.8979
  306TMC3    C7 4665   1.479   0.294  15.042  0.5362  0.2997 -0.9613
  306TMC3    C8 4666   1.312   4.613  15.172 -0.1796  0.1628  0.0076
  306TMC3    O1 4667   1.477   0.399  14.978 -0.1507 -0.2454  1.1158
  306TMC3    O2 4668   1.371   4.507  15.163 -0.7912 -0.0459 -0.0234
  307MPD2     C 4669   3.389   2.849   0.128  0.3644  0.4355 -0.3067
  307MPD2    C1 4670   3.401   2.968   0.196  0.4110 -0.2998 -0.4183
  307MPD2    C2 4671   3.375   2.968   0.332  0.2011 -0.4491 -0.4836
  307MPD2    C3 4672   3.352   2.854   0.406  0.3922 -0.9110 -0.5521
  307MPD2    C4 4673   3.365   2.734   0.337  0.1608  0.7649  0.0742
  307MPD2    C5 4674   3.380   2.737   0.207  0.0316  0.0453 -0.1371
  307MPD2     H 4675   3.380   3.062   0.385  1.4753  0.1824 -1.7323
  307MPD2    H1 4676   3.349   2.642   0.391 -1.3515 -0.1441 -1.9395
  307MPD2    H2 4677   3.399   2.833   0.021  2.5453 -2.0130  0.2523
  307MPD2    H3 4678   3.397   2.646   0.150  0.4321  0.0834 -0.0805
  307MPD2     N 4679   3.326   2.867   0.541  0.4028  0.9211 -0.3298
  307MPD2    H5 4680   3.305   2.961   0.575  2.8357  0.6387  1.9189
  307MPD2    N1 4681   3.455   3.088   0.144 -0.2482 -0.0038  0.2049
  307MPD2    H7 4682   3.477   3.163   0.209 -2.0903 -0.0457  0.8707
  308TMC3    C1 4683   3.199   2.774   0.972  0.1949 -0.1740 -0.3680
  308TMC3    C2 4684   3.212   2.902   1.011 -0.5444 -0.2905 -0.3961
  308TMC3    C3 4685   3.270   2.983   0.916  0.9336  0.5594  0.1166
  308TMC3    C4 4686   3.239   2.725   0.849  0.2033 -0.4998 -0.1232
  308TMC3    C5 4687   3.273   2.816   0.752  0.4007  0.5161 -0.0669
  308TMC3    C6 4688   3.290   2.950   0.783  0.1516  0.1088  0.0602
  308TMC3     C 4689   3.079   2.709   1.022  0.4165 -0.0022 -1.1694
  308TMC3     O 4690   3.088   2.645   1.124 -0.4756 -0.7009 -0.0220
  308TMC3     H 4691   3.164   2.947   1.097 -1.0130 -1.6265  0.0405
  308TMC3    H1 4692   3.217   2.623   0.820  2.1069 -0.6102 -1.1852
  308TMC3    H2 4693   3.348   3.020   0.725 -0.3182 -0.4229 -1.0593
  308TMC3    C7 4694   3.310   2.761   0.626  0.5498 -0.5428 -0.2803
  308TMC3    C8 4695   3.275   3.122   0.962  0.2264  0.4010  0.2807
  308TMC3    O1 4696   3.325   2.645   0.611 -0.6612  0.8239 -0.0161
  308TMC3    O2 4697   3.283   3.137   1.083  0.1597 -0.2386  0.0249
  309MPD2     C 4698   2.673   2.981  17.374 -0.1191  0.2784  0.5637
  309MPD2    C1 4699   2.578   3.002  17.282 -0.6277 -0.0481  0.2904
  309MPD2    C2 4700   2.456   3.048  17.319  0.1019  0.0899  0.4729
  309MPD2    C3 4701   2.427   3.095  17.441 -0.1024  0.1705  0.0512
  309MPD2    C4 4702   2.530   3.083  17.532  0.5499 -0.2070 -0.1097
  309MPD2    C5 4703   2.649   3.015  17.502 -0.1040 -0.0347  0.1971
  309MPD2     H 4704   2.381   3.055  17.240  0.3658  0.2334  0.2335
  309MPD2    H1 4705   2.521   3.128  17.630  0.7129  3.8787 -1.9670
  309MPD2    H2 4706   2.763   2.925  17.355 -1.6405 -1.4824 -1.4545
  309MPD2    H3 4707   2.731   3.000  17.571  0.6898 -0.8990 -0.9208
  309MPD2     N 4708   2.305   3.162  17.479 -0.1844 -0.6365  0.0257
  309MPD2    H5 4709   2.272   3.158  17.575  1.7280  1.3213  0.7618
  309MPD2    N1 4710   2.603   2.975  17.147 -0.0296 -0.1245  0.4931
  309MPD2    H7 4711   2.526   2.996  17.085 -0.4303 -0.8203  0.7537
  310TMC3    C1 4712   2.716   2.927  16.947 -0.3274  0.4065 -0.0985
  310TMC3    C2 4713   2.593   2.909  16.879  0.0305  0.2053  0.2689
  310TMC3    C3 4714   2.595   2.893  16.746 -0.4112 -0.1487 -0.0060
  310TMC3    C4 4715   2.834   2.909  16.885  0.3206 -0.2877 -0.6286
  310TMC3    C5 4716   2.834   2.889  16.748  0.4432 -0.2357  0.1900
  310TMC3    C6 4717   2.715   2.889  16.675 -0.4673  0.3403  0.5768
  310TMC3     C 4718   2.719   2.927  17.091  0.2616  0.3185 -0.3685
  310TMC3     O 4719   2.823   2.897  17.146  0.2662  0.1347  0.2993
  310TMC3     H 4720   2.500   2.902  16.934 -0.1830 -0.7516 -0.2206
  310TMC3    H1 4721   2.931   2.922  16.932  0.8807  1.6459 -2.2706
  310TMC3    H2 4722   2.708   2.881  16.567 -0.8229  1.4809  0.5154
  310TMC3    C7 4723   2.946   2.836  16.672 -0.4217  0.3123 -0.2360
  310TMC3    C8 4724   2.472   2.912  16.664 -0.6556 -0.1168  0.2797
  310TMC3    O1 4725   2.941   2.857  16.550 -0.3704 -0.0083  0.2873
  310TMC3    O2 4726   2.484   2.892  16.543  0.4745 -0.5513  0.1213
  311MPD2     C 4727   4.680   4.141  12.829 -0.6383  0.0509  0.3643
  311MPD2    C1 4728   4.669   4.176  12.956  0.3492 -0.4229  0.2503
  311MPD2    C2 4729   4.550   4.170  13.022 -0.0223  0.2874 -0.6752
  311MPD2    C3 4730   4.439   4.135  12.951 -0.4501 -0.1952  0.0690
  311MPD2    C4 4731   4.448   4.101  12.821 -0.5427  0.0198 -0.1912
  311MPD2    C5 4732   4.567   4.100  12.760  0.6108  0.0747 -0.0599
  311MPD2     H 4733   4.540   4.195  13.128 -4.3863 -0.4829 -0.8908
  311MPD2    H1 4734   4.362   4.064  12.766  0.4634 -2.4122 -0.1303
  311MPD2    H2 4735   0.026   4.168  12.769 -0.4764  0.3976  0.7507
  311MPD2    H3 4736   4.578   4.067  12.657  2.0150  1.2319 -0.2847
  311MPD2     N 4737   4.322   4.128  13.024 -0.0725  0.3233  0.0626
  311MPD2    H5 4738   4.327   4.129  13.126 -0.3004  0.2634  0.0728
  311MPD2    N1 4739   0.026   4.240  13.025 -0.0058 -0.4552  0.3100
  311MPD2    H7 4740   0.004   4.266  13.121 -0.8155 -1.4212  0.3809
  312TMC3    C1 4741   4.097   4.079  13.056 -0.0612  0.2611  0.2640
  312TMC3    C2 4742   4.027   3.978  13.008  0.7531  0.8922 -0.1918
  312TMC3    C3 4743   3.959   3.895  13.094 -0.2621 -0.7134  0.6224
  312TMC3    C4 4744   4.102   4.103  13.189 -0.2578 -0.7339 -0.1980
  312TMC3    C5 4745   4.035   4.021  13.281 -0.4857  0.0967  0.2795
  312TMC3    C6 4746   3.965   3.919  13.229 -0.1362  0.3840 -0.5471
  312TMC3     C 4747   4.203   4.134  12.968  0.1547  0.4573 -0.1178
  312TMC3     O 4748   4.172   4.142  12.848 -0.3152  0.3251  0.3916
  312TMC3     H 4749   4.026   3.969  12.900  1.2889 -0.1070 -0.1177
  312TMC3    H1 4750   4.144   4.197  13.221 -0.0167 -1.7022  2.3182
  312TMC3    H2 4751   3.911   3.851  13.294  2.1016  1.2370  2.1674
  312TMC3    C7 4752   3.985   4.084  13.401  0.0976  0.5619  0.1838
  312TMC3    C8 4753   3.866   3.792  13.047  0.1073  0.5064 -0.0518
  312TMC3    O1 4754   3.875   4.061  13.443 -0.0033 -0.8060 -0.2748
  312TMC3    O2 4755   3.809   3.716  13.130  0.2596  0.0525  0.7865
  313MPD2     C 4756   3.789   2.831  11.329 -0.1090  0.0220  0.0986
  313MPD2    C1 4757   3.855   2.924  11.252 -0.1139 -0.3511 -0.5145
  313MPD2    C2 4758   3.883   2.887  11.124  0.9955 -0.2706 -0.4237
  313MPD2    C3 4759   3.855   2.769  11.070  0.3141 -0.4719 -0.3496
  313MPD2    C4 4760   3.788   2.672  11.142 -0.1459 -0.5421 -0.0846
  313MPD2    C5 4761   3.749   2.706  11.275 -0.2304 -1.1459  0.2117
  313MPD2     H 4762   3.930   2.961  11.060  2.4910 -0.7555  0.1071
  313MPD2    H1 4763   3.764   2.575  11.102  0.7547 -0.8322  0.0765
  313MPD2    H2 4764   3.749   2.849  11.428  1.6601  1.2574  0.5983
  313MPD2    H3 4765   3.687   2.641  11.336 -0.4656  1.7267  2.9875
  313MPD2     N 4766   3.879   2.750  10.934  0.2245  0.0351 -0.0316
  313MPD2    H5 4767   3.930   2.825  10.888 -0.0759  0.3397  0.1285
  313MPD2    N1 4768   3.902   3.050  11.300 -0.3952  0.3794 -0.1483
  313MPD2    H7 4769   3.953   3.105  11.232  0.7977 -1.4109 -0.6980
  314TMC3    C1 4770   3.861   3.248  11.425 -0.2096  1.6065 -0.6555
  314TMC3    C2 4771   3.983   3.303  11.389  0.9759 -0.3570 -0.1721
  314TMC3    C3 4772   3.987   3.440  11.354  0.4247 -0.5271 -0.2681
  314TMC3    C4 4773   3.754   3.332  11.421 -0.2030 -0.4493 -0.4607
  314TMC3    C5 4774   3.754   3.459  11.375  0.4565  0.0090  0.7103
  314TMC3    C6 4775   3.873   3.514  11.331  0.7823 -0.2664  0.2215
  314TMC3     C 4776   3.850   3.099  11.423 -0.0323 -0.0028 -0.6956
  314TMC3     O 4777   3.759   3.053  11.493  0.2196 -0.0544 -0.0445
  314TMC3     H 4778   4.069   3.241  11.369  0.9696  0.3791 -2.5231
  314TMC3    H1 4779   3.660   3.287  11.452 -0.0901 -0.5878 -0.3215
  314TMC3    H2 4780   3.881   3.622  11.324  0.1134 -0.3646 -2.1901
  314TMC3    C7 4781   3.652   3.461  11.267 -0.2062  0.8296  0.0805
  314TMC3    C8 4782   4.114   3.506  11.375  0.1025 -0.9382  0.1061
  314TMC3    O1 4783   3.549   3.404  11.296 -0.1027 -0.4333 -0.4470
  314TMC3    O2 4784   4.113   3.629  11.363 -0.1041 -0.1279  0.4243
  315MPD2     C 4785   3.710   2.577   0.029 -0.1438 -0.1097  0.8982
  315MPD2    C1 4786   3.833   2.529  17.747  0.4927 -0.0852  0.5666
  315MPD2    C2 4787   3.921   2.613  17.691  0.3561 -0.4738  0.3064
  315MPD2    C3 4788   3.882   2.741  17.649 -0.9666 -0.1174  0.4110
  315MPD2    C4 4789   3.751   2.783  17.672  0.9627  0.1060  0.9718
  315MPD2    C5 4790   3.672   2.702  17.737  0.4244  0.0674  0.5227
  315MPD2     H 4791   4.025   2.588  17.673  0.6450 -0.5743  2.1526
  315MPD2    H1 4792   3.709   2.878  17.641  0.4297 -0.2695  0.5511
  315MPD2    H2 4793   3.638   2.521   0.088 -1.3120  1.1039  0.6215
  315MPD2    H3 4794   3.569   2.728   0.001 -0.2037 -0.9039 -1.3335
  315MPD2     N 4795   3.973   2.828  17.584 -0.0976  0.6282 -0.5299
  315MPD2    H5 4796   4.070   2.797  17.584 -0.1478  0.3916 -3.7759
  315MPD2    N1 4797   3.874   2.402   0.026  0.0148 -0.3044  0.0945
  315MPD2    H7 4798   3.968   2.378  17.756 -0.4479 -1.3578 -0.5721
  316TMC3    C1 4799   4.050   3.011  17.459 -0.0518 -0.4394 -0.4203
  316TMC3    C2 4800   4.165   3.004  17.526 -0.1523  0.4072 -0.1144
  316TMC3    C3 4801   4.284   3.039  17.461 -0.4780 -0.8361  0.4823
  316TMC3    C4 4802   4.049   3.040  17.323 -0.6381 -0.0378 -0.0199
  316TMC3    C5 4803   4.171   3.066  17.261  0.3147 -0.1191 -0.4515
  316TMC3    C6 4804   4.284   3.075  17.330  0.0500 -0.7006  0.2712
  316TMC3     C 4805   3.939   2.944  17.523  0.0568 -0.1624  0.2945
  316TMC3     O 4806   3.832   3.000  17.503  0.2414 -0.2191 -0.7263
  316TMC3     H 4807   4.173   2.980  17.632 -0.4123  1.1489  0.0745
  316TMC3    H1 4808   3.957   3.012  17.274 -1.1071 -1.5970  1.7786
  316TMC3    H2 4809   4.378   3.104  17.284 -0.3060 -0.3592 -0.2360
  316TMC3    C7 4810   4.185   3.037  17.119  0.1697  0.5432 -0.1769
  316TMC3    C8 4811   4.384   3.109  17.541  0.2939 -0.1318 -0.1342
  316TMC3    O1 4812   4.296   3.026  17.069  0.7640  0.1053  0.3821
  316TMC3    O2 4813   4.444   3.203  17.497 -0.0828 -0.1062  0.0996
  317MPD2     C 4814   0.941   1.363  13.355 -0.1073 -0.1203 -0.1776
  317MPD2    C1 4815   0.978   1.308  13.236 -0.3813  0.4909  0.7671
  317MPD2    C2 4816   1.101   1.241  13.227  0.1055 -0.3892  0.1113
  317MPD2    C3 4817   1.176   1.221  13.344  0.0593 -0.2904  0.0258
  317MPD2    C4 4818   1.125   1.261  13.464  0.9944 -0.2428 -0.1653
  317MPD2    C5 4819   1.013   1.340  13.471  0.1194  0.4976 -0.0195
  317MPD2     H 4820   1.140   1.197  13.135  0.3740  0.8053 -0.3461
  317MPD2    H1 4821   1.172   1.247  13.560 -0.9375 -1.7270  0.5686
  317MPD2    H2 4822   0.837   1.388  13.373 -0.0445 -0.8690  1.2944
  317MPD2    H3 4823   0.956   1.340  13.563 -0.8860  1.4234 -0.6568
  317MPD2     N 4824   1.293   1.138  13.335  0.6753 -0.4210  0.2280
  317MPD2    H5 4825   1.329   1.118  13.243  0.3559  1.3649 -0.2827
  317MPD2    N1 4826   0.904   1.329  13.117 -0.0612 -0.6618 -0.2493
  317MPD2    H7 4827   0.949   1.312  13.028 -1.6243 -2.1489 -0.7699
  318TMC3    C1 4828   1.484   1.018  13.414 -0.7784 -0.0582 -0.8579
  318TMC3    C2 4829   1.446   0.914  13.339 -0.0520 -0.3424  0.0143
  318TMC3    C3 4830   1.490   0.790  13.374  0.3608  0.3537  0.0741
  318TMC3    C4 4831   1.581   1.008  13.507 -0.5253  0.3104 -0.5287
  318TMC3    C5 4832   1.628   0.885  13.541  0.0670 -0.2649  0.1364
  318TMC3    C6 4833   1.580   0.768  13.481 -0.3002  0.1972  0.2623
  318TMC3     C 4834   1.386   1.123  13.437  0.1632  0.0058  0.3563
  318TMC3     O 4835   1.401   1.187  13.542  0.4779 -0.3520 -0.2381
  318TMC3     H 4836   1.357   0.922  13.278 -0.3757  4.7883  1.1561
  318TMC3    H1 4837   1.608   1.089  13.574 -0.0600 -0.5021  0.2525
  318TMC3    H2 4838   1.612   0.671  13.516 -3.4920 -0.3443  1.6436
  318TMC3    C7 4839   1.658   0.869  13.679  0.3780  1.0496 -0.0270
  318TMC3    C8 4840   1.424   0.669  13.327  0.0099  0.0779 -0.3855
  318TMC3    O1 4841   1.609   0.944  13.764  0.2558  0.3705  0.3479
  318TMC3    O2 4842   1.482   0.560  13.332  0.1740  0.4504 -0.1333
  319MPD2     C 4843   2.281   2.293  16.652 -0.4835  0.3226  0.1698
  319MPD2    C1 4844   2.237   2.187  16.729 -0.6100  0.0077 -0.0193
  319MPD2    C2 4845   2.122   2.122  16.685 -1.1458 -0.4879 -0.0721
  319MPD2    C3 4846   2.060   2.158  16.565  0.4854 -0.2158 -0.3964
  319MPD2    C4 4847   2.113   2.253  16.482 -0.0003 -0.3579 -0.4787
  319MPD2    C5 4848   2.222   2.321  16.530 -0.6542  0.2570  0.5302
  319MPD2     H 4849   2.072   2.049  16.748  0.0419 -1.7127 -0.5584
  319MPD2    H1 4850   2.083   2.275  16.380 -2.6314 -0.0980  0.3573
  319MPD2    H2 4851   2.366   2.359  16.668 -1.0184  1.0393  0.0284
  319MPD2    H3 4852   2.266   2.395  16.464  1.9670 -1.5227  0.2960
  319MPD2     N 4853   1.939   2.100  16.520 -0.0746  0.1801  0.6127
  319MPD2    H5 4854   1.887   2.137  16.441  1.6208  3.0855  0.8619
  319MPD2    N1 4855   2.310   2.143  16.839  0.2029  0.7801 -0.4267
  319MPD2    H7 4856   2.275   2.073  16.904  0.9484 -0.5865 -1.5126
  320TMC3    C1 4857   1.763   1.955  16.506  0.0031  0.4914 -0.7510
  320TMC3    C2 4858   1.690   2.060  16.468 -0.3362 -0.0361  0.0141
  320TMC3    C3 4859   1.585   2.037  16.378 -0.4223 -1.4006  0.4672
  320TMC3    C4 4860   1.740   1.825  16.470 -0.5933  0.0951 -0.0114
  320TMC3    C5 4861   1.646   1.802  16.370  0.0486  0.6513  0.2765
  320TMC3    C6 4862   1.571   1.906  16.326  0.5070 -0.0880 -0.0728
  320TMC3     C 4863   1.890   1.979  16.564 -0.2941  1.2208  0.2907
  320TMC3     O 4864   1.926   1.899  16.650  0.0490  0.7922  0.3021
  320TMC3     H 4865   1.702   2.157  16.514 -1.1115 -0.4281  1.0242
  320TMC3    H1 4866   1.809   1.749  16.507 -0.3656  1.1125  1.6440
  320TMC3    H2 4867   1.493   1.890  16.252  1.7364 -1.7201 -1.0199
  320TMC3    C7 4868   1.617   1.672  16.313  0.3692  0.7106 -0.4917
  320TMC3    C8 4869   1.487   2.144  16.362 -0.3362  0.3842 -0.4571
  320TMC3    O1 4870   1.562   1.668  16.207 -0.2805  0.0102 -0.4081
  320TMC3    O2 4871   1.506   2.237  16.438 -0.5215  0.3069  0.7042
  321TMC3    C1 4872   2.505   2.115  16.989 -0.1736  0.5682  0.2799
  321TMC3    C2 4873   2.467   1.987  17.022 -0.1464  0.3082 -0.0113
  321TMC3    C3 4874   2.525   1.932  17.128  0.2796 -0.3505 -0.0869
  321TMC3    C4 4875   2.617   2.173  17.046 -0.3923 -0.3699 -0.3588
  321TMC3    C5 4876   2.682   2.109  17.145 -0.5008  0.0271  0.5044
  321TMC3    C6 4877   2.640   1.986  17.182 -0.3048 -0.6459  0.3234
  321TMC3     C 4878   2.439   2.184  16.875 -0.4312 -0.5964  0.6658
  321TMC3     O 4879   2.499   2.281  16.825 -0.2158 -0.0425  0.4586
  321TMC3     H 4880   2.377   1.946  16.978  0.4330 -0.7509 -0.2127
  321TMC3    H1 4881   2.648   2.270  17.009 -2.2638  0.0839 -0.7563
  321TMC3    H2 4882   2.703   1.934  17.253 -3.2324 -0.3097  3.1953
  321TMC3    C7 4883   2.716   2.188  17.274 -0.3358  0.3878  0.8464
  321TMC3    C8 4884   2.424   1.883  17.228 -0.2458 -0.0093  0.0226
  321TMC3    O1 4885   2.664   2.130  17.372 -0.7771 -0.2670  0.5464
  321TMC3    O2 4886   2.329   1.810  17.194  0.6971  0.0651 -0.1704
  322MPD2     C 4887   1.029   3.962  13.770 -0.3427 -1.1257  0.5524
  322MPD2    C1 4888   0.959   3.865  13.835 -0.0486 -0.5039  0.3497
  322MPD2    C2 4889   0.930   3.754  13.750  0.2434  0.4264  0.2448
  322MPD2    C3 4890   0.984   3.738  13.624  0.1328 -0.6701  0.0604
  322MPD2    C4 4891   1.037   3.850  13.567 -0.1699  0.5908  0.9014
  322MPD2    C5 4892   1.066   3.959  13.643  0.2193 -0.1695  0.2593
  322MPD2     H 4893   0.864   3.681  13.796  0.3184  1.0915  1.3985
  322MPD2    H1 4894   1.073   3.865  13.466  1.0177 -1.7571  0.9916
  322MPD2    H2 4895   1.046   4.051  13.830  0.7512 -0.6562 -0.4545
  322MPD2    H3 4896   1.122   4.038  13.594 -0.5495  1.3527  1.8206
  322MPD2     N 4897   0.972   3.619  13.558 -0.2241  0.3002 -0.0007
  322MPD2    H5 4898   0.916   3.545  13.599  0.3282  0.2065  0.5958
  322MPD2    N1 4899   0.917   3.893  13.970  0.7164 -0.8957 -0.4339
  322MPD2    H7 4900   0.936   3.981  14.016 -0.0277 -0.8258 -0.2564
  323TMC3    C1 4901   0.838   3.883  14.181  0.3016  0.4810  0.1045
  323TMC3    C2 4902   0.837   4.020  14.167 -0.0373 -0.1411  0.0867
  323TMC3    C3 4903   0.873   4.095  14.270  0.5800 -0.6898 -0.0961
  323TMC3    C4 4904   0.868   3.818  14.294  0.1858 -0.1265 -0.6449
  323TMC3    C5 4905   0.899   3.898  14.405  0.4443 -0.4680 -0.7316
  323TMC3    C6 4906   0.891   4.035  14.394  0.2316 -0.4829  0.1069
  323TMC3     C 4907   0.858   3.804  14.060  0.1122  0.2451  0.4027
  323TMC3     O 4908   0.853   3.684  14.060 -0.1287 -0.4374  0.4417
  323TMC3     H 4909   0.805   4.062  14.072  1.6020 -1.7976 -1.1964
  323TMC3    H1 4910   0.872   3.710  14.297 -1.2901 -0.2022 -1.5518
  323TMC3    H2 4911   0.893   4.106  14.477 -1.0437  1.7288 -1.7529
  323TMC3    C7 4912   0.964   3.844  14.521 -0.7135  0.8355  0.7586
  323TMC3    C8 4913   0.993   4.150  14.225  0.4812 -0.1759 -0.0017
  323TMC3    O1 4914   0.941   3.729  14.558 -0.0521  0.3165 -0.5189
  323TMC3    O2 4915   1.027   4.120  14.110  0.5848  0.3167 -0.1740
  324MPD2     C 4916   2.968   0.201  14.457  0.1771 -0.1115  0.1818
  324MPD2    C1 4917   3.004   0.331  14.451  0.3501 -0.6268  0.4160
  324MPD2    C2 4918   2.922   0.415  14.515 -0.3890  0.6466 -0.1417
  324MPD2    C3 4919   2.805   0.381  14.576  0.1545  0.0508 -0.4012
  324MPD2    C4 4920   2.771   0.247  14.582  0.0450  0.0518 -1.0496
  324MPD2    C5 4921   2.858   0.159  14.522  0.0169 -0.3768  0.8479
  324MPD2     H 4922   2.954   0.519  14.510  1.2392  0.2042  1.1526
  324MPD2    H1 4923   2.678   0.213  14.626  0.5223  1.6210  1.1582
  324MPD2    H2 4924   3.025   0.122  14.409  0.1757 -0.2598  0.4259
  324MPD2    H3 4925   2.842   0.052  14.523 -0.8175 -0.2446  1.6530
  324MPD2     N 4926   2.718   0.478  14.625  0.2734  0.0650 -0.3413
  324MPD2    H5 4927   2.632   0.452  14.673 -0.4161  1.1041 -1.0305
  324MPD2    N1 4928   3.121   0.379  14.383  0.1772  0.7217 -0.2722
  324MPD2    H7 4929   3.144   0.477  14.398  0.8165  0.6834 -1.0195
  325TMC3    C1 4930   2.623   0.685  14.662 -0.0541 -0.5819 -0.0023
  325TMC3    C2 4931   2.554   0.610  14.758  0.3282 -0.0309 -0.8343
  325TMC3    C3 4932   2.419   0.601  14.756 -0.2234  0.3160 -0.0294
  325TMC3    C4 4933   2.550   0.763  14.574 -0.0393 -0.4206  0.5713
  325TMC3    C5 4934   2.416   0.751  14.580 -0.1809 -0.0267  0.1826
  325TMC3    C6 4935   2.340   0.665  14.664 -0.3374  0.0214  0.2647
  325TMC3     C 4936   2.733   0.613  14.599 -0.1848  0.2170  0.3573
  325TMC3     O 4937   2.800   0.674  14.523 -0.0911 -0.0635  0.3957
  325TMC3     H 4938   2.606   0.557  14.836  0.2935 -0.7449 -1.3011
  325TMC3    H1 4939   2.598   0.810  14.489 -1.3984 -1.9260 -1.0293
  325TMC3    H2 4940   2.232   0.657  14.665 -0.2629 -0.9982  0.4143
  325TMC3    C7 4941   2.343   0.812  14.468  0.2932 -0.4205 -0.7531
  325TMC3    C8 4942   2.385   0.459  14.773 -0.2233 -0.2820 -0.5310
  325TMC3    O1 4943   2.401   0.828  14.362 -0.6735 -0.0477 -0.2137
  325TMC3    O2 4944   2.466   0.386  14.716 -0.9382 -0.3345  0.0722
  326MPD2     C 4945   3.480   0.538  11.310  0.4233 -0.2536 -0.6720
  326MPD2    C1 4946   3.532   0.600  11.210  0.6359 -0.1705 -0.0863
  326MPD2    C2 4947   3.633   0.688  11.234 -0.4230  0.4930  0.3726
  326MPD2    C3 4948   3.692   0.713  11.354  0.5337  0.2063 -0.0321
  326MPD2    C4 4949   3.636   0.642  11.456 -0.1818 -0.6657  0.9849
  326MPD2    C5 4950   3.533   0.557  11.431  0.0128  0.0747 -0.5502
  326MPD2     H 4951   3.671   0.745  11.150  0.3481 -0.7249 -0.1022
  326MPD2    H1 4952   3.670   0.652  11.558  1.3220 -0.1872  0.4316
  326MPD2    H2 4953   3.404   0.461  11.309  0.9563 -0.7637 -1.9249
  326MPD2    H3 4954   3.491   0.486  11.501 -2.2730 -0.5098 -2.5234
  326MPD2     N 4955   3.804   0.795  11.383 -0.1900 -0.1705  0.0368
  326MPD2    H5 4956   3.832   0.797  11.481 -0.3055  2.2880  0.0100
  326MPD2    N1 4957   3.468   0.598  11.085 -0.7217  0.9708  0.2226
  326MPD2    H7 4958   3.505   0.661  11.014  1.4153 -0.2403  0.2465
  327TMC3    C1 4959   3.321   0.533  10.917  0.2685  0.4134  0.4503
  327TMC3    C2 4960   3.243   0.621  10.846 -0.8306  0.3528 -0.2266
  327TMC3    C3 4961   3.295   0.661  10.729  0.3982 -0.2272 -0.8556
  327TMC3    C4 4962   3.440   0.487  10.870  0.7403 -0.0410 -0.6628
  327TMC3    C5 4963   3.495   0.539  10.755 -0.0483  0.1681 -0.3565
  327TMC3    C6 4964   3.414   0.610  10.677 -0.0757  0.5863 -0.5863
  327TMC3     C 4965   3.340   0.541  11.061  0.3272  0.3010  0.0638
  327TMC3     O 4966   3.263   0.475  11.132 -0.0476  0.5527 -0.3841
  327TMC3     H 4967   3.141   0.640  10.878 -0.9418 -0.5791 -0.0368
  327TMC3    H1 4968   3.479   0.400  10.921 -1.0228  0.2876  1.2517
  327TMC3    H2 4969   3.448   0.658  10.586  0.5177  0.5383 -0.3941
  327TMC3    C7 4970   3.628   0.596  10.770 -0.5835  0.0788 -0.8164
  327TMC3    C8 4971   3.252   0.790  10.681  1.1224 -1.0988  0.2353
  327TMC3    O1 4972   3.663   0.655  10.672  0.2269 -0.1617  0.2073
  327TMC3    O2 4973   3.319   0.840  10.592  0.0066  0.0389 -0.3092
  328MPD2     C 4974   1.181   0.231  17.005 -0.0632 -0.7025 -0.3459
  328MPD2    C1 4975   1.180   0.326  17.105 -0.2539 -0.5689 -0.0290
  328MPD2    C2 4976   1.147   0.454  17.072 -0.4176 -0.2675  0.2474
  328MPD2    C3 4977   1.098   0.481  16.949 -0.6345 -0.4703 -0.0777
  328MPD2    C4 4978   1.085   0.384  16.859  0.4095  0.2735 -0.1974
  328MPD2    C5 4979   1.122   0.253  16.884 -0.1651  0.8963  0.3289
  328MPD2     H 4980   1.159   0.531  17.147  2.7144 -0.8924  0.3864
  328MPD2    H1 4981   1.024   0.397  16.770  1.1509 -1.7986 -1.0297
  328MPD2    H2 4982   1.207   0.129  17.027 -0.3355 -0.5177  0.8415
  328MPD2    H3 4983   1.108   0.170  16.816 -2.0060  3.4609 -2.4218
  328MPD2     N 4984   1.071   0.616  16.917  0.2164  0.9578 -0.4658
  328MPD2    H5 4985   1.103   0.677  16.992 -0.3488  1.1842 -0.4123
  328MPD2    N1 4986   1.209   0.297  17.241 -0.7730 -0.2828  0.2699
  328MPD2    H7 4987   1.199   0.371  17.309  0.9378 -0.2958  0.5331
  329TMC3    C1 4988   1.205   0.200  17.448 -0.2544  0.1653 -0.0456
  329TMC3    C2 4989   1.269   0.312  17.489  0.5055  0.2262 -0.0548
  329TMC3    C3 4990   1.251   0.350  17.618  0.0760 -0.4101 -0.1424
  329TMC3    C4 4991   1.116   0.128  17.526 -0.5567 -0.5036  0.2258
  329TMC3    C5 4992   1.091   0.184  17.652  0.1449  0.2450  0.2759
  329TMC3    C6 4993   1.164   0.293  17.697 -0.4203  0.7712 -0.3864
  329TMC3     C 4994   1.211   0.173  17.301 -0.1863  0.5377  0.4479
  329TMC3     O 4995   1.191   0.060  17.256 -0.2825  0.3074 -0.4597
  329TMC3     H 4996   1.348   0.359  17.430  1.0526 -2.3511 -1.3487
  329TMC3    H1 4997   1.064   0.042  17.487  0.2210 -1.7846  2.0306
  329TMC3    H2 4998   1.143   0.333   0.038 -0.6794 -3.1618  1.1606
  329TMC3    C7 4999   0.970   0.149  17.730 -0.7853  0.1160  0.5211
  329TMC3    C8 5000   1.307   0.482  17.641 -0.1876 -0.5494 -0.2178
  329TMC3    O1 5001   0.968   0.195   0.080 -0.0183  0.0038 -0.1237
  329TMC3    O2 5002   1.398   0.516  17.565  0.0470 -0.3688 -0.2155
  330TMC3    C1 5003   4.413   0.162  10.164  0.2731  0.5657  0.3089
  330TMC3    C2 5004   4.379   0.036  10.125  0.5318 -0.0397 -0.1605
  330TMC3    C3 5005   4.396   4.674  10.218  0.3599  0.2900  0.1443
  330TMC3    C4 5006   4.445   0.197  10.296 -0.0171 -0.1390  0.2472
  330TMC3    C5 5007   4.459   0.097  10.387  0.2099  0.1067 -0.8366
  330TMC3    C6 5008   4.440   4.707  10.346  0.3177 -0.7932 -0.4315
  330TMC3     C 5009   4.377   0.271  10.079  0.2335 -0.0995 -0.6578
  330TMC3     O 5010   4.385   0.385  10.123 -0.3516  0.5369 -0.1471
  330TMC3     H 5011   4.341   0.005  10.028 -2.0239  2.5691  0.0240
  330TMC3    H1 5012   4.482   0.297  10.319  0.5247 -0.4578  0.7547
  330TMC3    H2 5013   4.450   4.623  10.414 -0.9831 -0.8285 -0.2845
  330TMC3    C7 5014   4.489   0.138  10.516 -0.1941  0.5574 -0.0660
  330TMC3    C8 5015   4.419   4.538  10.172 -0.1920  0.4080 -0.4442
  330TMC3    O1 5016   4.461   0.252  10.550  0.3245  0.6143 -0.1985
  330TMC3    O2 5017   4.494   4.523  10.079  0.0608 -0.3012 -0.3628
  331MPD2     C 5018   2.923   4.342  12.963  0.1029  0.1514 -0.1697
  331MPD2    C1 5019   2.923   4.320  12.830 -0.6627  0.2338 -1.2726
  331MPD2    C2 5020   2.820   4.240  12.774  0.6836  0.1107 -0.2346
  331MPD2    C3 5021   2.724   4.173  12.852 -0.1148  0.2927 -0.4207
  331MPD2    C4 5022   2.718   4.203  12.988 -0.0173  0.4009 -0.2015
  331MPD2    C5 5023   2.819   4.285  13.037 -0.2659 -0.2130  0.4185
  331MPD2     H 5024   2.811   4.231  12.667  1.2320 -1.1162 -0.1729
  331MPD2    H1 5025   2.645   4.153  13.051  0.3952 -0.4692 -0.4073
  331MPD2    H2 5026   2.989   4.408  13.018  0.1770 -1.4503  1.6600
  331MPD2    H3 5027   2.816   4.304  13.143  0.2274 -2.8315  0.9208
  331MPD2     N 5028   2.633   4.086  12.781  0.1811  0.0017 -0.1663
  331MPD2    H5 5029   2.656   4.072  12.683 -0.6778  0.4474 -0.4225
  331MPD2    N1 5030   3.017   4.403  12.766  0.1935  0.3619  0.8534
  331MPD2    H7 5031   3.066   4.474  12.818  0.0964 -0.8443  2.6013
  332TMC3    C1 5032   2.475   3.905  12.747  0.2616  0.4148 -0.6787
  332TMC3    C2 5033   2.461   3.935  12.615  1.2017 -0.2102  0.1542
  332TMC3    C3 5034   2.403   3.842  12.531 -0.1575  0.2193  0.1007
  332TMC3    C4 5035   2.442   3.782  12.794  0.6293  0.0575  0.8304
  332TMC3    C5 5036   2.385   3.701  12.703  0.8001 -0.2110 -0.3867
  332TMC3    C6 5037   2.359   3.722  12.570 -0.5751  0.3190  0.6935
  332TMC3     C 5038   2.532   4.004  12.841  0.1211  0.8243 -0.2678
  332TMC3     O 5039   2.528   3.976  12.959  0.3109  0.4410 -0.4637
  332TMC3     H 5040   2.477   4.036  12.579 -1.8306  0.4873  0.7258
  332TMC3    H1 5041   2.443   3.761  12.901 -0.8372 -2.1312  0.4037
  332TMC3    H2 5042   2.304   3.648  12.512  0.2344 -1.1929  1.8655
  332TMC3    C7 5043   2.395   3.566  12.751 -0.5353  0.2389  0.1502
  332TMC3    C8 5044   2.410   3.880  12.391 -0.6518 -0.0498  0.2429
  332TMC3    O1 5045   2.322   3.471  12.713  0.0571  0.7390  0.3101
  332TMC3    O2 5046   2.472   3.984  12.356 -0.0963  0.1385  0.2171
  333MPD2     C 5047   2.274   3.820  10.617 -0.1947  0.1014  0.0465
  333MPD2    C1 5048   2.410   3.803  10.617  1.0802 -0.2619  1.1996
  333MPD2    C2 5049   2.468   3.707  10.699 -0.3633 -0.4608  0.7888
  333MPD2    C3 5050   2.389   3.628  10.781  0.3833  0.5663 -0.7286
  333MPD2    C4 5051   2.252   3.642  10.772  0.6451 -0.1496 -0.3122
  333MPD2    C5 5052   2.192   3.742  10.693 -0.4232  0.9114  0.6930
  333MPD2     H 5053   2.576   3.708  10.708 -0.4013  2.1157  0.8607
  333MPD2    H1 5054   2.179   3.587  10.830  1.9976 -2.1042 -0.4733
  333MPD2    H2 5055   2.237   3.905  10.561 -2.9754 -0.2157  1.4090
  333MPD2    H3 5056   2.088   3.763  10.712 -1.0499 -2.5032  1.0438
  333MPD2     N 5057   2.452   3.553  10.876 -0.3874 -0.2417 -0.0592
  333MPD2    H5 5058   2.552   3.540  10.870 -0.3809 -0.0384 -0.3956
  333MPD2    N1 5059   2.485   3.899  10.546 -0.6121  0.0260  0.0142
  333MPD2    H7 5060   2.435   3.973  10.498 -1.5701 -0.7503 -0.1716
  334TMC3    C1 5061   2.662   4.014  10.447 -0.2725 -0.2330  0.1620
  334TMC3    C2 5062   2.786   4.016  10.386  0.7533 -0.1581  0.5992
  334TMC3    C3 5063   2.855   4.131  10.401  0.2957 -0.3310  0.1071
  334TMC3    C4 5064   2.611   4.124  10.518  0.1180 -0.0100 -0.2352
  334TMC3    C5 5065   2.685   4.236  10.518 -0.7599  0.0320 -0.2846
  334TMC3    C6 5066   2.813   4.239  10.465 -0.3443 -0.0228 -0.3785
  334TMC3     C 5067   2.615   3.888  10.502 -0.5941 -0.1082  0.9514
  334TMC3     O 5068   2.686   3.787  10.505 -0.5963  0.2547 -0.5280
  334TMC3     H 5069   2.833   3.928  10.343 -0.7328 -0.0914 -1.2018
  334TMC3    H1 5070   2.538   4.118  10.598 -0.6755  0.0282 -0.9487
  334TMC3    H2 5071   2.866   4.334  10.467 -2.4053  1.0975  0.7487
  334TMC3    C7 5072   2.638   4.357  10.585 -0.1105 -0.6691 -0.5279
  334TMC3    C8 5073   2.971   4.158  10.310 -0.3025  0.0915 -0.3281
  334TMC3    O1 5074   2.718   4.442  10.613 -0.2307  0.0538 -0.3022
  334TMC3    O2 5075   2.951   4.153  10.188 -0.2422  0.3449  0.0813
  335TMC3    C1 5076   2.176   0.982   0.010 -0.4450 -0.8721  0.2120
  335TMC3    C2 5077   2.129   0.907  17.667 -0.4444 -0.4392  0.2943
  335TMC3    C3 5078   2.202   0.894  17.553 -0.0363 -0.6764  0.4586
  335TMC3    C4 5079   2.291   1.048  17.746  0.1635  0.8063 -0.3620
  335TMC3    C5 5080   2.348   1.050  17.619 -0.4203  0.6201 -0.0667
  335TMC3    C6 5081   2.309   0.966  17.525 -0.5084 -0.6632  0.7151
  335TMC3     C 5082   2.091   1.012   0.123  0.5601 -0.3028  0.7565
  335TMC3     O 5083   1.974   0.980   0.106  0.3074 -0.2789 -0.2441
  335TMC3     H 5084   2.034   0.857  17.685 -0.0481 -1.3074 -0.0489
  335TMC3    H1 5085   2.341   1.099   0.069 -0.7294  1.1846 -0.0437
  335TMC3    H2 5086   2.366   0.952  17.434 -1.4081 -0.7863  0.1688
  335TMC3    C7 5087   2.487   1.099  17.616  0.4834  0.1292  0.1339
  335TMC3    C8 5088   2.122   0.844  17.440  0.2612  0.2554  0.6605
  335TMC3    O1 5089   2.567   1.033  17.548 -0.1882 -0.0835  0.0660
  335TMC3    O2 5090   2.026   0.774  17.468  0.6619 -0.1043  0.4552
  336MPD2     C 5091   1.459   3.322  16.630  1.3008 -0.1522  0.3658
  336MPD2    C1 5092   1.491   3.263  16.509  0.1344 -1.0548 -0.5271
  336MPD2    C2 5093   1.560   3.142  16.512 -0.3216 -0.6033  0.2680
  336MPD2    C3 5094   1.588   3.088  16.629 -0.9208 -0.5189 -0.5769
  336MPD2    C4 5095   1.565   3.153  16.746 -0.0386 -0.2563  0.5209
  336MPD2    C5 5096   1.491   3.262  16.746  0.3474 -0.6198  0.1254
  336MPD2     H 5097   1.592   3.110  16.414  0.0062  0.9011 -0.1189
  336MPD2    H1 5098   1.597   3.107  16.839 -3.4535 -2.0021  0.7984
  336MPD2    H2 5099   1.410   3.418  16.636  1.0435 -0.3851  1.8488
  336MPD2    H3 5100   1.474   3.324  16.833  2.4146  1.2255 -0.7988
  336MPD2     N 5101   1.657   2.967  16.642  0.5828 -1.5852  0.3460
  336MPD2    H5 5102   1.677   2.930  16.734 -1.2282  0.6958  1.6650
  336MPD2    N1 5103   1.461   3.321  16.382 -0.2126  0.5430 -0.2763
  336MPD2    H7 5104   1.471   3.256  16.305  1.1189 -0.5254  0.7957
  337TMC3    C1 5105   1.413   3.489  16.223  0.7317  0.6760  0.2146
  337TMC3    C2 5106   1.337   3.594  16.190  0.0140  0.0131 -0.3098
  337TMC3    C3 5107   1.329   3.630  16.057  0.2314  1.1901  0.2093
  337TMC3    C4 5108   1.472   3.408  16.125  0.6112  0.0752  0.9200
  337TMC3    C5 5109   1.457   3.449  16.000 -0.6125 -0.4562  0.1094
  337TMC3    C6 5110   1.393   3.562  15.958  0.8122  0.3472 -0.6159
  337TMC3     C 5111   1.421   3.454  16.363 -0.0144 -0.2727 -0.1715
  337TMC3     O 5112   1.397   3.545  16.444 -0.2429  0.2284 -0.1767
  337TMC3     H 5113   1.284   3.653  16.264  3.5879  0.0938  2.2304
  337TMC3    H1 5114   1.544   3.335  16.159  1.2262  0.0609 -0.4296
  337TMC3    H2 5115   1.399   3.599  15.856 -0.5053  0.4930 -0.6479
  337TMC3    C7 5116   1.542   3.399  15.895 -0.5728 -0.2094 -0.2699
  337TMC3    C8 5117   1.236   3.743  16.023 -0.0753  0.1912  1.1512
  337TMC3    O1 5118   1.502   3.384  15.779 -0.4643  0.1065  0.3715
  337TMC3    O2 5119   1.220   3.836  16.098 -0.8886 -1.3445 -0.0877
  338MPD2     C 5120   2.054   3.551   1.115  0.1961 -0.8861  0.0525
  338MPD2    C1 5121   2.008   3.472   1.012  0.5663 -1.1957 -0.4297
  338MPD2    C2 5122   1.877   3.488   0.980 -0.5898  0.1615 -0.2501
  338MPD2    C3 5123   1.794   3.576   1.054 -0.1053 -0.0296 -0.0328
  338MPD2    C4 5124   1.840   3.655   1.154 -0.3409 -0.2456 -0.3120
  338MPD2    C5 5125   1.970   3.646   1.180 -0.4817 -0.3032 -0.5857
  338MPD2     H 5126   1.827   3.426   0.907 -2.0539  1.5641 -0.4338
  338MPD2    H1 5127   1.773   3.707   1.221  0.0650  0.6000 -0.5610
  338MPD2    H2 5128   2.159   3.546   1.140  0.3011  1.8783  0.2289
  338MPD2    H3 5129   2.018   3.707   1.256  0.9507 -1.6793 -0.3920
  338MPD2     N 5130   1.656   3.578   1.020 -0.4336 -0.2199 -0.4854
  338MPD2    H5 5131   1.646   3.533   0.929 -0.5090 -0.1555 -0.5100
  338MPD2    N1 5132   2.074   3.363   0.955 -0.5712 -0.1221 -0.3814
  338MPD2    H7 5133   2.016   3.305   0.895 -1.6895 -1.9321  2.4545
  339TMC3    C1 5134   1.440   3.595   1.021  0.3672 -0.5401  0.0858
  339TMC3    C2 5135   1.362   3.498   1.085 -0.0351 -0.3223  0.3408
  339TMC3    C3 5136   1.249   3.458   1.020  0.1756  0.4069 -0.1970
  339TMC3    C4 5137   1.415   3.632   0.888 -0.6323  0.7474  1.0063
  339TMC3    C5 5138   1.312   3.571   0.828 -0.1256 -0.2269  0.4271
  339TMC3    C6 5139   1.222   3.492   0.891 -0.1600 -0.3680  1.4909
  339TMC3     C 5140   1.557   3.629   1.091 -0.6765  0.0439  0.0105
  339TMC3     O 5141   1.560   3.660   1.211  0.1875 -0.2355  0.3651
  339TMC3     H 5142   1.387   3.472   1.187 -2.0208  0.7823  1.0990
  339TMC3    H1 5143   1.487   3.697   0.838 -0.7964  1.0728  1.1933
  339TMC3    H2 5144   1.137   3.450   0.839 -0.2302  1.2850  0.2906
  339TMC3    C7 5145   1.334   3.550   0.684 -0.6794 -0.7391 -0.2116
  339TMC3    C8 5146   1.157   3.371   1.088  0.0224  0.6403 -0.2572
  339TMC3    O1 5147   1.421   3.620   0.625 -0.0294  0.4572 -0.0836
  339TMC3    O2 5148   1.040   3.396   1.074  0.3319  0.1429  1.3272
  340MPD2     C 5149   1.871   0.948  10.093  0.1648 -0.5831  0.0925
  340MPD2    C1 5150   1.801   0.869  10.177  0.4854  0.0166  0.0078
  340MPD2    C2 5151   1.761   0.924  10.298 -0.4880  0.5496 -0.1382
  340MPD2    C3 5152   1.806   1.048  10.348  0.4607  0.4680  0.5091
  340MPD2    C4 5153   1.881   1.125  10.261 -1.1208  0.4081  0.3527
  340MPD2    C5 5154   1.913   1.074  10.135 -0.2391  0.0533 -0.0360
  340MPD2     H 5155   1.713   0.858  10.369 -0.6958 -0.8605 -1.5865
  340MPD2    H1 5156   1.924   1.219  10.294 -1.0453  0.4068  0.2570
  340MPD2    H2 5157   1.897   0.916   9.993  2.8803  0.8695  0.3430
  340MPD2    H3 5158   1.966   1.140  10.067  2.4550 -0.3747  1.6835
  340MPD2     N 5159   1.781   1.089  10.481  0.0360 -0.1255  0.6332
  340MPD2    H5 5160   1.817   1.182  10.496 -2.4885  1.2529 -1.7958
  340MPD2    N1 5161   1.763   0.738  10.127  0.0969 -0.3858 -0.0846
  340MPD2    H7 5162   1.804   0.708  10.039 -2.1474  1.5876 -1.7837
  341TMC3    C1 5163   1.666   0.527  10.114 -0.4624  0.3473 -0.1332
  341TMC3    C2 5164   1.628   0.416  10.189 -1.3190  0.3531 -0.4578
  341TMC3    C3 5165   1.623   0.304  10.120  0.4300  0.3263 -0.3811
  341TMC3    C4 5166   1.714   0.519   9.989 -0.0478  0.3073  0.2125
  341TMC3    C5 5167   1.712   0.404   9.926  0.1618  0.2196 -0.3732
  341TMC3    C6 5168   1.673   0.291   9.987  0.3968 -0.1113  0.1784
  341TMC3     C 5169   1.677   0.651  10.191  0.6167 -0.1809 -0.3418
  341TMC3     O 5170   1.612   0.659  10.292 -0.2441 -0.4696 -0.0886
  341TMC3     H 5171   1.594   0.431  10.291  0.8617 -0.0206  0.3145
  341TMC3    H1 5172   1.752   0.603   9.932 -0.8873  0.3556 -0.2809
  341TMC3    H2 5173   1.716   0.200   9.946 -2.0943 -0.4243 -1.7327
  341TMC3    C7 5174   1.798   0.392   9.811  0.4651 -0.1452  0.2467
  341TMC3    C8 5175   1.614   0.181  10.186  0.3435  0.4259  0.1033
  341TMC3    O1 5176   1.896   0.469   9.793  0.6373  0.3568  0.1486
  341TMC3    O2 5177   1.683   0.087  10.148  0.1640  0.2181  0.0134
  342MPD2     C 5178   0.092   3.669  17.003  0.6200  0.1332 -0.5044
  342MPD2    C1 5179   0.140   3.651  17.131  0.3723 -1.3819  0.0890
  342MPD2    C2 5180   0.117   3.755  17.221 -0.0254  0.3140  0.1655
  342MPD2    C3 5181   0.050   3.877  17.190 -0.8489 -0.2418 -0.0049
  342MPD2    C4 5182   0.016   3.890  17.058 -0.6685 -0.5469 -0.1322
  342MPD2    C5 5183   0.041   3.789  16.969 -0.3121  0.0267  0.5784
  342MPD2     H 5184   0.162   3.731  17.317 -0.2303 -1.1820 -0.1042
  342MPD2    H1 5185   4.702   3.981  17.033 -0.6497 -0.5611 -0.2265
  342MPD2    H2 5186   0.091   3.594  16.924 -0.8262 -0.4766  0.0963
  342MPD2    H3 5187   0.014   3.822  16.869  1.6771 -1.1961 -0.3516
  342MPD2     N 5188   0.033   3.983  17.276 -0.1177  0.2029 -0.2517
  342MPD2    H5 5189   4.730   4.068  17.242 -0.5210 -0.6699 -1.8975
  342MPD2    N1 5190   0.201   3.530  17.177 -0.1218 -0.3610 -0.3348
  342MPD2    H7 5191   0.232   3.521  17.273 -1.0047  0.5081  0.0286
  343TMC3    C1 5192   0.268   3.303  17.176  0.1817 -0.2952 -0.1545
  343TMC3    C2 5193   0.387   3.334  17.227  0.6699 -0.3389 -0.4591
  343TMC3    C3 5194   0.466   3.226  17.261 -0.5861  0.1815  0.0329
  343TMC3    C4 5195   0.222   3.174  17.162 -0.6964 -0.0679 -0.3556
  343TMC3    C5 5196   0.295   3.073  17.221  0.3583  0.3082  0.1108
  343TMC3    C6 5197   0.419   3.096  17.267  0.0354 -0.2473 -0.1790
  343TMC3     C 5198   0.192   3.405  17.108 -0.1582  0.1408  0.0409
  343TMC3     O 5199   0.121   3.371  17.012 -0.1458  0.3628  0.4735
  343TMC3     H 5200   0.425   3.435  17.236  2.3209 -0.8607 -1.5838
  343TMC3    H1 5201   0.123   3.156  17.120 -1.0567  0.8292  0.1107
  343TMC3    H2 5202   0.481   3.017  17.307 -0.2776  0.3803  1.5356
  343TMC3    C7 5203   0.227   2.947  17.229  0.1558 -0.0067 -1.0663
  343TMC3    C8 5204   0.592   3.253  17.319  0.0702 -0.8060  0.3693
  343TMC3    O1 5205   0.129   2.930  17.164  0.2658 -0.6595  0.0679
  343TMC3    O2 5206   0.606   3.369  17.358  0.0968  0.2870 -0.1083
  344MPD2     C 5207   1.167   2.894  10.914  0.4993 -0.3385  0.5884
  344MPD2    C1 5208   1.046   2.945  10.878 -0.0585  0.0726 -0.5285
  344MPD2    C2 5209   1.043   3.072  10.834 -0.9598 -0.2572 -0.5978
  344MPD2    C3 5210   1.159   3.152  10.812  0.6375  0.1011 -0.0637
  344MPD2    C4 5211   1.275   3.102  10.863  0.4119 -0.2152 -0.2499
  344MPD2    C5 5212   1.278   2.977  10.908 -0.3792  0.5280  0.3610
  344MPD2     H 5213   0.943   3.107  10.809  0.2517  3.0977 -0.7438
  344MPD2    H1 5214   1.369   3.156  10.866 -0.1674  0.8055 -0.4252
  344MPD2    H2 5215   1.179   2.790  10.942  1.4476 -0.2300  0.5958
  344MPD2    H3 5216   1.372   2.930  10.935 -1.1612 -0.6757  1.0107
  344MPD2     N 5217   1.157   3.289  10.759 -0.1591 -0.2470 -0.8406
  344MPD2    H5 5218   1.234   3.352  10.779 -1.1196  0.2027  1.4177
  344MPD2    N1 5219   0.923   2.877  10.899  0.2421 -0.5437  0.1947
  344MPD2    H7 5220   0.841   2.909  10.849  0.0386 -1.2006  0.0972
  345TMC3    C1 5221   1.056   3.483  10.662  0.8177 -0.3345 -0.1054
  345TMC3    C2 5222   1.149   3.558  10.739 -0.2600  0.8505 -0.3312
  345TMC3    C3 5223   1.179   3.681  10.689 -0.1584  0.2120 -0.3766
  345TMC3    C4 5224   0.985   3.535  10.561  0.0180 -0.1867 -0.0171
  345TMC3    C5 5225   1.018   3.661  10.518  1.1671  0.7436 -0.0594
  345TMC3    C6 5226   1.122   3.735  10.576 -0.3910 -0.5963  0.4431
  345TMC3     C 5227   1.048   3.342  10.692 -0.1713 -0.9879 -0.5571
  345TMC3     O 5228   0.971   3.283  10.617  0.1539  0.2464  0.0076
  345TMC3     H 5229   1.199   3.531  10.832 -0.4650  4.3450  0.7691
  345TMC3    H1 5230   0.917   3.469  10.508  0.3653  0.2596 -1.0044
  345TMC3    H2 5231   1.154   3.831  10.539  0.9961 -1.3160 -0.2460
  345TMC3    C7 5232   0.933   3.739  10.433 -0.0195 -0.1311  0.2391
  345TMC3    C8 5233   1.241   3.785  10.770  0.4361  0.6369  0.4913
  345TMC3    O1 5234   0.932   3.856  10.447  0.3340  0.2634 -0.2206
  345TMC3    O2 5235   1.170   3.886  10.770 -0.3726  0.0793  0.4949
  346MPD2     C 5236   1.350   0.266  13.977  0.7726 -0.0838 -0.4261
  346MPD2    C1 5237   1.481   0.314  13.987 -0.3633  0.0713  0.4100
  346MPD2    C2 5238   1.501   0.434  14.058 -0.2154 -0.1212  0.0025
  346MPD2    C3 5239   1.393   0.500  14.121  0.8134  0.1420  0.8621
  346MPD2    C4 5240   1.260   0.453  14.101 -0.2197  0.5546 -0.2097
  346MPD2    C5 5241   1.244   0.338  14.030  0.0237 -0.0490 -0.0477
  346MPD2     H 5242   1.601   0.474  14.061 -0.4752  0.4977  0.4820
  346MPD2    H1 5243   1.169   0.502  14.132  0.4229  0.9237  1.0916
  346MPD2    H2 5244   1.315   0.188  13.910  0.5880 -1.1830  0.9640
  346MPD2    H3 5245   1.139   0.319  14.008  0.0503 -1.0365  0.6606
  346MPD2     N 5246   1.422   0.606  14.214 -0.0820  0.2160 -0.5956
  346MPD2    H5 5247   1.517   0.639  14.229  0.2061  0.1399 -2.2589
  346MPD2    N1 5248   1.580   0.248  13.916 -0.3580 -0.4892 -0.2057
  346MPD2    H7 5249   1.660   0.302  13.884 -0.6363  0.1214  0.1224
  347TMC3    C1 5250   1.371   0.755  14.392  0.2257  0.9651  0.1126
  347TMC3    C2 5251   1.502   0.792  14.395  0.4805  0.2527 -0.0603
  347TMC3    C3 5252   1.550   0.856  14.504 -0.4877  0.2107  0.1407
  347TMC3    C4 5253   1.288   0.785  14.496  0.2949 -0.7723  0.3324
  347TMC3    C5 5254   1.342   0.826  14.612 -0.4569  0.0756 -0.0018
  347TMC3    C6 5255   1.475   0.861  14.621 -0.6448  0.5155  0.9353
  347TMC3     C 5256   1.319   0.670  14.281 -0.2700 -0.6177 -0.1819
  347TMC3     O 5257   1.198   0.663  14.274 -0.3356  0.1710 -0.2946
  347TMC3     H 5258   1.567   0.779  14.308  1.5153 -2.0970  1.0442
  347TMC3    H1 5259   1.181   0.776  14.480  0.3374 -2.3482  0.9851
  347TMC3    H2 5260   1.523   0.907  14.707 -0.0832 -0.3242  1.0745
  347TMC3    C7 5261   1.245   0.858  14.714 -0.3251  0.5089  0.7629
  347TMC3    C8 5262   1.691   0.891  14.510 -0.8895 -0.2339 -0.0099
  347TMC3    O1 5263   1.125   0.842  14.687 -0.0495 -0.1289  0.6655
  347TMC3    O2 5264   1.750   0.872  14.616  0.3612  0.3831 -0.1674
  348MPD2     C 5265   0.535   4.354  12.382  0.8442 -0.3984  0.3932
  348MPD2    C1 5266   0.478   4.265  12.296  0.0231 -0.8621 -0.5843
  348MPD2    C2 5267   0.392   4.310  12.200  0.4205  0.1861 -0.3103
  348MPD2    C3 5268   0.371   4.445  12.186 -0.6248 -0.0791 -0.7654
  348MPD2    C4 5269   0.417   4.528  12.287  0.2462  0.8725 -0.3214
  348MPD2    C5 5270   0.496   4.478  12.385 -0.3200 -0.7182 -0.1242
  348MPD2     H 5271   0.344   4.244  12.129  1.1977 -2.6880  1.8674
  348MPD2    H1 5272   0.391   4.634  12.288 -0.7811  0.6309 -1.5264
  348MPD2    H2 5273   0.596   4.332  12.469  0.6514  0.9033  0.8569
  348MPD2    H3 5274   0.526   4.547  12.462  0.3826 -0.1987 -0.8659
  348MPD2     N 5275   0.301   4.506  12.080  0.1570 -0.5486 -0.4511
  348MPD2    H5 5276   0.298   4.607  12.070  1.0129 -0.4456  0.2756
  348MPD2    N1 5277   0.511   4.128  12.294  0.2143 -0.1083  0.3970
  348MPD2    H7 5278   0.462   4.075  12.223 -0.1909 -0.1358  0.6930
  349TMC3    C1 5279   0.618   3.922  12.366  0.0789 -0.2230 -0.6547
  349TMC3    C2 5280   0.640   3.859  12.491 -0.6261 -0.2899 -0.4205
  349TMC3    C3 5281   0.574   3.744  12.511 -0.0392  0.6889 -0.2740
  349TMC3    C4 5282   0.544   3.864  12.262  0.6518  0.0866 -0.0433
  349TMC3    C5 5283   0.475   3.755  12.295 -0.3805  0.4869  0.0478
  349TMC3    C6 5284   0.483   3.696  12.417  0.1684  0.1005  0.0392
  349TMC3     C 5285   0.608   4.073  12.374  0.5385 -0.0845 -0.3942
  349TMC3     O 5286   0.677   4.122  12.461  0.6485 -0.2915 -0.5145
  349TMC3     H 5287   0.684   3.914  12.574  0.2564 -0.3242 -0.8642
  349TMC3    H1 5288   0.544   3.894  12.158 -0.0847  1.0491  0.2367
  349TMC3    H2 5289   0.418   3.612  12.440 -0.5233  0.2624 -1.3182
  349TMC3    C7 5290   0.380   3.716  12.195 -0.1509  1.2739 -0.5695
  349TMC3    C8 5291   0.579   3.689  12.642  0.3766  0.1688  0.4718
  349TMC3    O1 5292   0.336   3.789  12.111 -0.2611  0.2304 -0.0030
  349TMC3    O2 5293   0.473   3.647  12.686  0.1189  0.7742  0.2761
  350MPD2     C 5294   3.115   2.627  10.538 -0.1704 -0.0417 -0.4077
  350MPD2    C1 5295   3.184   2.522  10.488  0.5829 -0.0920  0.2810
  350MPD2    C2 5296   3.321   2.538  10.475  0.3403  0.1735 -0.0979
  350MPD2    C3 5297   3.387   2.655  10.517  0.1680 -0.1978 -1.2816
  350MPD2    C4 5298   3.316   2.756  10.576  1.2360  0.0658 -0.3290
  350MPD2    C5 5299   3.177   2.742  10.581 -0.1521  0.1211  0.3634
  350MPD2     H 5300   3.385   2.470  10.421  0.4924 -0.2847  0.6611
  350MPD2    H1 5301   3.358   2.850  10.610 -2.3654  1.0795  1.3462
  350MPD2    H2 5302   3.007   2.625  10.536 -0.1392 -1.4648 -1.0878
  350MPD2    H3 5303   3.123   2.835  10.600 -0.9938  0.1034 -1.9236
  350MPD2     N 5304   3.530   2.674  10.496  0.2827 -0.5333  0.0822
  350MPD2    H5 5305   3.567   2.594  10.446  0.6659 -0.7046  0.6381
  350MPD2    N1 5306   3.124   2.415  10.419  0.6337  0.2511  0.4839
  350MPD2    H7 5307   3.186   2.360  10.361 -0.4309 -1.2064  0.7156
  351TMC3    C1 5308   2.957   2.284  10.321  0.5986 -0.7259 -0.4843
  351TMC3    C2 5309   3.054   2.194  10.268  0.4754  0.7252  0.0864
  351TMC3    C3 5310   3.011   2.095  10.180  0.7857  0.5260  0.2996
  351TMC3    C4 5311   2.829   2.267  10.301 -0.0354 -0.3161  0.2055
  351TMC3    C5 5312   2.784   2.157  10.229  0.0427  0.0495 -0.2759
  351TMC3    C6 5313   2.875   2.073  10.170  0.4086 -0.4955  0.1977
  351TMC3     C 5314   2.993   2.390  10.415 -0.3543 -0.8085  0.1351
  351TMC3     O 5315   2.906   2.444  10.487  0.0727 -0.3001  0.1824
  351TMC3     H 5316   3.160   2.210  10.286 -0.0138  2.4952  1.3735
  351TMC3    H1 5317   2.757   2.332  10.348  0.3218  0.4055 -0.2510
  351TMC3    H2 5318   2.840   2.009  10.090 -2.3777  1.1843  0.0685
  351TMC3    C7 5319   2.646   2.132  10.214 -0.5333  0.8010  0.2926
  351TMC3    C8 5320   3.103   2.006  10.101 -1.2010  0.7232 -0.8393
  351TMC3    O1 5321   2.569   2.224  10.234  0.1255  0.5316 -0.0123
  351TMC3    O2 5322   3.051   1.904  10.064 -0.2834 -0.7238  0.7310
  352MPD2     C 5323   2.407   0.643   0.895  0.4100 -0.4172  0.5259
  352MPD2    C1 5324   2.327   0.540   0.926  0.1882  0.1990  0.4356
  352MPD2    C2 5325   2.361   0.414   0.893 -0.6756 -0.3283 -0.5215
  352MPD2    C3 5326   2.479   0.397   0.817  0.0496  0.4522  0.6023
  352MPD2    C4 5327   2.565   0.504   0.789 -0.1670 -0.3929  1.2332
  352MPD2    C5 5328   2.531   0.628   0.835 -0.1042 -0.2861  0.4822
  352MPD2     H 5329   2.294   0.329   0.906 -0.0052 -0.6640  0.7183
  352MPD2    H1 5330   2.658   0.490   0.736 -0.5046  0.2504  0.4816
  352MPD2    H2 5331   2.386   0.746   0.923 -1.7802 -1.2085  1.7479
  352MPD2    H3 5332   2.587   0.720   0.826  1.4855 -1.4637 -1.7841
  352MPD2     N 5333   2.509   0.275   0.750 -0.2091 -0.1091 -0.4022
  352MPD2    H5 5334   2.592   0.263   0.694  0.3389  2.8810 -0.2131
  352MPD2    N1 5335   2.205   0.573   0.986 -0.0225 -0.0729 -1.0895
  352MPD2    H7 5336   2.185   0.673   0.994 -0.5877 -0.1698 -1.3447
  353TMC3    C1 5337   2.478   0.043   0.701  0.6448  0.1158 -0.3715
  353TMC3    C2 5338   2.609   0.000   0.730  0.5274 -0.5913  0.1687
  353TMC3    C3 5339   2.636   4.607   0.734 -0.4317 -0.2116  0.3594
  353TMC3    C4 5340   2.382   4.687   0.674  0.1245  0.0443  0.3019
  353TMC3    C5 5341   2.417   4.552   0.677  0.3252 -0.2538 -1.3021
  353TMC3    C6 5342   2.547   4.512   0.703 -0.1173  0.3509 -0.5812
  353TMC3     C 5343   2.425   0.168   0.754 -0.2175 -0.1861  0.3944
  353TMC3     O 5344   2.304   0.156   0.773 -0.2091 -0.2177  0.4684
  353TMC3     H 5345   2.679   0.070   0.774 -0.2027  1.9471 -2.6532
  353TMC3    H1 5346   2.280   4.720   0.658 -1.5674 -4.2742  2.3301
  353TMC3    H2 5347   2.564   4.405   0.700 -1.0447  0.2114 -0.9302
  353TMC3    C7 5348   2.313   4.450   0.689 -0.2909 -0.8867 -0.3809
  353TMC3    C8 5349   2.757   4.561   0.800  0.0816  0.0637  0.1351
  353TMC3    O1 5350   2.343   4.330   0.679 -0.1878  0.3932  0.3457
  353TMC3    O2 5351   2.825   4.655   0.841 -0.0707  0.3103 -0.4614
  354TMC3    C1 5352   3.844   1.294  13.724  0.3613 -0.0864  0.1487
  354TMC3    C2 5353   3.844   1.434  13.734  0.0773  0.2797  0.1366
  354TMC3    C3 5354   3.904   1.501  13.632  0.3194 -0.2333 -0.1037
  354TMC3    C4 5355   3.916   1.232  13.626  0.0885  0.2644  0.5153
  354TMC3    C5 5356   3.988   1.305  13.541 -0.2353 -0.1825  0.5061
  354TMC3    C6 5357   3.976   1.442  13.531 -0.5738  0.0088 -0.2490
  354TMC3     C 5358   3.783   1.215  13.827 -0.2081 -0.0434 -0.8496
  354TMC3     O 5359   3.663   1.231  13.844  0.3988 -0.1406  0.0729
  354TMC3     H 5360   3.794   1.483  13.817  1.8227  0.9696  0.7919
  354TMC3    H1 5361   3.942   1.127  13.630 -1.1916 -0.1663 -1.9620
  354TMC3    H2 5362   4.037   1.494  13.458  0.4640 -2.4594 -1.1537
  354TMC3    C7 5363   4.033   1.237  13.424 -0.1289  0.3507 -0.0597
  354TMC3    C8 5364   3.874   1.640  13.629 -1.2282 -0.5074  0.0673
  354TMC3    O1 5365   3.959   1.157  13.369  0.3950 -0.0204  0.2527
  354TMC3    O2 5366   3.816   1.685  13.729 -0.2211 -0.1722  0.0625
  355MPD2     C 5367   3.637   1.717  12.014  0.2500 -0.2951 -0.9226
  355MPD2    C1 5368   3.709   1.718  11.895  0.9141  0.3665  0.5038
  355MPD2    C2 5369   3.831   1.778  11.895 -0.1425  0.5769  0.0039
  355MPD2    C3 5370   3.886   1.825  12.016 -0.6266  0.7555  0.1139
  355MPD2    C4 5371   3.819   1.802  12.132 -0.0590 -0.3962  0.7579
  355MPD2    C5 5372   3.700   1.740  12.135 -0.3793  0.0727  0.3638
  355MPD2     H 5373   3.895   1.780  11.808 -0.7574  1.2593 -0.4283
  355MPD2    H1 5374   3.860   1.819  12.231 -0.6710 -0.1949  0.9732
  355MPD2    H2 5375   3.533   1.686  12.014  0.1801 -0.0813 -1.7774
  355MPD2    H3 5376   3.637   1.722  12.221  0.0194 -0.0760  0.6234
  355MPD2     N 5377   4.014   1.885  12.028  0.2275 -0.1035 -0.0414
  355MPD2    H5 5378   4.034   1.917  12.122  2.2339  1.0435 -0.8572
  355MPD2    N1 5379   3.621   1.684  11.782 -0.3880  0.4498 -0.0548
  355MPD2    H7 5380   3.544   1.627  11.815 -1.2124  1.4820 -0.1972
  356TMC3    C1 5381   4.208   1.995  11.952 -0.2917 -0.2282  1.0433
  356TMC3    C2 5382   4.302   2.013  11.854  0.5799  0.4166  0.4020
  356TMC3    C3 5383   4.369   2.130  11.858 -0.3168 -0.1337 -0.2698
  356TMC3    C4 5384   4.172   2.103  12.030  0.5242  1.0774  0.1333
  356TMC3    C5 5385   4.242   2.219  12.031  0.0628 -0.3485  0.4855
  356TMC3    C6 5386   4.339   2.233  11.942  0.0325  0.2206 -0.0636
  356TMC3     C 5387   4.099   1.904  11.926 -0.5854  0.4506 -0.3677
  356TMC3     O 5388   4.092   1.853  11.817 -0.1081  0.2364 -0.2499
  356TMC3     H 5389   4.322   1.936  11.781  0.6560  1.7334 -0.9512
  356TMC3    H1 5390   4.084   2.099  12.093 -1.4510 -2.2733 -2.8488
  356TMC3    H2 5391   4.395   2.326  11.940 -0.0935  0.3408  1.4477
  356TMC3    C7 5392   4.197   2.323  12.120 -0.5048  0.2511  0.0858
  356TMC3    C8 5393   4.468   2.130  11.757  0.0022 -0.1234 -0.2114
  356TMC3    O1 5394   4.087   2.315  12.167  0.1204  0.0367 -0.3791
  356TMC3    O2 5395   4.514   2.024  11.713 -0.6533 -0.5353  0.6898
  357MPD2     C 5396   3.439   2.197   0.572  0.1967  0.0007  0.3886
  357MPD2    C1 5397   3.486   2.078   0.613  0.3151  0.0556 -0.3790
  357MPD2    C2 5398   3.488   2.048   0.749  0.4052 -0.1464  0.1916
  357MPD2    C3 5399   3.446   2.141   0.844  0.6568 -0.2898  0.2403
  357MPD2    C4 5400   3.402   2.264   0.799 -0.0113 -0.3051  0.1608
  357MPD2    C5 5401   3.403   2.293   0.664  0.0751  0.4518  0.2741
  357MPD2     H 5402   3.534   1.960   0.791 -0.4114 -0.5183  0.2975
  357MPD2    H1 5403   3.359   2.332   0.872 -0.1957  1.6530 -1.7564
  357MPD2    H2 5404   3.407   2.216   0.470 -1.3931 -4.6523  0.0202
  357MPD2    H3 5405   3.351   2.386   0.641 -0.2126  0.2006 -0.0850
  357MPD2     N 5406   3.458   2.123   0.983  0.3969  0.6388  1.2645
  357MPD2    H5 5407   3.421   2.199   1.040  0.5255  2.3269 -0.9093
  357MPD2    N1 5408   3.519   1.992   0.511  0.6562 -0.2363  0.1103
  357MPD2    H7 5409   3.512   2.027   0.416 -0.5059  0.3005  0.3900
  358TMC3    C1 5410   3.576   1.786   0.400  0.1309 -0.0252 -0.4017
  358TMC3    C2 5411   3.523   1.664   0.381  0.0848  0.3427  0.2383
  358TMC3    C3 5412   3.531   1.596   0.259  0.3353 -0.1963  0.0765
  358TMC3    C4 5413   3.613   1.857   0.292  0.0412 -0.0796 -0.3979
  358TMC3    C5 5414   3.608   1.795   0.170 -0.6360  0.0870  0.5379
  358TMC3    C6 5415   3.574   1.664   0.149  0.5511  0.1944  0.5633
  358TMC3     C 5416   3.542   1.859   0.526  0.4865  0.1592 -0.2478
  358TMC3     O 5417   3.543   1.788   0.622 -0.2650  0.4512  0.3344
  358TMC3     H 5418   3.486   1.614   0.470 -2.3536 -1.6352 -1.8704
  358TMC3    H1 5419   3.631   1.964   0.291 -0.3594 -0.0109 -0.3523
  358TMC3    H2 5420   3.595   1.610   0.058  3.0104  0.3095  1.0544
  358TMC3    C7 5421   3.635   1.871   0.047 -0.0115  0.4781 -0.4367
  358TMC3    C8 5422   3.467   1.468   0.255 -0.0312 -0.5785  0.3184
  358TMC3    O1 5423   3.624   1.997   0.046  0.4294 -0.2115  0.2537
  358TMC3    O2 5424   3.442   1.411   0.364 -0.2982 -0.0148  0.6095
  359MPD2     C 5425   4.239   0.539  12.729  0.2229  0.0784 -0.7297
  359MPD2    C1 5426   4.269   0.438  12.638  0.1537 -0.7872 -0.7339
  359MPD2    C2 5427   4.186   0.322  12.626  0.5769 -0.5709 -0.5920
  359MPD2    C3 5428   4.070   0.309  12.704 -0.0357  0.0515  0.0634
  359MPD2    C4 5429   4.037   0.420  12.785 -0.3749 -0.2043  0.5060
  359MPD2    C5 5430   4.125   0.530  12.802 -0.5769 -0.7398  0.0686
  359MPD2     H 5431   4.217   0.240  12.563  2.9851  1.3206 -1.8440
  359MPD2    H1 5432   3.937   0.421  12.826 -0.7029 -1.1848 -0.2725
  359MPD2    H2 5433   4.306   0.620  12.755  0.7786 -0.4594 -0.5007
  359MPD2    H3 5434   4.084   0.597  12.877  2.3104 -1.1292  1.9902
  359MPD2     N 5435   3.982   0.192  12.704  0.1953 -0.0460 -0.2258
  359MPD2    H5 5436   3.913   0.188  12.778 -0.3830 -0.2193 -0.7711
  359MPD2    N1 5437   4.387   0.428  12.558 -0.2346 -0.5294  0.0941
  359MPD2    H7 5438   4.391   0.355  12.487  4.8734 -1.4238  1.3013
  360TMC3    C1 5439   4.594   0.502  12.469  0.2517 -0.0341 -0.2146
  360TMC3    C2 5440   4.689   0.598  12.481 -0.0377 -0.4444  0.2287
  360TMC3    C3 5441   0.053   0.584  12.395  0.1918 -0.4288 -0.5558
  360TMC3    C4 5442   4.592   0.397  12.381 -0.2766  0.3987  0.4783
  360TMC3    C5 5443   4.705   0.380  12.316  0.2862 -0.7674  1.1303
  360TMC3    C6 5444   0.073   0.469  12.322 -0.3080  0.7222 -0.5407
  360TMC3     C 5445   4.486   0.520  12.569 -0.5276 -0.1695 -0.0505
  360TMC3     O 5446   4.512   0.604  12.652  0.0770 -0.0030 -0.7133
  360TMC3     H 5447   4.667   0.694  12.525 -0.8452 -1.0359  1.0978
  360TMC3    H1 5448   4.512   0.326  12.363 -0.5041  0.3809  1.5525
  360TMC3    H2 5449   0.148   0.448  12.246 -0.9454  1.5750 -1.4061
  360TMC3    C7 5450   4.711   0.284  12.204 -0.1848 -0.9291 -0.0108
  360TMC3    C8 5451   0.109   0.706  12.339  0.0079  0.3876 -0.2402
  360TMC3    O1 5452   0.064   0.204  12.193 -0.4576  0.5817  0.8863
  360TMC3    O2 5453   0.043   0.810  12.339 -0.1914  0.3522 -0.0432
  361MPD2     C 5454   0.980   4.281  16.494  0.8154 -0.0547  0.3056
  361MPD2    C1 5455   0.961   4.370  16.599  0.1194  0.1216 -0.8586
  361MPD2    C2 5456   1.033   4.353  16.712  0.3774 -1.0029  0.3216
  361MPD2    C3 5457   1.133   4.257  16.712  0.4776 -0.2370  0.1507
  361MPD2    C4 5458   1.150   4.169  16.611  0.7054  0.4416 -0.6391
  361MPD2    C5 5459   1.069   4.180  16.498 -0.4011  0.0179  0.3096
  361MPD2     H 5460   1.012   4.418  16.796  2.5717  0.3664 -0.1843
  361MPD2    H1 5461   1.228   4.096  16.626 -0.6396 -0.8226  0.2153
  361MPD2    H2 5462   0.907   4.276  16.414  1.0510  0.3884  0.0620
  361MPD2    H3 5463   1.073   4.109  16.416  0.7983  1.6382 -1.0297
  361MPD2     N 5464   1.224   4.239  16.820  0.3577  0.6273 -0.0824
  361MPD2    H5 5465   1.298   4.171  16.803 -0.2521 -0.0476 -0.0573
  361MPD2    N1 5466   0.865   4.472  16.601 -0.0526 -0.4569  0.8631
  361MPD2    H7 5467   0.830   4.518  16.684  1.4715  2.2025  0.0544
  362TMC3    C1 5468   0.661   4.563  16.532  0.6011 -0.0705  0.2076
  362TMC3    C2 5469   0.567   4.495  16.604  0.0109 -0.6514 -0.5731
  362TMC3    C3 5470   0.442   4.543  16.605  0.1930 -0.2018 -0.5709
  362TMC3    C4 5471   0.613   4.665  16.445  0.2353  0.3783 -0.8050
  362TMC3    C5 5472   0.484   4.695  16.447  0.2071 -0.3491  0.1488
  362TMC3    C6 5473   0.393   4.644  16.535 -0.1156  0.1805 -0.2079
  362TMC3     C 5474   0.788   4.499  16.490  0.3394 -0.2812 -0.9964
  362TMC3     O 5475   0.806   4.479  16.369 -0.6078 -0.0678 -0.4588
  362TMC3     H 5476   0.607   4.411  16.659  1.5920  1.2553  1.1810
  362TMC3    H1 5477   0.678   4.715  16.374  0.5891  1.3429  0.2001
  362TMC3    H2 5478   0.289   4.673  16.534  0.0865  0.8413 -2.0178
  362TMC3    C7 5479   0.446   0.059  16.350 -0.7525 -0.0589 -0.2596
  362TMC3    C8 5480   0.355   4.476  16.698 -0.4597  0.2446 -0.7830
  362TMC3    O1 5481   0.527   0.126  16.295  0.0414 -0.1902  0.4324
  362TMC3    O2 5482   0.392   4.364  16.732 -0.6428 -0.6646 -0.0911
  363TMC3    C1 5483   4.153   2.391   9.672  0.0361  0.3394  0.4126
  363TMC3    C2 5484   4.154   2.267   9.725  0.7620 -0.1896 -0.2400
  363TMC3    C3 5485   4.041   2.232   9.787  0.0575 -0.9706  0.7228
  363TMC3    C4 5486   4.037   2.475   9.675 -0.0111  0.3746 -0.6082
  363TMC3    C5 5487   3.922   2.430   9.730 -0.2314  0.6398 -0.5701
  363TMC3    C6 5488   3.923   2.306   9.792 -0.0448  0.2679 -0.0034
  363TMC3     C 5489   4.271   2.453   9.622  0.1878 -0.3819 -0.9635
  363TMC3     O 5490   4.247   2.559   9.562 -0.1405  0.1137  0.1047
  363TMC3     H 5491   4.228   2.194   9.695  1.0589 -0.3550  0.8921
  363TMC3    H1 5492   4.042   2.575   9.635 -0.2056  0.6384  0.0278
  363TMC3    H2 5493   3.833   2.259   9.830  0.5603  1.3881  2.8448
  363TMC3    C7 5494   3.798   2.503   9.703  0.8736 -0.7650 -0.3389
  363TMC3    C8 5495   4.039   2.092   9.821  0.2873  0.1197 -0.0040
  363TMC3    O1 5496   3.810   2.621   9.670 -0.2257 -0.2774 -0.7666
  363TMC3    O2 5497   3.928   2.038   9.831 -0.1238 -1.2517 -0.1294
  364MPD2     C 5498   3.025   1.246  10.756  0.5357 -0.3264 -0.3518
  364MPD2    C1 5499   3.114   1.211  10.656  0.1270  0.3566  0.0686
  364MPD2    C2 5500   3.157   1.075  10.651  0.1206  0.4056  0.0418
  364MPD2    C3 5501   3.096   0.978  10.730  0.2588  0.0583  0.0037
  364MPD2    C4 5502   3.003   1.018  10.816 -0.0180  0.3229  0.7001
  364MPD2    C5 5503   2.962   1.148  10.823  0.0658 -0.0759 -0.3070
  364MPD2     H 5504   3.229   1.047  10.575  0.4271 -0.0785  0.5027
  364MPD2    H1 5505   2.967   0.950  10.893  0.2435  0.3378  0.8351
  364MPD2    H2 5506   3.000   1.350  10.771 -3.1602 -0.9073 -2.4992
  364MPD2    H3 5507   2.888   1.164  10.901  1.8734  1.7333  0.9945
  364MPD2     N 5508   3.139   0.840  10.740  0.9044  0.5836  0.7089
  364MPD2    H5 5509   3.094   0.776  10.805 -1.2552 -0.6346 -2.0129
  364MPD2    N1 5510   3.179   1.313  10.582  0.1865  0.1195 -0.3366
  364MPD2    H7 5511   3.163   1.412  10.597 -0.0438 -0.0861  0.7436
  365TMC3    C1 5512   3.279   1.406  10.393 -0.5342 -0.7782 -0.1255
  365TMC3    C2 5513   3.319   1.379  10.262 -0.4426  0.4418  0.4623
  365TMC3    C3 5514   3.440   1.426  10.222  0.0196  0.1154 -0.4229
  365TMC3    C4 5515   3.355   1.479  10.480 -0.1443 -1.0215 -0.0672
  365TMC3    C5 5516   3.466   1.545  10.432 -0.4051  0.0550 -0.0533
  365TMC3    C6 5517   3.511   1.507  10.307 -0.6287 -0.4341 -0.1064
  365TMC3     C 5518   3.238   1.287  10.461 -0.2868  0.0749  0.0521
  365TMC3     O 5519   3.258   1.182  10.402  0.1768 -0.1264  0.2627
  365TMC3     H 5520   3.260   1.302  10.214  1.7281  0.1870 -1.7563
  365TMC3    H1 5521   3.324   1.506  10.580  0.7824 -0.6844  0.1376
  365TMC3    H2 5522   3.613   1.542  10.298 -0.3520 -1.1823  0.2039
  365TMC3    C7 5523   3.520   1.674  10.491 -0.1227  0.3216  0.0420
  365TMC3    C8 5524   3.524   1.345  10.136 -0.3141  0.1864  0.1973
  365TMC3    O1 5525   3.620   1.722  10.447  0.1597 -0.6645 -0.2242
  365TMC3    O2 5526   3.624   1.398  10.088  1.1488 -0.2214 -0.2172
  366MPD2     C 5527   0.938   2.436  15.654  0.0139  0.3738 -0.0546
  366MPD2    C1 5528   1.038   2.514  15.713  1.0105 -0.6431  0.0724
  366MPD2    C2 5529   1.170   2.486  15.684  0.0551  0.2626 -0.4627
  366MPD2    C3 5530   1.207   2.400  15.584  0.4986 -0.1008  0.7653
  366MPD2    C4 5531   1.108   2.325  15.525  0.0938 -1.2868  0.2154
  366MPD2    C5 5532   0.975   2.344  15.559 -0.2477 -0.4707  0.1183
  366MPD2     H 5533   1.250   2.537  15.738 -0.3947 -1.7856  2.1481
  366MPD2    H1 5534   1.125   2.244  15.456 -0.3324 -1.5934  0.4765
  366MPD2    H2 5535   0.833   2.450  15.679 -0.3494  0.3318 -1.5714
  366MPD2    H3 5536   0.903   2.280  15.510  0.4896 -0.3968 -1.0624
  366MPD2     N 5537   1.341   2.378  15.542  0.5558  0.0984 -0.0705
  366MPD2    H5 5538   1.354   2.333  15.452  0.8909  0.8211 -0.3823
  366MPD2    N1 5539   1.011   2.618  15.807 -0.7295  0.1661 -0.3790
  366MPD2    H7 5540   1.084   2.664  15.861 -0.1050  0.8953 -1.8516
  367TMC3    C1 5541   0.888   2.781  15.912  0.3045  0.1017  0.5377
  367TMC3    C2 5542   0.999   2.818  15.978 -0.2872  0.0930 -0.5343
  367TMC3    C3 5543   1.017   2.952  15.980 -0.2988  0.5272  0.3183
  367TMC3    C4 5544   0.795   2.869  15.855 -0.4957  0.0215 -0.3674
  367TMC3    C5 5545   0.818   2.998  15.859 -0.1281  0.0498  0.3233
  367TMC3    C6 5546   0.928   3.046  15.925 -0.4466 -0.1706  0.5064
  367TMC3     C 5547   0.886   2.657  15.838  0.5104 -0.2423  0.6772
  367TMC3     O 5548   0.777   2.619  15.792  0.2519  0.1495 -0.5023
  367TMC3     H 5549   1.084   2.760  16.013 -1.5844 -1.3938  0.1735
  367TMC3    H1 5550   0.715   2.823  15.799 -3.6081  0.8512  3.4069
  367TMC3    H2 5551   0.964   3.148  15.911 -0.9251 -0.3745 -2.2770
  367TMC3    C7 5552   0.760   3.082  15.757 -0.1834  0.4896  0.9130
  367TMC3    C8 5553   1.156   2.981  15.956  0.3817  0.3615  0.5584
  367TMC3    O1 5554   0.808   3.193  15.745  0.1281 -0.5759 -0.0363
  367TMC3    O2 5555   1.227   2.990  16.056  0.3644 -0.1104  0.2187
  368MPD2     C 5556   2.483   3.964  13.266 -0.3460  0.9298  0.7050
  368MPD2    C1 5557   2.555   4.061  13.327  0.9534 -0.2197  0.4612
  368MPD2    C2 5558   2.691   4.043  13.344  0.3079 -0.3835  0.1591
  368MPD2    C3 5559   2.756   3.931  13.302 -0.2700  0.5491  0.7961
  368MPD2    C4 5560   2.681   3.830  13.248  0.4708  0.1549  0.4371
  368MPD2    C5 5561   2.542   3.851  13.228 -0.2200 -0.3122 -0.2526
  368MPD2     H 5562   2.747   4.128  13.382  0.2159  0.5943 -1.8881
  368MPD2    H1 5563   2.730   3.739  13.215 -0.2811 -0.3686  0.7719
  368MPD2    H2 5564   2.378   3.975  13.242 -0.3614 -0.7233  0.0441
  368MPD2    H3 5565   2.486   3.772  13.178  0.4615 -0.2077 -1.1774
  368MPD2     N 5566   2.894   3.917  13.289 -0.1083 -0.2237  0.0308
  368MPD2    H5 5567   2.929   3.844  13.227  0.4961  0.5175 -0.5064
  368MPD2    N1 5568   2.490   4.179  13.367  0.1375 -0.0594 -0.5221
  368MPD2    H7 5569   2.390   4.192  13.357 -0.2799 -1.2697  2.0873
  369TMC3    C1 5570   2.458   4.413  13.406 -0.1751 -0.1685  0.2375
  369TMC3    C2 5571   2.498   4.531  13.359  0.4282  0.1039 -0.7072
  369TMC3    C3 5572   2.437   4.642  13.407  0.3761 -0.0304  0.0871
  369TMC3    C4 5573   2.345   4.395  13.486 -0.8970  0.1479 -0.4221
  369TMC3    C5 5574   2.278   4.511  13.521 -0.3044  0.1261  0.1980
  369TMC3    C6 5575   2.326   4.633  13.481  0.1030  0.3930  0.4962
  369TMC3     C 5576   2.552   4.300  13.387 -0.1553  0.7998  0.1463
  369TMC3     O 5577   2.668   4.339  13.372 -0.8375 -0.0995  0.4258
  369TMC3     H 5578   2.583   4.529  13.292  0.3635 -0.3795 -0.7748
  369TMC3    H1 5579   2.319   4.296  13.524 -0.5505  0.5504  0.8540
  369TMC3    H2 5580   2.266   4.718  13.512 -3.2645 -1.4100 -1.0425
  369TMC3    C7 5581   2.208   4.500  13.647 -0.0457 -0.2594 -0.5180
  369TMC3    C8 5582   2.482   0.029  13.352  0.2019  0.9247 -0.0803
  369TMC3    O1 5583   2.236   4.403  13.720  0.4445 -0.3045 -0.7340
  369TMC3    O2 5584   2.403   0.112  13.313  0.5289  0.4717  0.1708
  370TMC3    C1 5585   2.289   0.579  16.293 -0.7592  0.0399  0.7459
  370TMC3    C2 5586   2.221   0.501  16.388 -0.1442 -0.3086  0.2527
  370TMC3    C3 5587   2.169   0.383  16.349  0.7373  0.1756  0.0087
  370TMC3    C4 5588   2.329   0.522  16.173 -0.2097 -0.1321 -0.7714
  370TMC3    C5 5589   2.277   0.404  16.136  0.3063  0.1785 -0.3723
  370TMC3    C6 5590   2.184   0.338  16.221 -0.2317 -0.8066  0.1851
  370TMC3     C 5591   2.381   0.673  16.355  0.3932 -0.6015 -0.1100
  370TMC3     O 5592   2.398   0.661  16.477 -0.4338  0.3918 -0.2932
  370TMC3     H 5593   2.212   0.538  16.489 -1.0407  0.9015 -0.2690
  370TMC3    H1 5594   2.410   0.567  16.116  0.7011 -2.1348 -1.0452
  370TMC3    H2 5595   2.131   0.252  16.181 -0.3963 -0.9641  0.7398
  370TMC3    C7 5596   2.315   0.351  16.005  0.9023 -0.2031  0.6244
  370TMC3    C8 5597   2.158   0.282  16.449  0.2322 -0.2866 -0.5013
  370TMC3    O1 5598   2.326   0.439  15.916  0.2217 -0.3096  0.1926
  370TMC3    O2 5599   2.159   0.169  16.411  0.1862 -0.1878 -0.6528
  371TMC3    C1 5600   3.873   3.780  15.555  0.6018 -0.0824 -0.1678
  371TMC3    C2 5601   3.744   3.752  15.589 -0.1233  0.3277 -0.1404
  371TMC3    C3 5602   3.654   3.851  15.576 -0.5886 -0.2221  0.0701
  371TMC3    C4 5603   3.913   3.905  15.501  0.0244  0.2000  0.3286
  371TMC3    C5 5604   3.814   3.999  15.480  0.2291  0.1669  0.3731
  371TMC3    C6 5605   3.680   3.972  15.508  0.5662 -0.0444  0.0351
  371TMC3     C 5606   3.976   3.673  15.541 -0.1323 -0.0562 -0.1627
  371TMC3     O 5607   4.094   3.710  15.540  0.0460  0.2488  0.0278
  371TMC3     H 5608   3.714   3.664  15.645  0.3768 -1.1345 -2.1778
  371TMC3    H1 5609   4.017   3.916  15.472  0.3718  0.0209  1.5317
  371TMC3    H2 5610   3.610   4.054  15.498 -0.6505 -1.0174  0.5765
  371TMC3    C7 5611   3.860   4.137  15.463  0.4122  0.3799  0.5147
  371TMC3    C8 5612   3.513   3.815  15.600  0.2386 -1.0537  0.1787
  371TMC3    O1 5613   3.772   4.221  15.467 -0.1071 -0.0077 -0.2837
  371TMC3    O2 5614   3.496   3.693  15.598  0.5285  0.0292 -0.6043
  372MPD2     C 5615   2.418   0.186  13.717 -0.1350 -0.9959 -0.8323
  372MPD2    C1 5616   2.552   0.149  13.713 -0.3874 -0.3535  0.9315
  372MPD2    C2 5617   2.585   0.028  13.766  0.0867  0.0592 -0.2854
  372MPD2    C3 5618   2.502   4.690  13.845  0.5679 -0.5392 -0.0001
  372MPD2    C4 5619   2.377   4.740  13.873 -0.7465  0.5344 -0.2385
  372MPD2    C5 5620   2.336   0.114  13.802  0.2758 -0.1067  0.4796
  372MPD2     H 5621   2.684   4.732  13.738 -0.6431 -1.1492 -1.3106
  372MPD2    H1 5622   2.305   4.694  13.940  0.5129 -1.1071 -0.0066
  372MPD2    H2 5623   2.372   0.267  13.662 -0.4362 -0.8679 -0.3937
  372MPD2    H3 5624   2.234   0.149  13.817 -0.3170 -2.2554  1.4871
  372MPD2     N 5625   2.554   4.567  13.890  0.5270 -0.1991  0.4898
  372MPD2    H5 5626   2.646   4.541  13.855 -0.2912 -0.8046 -1.2028
  372MPD2    N1 5627   2.643   0.225  13.633 -0.1052 -0.3961 -0.2879
  372MPD2    H7 5628   2.738   0.188  13.632  0.0262 -0.0771  0.3994
  373TMC3    C1 5629   2.537   4.348  13.988 -0.0684  0.3641 -1.1302
  373TMC3    C2 5630   2.610   4.336  14.104 -0.1903  0.6410  0.3498
  373TMC3    C3 5631   2.577   4.228  14.187 -0.1539  0.6007 -0.0528
  373TMC3    C4 5632   2.445   4.251  13.949 -0.1947  0.1974  0.3873
  373TMC3    C5 5633   2.419   4.146  14.031 -0.4392  0.0774  0.0579
  373TMC3    C6 5634   2.478   4.143  14.153  0.7953 -0.1517  0.4855
  373TMC3     C 5635   2.481   4.478  13.963  0.2135 -0.5470 -0.1000
  373TMC3     O 5636   2.378   4.487  14.028 -0.1719 -0.5784 -0.5506
  373TMC3     H 5637   2.688   4.407  14.130 -0.5298  1.1234  0.0429
  373TMC3    H1 5638   2.390   4.268  13.857  0.8956 -1.7350 -0.6153
  373TMC3    H2 5639   2.470   4.058  14.220 -0.5221 -1.2015 -1.0023
  373TMC3    C7 5640   2.349   4.032  13.973  0.4120  0.4231 -0.8261
  373TMC3    C8 5641   2.668   4.192  14.297 -1.1637  0.1240  0.0437
  373TMC3    O1 5642   2.362   4.003  13.854  0.4046 -0.2951  0.0677
  373TMC3    O2 5643   2.620   4.125  14.393 -0.1729 -0.2637  0.3523
  374TMC3    C1 5644   3.455   4.715  10.345 -0.0619 -0.6728  0.7615
  374TMC3    C2 5645   3.554   0.071  10.324 -0.3041 -0.0227  0.3937
  374TMC3    C3 5646   3.594   0.086  10.192  0.2108 -0.6955  0.6338
  374TMC3    C4 5647   3.382   4.653  10.243  0.5799 -0.2189 -1.5277
  374TMC3    C5 5648   3.434   4.682  10.118  0.1853 -0.2817 -0.7722
  374TMC3    C6 5649   3.538   0.020  10.088  0.7212 -0.5239 -0.6376
  374TMC3     C 5650   3.439   4.674  10.483  0.1102  0.3439 -0.1620
  374TMC3     O 5651   3.528   4.696  10.572  0.5124 -0.1925  0.2561
  374TMC3     H 5652   3.617   0.099  10.407 -2.3661  0.4248  1.7764
  374TMC3    H1 5653   3.316   4.571  10.269 -0.2514  1.2515  0.9705
  374TMC3    H2 5654   3.570   0.048   9.989  1.8163  1.4320  0.2695
  374TMC3    C7 5655   3.371   4.624  10.003  0.0414  0.2469 -0.1781
  374TMC3    C8 5656   3.735   0.099  10.165  0.6566  0.0210 -0.0728
  374TMC3    O1 5657   3.427   4.643   9.895  0.3393  0.6353  0.1395
  374TMC3    O2 5658   3.776   0.136  10.056  0.7135  0.0149 -0.7086
  375MPD2     C 5659   3.623   1.453  17.027 -0.2724  0.3897  0.4659
  375MPD2    C1 5660   3.538   1.350  17.010  0.5198  0.9267  0.3014
  375MPD2    C2 5661   3.569   1.263  16.904 -0.0748 -0.9266  0.6945
  375MPD2    C3 5662   3.680   1.274  16.827  0.5104  0.4775  0.2606
  375MPD2    C4 5663   3.765   1.379  16.848  0.7932 -0.5846  0.6189
  375MPD2    C5 5664   3.732   1.467  16.944  0.1353  0.2212 -0.5256
  375MPD2     H 5665   3.500   1.181  16.883 -2.0527  1.4600 -2.1712
  375MPD2    H1 5666   3.852   1.388  16.784  0.1591 -0.7339 -0.2652
  375MPD2    H2 5667   3.607   1.533  17.099  2.4411  0.1536  1.3242
  375MPD2    H3 5668   3.788   1.559  16.955  1.2267 -0.2504 -2.2301
  375MPD2     N 5669   3.733   1.180  16.734 -0.6878 -0.2119 -0.1711
  375MPD2    H5 5670   3.831   1.188  16.707 -0.9707  0.7765 -0.9385
  375MPD2    N1 5671   3.422   1.325  17.080 -0.1181  0.1024  0.4039
  375MPD2    H7 5672   3.366   1.244  17.057 -1.5447  0.6674  1.8355
  376TMC3    C1 5673   3.743   0.970  16.617 -0.5462 -0.8737 -0.6353
  376TMC3    C2 5674   3.873   0.950  16.646  0.4617 -0.1580  0.3368
  376TMC3    C3 5675   3.942   0.843  16.586  0.3233 -0.5349  0.0800
  376TMC3    C4 5676   3.685   0.895  16.520  0.1524 -0.4185  0.5748
  376TMC3    C5 5677   3.759   0.790  16.458 -0.0132 -0.1998 -0.1468
  376TMC3    C6 5678   3.887   0.766  16.494  0.5793  0.0477  0.7783
  376TMC3     C 5679   3.662   1.074  16.686 -0.0269  0.2447  0.3643
  376TMC3     O 5680   3.543   1.050  16.697 -0.2184  0.2900 -0.0418
  376TMC3     H 5681   3.923   1.003  16.726 -1.2718  1.3517  0.4138
  376TMC3    H1 5682   3.587   0.920  16.482  0.0525  0.0544  1.1524
  376TMC3    H2 5683   3.943   0.690  16.441 -0.3637  0.4876 -0.8569
  376TMC3    C7 5684   3.722   0.754  16.324 -0.2671 -0.6227 -0.0724
  376TMC3    C8 5685   4.085   0.866  16.575 -0.4288 -0.1935  0.8446
  376TMC3    O1 5686   3.632   0.818  16.273  0.5586  0.5463  0.4575
  376TMC3    O2 5687   4.114   0.983  16.571  1.1287 -0.1870  0.0030
  377MPD2     C 5688   2.516   0.074  12.838  0.1266 -0.3531  0.0679
  377MPD2    C1 5689   2.440   0.156  12.758 -0.1857  0.6169 -0.2183
  377MPD2    C2 5690   2.315   0.187  12.802 -0.1287  0.0548 -0.6915
  377MPD2    C3 5691   2.265   0.154  12.934 -0.3134  0.1631 -0.0584
  377MPD2    C4 5692   2.347   0.069  13.011 -0.6862 -0.5603  0.0178
  377MPD2    C5 5693   2.473   0.032  12.962  0.0872  0.6688  0.6148
  377MPD2     H 5694   2.247   0.236  12.733  0.0757  0.0004 -0.9330
  377MPD2    H1 5695   2.311   0.024  13.103 -1.5509  0.5299  0.2047
  377MPD2    H2 5696   2.612   0.041  12.799  0.6980  1.5134 -0.1128
  377MPD2    H3 5697   2.539   4.708  13.018  2.1595  0.6644 -1.8277
  377MPD2     N 5698   2.140   0.190  12.989  0.2280  0.3554  0.0795
  377MPD2    H5 5699   2.121   0.158  13.084 -0.3003 -0.8381 -0.4257
  377MPD2    N1 5700   2.489   0.179  12.626  0.3170  0.1252  0.2421
  377MPD2    H7 5701   2.587   0.155  12.616 -0.0213 -2.1759  2.2990
  378TMC3    C1 5702   2.538   0.251  12.164  0.8572  0.2386  0.2332
  378TMC3    C2 5703   2.461   0.230  12.279  0.2810  0.0133 -0.2860
  378TMC3    C3 5704   2.515   0.242  12.401  0.5441  0.6796 -0.0632
  378TMC3    C4 5705   2.668   0.281  12.174  0.2661  0.2569  0.1691
  378TMC3    C5 5706   2.727   0.278  12.299 -0.5208  0.1730  0.1637
  378TMC3    C6 5707   2.648   0.273  12.413  0.0242  0.1200  0.0631
  378TMC3     C 5708   2.487   0.209  12.037 -0.2466  0.0319 -0.1486
  378TMC3     O 5709   2.367   0.211  12.016 -0.2252 -0.7951  0.0502
  378TMC3     H 5710   2.361   0.190  12.261  0.7303  0.3187 -3.4790
  378TMC3    H1 5711   2.712   0.329  12.087 -1.4190  2.0579  0.3252
  378TMC3    H2 5712   2.694   0.291  12.510  0.6720 -0.0149 -0.2182
  378TMC3    C7 5713   2.871   0.280  12.307 -0.5630 -0.4396  0.2851
  378TMC3    C8 5714   2.419   0.230  12.515  0.4027 -0.5330  0.8832
  378TMC3    O1 5715   2.923   0.293  12.415  0.0413 -0.0279 -0.1259
  378TMC3    O2 5716   2.300   0.233  12.496  0.8079  0.6700 -0.1360
  379MPD2     C 5717   1.972   3.042  16.580 -0.8033 -0.1851 -1.1683
  379MPD2    C1 5718   2.078   3.021  16.488 -1.0489  0.4521 -1.0073
  379MPD2    C2 5719   2.206   2.990  16.537  0.4945  0.8410  0.1602
  379MPD2    C3 5720   2.232   2.976  16.670  0.1730 -0.2322 -0.2649
  379MPD2    C4 5721   2.125   2.987  16.752  0.3955 -0.7187 -0.4410
  379MPD2    C5 5722   2.005   3.030  16.711 -0.1905 -0.3955 -0.2231
  379MPD2     H 5723   2.286   2.983  16.464 -0.3301 -1.3415 -0.5463
  379MPD2    H1 5724   2.129   2.967  16.859 -0.3512 -0.8398 -0.4363
  379MPD2    H2 5725   1.875   3.084  16.556 -0.8010  0.9408  0.7847
  379MPD2    H3 5726   1.930   3.054  16.785  1.0897 -0.6067  1.1309
  379MPD2     N 5727   2.356   2.948  16.732  0.4270 -0.0386  0.0479
  379MPD2    H5 5728   2.353   2.935  16.833  1.7435  0.4132  0.1542
  379MPD2    N1 5729   2.043   3.030  16.352 -0.4027  0.2023 -0.2025
  379MPD2    H7 5730   1.951   3.065  16.330 -0.9168  0.5516  2.5274
  380TMC3    C1 5731   2.056   2.988  16.120  0.8208  0.1080  0.4516
  380TMC3    C2 5732   2.133   2.963  16.010  0.3104 -0.4206 -0.3716
  380TMC3    C3 5733   2.077   2.957  15.884 -0.3132 -0.0600  0.0629
  380TMC3    C4 5734   1.917   2.994  16.104  0.0270 -0.4072 -0.0292
  380TMC3    C5 5735   1.867   2.967  15.980  0.5082 -0.3669  0.3835
  380TMC3    C6 5736   1.939   2.947  15.868  0.7550  0.3055 -0.3513
  380TMC3     C 5737   2.119   2.976  16.250  0.5737 -0.4627  0.3805
  380TMC3     O 5738   2.234   2.931  16.250  0.5360  0.0201 -0.3458
  380TMC3     H 5739   2.239   2.943  16.019  0.4239 -0.1529 -1.0612
  380TMC3    H1 5740   1.849   3.004  16.188  0.0407 -1.6347  0.1199
  380TMC3    H2 5741   1.898   2.915  15.773 -0.3378 -0.5694  0.4165
  380TMC3    C7 5742   1.725   2.981  15.962  0.0368  0.2118  0.4651
  380TMC3    C8 5743   2.161   2.948  15.767  0.5800  0.4723  0.5210
  380TMC3    O1 5744   1.652   2.972  16.058 -0.1779 -0.1676  0.6271
  380TMC3    O2 5745   2.108   2.944  15.656  0.0111 -0.4459  0.2174
  381TMC3    C1 5746   2.249   4.255  16.201 -0.7386  0.2325 -0.6121
  381TMC3    C2 5747   2.356   4.332  16.228 -0.4099 -0.1470  0.5319
  381TMC3    C3 5748   2.349   4.450  16.302  0.8692 -0.0861  0.2316
  381TMC3    C4 5749   2.127   4.285  16.263 -0.6211  0.2765 -0.9171
  381TMC3    C5 5750   2.119   4.401  16.334  0.1985 -0.5889 -0.7291
  381TMC3    C6 5751   2.225   4.486  16.352 -0.0964  0.0692 -0.6438
  381TMC3     C 5752   2.266   4.117  16.157  0.3022 -0.8557  0.0186
  381TMC3     O 5753   2.375   4.065  16.176  0.0880 -0.1168 -0.4725
  381TMC3     H 5754   2.456   4.305  16.197  0.4360  0.3816  2.8020
  381TMC3    H1 5755   2.042   4.219  16.270 -1.0644  0.7924 -1.4186
  381TMC3    H2 5756   2.211   4.570  16.419  0.2807 -0.6715  0.3670
  381TMC3    C7 5757   1.978   4.450  16.330 -0.2350  0.0986  0.8251
  381TMC3    C8 5758   2.438   4.570  16.267 -0.1244 -0.4544  0.1597
  381TMC3    O1 5759   1.898   4.390  16.256  0.4109 -0.8411 -0.2289
  381TMC3    O2 5760   2.513   4.538  16.174  0.2771 -0.5544  0.4763
  382MPD2     C 5761   1.139   1.762   0.128 -0.2685  0.0282  0.5759
  382MPD2    C1 5762   1.198   1.753   0.006  0.2124 -0.1179  0.0112
  382MPD2    C2 5763   1.178   1.640  17.684 -0.7601 -0.3575 -0.4900
  382MPD2    C3 5764   1.095   1.537  17.724 -0.0055  0.3135 -0.2020
  382MPD2    C4 5765   1.033   1.552   0.088  0.5776  0.2252 -0.2072
  382MPD2    C5 5766   1.054   1.664   0.165 -0.5096  0.4978 -0.8424
  382MPD2     H 5767   1.231   1.624  17.590  1.3445 -0.1404  0.6592
  382MPD2    H1 5768   0.971   1.473   0.128  2.0085 -0.7016  0.1653
  382MPD2    H2 5769   1.138   1.852   0.188 -0.2535  0.9464 -0.8003
  382MPD2    H3 5770   0.991   1.678   0.252 -1.4818  1.5488 -1.7156
  382MPD2     N 5771   1.087   1.420  17.640 -0.8844  0.8483 -0.0514
  382MPD2    H5 5772   1.158   1.417  17.568 -1.8695 -0.3533 -0.9506
  382MPD2    N1 5773   1.279   1.856  17.705  0.1050  0.5758 -0.3000
  382MPD2    H7 5774   1.320   1.843  17.613  2.0849  0.1448  0.6512
  383TMC3    C1 5775   1.016   1.221  17.551  0.6442  0.1136 -0.3615
  383TMC3    C2 5776   0.907   1.155  17.500 -0.2690 -0.0818 -0.0980
  383TMC3    C3 5777   0.935   1.046  17.424  0.2092  0.0044  0.0662
  383TMC3    C4 5778   1.140   1.201  17.517 -0.0462  0.4406  0.5962
  383TMC3    C5 5779   1.169   1.104  17.428  0.1631 -0.7290 -0.2407
  383TMC3    C6 5780   1.061   1.025  17.381  0.1052 -0.7115  0.2334
  383TMC3     C 5781   0.992   1.325  17.649 -0.1640  0.4275  0.2336
  383TMC3     O 5782   0.889   1.330  17.717  0.3391  0.9190 -0.2296
  383TMC3     H 5783   0.810   1.194  17.530  0.3524  2.9641 -2.0233
  383TMC3    H1 5784   1.224   1.245  17.568 -0.5071 -2.8040  4.1650
  383TMC3    H2 5785   1.083   0.944  17.313  3.9931 -0.0376  0.6483
  383TMC3    C7 5786   1.299   1.054  17.390 -0.2745  0.7271  0.0841
  383TMC3    C8 5787   0.835   1.008  17.330  0.8443  0.2706 -0.6100
  383TMC3    O1 5788   1.309   0.945  17.339 -0.2879 -0.2346 -0.2973
  383TMC3    O2 5789   0.761   1.095  17.289  0.4304 -0.0451 -0.4650
  384MPD2     C 5790   2.850   2.915  12.083 -0.0261  0.3646 -0.8248
  384MPD2    C1 5791   2.924   2.873  12.190 -0.5597 -0.3022 -0.0451
  384MPD2    C2 5792   3.049   2.820  12.160  0.5539 -0.3072 -0.1549
  384MPD2    C3 5793   3.105   2.811  12.040  0.1020  0.1228 -0.1844
  384MPD2    C4 5794   3.029   2.852  11.932 -0.4895  0.1080  0.3761
  384MPD2    C5 5795   2.909   2.909  11.958 -0.2172  0.0206 -0.5870
  384MPD2     H 5796   3.107   2.795  12.248  0.1212 -1.8521 -0.3111
  384MPD2    H1 5797   3.065   2.845  11.830 -1.0392 -0.9935  0.2476
  384MPD2    H2 5798   2.753   2.963  12.087  0.4428  1.1987  0.5214
  384MPD2    H3 5799   2.852   2.949  11.875 -1.8155 -1.0475 -0.0165
  384MPD2     N 5800   3.229   2.742  12.034  0.4854  0.1790 -0.4063
  384MPD2    H5 5801   3.255   2.702  12.124 -3.1833  0.1021  0.6509
  384MPD2    N1 5802   2.883   2.899  12.320  0.3266  0.2396  0.2800
  384MPD2    H7 5803   2.940   2.863  12.397 -1.0069 -1.2084  0.5854
  385TMC3    C1 5804   3.389   2.586  11.974  0.2001 -0.7793 -0.4427
  385TMC3    C2 5805   3.369   2.453  11.947 -0.3861  0.5184 -0.2098
  385TMC3    C3 5806   3.388   2.357  12.044  0.4362  0.0186  0.4363
  385TMC3    C4 5807   3.448   2.616  12.093 -0.2950  0.2486 -0.0250
  385TMC3    C5 5808   3.471   2.528  12.191 -0.6454  1.2267  0.1070
  385TMC3    C6 5809   3.442   2.397  12.167 -0.4158 -0.2619  0.0772
  385TMC3     C 5810   3.283   2.678  11.932  0.1427 -0.2669 -0.4801
  385TMC3     O 5811   3.232   2.665  11.824  0.5053 -1.0242 -0.2545
  385TMC3     H 5812   3.330   2.416  11.853  1.3781 -1.0368 -0.3121
  385TMC3    H1 5813   3.476   2.720  12.107 -1.1447  0.4842 -0.0388
  385TMC3    H2 5814   3.437   2.331  12.253  1.9501 -0.3650  0.1625
  385TMC3    C7 5815   3.390   2.580  12.306  0.2195 -0.4274  0.0899
  385TMC3    C8 5816   3.402   2.215  12.008  0.6690 -0.1428  1.1092
  385TMC3    O1 5817   3.284   2.637  12.279 -0.3665 -0.2901  0.2709
  385TMC3    O2 5818   3.444   2.146  12.097 -0.1354  0.3826  0.3185
  386TMC3    C1 5819   3.345   0.487  12.028  0.5769 -0.3735  0.2517
  386TMC3    C2 5820   3.321   0.439  11.892  0.2819  0.5581  0.1378
  386TMC3    C3 5821   3.200   0.479  11.845  0.6906 -0.0395  0.1601
  386TMC3    C4 5822   3.255   0.554  12.107  0.0364  0.7720  0.0253
  386TMC3    C5 5823   3.129   0.566  12.055 -0.8140 -0.6688 -0.0537
  386TMC3    C6 5824   3.100   0.537  11.924  0.3202  0.5568  0.5021
  386TMC3     C 5825   3.482   0.468  12.085 -0.7630 -0.6873  0.7125
  386TMC3     O 5826   3.508   0.524  12.194  0.2403  0.3661  0.2456
  386TMC3     H 5827   3.403   0.397  11.835 -1.1383 -2.4702  0.3322
  386TMC3    H1 5828   3.281   0.584  12.208  2.9271  1.2496 -0.8837
  386TMC3    H2 5829   3.009   0.579  11.883 -1.4663 -2.2843  1.5033
  386TMC3    C7 5830   3.020   0.580  12.154  0.5989 -0.3147  0.4488
  386TMC3    C8 5831   3.144   0.421  11.723 -0.4376 -0.2288  0.2332
  386TMC3    O1 5832   3.044   0.583  12.276 -0.0483  0.2651  0.3422
  386TMC3    O2 5833   3.027   0.440  11.692  0.2574 -0.3140  0.1006
  387MPD2     C 5834   0.532   0.252  10.305  0.3973 -0.0671  0.2684
  387MPD2    C1 5835   0.656   0.201  10.289  0.3400  0.4940  0.3965
  387MPD2    C2 5836   0.670   0.070  10.238 -0.5775  0.4203 -0.8557
  387MPD2    C3 5837   0.561   4.738  10.192 -0.6211  0.2705  0.4558
  387MPD2    C4 5838   0.435   0.056  10.211 -0.0201 -0.4200 -0.2365
  387MPD2    C5 5839   0.424   0.184  10.265  0.4894 -0.2368 -0.5537
  387MPD2     H 5840   0.767   0.028  10.216 -1.1985 -0.7398 -1.3481
  387MPD2    H1 5841   0.344   0.005  10.180  0.2851  0.8524 -3.2469
  387MPD2    H2 5842   0.528   0.347  10.357  2.2937 -0.0417  0.3651
  387MPD2    H3 5843   0.325   0.225  10.276  0.7539  0.4684 -0.8027
  387MPD2     N 5844   0.579   4.610  10.130  1.0639 -0.7890 -0.0972
  387MPD2    H5 5845   0.675   4.577  10.122  0.4757 -2.9158  1.7067
  387MPD2    N1 5846   0.778   0.272  10.313 -0.4612  0.2932 -0.4739
  387MPD2    H7 5847   0.866   0.224  10.294  1.2354  3.0303  0.5357
  388TMC3    C1 5848   0.922   0.452  10.344  0.6173 -0.0019  0.2939
  388TMC3    C2 5849   0.939   0.586  10.321 -0.2544  0.0612  0.3029
  388TMC3    C3 5850   1.061   0.628  10.276  0.0229  0.2047 -0.3917
  388TMC3    C4 5851   1.012   0.358  10.316 -0.1703  0.9282  0.3646
  388TMC3    C5 5852   1.122   0.401  10.247 -0.0085  0.4011 -0.7540
  388TMC3    C6 5853   1.152   0.535  10.233  0.0060  0.9214  1.3384
  388TMC3     C 5854   0.783   0.409  10.347 -0.2757 -0.4368 -0.5114
  388TMC3     O 5855   0.694   0.486  10.384  0.0290 -0.5299 -0.2544
  388TMC3     H 5856   0.859   0.657  10.341 -1.6038 -1.9718  2.1299
  388TMC3    H1 5857   1.003   0.258  10.355  0.0252  0.7348 -0.0880
  388TMC3    H2 5858   1.233   0.565  10.168  1.0459 -2.6679  0.9804
  388TMC3    C7 5859   1.180   0.310  10.157 -0.8597 -0.8530  0.1056
  388TMC3    C8 5860   1.091   0.771  10.261 -1.4031  0.2466 -0.2567
  388TMC3    O1 5861   1.297   0.318  10.148  0.1514  0.4452  0.4501
  388TMC3    O2 5862   1.198   0.797  10.208  0.7469 -0.6257 -0.1496
  389MPD2     C 5863   0.270   3.132  11.276  0.0107  0.1927 -0.5226
  389MPD2    C1 5864   0.149   3.069  11.243 -0.4485 -0.4015  0.1977
  389MPD2    C2 5865   0.073   2.998  11.335  0.6240  0.5972  0.6125
  389MPD2    C3 5866   0.119   2.989  11.468  0.1709  0.1409  0.0971
  389MPD2    C4 5867   0.225   3.064  11.504 -0.1336 -0.1417  0.4266
  389MPD2    C5 5868   0.302   3.134  11.409 -0.2857 -0.0987 -0.3259
  389MPD2     H 5869   4.725   2.946  11.300  2.0466 -0.0531 -2.0001
  389MPD2    H1 5870   0.261   3.061  11.606  1.1167 -0.0615 -0.0116
  389MPD2    H2 5871   0.322   3.196  11.205 -0.2695  0.5131 -0.4435
  389MPD2    H3 5872   0.397   3.179  11.433 -0.2717  0.9340 -2.3018
  389MPD2     N 5873   0.050   2.917  11.571  0.1754 -0.1854 -1.1926
  389MPD2    H5 5874   0.066   2.941  11.669  2.3831  1.3867 -1.9215
  389MPD2    N1 5875   0.105   3.098  11.112  0.0633  0.2875 -0.6547
  389MPD2    H7 5876   0.173   3.149  11.056  1.4753 -1.3375 -0.4258
  390TMC3    C1 5877   4.599   2.814  11.669 -0.4186  0.4434 -0.5526
  390TMC3    C2 5878   4.505   2.709  11.666 -0.0361  0.6990 -0.4493
  390TMC3    C3 5879   4.427   2.694  11.772  0.6051  0.0418  0.0556
  390TMC3    C4 5880   4.613   2.891  11.785  0.8910 -0.3347  0.2297
  390TMC3    C5 5881   4.527   2.862  11.895 -0.4107 -0.0391 -0.0060
  390TMC3    C6 5882   4.435   2.761  11.888  0.7957 -0.5426 -0.5318
  390TMC3     C 5883   4.686   2.830  11.552  0.8622  0.5133  0.3873
  390TMC3     O 5884   4.655   2.777  11.445 -0.2815 -0.0227  0.0393
  390TMC3     H 5885   4.498   2.655  11.572 -0.5669  0.8885 -0.5181
  390TMC3    H1 5886   4.669   2.983  11.796  0.4844  0.0532 -1.0062
  390TMC3    H2 5887   4.388   2.721  11.978 -1.2519  1.7787 -0.5715
  390TMC3    C7 5888   4.544   2.933  12.019  0.1693 -0.3639 -0.1427
  390TMC3    C8 5889   4.324   2.583  11.763  0.1804 -0.4513  0.3723
  390TMC3    O1 5890   4.648   2.997  12.040  0.0185  0.2839 -0.6068
  390TMC3    O2 5891   4.337   2.494  11.676 -0.2378 -0.2371 -0.2658
  391MPD2     C 5892   4.513   4.287  11.497  0.0482 -0.3231  0.5464
  391MPD2    C1 5893   4.595   4.389  11.458 -0.1253 -0.2799  0.1645
  391MPD2    C2 5894   4.561   4.467  11.348 -0.1542 -0.2849 -0.1475
  391MPD2    C3 5895   4.452   4.443  11.272  0.5845  0.5254 -0.2466
  391MPD2    C4 5896   4.375   4.338  11.297  0.1189  0.2198  0.1498
  391MPD2    C5 5897   4.408   4.255  11.408  0.6815 -0.2952 -0.1906
  391MPD2     H 5898   4.603   4.564  11.325 -0.8856  0.0516 -0.0533
  391MPD2    H1 5899   4.289   4.303  11.241  0.4142  0.6684 -0.5946
  391MPD2    H2 5900   4.538   4.226  11.583  0.2148  0.4546  1.0434
  391MPD2    H3 5901   4.351   4.164  11.425 -2.1655  1.4640 -0.2590
  391MPD2     N 5902   4.428   4.531  11.161  0.1163 -0.0525 -0.3959
  391MPD2    H5 5903   4.498   4.603  11.148 -1.0462  1.3311  0.9644
  391MPD2    N1 5904   4.698   4.424  11.552 -0.2515 -0.4104 -1.1655
  391MPD2    H7 5905   4.696   4.367  11.636  1.6124  0.1924 -0.7120
  392TMC3    C1 5906   4.314   4.650  10.984 -0.5233  0.1308 -0.6334
  392TMC3    C2 5907   4.259   4.624  10.865  0.0826 -0.4003  0.8687
  392TMC3    C3 5908   4.230   4.735  10.789 -0.8405  0.1390 -0.7135
  392TMC3    C4 5909   4.340   0.032  11.034  0.1374  0.5761 -0.9443
  392TMC3    C5 5910   4.304   0.142  10.961  0.7930  0.1798  0.7951
  392TMC3    C6 5911   4.254   0.126  10.838 -0.3116 -0.5218 -0.2105
  392TMC3     C 5912   4.317   4.530  11.075  0.4423 -0.1194  0.3385
  392TMC3     O 5913   4.242   4.439  11.051 -0.3236 -0.3156 -0.5197
  392TMC3     H 5914   4.241   4.524  10.827 -0.3767  0.0112  0.0043
  392TMC3    H1 5915   4.386   0.033  11.132 -2.0205  1.5666  0.0511
  392TMC3    H2 5916   4.218   0.212  10.782 -1.4744 -0.2218  0.9959
  392TMC3    C7 5917   4.367   0.265  11.012 -0.7703 -0.3389 -0.7436
  392TMC3    C8 5918   4.158   4.729  10.661  0.4714  0.9966  0.5445
  392TMC3    O1 5919   4.442   0.254  11.106  0.7567 -0.1841 -0.6523
  392TMC3    O2 5920   4.091   4.631  10.639  0.1289  0.4933  0.5130
  393TMC3    C1 5921   3.037   2.340  10.872  0.1755 -0.1007  0.6990
  393TMC3    C2 5922   2.924   2.270  10.916 -0.3424 -0.1435 -0.2920
  393TMC3    C3 5923   2.914   2.141  10.871  0.2172  0.2067  0.2407
  393TMC3    C4 5924   3.115   2.304  10.767 -0.0427 -0.0281 -0.4295
  393TMC3    C5 5925   3.096   2.172  10.725 -0.6280 -0.7020  0.7087
  393TMC3    C6 5926   3.000   2.090  10.777  1.0132 -0.1033 -0.1219
  393TMC3     C 5927   3.054   2.473  10.930  0.2240 -0.2783  0.5828
  393TMC3     O 5928   2.953   2.534  10.965 -0.0990  0.3121 -0.5095
  393TMC3     H 5929   2.864   2.300  11.001  0.5347  1.3392 -0.2074
  393TMC3    H1 5930   3.184   2.374  10.721  1.1626 -0.1698  1.1626
  393TMC3    H2 5931   2.992   1.991  10.733 -3.4402 -0.2968  1.0692
  393TMC3    C7 5932   3.187   2.118  10.623  0.3314 -0.3202 -0.1890
  393TMC3    C8 5933   2.814   2.051  10.936  0.3111  0.2690  0.4743
  393TMC3    O1 5934   3.138   2.032  10.551 -0.7940  0.3775  0.2287
  393TMC3    O2 5935   2.728   2.102  11.005 -0.5269  0.3323 -0.8337
  394TMC3    C1 5936   4.710   3.108  10.918 -0.1775  0.5096  0.1942
  394TMC3    C2 5937   4.594   3.070  10.854  0.3929 -0.0757 -0.2020
  394TMC3    C3 5938   4.581   3.106  10.727  0.7652 -0.1082  0.0210
  394TMC3    C4 5939   0.072   3.168  10.852  0.4870 -0.5441 -0.0664
  394TMC3    C5 5940   0.055   3.206  10.720  0.1114 -0.2475 -0.1083
  394TMC3    C6 5941   4.679   3.174  10.655 -0.3077  0.3522 -0.6918
  394TMC3     C 5942   4.733   3.044  11.048  0.0794  1.0283 -0.4133
  394TMC3     O 5943   4.633   2.981  11.097 -0.4637 -0.1498 -0.5842
  394TMC3     H 5944   4.514   3.014  10.900 -0.6321  0.6516 -1.0980
  394TMC3    H1 5945   0.156   3.213  10.904 -1.1257 -0.0624  2.1617
  394TMC3    H2 5946   4.666   3.216  10.556  1.5938  3.1967  0.2754
  394TMC3    C7 5947   0.152   3.296  10.661 -0.5174  0.0865 -0.9248
  394TMC3    C8 5948   4.466   3.059  10.653  0.2310  0.6681 -0.2900
  394TMC3    O1 5949   0.110   3.374  10.574 -0.2928 -0.0300  0.1487
  394TMC3    O2 5950   4.377   3.000  10.717 -0.0882  0.2446  0.1568
  395TMC3    C1 5951   4.560   0.809  14.875  0.5102  0.0909  0.4721
  395TMC3    C2 5952   4.542   0.747  14.758 -0.0497  0.5387 -0.2743
  395TMC3    C3 5953   4.638   0.765  14.662  0.2946 -0.6258 -0.0139
  395TMC3    C4 5954   4.667   0.891  14.899  0.7902  0.3333 -0.2568
  395TMC3    C5 5955   0.013   0.913  14.801 -0.1871  0.3189 -0.1671
  395TMC3    C6 5956   0.000   0.856  14.681  0.5910  0.5161  0.0363
  395TMC3     C 5957   4.463   0.776  14.992 -0.0574 -0.0896 -0.2006
  395TMC3     O 5958   4.450   0.864  15.072 -0.4502  1.0319  0.4029
  395TMC3     H 5959   4.455   0.685  14.740 -0.1205  0.2449  1.1122
  395TMC3    H1 5960   4.674   0.947  14.992  0.5149 -0.9180  0.5137
  395TMC3    H2 5961   0.080   0.858  14.607  1.8352 -1.7160  1.3275
  395TMC3    C7 5962   0.094   1.036  14.823  0.1403  0.9142 -0.2220
  395TMC3    C8 5963   4.623   0.722  14.527 -0.1025 -0.1070  0.1513
  395TMC3    O1 5964   0.097   1.084  14.936 -0.1458 -0.1042  0.4855
  395TMC3    O2 5965   4.661   0.801  14.446  0.2500 -0.4345 -0.2846
  396MPD2     C 5966   4.158   1.444  16.947  0.0893 -0.6281 -0.2100
  396MPD2    C1 5967   4.273   1.447  17.022  0.6835 -0.3989 -0.0588
  396MPD2    C2 5968   4.384   1.526  16.995 -0.2804 -0.2591 -0.1188
  396MPD2    C3 5969   4.373   1.614  16.893  0.0783 -0.3711 -0.5324
  396MPD2    C4 5970   4.256   1.612  16.818 -0.2032 -1.1715 -0.5860
  396MPD2    C5 5971   4.148   1.530  16.841  0.5486 -0.3539  0.1645
  396MPD2     H 5972   4.475   1.527  17.054 -0.3620 -0.6450  0.0141
  396MPD2    H1 5973   4.244   1.673  16.729  1.4320  1.5110  1.0223
  396MPD2    H2 5974   4.077   1.373  16.964 -0.3427  0.3777  1.9758
  396MPD2    H3 5975   4.060   1.539  16.777  0.8558  2.3110  0.1382
  396MPD2     N 5976   4.472   1.719  16.874  0.0682  0.3360 -0.0390
  396MPD2    H5 5977   4.551   1.710  16.937  0.2970 -4.9411 -1.0888
  396MPD2    N1 5978   4.274   1.350  17.127  0.2238 -0.3046  0.4972
  396MPD2    H7 5979   4.188   1.300  17.149  0.4109 -1.4981 -1.4648
  397TMC3    C1 5980   4.363   1.215  17.294  0.1613  0.2587 -0.5908
  397TMC3    C2 5981   4.464   1.132  17.267 -0.3189 -0.1314  0.2470
  397TMC3    C3 5982   4.444   1.003  17.231 -0.8860  0.5573 -0.0725
  397TMC3    C4 5983   4.238   1.162  17.287  0.0265  0.0350  0.5837
  397TMC3    C5 5984   4.220   1.031  17.265 -0.0903 -0.2584 -0.4694
  397TMC3    C6 5985   4.324   0.945  17.231  0.1843  0.7303 -0.3500
  397TMC3     C 5986   4.380   1.329  17.217 -0.1473 -0.2442 -0.5643
  397TMC3     O 5987   4.487   1.384  17.221 -0.8278 -0.6534  0.3235
  397TMC3     H 5988   4.563   1.170  17.289 -0.1288  0.6834 -2.0898
  397TMC3    H1 5989   4.153   1.224  17.313  1.0550  1.3960  0.6950
  397TMC3    H2 5990   4.308   0.840  17.209  1.5805  0.6211 -0.8109
  397TMC3    C7 5991   4.110   0.964  17.329  0.0865  0.0431 -0.6148
  397TMC3    C8 5992   4.557   0.909  17.232  0.5681 -0.5854  0.6859
  397TMC3    O1 5993   4.088   0.851  17.291 -0.6772  0.8319  0.1232
  397TMC3    O2 5994   4.544   0.787  17.256  0.6215  0.0705  0.1256
  398MPD2     C 5995   2.358   3.422   0.109  0.3148 -0.4424 -0.1084
  398MPD2    C1 5996   2.440   3.345   0.187  0.6081  0.7569 -0.0973
  398MPD2    C2 5997   2.529   3.415   0.264 -0.2913  0.5103 -0.0816
  398MPD2    C3 5998   2.544   3.558   0.257  0.1869  0.3216  0.1751
  398MPD2    C4 5999   2.445   3.629   0.185  0.4255 -0.5216 -0.1245
  398MPD2    C5 6000   2.346   3.558   0.123  0.1197 -0.2917 -0.4761
  398MPD2     H 6001   2.593   3.354   0.327  1.8586  0.4695 -2.3202
  398MPD2    H1 6002   2.428   3.736   0.195  1.2808 -0.5032  1.0889
  398MPD2    H2 6003   2.281   3.372   0.051  0.9865 -1.7388  0.1309
  398MPD2    H3 6004   2.271   3.605   0.061  1.0553  0.5755 -0.9497
  398MPD2     N 6005   2.631   3.627   0.348  0.5290  1.1016 -0.1461
  398MPD2    H5 6006   2.700   3.573   0.398 -1.2722 -1.4369 -0.3911
  398MPD2    N1 6007   2.439   3.198   0.193 -0.2756 -0.3447 -0.2282
  398MPD2    H7 6008   2.507   3.148   0.249 -0.8585 -0.9852 -0.0847
  399TMC3    C1 6009   2.401   2.976   0.134 -0.2810  0.8846  0.0781
  399TMC3    C2 6010   2.428   2.936   0.262  0.6470 -0.0927  0.0280
  399TMC3    C3 6011   2.413   2.797   0.291  0.1275 -0.2820  0.3400
  399TMC3    C4 6012   2.365   2.886   0.033 -0.5215 -0.1109  0.1764
  399TMC3    C5 6013   2.368   2.750   0.065  0.9719 -0.1906 -0.3963
  399TMC3    C6 6014   2.393   2.705   0.188 -0.0582 -0.0790 -0.6360
  399TMC3     C 6015   2.364   3.115   0.111 -0.6631 -0.0447 -0.7430
  399TMC3     O 6016   2.289   3.137   0.016 -0.4569  0.0026  0.2956
  399TMC3     H 6017   2.441   3.005   0.345 -1.6732  0.6411 -0.2360
  399TMC3    H1 6018   2.335   2.915  17.690 -1.5158  2.2348  1.1566
  399TMC3    H2 6019   2.385   2.599   0.210 -0.6699 -0.0024 -0.4924
  399TMC3    C7 6020   2.348   2.654  17.718 -0.0465  0.0766  0.3302
  399TMC3    C8 6021   2.400   2.754   0.427  0.7144 -0.2242  0.4945
  399TMC3    O1 6022   2.294   2.549  17.749 -0.2402 -0.3230  0.4590
  399TMC3    O2 6023   2.462   2.816   0.511 -0.1421  0.3079  0.1613
  400TMC3    C1 6024   0.974   0.815  16.822  0.1317  0.2527 -0.8606
  400TMC3    C2 6025   0.879   0.869  16.737 -0.7514  0.5756 -0.0640
  400TMC3    C3 6026   0.847   1.000  16.755  0.3647  0.0852  0.8260
  400TMC3    C4 6027   1.027   0.898  16.916 -0.7525 -0.2529  0.4734
  400TMC3    C5 6028   0.991   1.028  16.932  0.6272 -0.3524 -0.3905
  400TMC3    C6 6029   0.888   1.081  16.858  0.3173 -0.2495  0.1432
  400TMC3     C 6030   1.004   0.672  16.810 -0.4543 -0.3835  0.2319
  400TMC3     O 6031   0.968   0.617  16.705 -0.2954 -0.3371 -0.0802
  400TMC3     H 6032   0.864   0.819  16.642  0.1227 -1.2621  0.7584
  400TMC3    H1 6033   1.113   0.856  16.967 -0.4228 -0.9056 -0.6046
  400TMC3    H2 6034   0.868   1.187  16.855  3.1724  0.3509  2.0019
  400TMC3    C7 6035   1.082   1.112  17.001 -0.5562 -0.6101 -0.6100
  400TMC3    C8 6036   0.740   1.059  16.674  0.3990 -0.6644  0.0501
  400TMC3    O1 6037   1.196   1.076  17.000  0.2716  0.4017 -0.0346
  400TMC3    O2 6038   0.726   1.182  16.665 -0.5179  0.3480 -0.1434
  401MPD2     C 6039   3.938   0.124   1.211  0.4148 -0.5251 -0.0019
  401MPD2    C1 6040   4.021   0.022   1.230  0.6432  0.6172  0.1562
  401MPD2    C2 6041   4.001   4.644   1.156  0.2821  0.1972 -0.2095
  401MPD2    C3 6042   3.904   4.630   1.061  0.5273  1.4525  0.2975
  401MPD2    C4 6043   3.810   4.731   1.048  0.3589 -0.2068  0.0187
  401MPD2    C5 6044   3.842   0.109   1.114  0.2242 -0.1397  0.4140
  401MPD2     H 6045   4.061   4.555   1.173  0.6455  0.9726  2.4959
  401MPD2    H1 6046   3.718   4.732   0.990  1.4293 -0.3240 -1.6740
  401MPD2    H2 6047   3.941   0.219   1.264  0.9832 -0.3133 -0.4035
  401MPD2    H3 6048   3.779   0.193   1.087  1.6779  0.1304 -2.1737
  401MPD2     N 6049   3.896   4.505   1.002 -0.2476  0.4960  0.6277
  401MPD2    H5 6050   3.964   4.436   1.032  1.8883  3.0273  1.6327
  401MPD2    N1 6051   4.128   0.034   1.316  0.5679 -0.3840  0.0441
  401MPD2    H7 6052   4.175   4.691   1.350 -0.7497 -1.4145 -0.6873
  402TMC3    C1 6053   3.802   4.332   0.875  0.3834  0.1670 -1.0309
  402TMC3    C2 6054   3.880   4.246   0.944  0.8469 -0.4111 -0.1804
  402TMC3    C3 6055   3.909   4.127   0.874  0.4742  0.6146  0.0169
  402TMC3    C4 6056   3.749   4.304   0.750 -0.0641  0.0630  0.9923
  402TMC3    C5 6057   3.801   4.199   0.674  0.2946  0.2294  0.1309
  402TMC3    C6 6058   3.889   4.110   0.734  0.0993 -0.1882  0.1628
  402TMC3     C 6059   3.802   4.472   0.905  0.2321  0.0141  0.5733
  402TMC3     O 6060   3.734   4.554   0.837 -0.0339  0.5372 -0.4394
  402TMC3     H 6061   3.896   4.265   1.049  2.2848  1.2909 -0.6963
  402TMC3    H1 6062   3.664   4.363   0.717  0.9079  0.8942 -0.0200
  402TMC3    H2 6063   3.930   4.022   0.686  1.0305  0.2551  0.1661
  402TMC3    C7 6064   3.818   4.230   0.531  0.5232 -0.3537  0.5121
  402TMC3    C8 6065   3.992   4.026   0.942  0.0526  0.2723 -0.4295
  402TMC3    O1 6066   3.786   4.344   0.500  0.2519 -0.2898 -0.2256
  402TMC3    O2 6067   4.055   3.948   0.871 -0.1069  0.5178 -0.0672
  403MPD2     C 6068   2.360   3.101  13.997 -0.7648 -0.2972 -0.1884
  403MPD2    C1 6069   2.436   2.989  13.990 -0.4254  0.2897  0.3077
  403MPD2    C2 6070   2.562   2.994  14.037  0.1119  0.3763 -0.7161
  403MPD2    C3 6071   2.619   3.116  14.060  0.0681 -0.1074 -1.0015
  403MPD2    C4 6072   2.546   3.233  14.032 -0.0378 -0.7898 -0.2708
  403MPD2    C5 6073   2.416   3.224  14.019 -0.5550  0.1990  0.5901
  403MPD2     H 6074   2.611   2.902  14.065 -2.6038 -0.4750  1.2070
  403MPD2    H1 6075   2.590   3.332  14.023 -2.1871  0.1696 -0.1379
  403MPD2    H2 6076   2.255   3.102  13.970 -0.3581  1.6390 -1.6627
  403MPD2    H3 6077   2.352   3.311  14.017  1.4761  1.6975  0.2850
  403MPD2     N 6078   2.760   3.112  14.080 -0.1696 -0.5618  0.2835
  403MPD2    H5 6079   2.802   3.021  14.097  0.1973 -0.9063 -2.4879
  403MPD2    N1 6080   2.385   2.858  13.970 -0.8441  0.4014  0.0358
  403MPD2    H7 6081   2.450   2.780  13.971 -0.0050  1.0671 -1.6853
  404TMC3    C1 6082   2.236   2.686  13.923 -0.2638  0.2290 -0.4854
  404TMC3    C2 6083   2.260   2.611  14.036  0.6741 -0.1584 -0.1975
  404TMC3    C3 6084   2.359   2.517  14.024  0.2766 -0.1557 -0.1304
  404TMC3    C4 6085   2.258   2.638  13.803 -0.9869 -0.2323  0.5329
  404TMC3    C5 6086   2.345   2.532  13.788 -0.8046 -0.7444 -0.0001
  404TMC3    C6 6087   2.400   2.479  13.900  0.2489 -0.1604  0.4198
  404TMC3     C 6088   2.256   2.829  13.936  0.2042 -0.3784 -0.0228
  404TMC3     O 6089   2.159   2.903  13.909 -0.5551  0.4846 -0.0861
  404TMC3     H 6090   2.250   2.660  14.132  2.3252  1.2656 -0.7372
  404TMC3    H1 6091   2.240   2.694  13.712  0.7479  0.7107  0.7839
  404TMC3    H2 6092   2.455   2.386  13.885 -0.3193 -0.6330  1.2554
  404TMC3    C7 6093   2.401   2.489  13.660  0.9855  0.2479  0.4463
  404TMC3    C8 6094   2.413   2.441  14.131  0.2313  0.6555 -0.1858
  404TMC3    O1 6095   2.509   2.425  13.661 -0.2365 -0.1352 -0.3711
  404TMC3    O2 6096   2.503   2.361  14.105  0.1717  0.1358  0.3145
  405MPD2     C 6097   2.041   3.156  14.479  0.7482  0.1034 -0.3436
  405MPD2    C1 6098   1.921   3.097  14.486  0.8727  0.0454 -0.2235
  405MPD2    C2 6099   1.809   3.180  14.480  0.0303  0.2498  0.0061
  405MPD2    C3 6100   1.826   3.315  14.451  0.5500  0.6319  0.6436
  405MPD2    C4 6101   1.950   3.364  14.424 -0.7209  0.1570  0.3791
  405MPD2    C5 6102   2.060   3.284  14.443 -0.1023 -0.5825 -1.0814
  405MPD2     H 6103   1.711   3.140  14.501  0.1321  0.2747  0.5272
  405MPD2    H1 6104   1.973   3.460  14.379 -1.9967  0.1615 -0.2493
  405MPD2    H2 6105   2.127   3.091  14.488  0.9765  0.2521 -1.3962
  405MPD2    H3 6106   2.160   3.327  14.435  0.7092 -2.2842  0.0334
  405MPD2     N 6107   1.712   3.400  14.455  0.2415 -0.0459  0.1214
  405MPD2    H5 6108   1.631   3.343  14.476 -0.9381  0.8888 -1.7848
  405MPD2    N1 6109   1.909   2.960  14.501  0.3776  0.5055 -0.4720
  405MPD2    H7 6110   1.997   2.913  14.524 -0.2247 -0.5642 -0.3292
  406TMC3    C1 6111   1.551   3.720  14.688  0.0680  0.0113 -0.0339
  406TMC3    C2 6112   1.454   3.636  14.744 -0.1887  0.2502 -0.5080
  406TMC3    C3 6113   1.430   3.524  14.664 -0.0796  0.0432  0.0229
  406TMC3    C4 6114   1.618   3.707  14.572 -0.4558  0.3867  0.3951
  406TMC3    C5 6115   1.588   3.589  14.508  0.0231 -0.4220 -0.1118
  406TMC3    C6 6116   1.504   3.501  14.556  0.7801 -0.7406 -0.1498
  406TMC3     C 6117   1.587   3.843  14.751  0.8274 -0.1237  0.4867
  406TMC3     O 6118   1.602   3.937  14.674 -0.1908 -0.1834  0.3362
  406TMC3     H 6119   1.397   3.654  14.835  1.0694 -1.6194  0.6601
  406TMC3    H1 6120   1.687   3.781  14.533 -1.1709  0.9529  0.1882
  406TMC3    H2 6121   1.469   3.421  14.492  1.0827 -0.5785 -0.5167
  406TMC3    C7 6122   1.706   3.538  14.443  0.1986 -0.5535  0.1717
  406TMC3    C8 6123   1.370   3.413  14.740  0.3100 -0.5811 -0.1667
  406TMC3    O1 6124   1.795   3.618  14.422 -0.6225 -0.2434  0.3955
  406TMC3    O2 6125   1.304   3.442  14.842 -0.4423 -0.1845 -0.1179
  407MPD2     C 6126   0.079   0.133  10.265 -0.0424  0.4123 -0.8559
  407MPD2    C1 6127   0.061   0.270  10.240  0.3296  0.1672  0.5899
  407MPD2    C2 6128   0.064   0.358  10.348  0.9842  0.1075 -0.2276
  407MPD2    C3 6129   0.097   0.317  10.477 -0.0786 -0.4400  0.0633
  407MPD2    C4 6130   0.125   0.184  10.495  0.5292 -0.6451 -0.2212
  407MPD2    C5 6131   0.108   0.096  10.393 -0.1743 -0.4571  0.4372
  407MPD2     H 6132   0.032   0.460  10.334 -0.5270 -0.3082  0.1074
  407MPD2    H1 6133   0.140   0.144  10.594  0.6607 -1.3846 -0.5372
  407MPD2    H2 6134   0.058   0.048  10.201 -2.0281  0.4533 -0.2730
  407MPD2    H3 6135   0.125   4.730  10.407  2.1190 -0.2178 -0.4490
  407MPD2     N 6136   0.109   0.405  10.587  0.1141 -0.1460  0.1022
  407MPD2    H5 6137   0.163   0.361  10.661  2.0742  0.2207 -1.1287
  407MPD2    N1 6138   0.053   0.322  10.110  0.2281  0.2879 -0.8731
  407MPD2    H7 6139   0.050   0.423  10.101 -0.5106  0.5468  2.0904
  408TMC3    C1 6140   0.068   0.325   9.873 -0.7660  0.0392 -0.3016
  408TMC3    C2 6141   0.140   0.293   9.765  0.1064 -0.2656 -0.3655
  408TMC3    C3 6142   0.114   0.334   9.639 -0.0936  0.6346  0.1986
  408TMC3    C4 6143   4.709   0.420   9.851 -0.4821  0.3848 -0.2364
  408TMC3    C5 6144   4.684   0.465   9.723 -0.6769  0.2459  0.3309
  408TMC3    C6 6145   0.019   0.424   9.616 -0.3798 -0.3409  0.1479
  408TMC3     C 6146   0.073   0.246   9.992 -0.5856  0.1133  0.4726
  408TMC3     O 6147   0.142   0.141   9.982 -0.1315  0.2302 -0.5493
  408TMC3     H 6148   0.213   0.213   9.770  1.0162  0.7360  2.1917
  408TMC3    H1 6149   4.647   0.454   9.934  1.1275  0.8730  0.7665
  408TMC3    H2 6150   0.010   0.469   9.518  1.1588 -0.4779 -0.0660
  408TMC3    C7 6151   4.617   0.587   9.717  0.7654 -0.3709  0.5494
  408TMC3    C8 6152   0.220   0.308   9.539  0.0673 -0.4210  0.2781
  408TMC3    O1 6153   4.627   0.655   9.820  0.0272 -0.5039 -0.1101
  408TMC3    O2 6154   0.196   0.330   9.421  0.0037  0.4171  0.4443
  409MPD2     C 6155   4.307   0.664  16.971  0.4582  0.7575  0.0265
  409MPD2    C1 6156   4.427   0.603  16.984  0.0206 -0.2602 -0.8388
  409MPD2    C2 6157   4.536   0.659  16.923 -0.1769  0.7000 -0.7119
  409MPD2    C3 6158   4.526   0.785  16.871 -0.3803  0.1363  0.2294
  409MPD2    C4 6159   4.404   0.852  16.873 -0.1610  0.0044 -0.4070
  409MPD2    C5 6160   4.295   0.789  16.924 -0.4239  0.2854 -0.3677
  409MPD2     H 6161   4.627   0.605  16.944  0.8779  2.7682  0.0802
  409MPD2    H1 6162   4.397   0.951  16.829  1.8170 -0.2138 -1.1794
  409MPD2    H2 6163   4.211   0.623  16.999  1.3214  0.4454  2.5066
  409MPD2    H3 6164   4.195   0.831  16.920  0.0532  1.5052  0.3601
  409MPD2     N 6165   4.644   0.848  16.830  0.0096 -0.0838  0.3364
  409MPD2    H5 6166   4.633   0.947  16.810  1.7839 -0.3122 -1.6900
  409MPD2    N1 6167   4.446   0.482  17.053  0.6929  0.0193  0.6252
  409MPD2    H7 6168   4.534   0.435  17.033  0.1518 -0.7395  0.0055
  410TMC3    C1 6169   0.133   0.896  16.793  0.2946  0.2763  0.0313
  410TMC3    C2 6170   0.243   0.877  16.868 -0.2102 -0.0852  0.0629
  410TMC3    C3 6171   0.341   0.968  16.855  0.4418  0.2991  0.4496
  410TMC3    C4 6172   0.119   0.994  16.704  0.1240 -0.1157 -0.3589
  410TMC3    C5 6173   0.227   1.071  16.682 -0.6064  0.6005 -0.8177
  410TMC3    C6 6174   0.342   1.066  16.760 -0.2676 -0.1417 -0.0492
  410TMC3     C 6175   0.032   0.793  16.817 -0.1607 -0.5432 -0.2108
  410TMC3     O 6176   0.067   0.676  16.825 -0.1735  0.2269 -0.2364
  410TMC3     H 6177   0.238   0.807  16.951 -1.4117  0.9361  0.8403
  410TMC3    H1 6178   0.029   1.003  16.644  0.5494  2.1138 -0.6584
  410TMC3    H2 6179   0.436   1.118  16.742 -1.0772  1.6030  0.7311
  410TMC3    C7 6180   0.202   1.184  16.590 -1.2281 -0.6371 -0.2214
  410TMC3    C8 6181   0.461   0.956  16.936 -0.9757  0.7617 -0.8203
  410TMC3    O1 6182   0.105   1.167  16.522  0.1001  0.3496 -0.5681
  410TMC3    O2 6183   0.539   1.051  16.949  0.6506  0.4313 -0.0803
  411MPD2     C 6184   0.106   1.495  14.524  0.6422  0.3281  0.3898
  411MPD2    C1 6185   0.094   1.579  14.634 -0.1006  0.0416 -0.7871
  411MPD2    C2 6186   4.724   1.551  14.716  0.3085  0.2497 -0.6417
  411MPD2    C3 6187   4.641   1.437  14.697 -0.1032 -0.3107 -0.1861
  411MPD2    C4 6188   4.654   1.366  14.581  0.0909  0.4634 -0.4529
  411MPD2    C5 6189   0.016   1.392  14.502  0.8177 -0.4570  0.6631
  411MPD2     H 6190   4.707   1.611  14.804  0.0917  0.6388 -0.9504
  411MPD2    H1 6191   4.599   1.275  14.561 -1.1249  1.4149 -1.3939
  411MPD2    H2 6192   0.195   1.511  14.464 -0.4544 -1.4037 -1.7116
  411MPD2    H3 6193   0.026   1.331  14.413 -1.1129  0.4082 -0.1430
  411MPD2     N 6194   4.545   1.384  14.786 -0.1522  0.0155 -0.5649
  411MPD2    H5 6195   4.508   1.290  14.779  1.4198 -0.6091 -0.5670
  411MPD2    N1 6196   0.165   1.699  14.630  0.6507 -0.1726  0.4412
  411MPD2    H7 6197   0.207   1.718  14.540  1.0604  0.8601  0.8472
  412TMC3    C1 6198   4.408   1.353  14.970  0.5121 -0.7277 -0.3200
  412TMC3    C2 6199   4.285   1.412  14.948  0.5409 -0.0896  0.1087
  412TMC3    C3 6200   4.175   1.345  14.909  0.0120  0.2740  0.3422
  412TMC3    C4 6201   4.419   1.220  14.943  0.2196 -0.4976 -0.6013
  412TMC3    C5 6202   4.303   1.151  14.903  0.6889 -1.1560 -0.2634
  412TMC3    C6 6203   4.185   1.206  14.896  0.0664  0.4812 -0.0191
  412TMC3     C 6204   4.517   1.433  14.910 -0.4757  0.0806  0.4582
  412TMC3     O 6205   4.527   1.552  14.938  0.0703 -0.3407 -0.4230
  412TMC3     H 6206   4.286   1.521  14.951 -1.9677 -0.1184  1.5155
  412TMC3    H1 6207   4.514   1.170  14.957  1.1963  1.7760  0.9755
  412TMC3    H2 6208   4.097   1.148  14.873  1.9329 -1.4571 -2.2267
  412TMC3    C7 6209   4.345   1.094  14.780 -0.7302 -0.1557 -0.1110
  412TMC3    C8 6210   4.128   1.404  14.783 -0.0062 -0.0270 -0.6271
  412TMC3    O1 6211   4.459   1.114  14.744 -0.1196  0.3106 -0.1809
  412TMC3    O2 6212   4.195   1.498  14.737  0.0672 -0.0408 -0.0708
  413MPD2     C 6213   2.424   4.294  15.852 -0.1087  0.3098  0.1642
  413MPD2    C1 6214   2.415   4.350  15.726 -0.3966  0.0757  0.8867
  413MPD2    C2 6215   2.464   4.267  15.622 -0.0562 -0.3557 -0.3658
  413MPD2    C3 6216   2.508   4.137  15.646 -0.4085  0.2497  0.5764
  413MPD2    C4 6217   2.534   4.095  15.777  0.1074  0.5963  0.5193
  413MPD2    C5 6218   2.482   4.171  15.877 -0.5344  0.2655 -0.3990
  413MPD2     H 6219   2.453   4.294  15.518 -3.0687  1.4868  0.4440
  413MPD2    H1 6220   2.603   4.015  15.801 -3.3212 -2.9328 -1.4424
  413MPD2    H2 6221   2.392   4.344  15.943  0.3633  0.8871  0.0125
  413MPD2    H3 6222   2.487   4.128  15.977  0.1142 -0.2005 -0.6355
  413MPD2     N 6223   2.559   4.061  15.530  0.0547 -0.3616  0.1218
  413MPD2    H5 6224   2.572   4.117  15.446 -1.0779 -3.0737 -1.8774
  413MPD2    N1 6225   2.341   4.466  15.702  0.5312 -0.1262 -0.0122
  413MPD2    H7 6226   2.323   4.520  15.786  0.2514 -0.3467  0.0708
  414TMC3    C1 6227   2.665   3.893  15.400  0.1691 -0.4385 -0.0168
  414TMC3    C2 6228   2.640   3.764  15.358  0.8524  0.0041 -0.1070
  414TMC3    C3 6229   2.714   3.723  15.250  1.0432 -0.1546 -0.3910
  414TMC3    C4 6230   2.762   3.970  15.348  0.3169 -0.2752 -0.6043
  414TMC3    C5 6231   2.843   3.923  15.248 -0.8884  0.5097 -0.5566
  414TMC3    C6 6232   2.807   3.803  15.191  0.0917  0.0364  0.3407
  414TMC3     C 6233   2.598   3.929  15.528 -0.0153  0.8899 -0.2808
  414TMC3     O 6234   2.579   3.836  15.610  0.5132  0.0741  0.8375
  414TMC3     H 6235   2.561   3.704  15.402  1.2319 -0.2813  0.1925
  414TMC3    H1 6236   2.794   4.061  15.397 -0.9923 -0.9353  1.4760
  414TMC3    H2 6237   2.876   3.756  15.121  0.8369  1.2471  0.2645
  414TMC3    C7 6238   2.961   3.992  15.202  0.5441  0.8178  0.2204
  414TMC3    C8 6239   2.686   3.592  15.187 -0.0257  0.1957 -0.7291
  414TMC3    O1 6240   3.018   4.058  15.287  0.3727 -0.4811 -0.1203
  414TMC3    O2 6241   2.656   3.503  15.264  0.5757  0.4469 -0.2020
  415TMC3    C1 6242   2.255   2.389  10.524 -0.5281  0.3543 -0.8105
  415TMC3    C2 6243   2.337   2.499  10.491 -1.1869 -0.6655  0.2310
  415TMC3    C3 6244   2.300   2.570  10.383  0.1321 -0.2959 -0.5274
  415TMC3    C4 6245   2.131   2.373  10.477  0.3920 -0.4768 -0.0989
  415TMC3    C5 6246   2.095   2.461  10.381  1.0868  0.3541  0.3379
  415TMC3    C6 6247   2.176   2.553  10.324  0.6801  0.4599  0.3524
  415TMC3     C 6248   2.311   2.269  10.562  0.8107 -0.6020 -0.2313
  415TMC3     O 6249   2.239   2.174  10.553 -0.1475  0.6441  0.2485
  415TMC3     H 6250   2.430   2.518  10.542 -0.5284  0.5816 -1.4283
  415TMC3    H1 6251   2.065   2.292  10.507 -1.0998  1.1770  1.1177
  415TMC3    H2 6252   2.148   2.617  10.242 -0.0091  0.1981  0.3875
  415TMC3    C7 6253   1.962   2.446  10.314  0.0602 -0.8790 -0.1693
  415TMC3    C8 6254   2.399   2.598  10.280 -0.8283 -0.0527  0.7247
  415TMC3    O1 6255   1.901   2.548  10.278 -0.3604 -0.3929  0.2697
  415TMC3    O2 6256   2.358   2.620  10.166  0.3431  0.1258 -0.5419
  416MPD2     C 6257   4.167   1.081  11.859 -0.1456 -0.0861 -0.7043
  416MPD2    C1 6258   4.058   0.998  11.868  0.1645  0.5891 -0.2253
  416MPD2    C2 6259   4.052   0.870  11.816  0.0589 -0.0898  0.1443
  416MPD2    C3 6260   4.163   0.825  11.752  0.3297  0.2020  0.2318
  416MPD2    C4 6261   4.277   0.897  11.759 -0.5881 -0.5432 -0.7038
  416MPD2    C5 6262   4.279   1.026  11.802 -0.1691 -0.0579  0.7132
  416MPD2     H 6263   3.962   0.810  11.822  0.7169 -1.1599 -0.6838
  416MPD2    H1 6264   4.364   0.866  11.703 -0.5021  0.5476 -1.1736
  416MPD2    H2 6265   4.167   1.181  11.900 -1.3871 -0.1570 -0.5256
  416MPD2    H3 6266   4.374   1.079  11.799  0.9868 -2.2456 -1.1852
  416MPD2     N 6267   4.168   0.711  11.676  0.8203 -0.4165 -0.0080
  416MPD2    H5 6268   4.263   0.691  11.646  0.8198 -0.8435  0.2722
  416MPD2    N1 6269   3.952   1.060  11.932 -0.4979 -0.0416 -0.1436
  416MPD2    H7 6270   3.964   1.158  11.956 -0.8287  0.2344 -1.0848
  417TMC3    C1 6271   3.738   1.109  12.007  0.0843  0.6018  0.1291
  417TMC3    C2 6272   3.799   1.184  12.100 -0.7913 -0.4197  0.6661
  417TMC3    C3 6273   3.735   1.301  12.143 -0.0990 -0.0137 -0.1051
  417TMC3    C4 6274   3.626   1.148  11.947  0.2611  0.3186  0.3102
  417TMC3    C5 6275   3.564   1.271  11.988 -0.2881 -0.0252 -0.4541
  417TMC3    C6 6276   3.619   1.342  12.093  0.2974 -0.1733 -0.3725
  417TMC3     C 6277   3.819   1.016  11.933  0.3647  0.1306  0.4833
  417TMC3     O 6278   3.769   0.926  11.872 -0.1778 -0.3487  0.4273
  417TMC3     H 6279   3.886   1.143  12.150  0.0856  1.6847  0.8313
  417TMC3    H1 6280   3.585   1.089  11.865  2.4330 -1.4650  0.5150
  417TMC3    H2 6281   3.570   1.435  12.121 -1.7965 -1.3401 -0.1493
  417TMC3    C7 6282   3.473   1.342  11.901 -0.3389  0.7089 -0.1275
  417TMC3    C8 6283   3.788   1.367  12.261  0.3465 -0.2516  0.0737
  417TMC3    O1 6284   3.476   1.463  11.901 -0.3052 -0.2293  0.1939
  417TMC3    O2 6285   3.702   1.436  12.321  0.2984 -0.5075 -0.1692
  418TMC3    C1 6286   2.964   3.928   0.470  0.2564 -0.4254  0.2606
  418TMC3    C2 6287   2.841   3.907   0.409 -0.4872 -0.5253 -0.0500
  418TMC3    C3 6288   2.770   3.794   0.438 -0.3257 -0.0276 -0.2960
  418TMC3    C4 6289   3.016   3.839   0.563 -0.3428 -0.5577  0.1759
  418TMC3    C5 6290   2.931   3.735   0.599 -0.2245  0.0945  0.8061
  418TMC3    C6 6291   2.811   3.712   0.540  0.9654 -0.2632  0.6506
  418TMC3     C 6292   3.056   3.993   0.388  0.1979 -0.0064  0.1553
  418TMC3     O 6293   3.024   4.099   0.334  0.2101  0.2124  0.0027
  418TMC3     H 6294   2.806   3.973   0.329  0.6295  0.4645  0.2864
  418TMC3    H1 6295   3.119   3.836   0.598 -0.8585 -0.9350  1.6358
  418TMC3    H2 6296   2.752   3.624   0.564  0.0285 -0.2975 -1.7513
  418TMC3    C7 6297   2.980   3.626   0.673  0.2708 -0.0462  0.4889
  418TMC3    C8 6298   2.651   3.764   0.356  0.1241  0.2123  0.7602
  418TMC3    O1 6299   2.925   3.520   0.657 -0.3474  0.2356  0.1013
  418TMC3    O2 6300   2.595   3.851   0.290  0.0422 -0.4104  0.3244
  419MPD2     C 6301   1.268   1.519  12.657 -0.7165  0.7394  0.2636
  419MPD2    C1 6302   1.161   1.610  12.655  0.4607  0.0323 -0.2901
  419MPD2    C2 6303   1.111   1.644  12.779  0.0865 -0.1543 -0.3917
  419MPD2    C3 6304   1.148   1.592  12.900  0.2096 -0.9242 -0.1215
  419MPD2    C4 6305   1.243   1.498  12.895  0.2805  0.0723  0.3504
  419MPD2    C5 6306   1.305   1.461  12.776  0.5347  0.5070 -0.0888
  419MPD2     H 6307   1.029   1.714  12.791  0.8656  0.3899  1.8159
  419MPD2    H1 6308   1.296   1.453  12.978  1.0450  0.8453  0.2823
  419MPD2    H2 6309   1.322   1.488  12.568  1.2372  2.2214  0.9242
  419MPD2    H3 6310   1.383   1.387  12.770  0.3373  0.2723  0.2211
  419MPD2     N 6311   1.090   1.650  13.016 -0.0821  0.6066  0.0084
  419MPD2    H5 6312   1.031   1.732  13.002 -0.9971 -0.1328 -0.3907
  419MPD2    N1 6313   1.113   1.665  12.537 -0.6174  0.2313  0.0602
  419MPD2    H7 6314   1.052   1.744  12.552 -0.1173  0.7407 -0.5717
  420TMC3    C1 6315   1.029   1.684  13.241  0.0588  0.0000  0.0682
  420TMC3    C2 6316   0.908   1.734  13.195  0.0459  0.1006  0.1742
  420TMC3    C3 6317   0.829   1.796  13.287 -0.0935 -0.0912 -0.3532
  420TMC3    C4 6318   1.073   1.700  13.368  0.3120  0.0284 -0.7720
  420TMC3    C5 6319   0.979   1.740  13.462 -0.4572 -0.6358  0.2016
  420TMC3    C6 6320   0.853   1.788  13.421 -0.4544 -0.0699 -0.2763
  420TMC3     C 6321   1.122   1.612  13.149  0.2455 -0.2906  0.2303
  420TMC3     O 6322   1.221   1.556  13.200 -0.6140  0.8079 -0.0424
  420TMC3     H 6323   0.871   1.739  13.094  1.3595 -2.8581 -0.4407
  420TMC3    H1 6324   1.172   1.660  13.390  0.0875 -1.2153 -2.0217
  420TMC3    H2 6325   0.781   1.829  13.491  1.0211  0.9230  0.6853
  420TMC3    C7 6326   0.977   1.666  13.586  1.1579  0.6868 -0.9797
  420TMC3    C8 6327   0.715   1.866  13.234  0.5332  0.9117  0.0938
  420TMC3    O1 6328   1.088   1.641  13.631  0.5281  0.2410  0.2928
  420TMC3    O2 6329   0.664   1.831  13.127 -0.0935 -0.5267  0.1648
  421TMC3    C1 6330   2.984   3.202  14.067  0.4769 -0.3503  0.1831
  421TMC3    C2 6331   3.058   3.317  14.059  0.3257  0.1717 -0.3031
  421TMC3    C3 6332   3.185   3.313  14.109 -0.1135  0.6167  0.3272
  421TMC3    C4 6333   3.035   3.083  14.112  0.0796  0.2872 -0.4419
  421TMC3    C5 6334   3.172   3.073  14.136  0.0882  0.2307 -0.1240
  421TMC3    C6 6335   3.251   3.190  14.135  0.8016 -0.4518 -0.0775
  421TMC3     C 6336   2.841   3.220  14.063 -0.0037 -0.7179 -1.0378
  421TMC3     O 6337   2.812   3.339  14.043 -0.1839  0.2314  0.0417
  421TMC3     H 6338   3.017   3.413  14.029  1.3257  0.9627  0.8527
  421TMC3    H1 6339   2.979   2.992  14.093 -1.6618  0.9018  1.6425
  421TMC3    H2 6340   3.357   3.197  14.154  0.7278  0.4244  0.0122
  421TMC3    C7 6341   3.241   2.956  14.188  0.2963 -0.1166 -0.4586
  421TMC3    C8 6342   3.263   3.435  14.131 -0.1108 -0.0105 -0.7474
  421TMC3    O1 6343   3.363   2.963  14.200 -0.2700  0.1377  0.3988
  421TMC3    O2 6344   3.376   3.438  14.177  0.0076 -0.1751 -0.3653
  422TMC3    C1 6345   0.448   4.347  13.171  0.4479  0.6398  0.0131
  422TMC3    C2 6346   0.403   4.452  13.252  0.1248 -0.3571  0.3864
  422TMC3    C3 6347   0.270   4.495  13.235  0.2889 -1.1001  0.3250
  422TMC3    C4 6348   0.367   4.284  13.084  0.8231 -0.3072 -0.3063
  422TMC3    C5 6349   0.239   4.329  13.074  0.2316 -0.8908  0.9441
  422TMC3    C6 6350   0.188   4.431  13.146 -0.7614  0.8546  0.0887
  422TMC3     C 6351   0.586   4.305  13.196 -0.0590  0.2331  0.4359
  422TMC3     O 6352   0.657   4.399  13.240 -0.7625  0.7981 -0.2099
  422TMC3     H 6353   0.478   4.503  13.312  1.6302 -0.6634 -1.2127
  422TMC3    H1 6354   0.395   4.189  13.040  1.7791 -0.3859  0.4439
  422TMC3    H2 6355   0.085   4.462  13.130 -0.6283  1.7765  0.9834
  422TMC3    C7 6356   0.153   4.263  12.977  0.3987 -0.0718 -0.6864
  422TMC3    C8 6357   0.250   4.638  13.269 -0.1900  0.0726 -0.6061
  422TMC3    O1 6358   0.211   4.207  12.886  0.3872 -0.4991  0.1054
  422TMC3    O2 6359   0.351   4.694  13.305  0.2318 -0.1526 -0.2202
  423MPD2     C 6360   1.492   0.506   0.680 -0.2844 -0.7366  0.0335
  423MPD2    C1 6361   1.628   0.499   0.683 -0.1913  0.4975  0.3471
  423MPD2    C2 6362   1.694   0.438   0.582 -0.2048  0.2667  0.0387
  423MPD2    C3 6363   1.624   0.377   0.479  0.2474  0.6975  0.2106
  423MPD2    C4 6364   1.485   0.393   0.471 -0.4395  0.5771 -0.3340
  423MPD2    C5 6365   1.423   0.463   0.567  0.5846 -0.5563  0.4055
  423MPD2     H 6366   1.802   0.428   0.585 -0.1617  0.7129 -0.0495
  423MPD2    H1 6367   1.421   0.350   0.395  1.3680  0.2291 -1.6681
  423MPD2    H2 6368   1.436   0.545   0.764  0.0252 -0.2854  0.0304
  423MPD2    H3 6369   1.316   0.474   0.553  0.8453 -1.0649 -2.1499
  423MPD2     N 6370   1.693   0.311   0.382 -0.6000  0.2108  0.2228
  423MPD2    H5 6371   1.636   0.234   0.346 -1.9192  1.1252  0.3612
  423MPD2    N1 6372   1.706   0.536   0.794 -0.2572  0.2680 -1.2216
  423MPD2    H7 6373   1.805   0.545   0.776  0.0535  1.2788  1.1290
  424TMC3    C1 6374   1.775   0.609   1.001  0.5470 -0.1340  0.2014
  424TMC3    C2 6375   1.879   0.530   0.985  0.5532 -0.1646 -0.1514
  424TMC3    C3 6376   1.988   0.566   1.053 -0.4655 -0.8651 -0.0973
  424TMC3    C4 6377   1.758   0.707   1.091 -0.3498  0.9937  0.0617
  424TMC3    C5 6378   1.871   0.732   1.156  0.7100 -0.2290 -0.0931
  424TMC3    C6 6379   1.996   0.683   1.126 -0.2375 -0.4901  0.0937
  424TMC3     C 6380   1.667   0.598   0.908  0.2340  0.2125 -0.9424
  424TMC3     O 6381   1.557   0.639   0.940 -0.1359 -0.4118  0.1917
  424TMC3     H 6382   1.885   0.449   0.912 -0.7252 -1.5104  1.2446
  424TMC3    H1 6383   1.670   0.770   1.091  0.0645  1.5642  0.8860
  424TMC3    H2 6384   2.081   0.716   1.185  0.2000 -0.4948 -0.5309
  424TMC3    C7 6385   1.858   0.814   1.274 -0.3010  0.7075  0.1764
  424TMC3    C8 6386   2.105   0.487   1.026 -0.4486 -0.8030 -0.5129
  424TMC3    O1 6387   1.954   0.869   1.319  0.5389 -0.0041 -0.0567
  424TMC3    O2 6388   2.086   0.374   0.980  0.1684  0.4251 -0.4046
  425MPD2     C 6389   0.481   4.621  17.050  0.8499  0.4703  0.3848
  425MPD2    C1 6390   0.489   4.487  17.074  0.2268 -0.4542  0.7621
  425MPD2    C2 6391   0.411   4.429  17.167  0.3941  0.1570 -0.2617
  425MPD2    C3 6392   0.312   4.496  17.227 -0.1617  0.6602  0.0883
  425MPD2    C4 6393   0.293   4.631  17.208  0.1621  0.5054  0.2631
  425MPD2    C5 6394   0.378   4.691  17.118  0.3747 -0.6075 -0.6621
  425MPD2     H 6395   0.413   4.324  17.194 -0.8956  0.7313  2.0978
  425MPD2    H1 6396   0.206   4.683  17.248  0.5399  1.5735 -0.2835
  425MPD2    H2 6397   0.540   4.667  16.971  0.0896 -1.3223 -1.2288
  425MPD2    H3 6398   0.362   0.055  17.094  0.4428 -0.5756 -0.5713
  425MPD2     N 6399   0.244   4.420  17.318  0.1571 -0.6128  0.3596
  425MPD2    H5 6400   0.261   4.321  17.307 -0.6818 -0.3213 -3.3987
  425MPD2    N1 6401   0.592   4.414  16.998 -0.0688 -0.3080 -0.9306
  425MPD2    H7 6402   0.633   4.463  16.919 -0.2459 -1.6307 -1.8472
  426TMC3    C1 6403   0.722   4.237  16.924 -0.2550  0.0254  0.0328
  426TMC3    C2 6404   0.656   4.184  16.818  0.9007  0.2859 -0.0162
  426TMC3    C3 6405   0.706   4.074  16.753  0.8175 -0.3429 -0.4143
  426TMC3    C4 6406   0.826   4.172  16.987  0.2471  0.2765  0.8709
  426TMC3    C5 6407   0.875   4.060  16.923 -0.5997  0.5828  0.9918
  426TMC3    C6 6408   0.825   4.021  16.802 -0.4041 -0.7715  0.5553
  426TMC3     C 6409   0.630   4.286  17.026  0.2980 -0.1630 -0.2780
  426TMC3     O 6410   0.623   4.219  17.130 -0.4801 -0.7058 -0.5774
  426TMC3     H 6411   0.561   4.226  16.785  0.3465 -2.2483 -1.6498
  426TMC3    H1 6412   0.875   4.212  17.075  2.9196  1.8329 -1.3062
  426TMC3    H2 6413   0.864   3.934  16.750  3.2722  2.4866 -2.2040
  426TMC3    C7 6414   0.875   3.945  17.015  0.7064  0.4030  0.1306
  426TMC3    C8 6415   0.606   3.969  16.746 -0.4499  0.7505 -0.0847
  426TMC3    O1 6416   0.913   3.834  16.985 -0.2940  0.2662  0.2795
  426TMC3    O2 6417   0.491   4.006  16.733  0.5521 -0.2594  0.1286
  427MPD2     C 6418   4.049   1.718  14.968  0.6805 -0.2810 -0.4138
  427MPD2    C1 6419   4.044   1.766  15.098  0.2421 -0.1666  0.0970
  427MPD2    C2 6420   3.923   1.826  15.136  0.0274 -0.3394  0.0866
  427MPD2    C3 6421   3.814   1.830  15.050 -0.3005 -0.0407  0.0407
  427MPD2    C4 6422   3.828   1.783  14.920 -0.0968 -0.1461  0.1545
  427MPD2    C5 6423   3.946   1.730  14.880  0.0323 -0.3598  0.4249
  427MPD2     H 6424   3.916   1.850  15.242  0.5571  3.2296 -0.6828
  427MPD2    H1 6425   3.748   1.799  14.848  0.3503  3.5663  0.5122
  427MPD2    H2 6426   4.131   1.669  14.916  0.1647 -1.0069 -0.5351
  427MPD2    H3 6427   3.966   1.685  14.784  1.2660 -2.9051  1.8746
  427MPD2     N 6428   3.688   1.883  15.081 -0.2478 -0.8016 -0.2278
  427MPD2    H5 6429   3.624   1.873  15.002  0.1192  3.2022 -1.0543
  427MPD2    N1 6430   4.144   1.741  15.190 -0.5628  1.0143 -0.1227
  427MPD2    H7 6431   4.127   1.741  15.290 -0.2373  0.0762 -0.0667
  428TMC3    C1 6432   4.349   1.718  15.287 -0.7065  0.4536 -0.1329
  428TMC3    C2 6433   4.297   1.649  15.399  0.4285 -0.5115 -0.4669
  428TMC3    C3 6434   4.363   1.666  15.515 -0.0892  0.3283  0.0823
  428TMC3    C4 6435   4.464   1.785  15.293 -0.3608  0.0484  0.0960
  428TMC3    C5 6436   4.527   1.799  15.414 -0.0633 -0.0057  0.0076
  428TMC3    C6 6437   4.480   1.738  15.525 -0.0941 -0.5371 -0.0330
  428TMC3     C 6438   4.275   1.732  15.161  0.0645  0.9103 -0.2775
  428TMC3     O 6439   4.330   1.768  15.059  0.5482 -0.2219 -0.7419
  428TMC3     H 6440   4.211   1.582  15.393 -0.2178  0.3132 -0.3656
  428TMC3    H1 6441   4.503   1.848  15.214  0.4600 -1.6945 -0.9005
  428TMC3    H2 6442   4.527   1.765  15.619  0.4745  0.5762 -0.6404
  428TMC3    C7 6443   4.668   1.827  15.427  0.7039  0.2484  0.7801
  428TMC3    C8 6444   4.302   1.626  15.642  0.2283  0.2979 -0.7624
  428TMC3    O1 6445   4.714   1.815  15.535 -0.3212  0.2844 -0.3449
  428TMC3    O2 6446   4.300   1.703  15.736  0.6702 -0.3633  0.2721
  429MPD2     C 6447   0.353   1.306   0.135  0.0767  0.7691  0.7623
  429MPD2    C1 6448   0.466   1.249   0.081  0.3170  0.8670 -0.0762
  429MPD2    C2 6449   0.571   1.333   0.051  0.3027 -0.5319 -0.5606
  429MPD2    C3 6450   0.562   1.475   0.068  0.1644  0.6622  0.2444
  429MPD2    C4 6451   0.449   1.529   0.126 -0.4554 -0.3632 -0.2201
  429MPD2    C5 6452   0.350   1.444   0.155 -0.7242 -0.1214  0.3488
  429MPD2     H 6453   0.665   1.292   0.014  1.5077  0.7166  1.1148
  429MPD2    H1 6454   0.447   1.626   0.173 -1.1260  1.4241 -3.9121
  429MPD2    H2 6455   0.265   1.251   0.166  1.5416 -1.7226  0.4941
  429MPD2    H3 6456   0.265   1.484   0.210 -1.1097 -1.1828  0.5335
  429MPD2     N 6457   0.667   1.558   0.013  0.5558  0.4470  0.3183
  429MPD2    H5 6458   0.747   1.518  17.723  0.9660  0.5632  0.9074
  429MPD2    N1 6459   0.473   1.113   0.068 -0.3891 -0.3046 -0.1842
  429MPD2    H7 6460   0.567   1.078   0.053 -0.2879 -0.9501  2.0324
  430TMC3    C1 6461   0.760   1.761  17.690  0.3191 -0.8313 -0.1102
  430TMC3    C2 6462   0.743   1.899  17.682  0.0420 -0.1437  0.0155
  430TMC3    C3 6463   0.764   1.954  17.560 -0.1583 -0.2586  0.4843
  430TMC3    C4 6464   0.829   1.685  17.602 -0.0497  0.2886 -0.3643
  430TMC3    C5 6465   0.868   1.751  17.492  0.0720 -0.1507  0.9263
  430TMC3    C6 6466   0.831   1.879  17.465  0.6529  0.0332  0.4448
  430TMC3     C 6467   0.671   1.699   0.027  0.6945  0.1502  0.4111
  430TMC3     O 6468   0.599   1.770   0.087  0.0724 -0.6071  0.7569
  430TMC3     H 6469   0.715   1.959   0.009  2.4411  1.4391 -0.3013
  430TMC3    H1 6470   0.852   1.580  17.616  0.5363  0.5011  0.2500
  430TMC3    H2 6471   0.884   1.918  17.379 -0.4371 -0.4426 -0.4476
  430TMC3    C7 6472   0.981   1.693  17.421 -0.3497  0.2275 -0.6791
  430TMC3    C8 6473   0.660   2.042  17.515  0.9183  0.7062  0.1549
  430TMC3    O1 6474   1.074   1.772  17.399 -0.0510 -0.8471 -0.1242
  430TMC3    O2 6475   0.558   2.062  17.584 -0.4193  0.5390 -1.2388
  431MPD2     C 6476   1.286   2.342  12.936 -0.7662 -0.3556  0.0381
  431MPD2    C1 6477   1.384   2.330  12.836 -0.9655  0.4863  0.5763
  431MPD2    C2 6478   1.347   2.261  12.718 -0.0117  0.1343 -0.1748
  431MPD2    C3 6479   1.221   2.209  12.704 -0.5752  0.1199 -0.4742
  431MPD2    C4 6480   1.126   2.224  12.802 -0.1725 -0.3014 -0.1225
  431MPD2    C5 6481   1.162   2.280  12.920  0.1278  0.2934 -0.5770
  431MPD2     H 6482   1.423   2.260  12.640 -0.6131  1.0868 -0.7791
  431MPD2    H1 6483   1.025   2.189  12.788 -0.4800  0.9409 -0.9938
  431MPD2    H2 6484   1.306   2.384  13.034 -0.0503 -1.3341  0.3176
  431MPD2    H3 6485   1.088   2.282  12.999  0.9482  2.1907  0.1524
  431MPD2     N 6486   1.177   2.136  12.588  0.5656  0.3737 -0.7404
  431MPD2    H5 6487   1.078   2.114  12.589  0.5121  0.5936 -1.1431
  431MPD2    N1 6488   1.515   2.383  12.850 -0.0077  0.9764  0.3464
  431MPD2    H7 6489   1.568   2.365  12.766 -0.2535  2.7371 -0.1794
  432TMC3    C1 6490   1.191   2.014  12.382 -0.5458 -0.6432  0.5805
  432TMC3    C2 6491   1.237   2.034  12.253  0.4353 -0.0300 -0.7383
  432TMC3    C3 6492   1.242   1.918  12.177 -0.0594  0.2807 -0.1891
  432TMC3    C4 6493   1.134   1.899  12.426  0.0251 -0.6853  0.1632
  432TMC3    C5 6494   1.125   1.784  12.347  0.6678 -0.0911  0.1388
  432TMC3    C6 6495   1.184   1.798  12.228 -0.1731  0.2697  0.0335
  432TMC3     C 6496   1.262   2.096  12.484  0.1675  0.2608 -0.0273
  432TMC3     O 6497   1.384   2.101  12.466  0.8438 -0.0295 -0.1652
  432TMC3     H 6498   1.280   2.128  12.222  2.3858 -0.1546  1.6239
  432TMC3    H1 6499   1.135   1.901  12.534  2.7767  1.2755  0.1109
  432TMC3    H2 6500   1.178   1.710  12.164  2.7153  0.1476 -0.0619
  432TMC3    C7 6501   1.161   1.659  12.414 -0.4558 -0.6938  0.1177
  432TMC3    C8 6502   1.343   1.915  12.066  0.1220  0.0370 -0.6144
  432TMC3    O1 6503   1.248   1.594  12.361  0.0244  0.2034  0.0680
  432TMC3    O2 6504   1.384   2.017  12.015  0.3380  0.1732 -0.0401
  433MPD2     C 6505   0.253   0.416  11.041  0.6831 -0.0005  0.2832
  433MPD2    C1 6506   0.340   0.317  11.074 -0.0319 -0.3553 -0.4752
  433MPD2    C2 6507   0.411   0.330  11.192  0.7862 -0.5471  0.1988
  433MPD2    C3 6508   0.405   0.447  11.272 -1.0031 -0.0810 -0.0480
  433MPD2    C4 6509   0.311   0.541  11.236  0.4308  0.6709 -0.2732
  433MPD2    C5 6510   0.245   0.523  11.122  0.4856  0.4319 -2.0003
  433MPD2     H 6511   0.481   0.253  11.220  0.9555 -1.3215 -2.2853
  433MPD2    H1 6512   0.302   0.631  11.296 -1.3802  0.7551 -0.6740
  433MPD2    H2 6513   0.187   0.415  10.956  0.2877  2.2295  0.5633
  433MPD2    H3 6514   0.192   0.611  11.088  1.3299  1.2838 -1.1195
  433MPD2     N 6515   0.499   0.449  11.379 -0.1722 -0.4402  0.4086
  433MPD2    H5 6516   0.560   0.369  11.393 -2.3218 -2.1972 -0.2230
  433MPD2    N1 6517   0.360   0.193  11.006 -0.1670  0.5935  0.4306
  433MPD2    H7 6518   0.428   0.124  11.037 -0.8994  0.0872  0.9093
  434TMC3    C1 6519   0.377   0.040  10.843 -0.3825 -0.2704  0.0656
  434TMC3    C2 6520   0.468   4.712  10.914  0.0305  0.5398 -0.2587
  434TMC3    C3 6521   0.510   4.582  10.881 -0.3737  0.1542  0.5671
  434TMC3    C4 6522   0.336   4.712  10.731 -0.1057 -0.5069  0.1135
  434TMC3    C5 6523   0.364   4.583  10.709  0.6454 -0.1776  0.1251
  434TMC3    C6 6524   0.454   4.509  10.780  0.7834  0.2441  0.1495
  434TMC3     C 6525   0.317   0.175  10.877  0.4009 -0.6560 -0.6288
  434TMC3     O 6526   0.247   0.235  10.796 -0.5650 -0.0358  0.3306
  434TMC3     H 6527   0.510   0.003  11.009 -0.2293 -1.7910  0.6231
  434TMC3    H1 6528   0.269   0.021  10.663 -0.2410  1.2591  1.5102
  434TMC3    H2 6529   0.489   4.409  10.761  0.4339  0.7105 -3.0272
  434TMC3    C7 6530   0.271   4.511  10.628 -0.4138  0.3288  0.4011
  434TMC3    C8 6531   0.588   4.511  10.981  0.0032 -0.3210 -0.2428
  434TMC3    O1 6532   0.219   4.557  10.528  0.3907  0.1773 -0.2637
  434TMC3    O2 6533   0.553   4.538  11.099 -0.1422  0.8876 -0.4704
  435MPD2     C 6534   2.440   0.656  15.513 -0.5109 -0.1169 -0.2755
  435MPD2    C1 6535   2.422   0.607  15.638 -0.7864  0.2798 -0.6184
  435MPD2    C2 6536   2.526   0.549  15.702  0.0508 -0.5933 -0.3902
  435MPD2    C3 6537   2.643   0.529  15.633 -0.0552  0.3609  0.1457
  435MPD2    C4 6538   2.661   0.561  15.499  0.1371 -0.1785 -0.4577
  435MPD2    C5 6539   2.562   0.640  15.446 -0.1338 -0.4771 -0.0927
  435MPD2     H 6540   2.519   0.500  15.798  0.9784  1.7781  0.8982
  435MPD2    H1 6541   2.755   0.558  15.446  0.1078  0.0701 -0.5229
  435MPD2    H2 6542   2.355   0.710  15.472  2.5124  2.1382 -3.5928
  435MPD2    H3 6543   2.590   0.682  15.350  4.5299 -1.8778  0.6238
  435MPD2     N 6544   2.742   0.464  15.709  0.3084 -0.3657 -0.1037
  435MPD2    H5 6545   2.721   0.470  15.808  0.3762  1.8441 -0.2151
  435MPD2    N1 6546   2.291   0.607  15.704  0.2973  0.0986 -0.1964
  435MPD2    H7 6547   2.288   0.571  15.799 -0.8247  1.2451  0.2002
  436TMC3    C1 6548   1.974   0.644  15.939 -0.4175 -0.1122  0.0504
  436TMC3    C2 6549   2.072   0.676  15.851 -0.0004 -0.6887 -0.4312
  436TMC3    C3 6550   2.058   0.628  15.725  0.0944 -0.8531  0.5211
  436TMC3    C4 6551   1.862   0.573  15.904 -0.2920 -0.0106 -0.2158
  436TMC3    C5 6552   1.862   0.525  15.782 -0.3429  0.5998 -0.4287
  436TMC3    C6 6553   1.954   0.553  15.686  0.5849 -0.4187 -0.3352
  436TMC3     C 6554   2.009   0.680  16.083  0.1656 -0.4731  0.4333
  436TMC3     O 6555   2.121   0.717  16.110  0.2302  0.3960 -0.4637
  436TMC3     H 6556   2.151   0.745  15.877  0.2571 -2.1383  2.5737
  436TMC3    H1 6557   1.802   0.517  15.974  0.7473 -0.0458  0.6360
  436TMC3    H2 6558   1.941   0.516  15.585  0.4681 -0.8059 -0.1779
  436TMC3    C7 6559   1.744   0.452  15.735  0.4341  0.2337 -1.1858
  436TMC3    C8 6560   2.169   0.632  15.637 -0.1182 -0.7092  0.1220
  436TMC3    O1 6561   1.635   0.485  15.782 -0.0578 -0.3288 -0.3393
  436TMC3    O2 6562   2.139   0.624  15.520 -0.4609  0.1537 -0.1669
  437TMC3    C1 6563   0.938   3.105  12.266 -0.6321  0.3778  0.1519
  437TMC3    C2 6564   0.896   3.183  12.166  1.0535  0.1522 -0.0024
  437TMC3    C3 6565   0.982   3.223  12.066 -0.3184 -0.1270 -0.3447
  437TMC3    C4 6566   1.068   3.070  12.277  0.0481 -0.2530  0.0102
  437TMC3    C5 6567   1.155   3.122  12.189 -0.6091  0.2788  0.3888
  437TMC3    C6 6568   1.116   3.208  12.083 -0.1671  0.5256 -0.1103
  437TMC3     C 6569   0.836   3.039  12.348 -0.5739  0.2503  0.1458
  437TMC3     O 6570   0.723   3.050  12.300 -0.0062 -0.0111 -0.1518
  437TMC3     H 6571   0.797   3.227  12.168  1.6667  1.4505  1.4948
  437TMC3    H1 6572   1.114   2.993  12.337 -1.4602 -0.5047  0.8334
  437TMC3    H2 6573   1.185   3.219  12.001 -2.1400 -2.3462 -2.1978
  437TMC3    C7 6574   1.306   3.098  12.184  0.3407 -0.2365  0.0067
  437TMC3    C8 6575   0.925   3.307  11.964  0.3708 -0.4665  0.2326
  437TMC3    O1 6576   1.369   3.136  12.089 -0.2944 -0.0612 -0.2634
  437TMC3    O2 6577   0.806   3.323  11.962  0.1267  0.1670  0.1119
  438MPD2     C 6578   3.176   3.125  16.739 -0.0292 -0.0844  0.1405
  438MPD2    C1 6579   3.247   3.029  16.814  0.8212  0.1158  0.2516
  438MPD2    C2 6580   3.205   3.011  16.947 -0.4980 -0.0188 -0.7542
  438MPD2    C3 6581   3.115   3.106  17.004  0.5660 -0.2027 -0.5747
  438MPD2    C4 6582   3.058   3.206  16.927 -0.5227  0.0108  0.2139
  438MPD2    C5 6583   3.085   3.212  16.795  0.5004 -0.4145 -0.4762
  438MPD2     H 6584   3.264   2.946  17.011  0.0555  1.1466 -0.0931
  438MPD2    H1 6585   2.998   3.282  16.975 -0.9085  0.0485 -0.3315
  438MPD2    H2 6586   3.188   3.139  16.632  1.0148 -0.2271  0.2426
  438MPD2    H3 6587   3.042   3.291  16.736 -1.1459 -1.3989 -0.6036
  438MPD2     N 6588   3.097   3.113  17.143 -0.7020 -0.1317  0.4394
  438MPD2    H5 6589   3.044   3.192  17.178 -0.9410 -0.6593  1.2850
  438MPD2    N1 6590   3.340   2.938  16.760 -0.6641  0.2088 -0.2549
  438MPD2    H7 6591   3.379   2.870  16.824 -2.4588 -1.0865 -0.5521
  439TMC3    C1 6592   3.479   2.830  16.609  0.0267 -0.2020 -0.8172
  439TMC3    C2 6593   3.486   2.761  16.488 -0.0921  0.0039 -0.0319
  439TMC3    C3 6594   3.562   2.644  16.485 -0.4085 -0.3576  1.1350
  439TMC3    C4 6595   3.551   2.796  16.718  0.5205  0.4461  0.3725
  439TMC3    C5 6596   3.619   2.679  16.714 -0.0662  0.0823  0.5474
  439TMC3    C6 6597   3.629   2.608  16.598  0.2648 -0.0509 -0.2390
  439TMC3     C 6598   3.371   2.925  16.623 -0.5622 -0.5239  0.1903
  439TMC3     O 6599   3.340   2.994  16.527  0.0661  0.0732  0.6191
  439TMC3     H 6600   3.429   2.797  16.403 -0.9463  0.0562  0.5649
  439TMC3    H1 6601   3.574   2.870  16.794  1.3938  1.0984 -0.5211
  439TMC3    H2 6602   3.689   2.518  16.598  0.5860  0.1760 -2.2289
  439TMC3    C7 6603   3.744   2.672  16.784 -0.6347  0.1658  0.1656
  439TMC3    C8 6604   3.629   2.614  16.358 -0.4407 -0.6505  0.1558
  439TMC3    O1 6605   3.845   2.652  16.718  0.4302  0.4724  0.5655
  439TMC3    O2 6606   3.730   2.544  16.366  0.0238  0.4870  0.0408
  440MPD2     C 6607   1.718   3.225  14.876 -0.2819 -0.2743  0.1646
  440MPD2    C1 6608   1.852   3.256  14.848  0.3978 -0.5772  0.0155
  440MPD2    C2 6609   1.948   3.152  14.861 -0.4907 -0.4031  0.1506
  440MPD2    C3 6610   1.913   3.031  14.902  0.1453 -0.2834 -0.7817
  440MPD2    C4 6611   1.783   3.000  14.944  0.1609 -0.1375 -0.4959
  440MPD2    C5 6612   1.689   3.101  14.929  0.5316 -0.0895  0.0899
  440MPD2     H 6613   2.048   3.176  14.824 -0.8005  0.7254  0.0210
  440MPD2    H1 6614   1.758   2.901  14.983  0.6753 -0.3223 -0.6340
  440MPD2    H2 6615   1.647   3.307  14.880 -0.0701  0.0001 -1.4975
  440MPD2    H3 6616   1.586   3.083  14.955 -0.0633  1.9043 -0.9357
  440MPD2     N 6617   2.014   2.930  14.925 -0.2707 -0.0926  0.2086
  440MPD2    H5 6618   2.002   2.856  14.993 -0.5325  0.6194  0.9397
  440MPD2    N1 6619   1.900   3.386  14.809  0.0390 -0.1289  0.5762
  440MPD2    H7 6620   1.999   3.396  14.789 -0.1220  0.5931  0.1524
  441TMC3    C1 6621   2.239   2.875  14.925 -0.3912 -0.1501 -0.2724
  441TMC3    C2 6622   2.356   2.904  14.860  0.5949  0.9270  0.3097
  441TMC3    C3 6623   2.470   2.945  14.932 -0.0336  0.1438 -0.1598
  441TMC3    C4 6624   2.239   2.882  15.062 -0.4116 -0.4250  0.6207
  441TMC3    C5 6625   2.355   2.913  15.129 -0.0149 -0.0441 -0.5593
  441TMC3    C6 6626   2.471   2.944  15.066  0.0181 -0.8838  0.2339
  441TMC3     C 6627   2.127   2.926  14.850 -0.0731 -0.3314  0.0574
  441TMC3     O 6628   2.149   2.975  14.739  0.4701  0.3362 -0.3851
  441TMC3     H 6629   2.356   2.912  14.752 -0.0685 -0.5134  0.1982
  441TMC3    H1 6630   2.156   2.861  15.128 -0.7897 -0.0628  0.2602
  441TMC3    H2 6631   2.560   2.983  15.114  0.6307 -0.5387 -1.1911
  441TMC3    C7 6632   2.355   2.916  15.276 -0.3800  0.0562 -0.1127
  441TMC3    C8 6633   2.539   3.051  14.858 -0.0642 -0.6527 -0.6198
  441TMC3    O1 6634   2.247   2.881  15.321  0.3715 -0.6267  0.1804
  441TMC3    O2 6635   2.542   3.044  14.733 -0.2888  0.1812  0.6689
  442MPD2     C 6636   0.454   4.273  16.342  0.1409 -0.3789 -0.4333
  442MPD2    C1 6637   0.334   4.205  16.383 -0.0162  0.2574 -0.0503
  442MPD2    C2 6638   0.335   4.069  16.380  0.0814 -0.3172 -0.9587
  442MPD2    C3 6639   0.453   4.003  16.345  0.5690  0.2041 -0.4067
  442MPD2    C4 6640   0.568   4.069  16.309 -0.1628  0.0294  0.1501
  442MPD2    C5 6641   0.570   4.208  16.309 -0.2282  0.1710 -0.0112
  442MPD2     H 6642   0.249   4.011  16.412 -0.1132  1.3338  1.5164
  442MPD2    H1 6643   0.653   4.014  16.268  0.2696  0.5051  0.4058
  442MPD2    H2 6644   0.461   4.381  16.330  2.3300 -0.5217 -0.3712
  442MPD2    H3 6645   0.655   4.268  16.281 -0.9584  0.4814 -1.5590
  442MPD2     N 6646   0.481   3.861  16.367  0.2135 -1.1701  0.8825
  442MPD2    H5 6647   0.575   3.835  16.339  0.3354  1.7254 -1.3362
  442MPD2    N1 6648   0.219   4.265  16.435  0.2552  0.0964  0.0765
  442MPD2    H7 6649   0.148   4.201  16.471 -0.6540  1.6306  1.0081
  443TMC3    C1 6650   0.055   4.438  16.461 -0.4088  0.4738  0.4889
  443TMC3    C2 6651   4.724   4.535  16.397  0.2500  0.3732  0.7637
  443TMC3    C3 6652   4.591   4.553  16.437 -0.7034 -0.5439  0.0315
  443TMC3    C4 6653   0.011   4.376  16.574  0.0994  0.9925 -0.6605
  443TMC3    C5 6654   4.626   4.407  16.616  0.0509 -0.0144 -0.8494
  443TMC3    C6 6655   4.542   4.489  16.548 -0.4200 -0.9059  0.0903
  443TMC3     C 6656   0.187   4.399  16.410 -0.9687  0.3758  0.3621
  443TMC3     O 6657   0.250   4.485  16.355  0.0031  0.0383 -0.2256
  443TMC3     H 6658   0.019   4.577  16.304  2.2347  1.0998  1.8505
  443TMC3    H1 6659   0.079   4.317  16.634  2.2691 -0.3913 -4.4870
  443TMC3    H2 6660   4.440   4.511  16.580  0.3077  0.9969  1.1123
  443TMC3    C7 6661   4.579   4.359  16.740  0.5664  0.7155  0.4898
  443TMC3    C8 6662   4.502   4.619  16.355 -0.2983 -0.2651  0.0926
  443TMC3    O1 6663   4.610   4.242  16.765 -0.0375  0.3376 -0.0180
  443TMC3    O2 6664   4.535   4.723  16.304 -0.0856 -0.1475 -0.0990
  444MPD2     C 6665   0.865   3.248  17.448  0.2378  0.5080  0.2162
  444MPD2    C1 6666   0.797   3.135  17.401  0.2604 -0.1912 -0.0539
  444MPD2    C2 6667   0.866   3.013  17.413  0.3548  0.8074 -0.5180
  444MPD2    C3 6668   0.988   3.001  17.476  0.0524  0.3072 -0.2831
  444MPD2    C4 6669   1.052   3.117  17.525  0.1345 -0.3611 -0.5160
  444MPD2    C5 6670   0.985   3.235  17.512 -0.2837  0.2214  0.0747
  444MPD2     H 6671   0.823   2.921  17.375  0.4542  0.3840  0.3916
  444MPD2    H1 6672   1.143   3.131  17.583 -2.2775 -0.0740  3.2322
  444MPD2    H2 6673   0.818   3.343  17.428  0.1016 -0.0638 -2.1318
  444MPD2    H3 6674   1.040   3.322  17.546  0.6874  0.2102 -1.4493
  444MPD2     N 6675   1.050   2.874  17.487 -0.0446 -0.5147  0.2493
  444MPD2    H5 6676   0.991   2.799  17.452  1.4822 -1.7119  0.2455
  444MPD2    N1 6677   0.675   3.142  17.336 -0.2278 -0.1568 -0.1876
  444MPD2    H7 6678   0.650   3.058  17.286 -2.3063  0.6488 -0.4832
  445TMC3    C1 6679   1.206   2.716  17.522 -0.5503 -0.1215 -0.6966
  445TMC3    C2 6680   1.092   2.640  17.499  0.6345  0.6264 -0.2546
  445TMC3    C3 6681   1.093   2.558  17.394  1.4399 -0.2761 -0.0051
  445TMC3    C4 6682   1.329   2.682  17.464 -0.5783  0.3709 -0.4591
  445TMC3    C5 6683   1.331   2.576  17.373  0.4017  0.4230  0.1707
  445TMC3    C6 6684   1.209   2.529  17.333 -0.0481 -0.1271  0.6455
  445TMC3     C 6685   1.177   2.857  17.536  0.3758  0.7126 -0.2931
  445TMC3     O 6686   1.272   2.929  17.535  0.5162  0.5747  0.1981
  445TMC3     H 6687   1.006   2.661  17.562  1.5767  0.0858  1.1987
  445TMC3    H1 6688   1.422   2.729  17.493 -0.5107  0.2805 -0.5296
  445TMC3    H2 6689   1.202   2.463  17.247  3.9340 -0.6359  0.6836
  445TMC3    C7 6690   1.440   2.553  17.281 -0.3400  0.6844  0.5110
  445TMC3    C8 6691   0.975   2.582  17.315 -1.0606 -0.3351 -0.6317
  445TMC3    O1 6692   1.413   2.520  17.169 -0.6216  0.1739 -0.0428
  445TMC3    O2 6693   0.909   2.682  17.345  0.2957 -0.0504 -0.2997
  446MPD2     C 6694   0.372   4.256  11.589 -0.5060  0.6616  0.0074
  446MPD2    C1 6695   0.353   4.286  11.460 -0.0372 -0.0808 -0.1644
  446MPD2    C2 6696   0.426   4.380  11.396  0.5393 -0.9089  0.1187
  446MPD2    C3 6697   0.520   4.448  11.464 -0.5286 -0.4322  0.4656
  446MPD2    C4 6698   0.528   4.432  11.603  0.3453 -0.8417 -0.2407
  446MPD2    C5 6699   0.455   4.335  11.669 -0.4585  0.0966 -0.5217
  446MPD2     H 6700   0.416   4.391  11.288  0.1627  1.9552  0.4503
  446MPD2    H1 6701   0.582   4.504  11.664  0.0330  1.4194 -2.6406
  446MPD2    H2 6702   0.310   4.180  11.635 -1.0902  0.9048 -0.3928
  446MPD2    H3 6703   0.478   4.322  11.774 -0.2925  1.1185 -0.4365
  446MPD2     N 6704   0.597   4.537  11.386  0.3799  0.1017  0.1630
  446MPD2    H5 6705   0.573   4.540  11.288  2.7703  0.2526 -0.4107
  446MPD2    N1 6706   0.255   4.226  11.376  0.0429 -0.3632 -0.0968
  446MPD2    H7 6707   0.250   4.256  11.279 -0.1968  1.3815  0.4502
  447TMC3    C1 6708   0.796   4.665  11.342 -0.3937 -0.6516  0.2536
  447TMC3    C2 6709   0.753   4.719  11.224  0.3883 -0.2161  0.4819
  447TMC3    C3 6710   0.845   0.028  11.131  0.1583  0.6438  0.0072
  447TMC3    C4 6711   0.930   4.666  11.376  0.0857 -0.4278 -0.3651
  447TMC3    C5 6712   1.014   4.716  11.285  0.3388  0.2023  0.1173
  447TMC3    C6 6713   0.980   0.017  11.155  0.3758  0.2330 -0.1440
  447TMC3     C 6714   0.717   4.590  11.436  0.1865  0.4083 -0.2396
  447TMC3     O 6715   0.772   4.568  11.542 -0.1398 -0.0966  0.1314
  447TMC3     H 6716   0.646   4.715  11.209  0.6448 -1.2004 -1.0844
  447TMC3    H1 6717   0.968   4.621  11.467 -2.2177  1.8716  1.7509
  447TMC3    H2 6718   1.056   0.027  11.078 -1.8916  0.4698 -2.3448
  447TMC3    C7 6719   1.155   4.697  11.309 -0.1328  0.4428  0.7948
  447TMC3    C8 6720   0.781   0.128  11.045 -0.3601  0.4405 -0.4401
  447TMC3    O1 6721   1.223   4.686  11.205 -0.1741  0.0091 -0.6677
  447TMC3    O2 6722   0.669   0.157  11.086 -0.6580  0.3348 -0.3717
  448TMC3    C1 6723   3.421   4.358  16.950  0.3321 -0.2444  0.0970
  448TMC3    C2 6724   3.399   4.254  16.864  0.2605  0.3721 -0.1954
  448TMC3    C3 6725   3.399   4.130  16.930  0.1808 -0.4943  0.1404
  448TMC3    C4 6726   3.471   4.339  17.075 -0.0533  0.0021 -0.3443
  448TMC3    C5 6727   3.488   4.215  17.124 -0.2331 -0.4431  0.2088
  448TMC3    C6 6728   3.426   4.110  17.060 -0.1411 -0.1384 -0.3592
  448TMC3     C 6729   3.418   4.493  16.897 -0.5293  0.2920 -0.1468
  448TMC3     O 6730   3.504   4.570  16.942 -0.1067  0.0044  0.3117
  448TMC3     H 6731   3.379   4.262  16.758  1.1896  1.3064 -0.3000
  448TMC3    H1 6732   3.493   4.426  17.135 -2.2768  0.2683  0.1200
  448TMC3    H2 6733   3.416   4.013  17.106  0.8457 -0.0640  0.0121
  448TMC3    C7 6734   3.507   4.206  17.268 -0.0518  0.3931 -0.2126
  448TMC3    C8 6735   3.392   4.010  16.848  0.4896 -0.0294  0.0454
  448TMC3    O1 6736   3.462   4.291  17.340  0.0203  0.2241  0.3419
  448TMC3    O2 6737   3.448   3.911  16.891 -0.5133 -0.5802  0.1450
  449MPD2     C 6738   4.728   3.935  14.069 -0.1027  1.1354  0.4110
  449MPD2    C1 6739   4.730   3.821  13.995 -0.0616  0.3128 -0.2948
  449MPD2    C2 6740   0.046   3.707  14.055  0.0294 -0.7465 -0.3547
  449MPD2    C3 6741   0.098   3.706  14.180 -0.0961  0.0646  0.1292
  449MPD2    C4 6742   0.091   3.824  14.255  0.1018 -0.1699 -0.8930
  449MPD2    C5 6743   0.029   3.931  14.200  0.3786 -0.5561 -0.1928
  449MPD2     H 6744   0.050   3.619  13.992 -0.1181  0.4533 -2.0320
  449MPD2    H1 6745   0.132   3.827  14.356 -1.7764  0.0232 -0.1322
  449MPD2    H2 6746   4.683   4.024  14.025  0.6132  0.9138 -0.7687
  449MPD2    H3 6747   0.015   4.023  14.256 -1.2559 -2.0242  1.8104
  449MPD2     N 6748   0.154   3.585  14.223 -0.1514 -0.2719 -0.1911
  449MPD2    H5 6749   0.151   3.512  14.153  1.2574 -0.1460 -0.3899
  449MPD2    N1 6750   4.691   3.809  13.858  0.1111 -0.6783 -0.1926
  449MPD2    H7 6751   4.706   3.716  13.819 -0.9796 -0.2503 -1.6166
  450TMC3    C1 6752   4.577   3.840  13.660 -0.2188 -0.2529 -0.0104
  450TMC3    C2 6753   4.648   3.878  13.553  0.2414  0.3378 -0.6952
  450TMC3    C3 6754   4.667   3.777  13.456  0.0790 -0.2519 -0.4002
  450TMC3    C4 6755   4.537   3.707  13.690 -0.1144 -0.0250  0.0039
  450TMC3    C5 6756   4.589   3.609  13.612 -0.2117 -0.3289 -0.2048
  450TMC3    C6 6757   4.647   3.639  13.492  0.2269 -0.0249 -0.7863
  450TMC3     C 6758   4.633   3.903  13.778 -0.4367 -0.5925 -0.0850
  450TMC3     O 6759   4.621   4.024  13.792  0.4924  0.2810  0.0934
  450TMC3     H 6760   4.662   3.983  13.530 -0.4811  0.5039 -0.3677
  450TMC3    H1 6761   4.485   3.690  13.783 -0.8164 -0.8442 -0.5370
  450TMC3    H2 6762   4.659   3.560  13.419 -1.3120  0.3545 -1.4437
  450TMC3    C7 6763   4.631   3.493  13.688  0.8497 -0.0497  0.5272
  450TMC3    C8 6764   4.728   3.815  13.328  0.7184 -0.3144  0.0770
  450TMC3    O1 6765   4.634   3.514  13.810  0.2477  0.7654 -0.1549
  450TMC3    O2 6766   4.716   3.937  13.295 -0.3677  0.1904 -0.3223
  451MPD2     C 6767   1.215   2.413   0.513 -0.3015  0.5705 -0.2574
  451MPD2    C1 6768   1.216   2.313   0.615 -0.3652 -0.5438  0.4164
  451MPD2    C2 6769   1.228   2.183   0.584 -0.1305  0.1428 -0.1570
  451MPD2    C3 6770   1.258   2.149   0.451 -0.3633  0.0362 -0.2143
  451MPD2    C4 6771   1.271   2.237   0.352 -0.0372 -0.6514 -0.3879
  451MPD2    C5 6772   1.250   2.366   0.384 -1.1596  0.6800  0.3260
  451MPD2     H 6773   1.230   2.103   0.657 -0.6609 -0.5759 -0.9267
  451MPD2    H1 6774   1.300   2.227   0.248 -1.2171 -1.9103 -0.5894
  451MPD2    H2 6775   1.208   2.516   0.545 -0.7586  0.5859 -0.4051
  451MPD2    H3 6776   1.266   2.442   0.308  2.2317  0.3425  0.7199
  451MPD2     N 6777   1.283   2.019   0.406  0.2699  0.3838  0.1378
  451MPD2    H5 6778   1.305   2.013   0.307 -0.6084 -0.0634 -0.0281
  451MPD2    N1 6779   1.210   2.362   0.749 -0.1050 -0.3299  0.1297
  451MPD2    H7 6780   1.210   2.463   0.752  0.6248 -0.2836 -1.2214
  452TMC3    C1 6781   1.332   1.789   0.408 -0.1246  0.9031  0.0116
  452TMC3    C2 6782   1.301   1.668   0.457  0.1422  0.3392 -0.3363
  452TMC3    C3 6783   1.361   1.573   0.384 -0.6130  0.2676 -0.3076
  452TMC3    C4 6784   1.413   1.814   0.302 -0.4277 -0.4572 -0.4346
  452TMC3    C5 6785   1.461   1.707   0.228 -0.4523  0.0637  0.1584
  452TMC3    C6 6786   1.434   1.582   0.270  0.4778  0.2198  0.2523
  452TMC3     C 6787   1.282   1.903   0.482  0.0317  0.5732 -0.3388
  452TMC3     O 6788   1.229   1.889   0.590 -0.6724  0.0593 -0.7110
  452TMC3     H 6789   1.217   1.658   0.525  0.5998 -1.1424 -0.0005
  452TMC3    H1 6790   1.431   1.914   0.264  0.6353 -0.2728  0.5590
  452TMC3    H2 6791   1.466   1.491   0.222 -0.0234  0.0205  0.2984
  452TMC3    C7 6792   1.546   1.718   0.114  0.3746  0.2032  0.1443
  452TMC3    C8 6793   1.342   1.438   0.437 -0.4002  0.0397  0.4671
  452TMC3    O1 6794   1.595   1.827   0.105  1.1340  0.2459  0.3310
  452TMC3    O2 6795   1.350   1.340   0.366 -0.4585 -0.2922 -0.2761
  453TMC3    C1 6796   2.406   3.454  12.126 -0.0917  1.0338  0.0758
  453TMC3    C2 6797   2.362   3.320  12.129  0.4155  0.0660  0.7065
  453TMC3    C3 6798   2.338   3.252  12.013 -0.1135  0.2121  0.4853
  453TMC3    C4 6799   2.438   3.507  12.004 -0.5571  0.0665  0.2310
  453TMC3    C5 6800   2.409   3.435  11.893  0.4965 -0.1487 -0.0148
  453TMC3    C6 6801   2.362   3.305  11.892 -0.4800  0.4090  0.0727
  453TMC3     C 6802   2.509   3.484  12.217  0.7652 -0.5187  0.2060
  453TMC3     O 6803   2.602   3.551  12.174  0.0959  0.4672  0.0834
  453TMC3     H 6804   2.310   3.280  12.215  0.7209 -2.5868 -0.3467
  453TMC3    H1 6805   2.504   3.592  11.988 -1.7799  1.0405  0.3255
  453TMC3    H2 6806   2.328   3.260  11.799  1.6633  0.5730 -0.7772
  453TMC3    C7 6807   2.445   3.499  11.765 -0.8191  0.5567  0.7065
  453TMC3    C8 6808   2.303   3.112  12.019  0.9585 -0.4297  0.4682
  453TMC3    O1 6809   2.410   3.618  11.749  0.0251 -0.3082 -0.4542
  453TMC3    O2 6810   2.240   3.077  12.117 -0.5233  1.0440  0.4695
  454MPD2     C 6811   1.425   2.861  17.021 -0.9411  0.4415 -0.2186
  454MPD2    C1 6812   1.348   2.958  16.968 -0.0116  0.0137 -0.0109
  454MPD2    C2 6813   1.302   3.057  17.047 -0.3367 -0.1841 -0.4253
  454MPD2    C3 6814   1.322   3.062  17.184 -0.4551 -0.5109 -0.1786
  454MPD2    C4 6815   1.401   2.969  17.238  0.5467 -0.2246 -0.2270
  454MPD2    C5 6816   1.452   2.872  17.156 -0.5345 -0.1763 -0.2817
  454MPD2     H 6817   1.240   3.139  17.010  0.5352  0.2996 -0.8031
  454MPD2    H1 6818   1.410   2.958  17.346 -0.8920  0.0563 -0.0754
  454MPD2    H2 6819   1.464   2.780  16.960 -0.2901  0.9706 -0.5102
  454MPD2    H3 6820   1.504   2.790  17.204 -2.4230  0.5673  2.9987
  454MPD2     N 6821   1.252   3.160  17.268 -0.2463 -0.1034 -0.3817
  454MPD2    H5 6822   1.303   3.177  17.354 -0.9022  1.6002 -0.3396
  454MPD2    N1 6823   1.293   2.947  16.839 -0.0869  0.7050 -0.2176
  454MPD2    H7 6824   1.239   3.026  16.806  0.4094  0.4601 -1.6198
  455TMC3    C1 6825   1.034   3.208  17.148 -0.0057  1.1690 -0.1880
  455TMC3    C2 6826   0.947   3.305  17.117 -0.1751 -0.5815 -0.6270
  455TMC3    C3 6827   0.842   3.279  17.033  0.1644 -0.3086  0.0069
  455TMC3    C4 6828   1.013   3.077  17.110  0.6500  0.2331 -0.5917
  455TMC3    C5 6829   0.907   3.055  17.025 -0.0633 -0.7417 -0.2164
  455TMC3    C6 6830   0.821   3.157  16.982  0.4529 -0.1362 -1.0554
  455TMC3     C 6831   1.154   3.250  17.229  0.3989 -0.1571  0.5105
  455TMC3     O 6832   1.139   3.362  17.273  0.2331  0.1596  0.1266
  455TMC3     H 6833   0.947   3.400  17.168  1.7691 -1.9142  1.8237
  455TMC3    H1 6834   1.081   3.000  17.144  1.0547  1.7808  2.1690
  455TMC3    H2 6835   0.756   3.138  16.897  0.3275  0.4623 -1.0973
  455TMC3    C7 6836   0.893   2.927  16.950 -1.0097  0.4482 -0.9171
  455TMC3    C8 6837   0.792   3.395  16.969 -0.6638  0.1360 -0.4723
  455TMC3    O1 6838   0.791   2.914  16.883  0.6213 -0.2603 -0.0504
  455TMC3    O2 6839   0.869   3.492  16.954 -0.5297 -0.1891  0.3033
  456MPD2     C 6840   3.792   3.138  15.859 -0.2774  0.0030 -0.4433
  456MPD2    C1 6841   3.877   3.138  15.967 -0.2347  0.3662  0.2682
  456MPD2    C2 6842   3.819   3.143  16.091  0.1599 -0.2252  0.2670
  456MPD2    C3 6843   3.682   3.153  16.112  0.7362 -0.1285  0.7394
  456MPD2    C4 6844   3.600   3.146  16.005 -0.0787  0.0283 -0.3593
  456MPD2    C5 6845   3.654   3.138  15.881  0.3746 -0.0709  1.0494
  456MPD2     H 6846   3.884   3.142  16.178 -1.8754 -1.4112  1.7490
  456MPD2    H1 6847   3.493   3.145  16.017 -0.2181  1.6796 -1.4686
  456MPD2    H2 6848   3.837   3.128  15.761 -1.7410 -0.9491 -1.0200
  456MPD2    H3 6849   3.594   3.115  15.793 -0.5746  1.4351  1.3191
  456MPD2     N 6850   3.635   3.161  16.244 -0.1635  0.0958  0.1385
  456MPD2    H5 6851   3.707   3.164  16.315  2.0887  0.1122 -2.1589
  456MPD2    N1 6852   4.017   3.111  15.935  0.1944  0.9225 -0.1758
  456MPD2    H7 6853   4.047   3.115  15.838 -1.1453 -0.4050 -0.6485
  457TMC3    C1 6854   3.501   3.253  16.424 -0.4413  0.3721  0.6279
  457TMC3    C2 6855   3.413   3.348  16.466 -0.0635 -0.6101 -0.5632
  457TMC3    C3 6856   3.408   3.373  16.605 -0.5046 -0.0073  0.2237
  457TMC3    C4 6857   3.579   3.173  16.506  0.3383  0.5673 -0.3288
  457TMC3    C5 6858   3.573   3.199  16.640  0.6762  0.1087  0.5047
  457TMC3    C6 6859   3.492   3.300  16.689 -0.3630 -0.3440 -0.9401
  457TMC3     C 6860   3.511   3.223  16.281 -0.0973  0.3734 -0.2728
  457TMC3     O 6861   3.432   3.277  16.208 -0.2514 -0.3590 -0.3636
  457TMC3     H 6862   3.357   3.400  16.389  0.7763  2.1661  0.6929
  457TMC3    H1 6863   3.625   3.082  16.469 -0.2604 -0.4805  1.5104
  457TMC3    H2 6864   3.477   3.315  16.796 -0.9449  2.5507 -1.4388
  457TMC3    C7 6865   3.679   3.153  16.729  0.6322 -0.2687  0.6009
  457TMC3    C8 6866   3.368   3.509  16.645  0.2646  1.0399 -0.8673
  457TMC3    O1 6867   3.673   3.178  16.849 -0.1580 -0.3667  0.0249
  457TMC3    O2 6868   3.392   3.540  16.761 -0.0283 -0.3902  0.1806
  458MPD2     C 6869   1.760   2.959  12.382 -0.0055 -0.0409  0.0228
  458MPD2    C1 6870   1.675   2.959  12.484 -0.1752 -0.0550  0.1377
  458MPD2    C2 6871   1.550   2.993  12.448  0.1940  0.0371  0.3349
  458MPD2    C3 6872   1.508   3.027  12.324 -0.1048 -0.6743 -0.2738
  458MPD2    C4 6873   1.606   3.038  12.226  0.1875  0.9212  0.2182
  458MPD2    C5 6874   1.732   2.995  12.253  0.6684  0.4245  0.2189
  458MPD2     H 6875   1.477   2.970  12.525  0.1460  0.4160  0.4005
  458MPD2    H1 6876   1.576   3.072  12.128 -0.2532 -1.2006 -0.3939
  458MPD2    H2 6877   1.864   2.931  12.395  0.0971  0.7875  1.0439
  458MPD2    H3 6878   1.809   3.006  12.178  1.5857 -2.1420  0.7862
  458MPD2     N 6879   1.363   3.042  12.299 -0.5213  0.5614  0.0094
  458MPD2    H5 6880   1.297   3.034  12.375 -1.1723  0.4644 -0.5701
  458MPD2    N1 6881   1.725   2.932  12.615  0.2040  0.1612  0.0673
  458MPD2    H7 6882   1.820   2.897  12.627  0.3023 -0.0352 -1.2372
  459TMC3    C1 6883   1.729   2.917  12.850 -0.3949 -0.1823 -0.3074
  459TMC3    C2 6884   1.865   2.939  12.850 -0.0765 -0.1168  0.0183
  459TMC3    C3 6885   1.931   2.916  12.965  0.0805 -0.1252 -0.1834
  459TMC3    C4 6886   1.658   2.887  12.963 -0.4128  0.3693  0.2431
  459TMC3    C5 6887   1.735   2.851  13.070 -0.0274  0.3402 -0.1011
  459TMC3    C6 6888   1.870   2.865  13.077  0.2300  0.7368 -0.0981
  459TMC3     C 6889   1.658   2.937  12.732  0.0649 -0.1364  0.2499
  459TMC3     O 6890   1.536   2.954  12.749  0.1756  0.5406  0.0072
  459TMC3     H 6891   1.916   2.985  12.766 -0.9384 -0.9563 -0.9623
  459TMC3    H1 6892   1.550   2.883  12.958 -0.1628 -3.1510 -2.1000
  459TMC3    H2 6893   1.915   2.857  13.175 -1.8703  1.6859  0.9396
  459TMC3    C7 6894   1.656   2.786  13.178  0.3933 -0.0243  0.2023
  459TMC3    C8 6895   2.075   2.932  12.963  0.0248  0.0668  0.3495
  459TMC3    O1 6896   1.538   2.817  13.171 -0.0980  0.1230 -0.1167
  459TMC3    O2 6897   2.131   2.971  12.864 -0.0914  0.6694 -0.2552
  460MPD2     C 6898   0.883   0.329  10.752 -0.0162 -0.2788 -0.9525
  460MPD2    C1 6899   0.802   0.293  10.863 -0.5774  0.0488  0.3701
  460MPD2    C2 6900   0.684   0.368  10.885 -0.3725  0.5387 -0.0170
  460MPD2    C3 6901   0.655   0.476  10.806  0.0513  0.2793 -0.0466
  460MPD2    C4 6902   0.735   0.511  10.700  0.2024 -0.0502 -0.1727
  460MPD2    C5 6903   0.846   0.441  10.677  0.4095 -0.3400 -0.0022
  460MPD2     H 6904   0.616   0.343  10.965  0.8404  0.7427  1.0816
  460MPD2    H1 6905   0.708   0.588  10.630  1.7164  0.7626  0.1470
  460MPD2    H2 6906   0.975   0.286  10.716 -0.3034 -0.2369 -1.7572
  460MPD2    H3 6907   0.911   0.461  10.593  0.2043  0.3895  0.0103
  460MPD2     N 6908   0.529   0.537  10.821  0.4855 -0.6444 -0.4632
  460MPD2    H5 6909   0.464   0.494  10.886  2.6658  0.9166  2.6857
  460MPD2    N1 6910   0.846   0.177  10.939  0.4353 -0.5913  0.3208
  460MPD2    H7 6911   0.932   0.134  10.906 -0.2876 -1.8767  0.1155
  461TMC3    C1 6912   0.345   0.666  10.784  0.1026 -0.1181  0.3400
  461TMC3    C2 6913   0.272   0.578  10.714 -0.3108  0.4005 -0.7543
  461TMC3    C3 6914   0.139   0.615  10.685  0.0937  0.1761 -0.0366
  461TMC3    C4 6915   0.308   0.795  10.805 -0.1495 -0.4784  0.0848
  461TMC3    C5 6916   0.177   0.825  10.785  0.2726  0.2807 -0.6838
  461TMC3    C6 6917   0.090   0.735  10.731  0.6054 -0.0317  0.4803
  461TMC3     C 6918   0.481   0.651  10.757 -0.3657  0.2790 -0.1716
  461TMC3     O 6919   0.535   0.735  10.684  0.6632  0.2226 -0.3085
  461TMC3     H 6920   0.322   0.490  10.676 -0.3427 -0.1396  0.4533
  461TMC3    H1 6921   0.382   0.869  10.833 -0.9741  0.1895  0.5040
  461TMC3    H2 6922   4.723   0.746  10.718  0.7062  1.3559  0.9037
  461TMC3    C7 6923   0.143   0.966  10.765 -0.0085 -0.1223  0.4026
  461TMC3    C8 6924   0.064   0.535  10.591  0.7397 -0.3632 -0.2904
  461TMC3    O1 6925   0.047   0.992  10.694  0.3824 -0.7664 -0.1051
  461TMC3    O2 6926   4.707   0.590  10.539 -0.3056  0.2414 -0.5095
  462TMC3    C1 6927   0.887   1.322   0.437  0.1432 -0.4704 -0.4069
  462TMC3    C2 6928   0.979   1.267   0.352  0.0749  0.5479 -0.3234
  462TMC3    C3 6929   0.978   1.139   0.313 -0.1822  0.6684  0.3613
  462TMC3    C4 6930   0.786   1.241   0.482 -0.3456 -0.0467  0.6551
  462TMC3    C5 6931   0.780   1.110   0.440  0.2860 -0.4261  0.2321
  462TMC3    C6 6932   0.880   1.055   0.362  0.3230 -0.2472 -0.0971
  462TMC3     C 6933   0.902   1.462   0.478  0.7896 -0.0287 -0.3204
  462TMC3     O 6934   1.010   1.512   0.457 -0.1125  0.4591  0.3054
  462TMC3     H 6935   1.064   1.326   0.319  0.8273 -1.1218 -1.3595
  462TMC3    H1 6936   0.708   1.278   0.548  0.2026 -0.3433  1.4597
  462TMC3    H2 6937   0.862   0.962   0.309 -1.0474 -0.4732  0.7652
  462TMC3    C7 6938   0.676   1.013   0.468  0.1858 -0.0913 -0.4908
  462TMC3    C8 6939   1.053   1.107   0.190 -0.5005  0.3889 -0.4067
  462TMC3    O1 6940   0.717   0.898   0.465  0.0574  0.0251  0.9338
  462TMC3    O2 6941   1.104   1.196   0.127  0.3849  0.2594  0.0015
  463MPD2     C 6942   2.456   4.387   1.060  0.1009 -0.6928 -0.3334
  463MPD2    C1 6943   2.373   4.496   1.050 -0.6476  0.1921  0.8392
  463MPD2    C2 6944   2.424   4.624   1.065 -0.3751  0.0620  0.5367
  463MPD2    C3 6945   2.556   4.644   1.093 -0.5094  0.7060 -0.5117
  463MPD2    C4 6946   2.644   4.536   1.105 -0.4360  0.0871 -0.0248
  463MPD2    C5 6947   2.587   4.410   1.086 -0.2908 -0.0085 -0.0776
  463MPD2     H 6948   2.355   4.708   1.059 -0.4690 -0.1214 -0.9707
  463MPD2    H1 6949   2.750   4.541   1.125 -0.4029 -4.7958  1.0481
  463MPD2    H2 6950   2.420   4.286   1.040 -0.2652 -0.6464  0.0887
  463MPD2    H3 6951   2.657   4.328   1.096 -0.0245  0.2507  0.1789
  463MPD2     N 6952   2.613   0.030   1.102  0.5921 -0.3523 -0.2888
  463MPD2    H5 6953   2.711   0.033   1.125  0.4407 -1.6888  0.5518
  463MPD2    N1 6954   2.234   4.479   1.034 -0.1653 -0.4474 -0.0773
  463MPD2    H7 6955   2.171   4.555   1.009  0.5844 -0.0580 -0.7907
  464TMC3    C1 6956   2.015   4.383   1.036 -0.5802 -0.4087  0.2791
  464TMC3    C2 6957   1.971   4.512   1.069  0.1162  0.6820  0.7801
  464TMC3    C3 6958   1.839   4.519   1.086 -0.2514  0.3050  0.5974
  464TMC3    C4 6959   1.936   4.275   1.027 -0.5944  0.2303 -0.2798
  464TMC3    C5 6960   1.798   4.291   1.043  0.2142 -0.3286 -0.3827
  464TMC3    C6 6961   1.754   4.418   1.070 -0.1091  0.4534 -1.1905
  464TMC3     C 6962   2.161   4.358   1.042 -0.0474  0.5378 -0.1227
  464TMC3     O 6963   2.197   4.245   1.078  0.1268  0.2172  0.1302
  464TMC3     H 6964   2.034   4.598   1.087 -1.4362  2.0251 -0.2347
  464TMC3    H1 6965   1.974   4.179   0.995 -1.8534 -0.5449  0.5227
  464TMC3    H2 6966   1.652   4.430   1.104  0.0285 -3.4225  0.5633
  464TMC3    C7 6967   1.725   4.178   1.084 -0.3011 -0.8071  0.2437
  464TMC3    C8 6968   1.776   4.643   1.094  0.9914 -0.3150  0.2832
  464TMC3    O1 6969   1.785   4.076   1.106  0.1214  0.0715 -1.0292
  464TMC3    O2 6970   1.680   4.661   1.024 -0.4042 -0.2731  0.1888
  465MPD2     C 6971   3.144   4.166  17.199 -0.4986 -0.5637  0.4528
  465MPD2    C1 6972   3.134   4.030  17.233 -0.1419  0.2293 -0.1255
  465MPD2    C2 6973   3.111   3.940  17.129  0.1410 -0.6846  0.0906
  465MPD2    C3 6974   3.082   3.972  16.997 -0.2223  0.1857  0.2309
  465MPD2    C4 6975   3.073   4.112  16.973 -0.3257 -0.4630  1.1666
  465MPD2    C5 6976   3.109   4.205  17.067 -0.9985  0.2983  0.1781
  465MPD2     H 6977   3.101   3.836  17.159 -3.0222 -0.7937 -1.2771
  465MPD2    H1 6978   3.054   4.149  16.873  0.9164 -3.3667 -0.1714
  465MPD2    H2 6979   3.160   4.248  17.268 -0.1162 -1.4284  1.3896
  465MPD2    H3 6980   3.091   4.310  17.051 -1.3970  0.0037 -1.3316
  465MPD2     N 6981   3.040   3.875  16.906 -0.3073  0.4653  0.1274
  465MPD2    H5 6982   3.059   3.777  16.925 -0.5321  0.4942  0.5046
  465MPD2    N1 6983   3.118   3.993  17.369 -0.3199 -0.2326  0.2822
  465MPD2    H7 6984   3.088   3.897  17.383  2.5217 -1.2109 -0.2315
  466TMC3    C1 6985   2.898   3.563  16.704  0.4406 -0.3260 -0.1384
  466TMC3    C2 6986   2.802   3.583  16.608  0.5743  0.3757  0.6219
  466TMC3    C3 6987   2.739   3.700  16.601 -0.1183 -0.9991 -0.3799
  466TMC3    C4 6988   2.971   3.669  16.744 -0.2903 -0.5536 -0.1939
  466TMC3    C5 6989   2.916   3.793  16.722 -0.6115 -0.0193 -0.1161
  466TMC3    C6 6990   2.795   3.807  16.657  0.2829  0.3418  0.1325
  466TMC3     C 6991   2.833   3.500  16.819  0.1834 -0.6263 -0.0440
  466TMC3     O 6992   2.873   3.530  16.935  0.1980  0.0571  0.0371
  466TMC3     H 6993   2.753   3.500  16.559 -0.4548 -0.3411  2.9204
  466TMC3    H1 6994   3.063   3.659  16.801  0.1944  0.5687 -0.8017
  466TMC3    H2 6995   2.740   3.900  16.652 -1.1689 -0.5406 -0.3738
  466TMC3    C7 6996   2.953   3.904  16.807 -0.0448 -1.1401 -0.4155
  466TMC3    C8 6997   2.620   3.701  16.525 -0.0011 -0.6196 -0.3168
  466TMC3    O1 6998   2.889   4.006  16.779  0.5860 -0.2715  0.6283
  466TMC3    O2 6999   2.615   3.663  16.410 -0.2519  0.4957  0.0243
  467TMC3    C1 7000   3.561   1.935  14.242  0.1861 -1.0081  0.0555
  467TMC3    C2 7001   3.483   1.942  14.137 -0.0720  0.6983 -0.6248
  467TMC3    C3 7002   3.362   1.880  14.141  0.4975 -0.0772 -0.4955
  467TMC3    C4 7003   3.526   1.872  14.359  0.0986  0.0149 -0.6527
  467TMC3    C5 7004   3.398   1.829  14.365  0.0597 -0.6674 -0.4417
  467TMC3    C6 7005   3.319   1.818  14.253 -0.3632 -0.1069  0.4652
  467TMC3     C 7006   3.695   1.994  14.231 -0.7295 -0.7972 -0.0862
  467TMC3     O 7007   3.727   2.064  14.326  0.2641  0.3979 -0.2979
  467TMC3     H 7008   3.518   1.997  14.051  1.8887  1.4763  0.6881
  467TMC3    H1 7009   3.596   1.865  14.442 -1.7052  0.2178  0.8998
  467TMC3    H2 7010   3.220   1.774  14.241  0.4611 -1.9149  0.3534
  467TMC3    C7 7011   3.362   1.769  14.491  0.4668  1.2814 -0.1335
  467TMC3    C8 7012   3.254   1.934  14.062  0.4151  0.1698  0.2787
  467TMC3    O1 7013   3.448   1.747  14.579 -0.2224  0.1375  0.9455
  467TMC3    O2 7014   3.141   1.883  14.064 -0.5300  0.2260  0.0734
  468MPD2     C 7015   2.272   4.628  10.800 -1.4054 -0.8836 -0.1305
  468MPD2    C1 7016   2.405   4.623  10.830 -0.0593  0.9096 -0.1403
  468MPD2    C2 7017   2.481   4.526  10.764  0.7317  0.0341 -0.1939
  468MPD2    C3 7018   2.421   4.451  10.666 -0.3560  0.5324 -0.5596
  468MPD2    C4 7019   2.289   4.452  10.647  0.6174 -0.5631  0.2555
  468MPD2    C5 7020   2.216   4.540  10.714 -0.0619  0.1392  1.2171
  468MPD2     H 7021   2.587   4.522  10.786  0.4902 -1.4868  0.6885
  468MPD2    H1 7022   2.241   4.384  10.578 -1.9371 -0.3803  1.8669
  468MPD2    H2 7023   2.208   4.701  10.849 -1.1204 -1.0743  0.5222
  468MPD2    H3 7024   2.111   4.549  10.689 -0.5604 -2.1990  2.4792
  468MPD2     N 7025   2.501   4.359  10.588 -0.4056  0.1757  0.4627
  468MPD2    H5 7026   2.451   4.303  10.520 -0.7446 -1.0704  1.7501
  468MPD2    N1 7027   2.476   4.710  10.922 -0.0988 -0.3928  0.2520
  468MPD2    H7 7028   2.576   4.699  10.930 -0.4878 -2.2264  2.4932
  469TMC3    C1 7029   2.505   0.151  11.076 -0.0974 -0.0650  0.0475
  469TMC3    C2 7030   2.639   0.124  11.097  0.2869  0.1494  0.0728
  469TMC3    C3 7031   2.712   0.207  11.176 -0.2139  0.3797  0.6907
  469TMC3    C4 7032   2.445   0.260  11.126  0.1366 -0.5172 -0.2369
  469TMC3    C5 7033   2.518   0.340  11.203  0.7295  0.6836 -1.0722
  469TMC3    C6 7034   2.653   0.324  11.223 -0.1931 -0.4171  0.4209
  469TMC3     C 7035   2.411   0.064  10.999  0.4789 -0.1990  0.3905
  469TMC3     O 7036   2.295   0.084  11.019  0.0900 -0.6958  0.2292
  469TMC3     H 7037   2.689   0.038  11.053  1.7696  0.5662  0.9481
  469TMC3    H1 7038   2.341   0.282  11.105  0.6649  1.3016 -0.9885
  469TMC3    H2 7039   2.711   0.391  11.285  0.4866  0.0493 -0.7068
  469TMC3    C7 7040   2.456   0.470  11.236 -0.5036  0.3533 -0.4065
  469TMC3    C8 7041   2.857   0.171  11.200  0.0496 -0.0330  0.1035
  469TMC3    O1 7042   2.335   0.478  11.216 -0.0074  0.1307 -0.0053
  469TMC3    O2 7043   2.905   0.098  11.115  0.2631 -0.1940  0.5078
  470TMC3    C1 7044   0.029   0.962   0.688  0.9445  0.3592 -0.1816
  470TMC3    C2 7045   0.098   1.082   0.668  0.2557 -0.1915 -0.3833
  470TMC3    C3 7046   0.218   1.095   0.735  0.5593 -0.5280 -0.0235
  470TMC3    C4 7047   0.080   0.859   0.760 -0.7842 -0.4873 -0.6810
  470TMC3    C5 7048   0.199   0.881   0.820  0.8289 -0.0374 -0.1251
  470TMC3    C6 7049   0.265   0.994   0.815 -0.5980 -0.5014 -0.6177
  470TMC3     C 7050   4.667   0.920   0.590  0.2674 -0.0290  0.0391
  470TMC3     O 7051   4.659   0.804   0.559 -0.4516 -0.0525  0.0296
  470TMC3     H 7052   0.056   1.156   0.601  1.0222  1.3026  0.7728
  470TMC3    H1 7053   0.024   0.768   0.779 -1.1863  0.1393  1.1915
  470TMC3    H2 7054   0.365   1.000   0.857 -0.7215 -1.4198 -0.1948
  470TMC3    C7 7055   0.253   0.772   0.900  0.4396 -1.0988  0.3871
  470TMC3    C8 7056   0.266   1.235   0.748 -0.9502  0.4240  0.0489
  470TMC3    O1 7057   0.226   0.662   0.862  0.5138 -0.0475  0.1677
  470TMC3    O2 7058   0.194   1.326   0.705 -0.1538  0.1899 -0.2944
  471MPD2     C 7059   0.398   2.162  17.094  0.7124  0.3066 -0.0569
  471MPD2    C1 7060   0.519   2.122  17.049  0.6911  0.0282 -0.4497
  471MPD2    C2 7061   0.612   2.080  17.148 -0.5883 -0.1595  0.4098
  471MPD2    C3 7062   0.581   2.084  17.285  0.3636 -0.0390  0.2292
  471MPD2    C4 7063   0.457   2.138  17.320 -0.3158 -0.5234 -0.5619
  471MPD2    C5 7064   0.366   2.179  17.223  0.3904  0.7019  0.2478
  471MPD2     H 7065   0.716   2.061  17.126 -1.3870 -1.1793 -2.4521
  471MPD2    H1 7066   0.421   2.147  17.422 -1.9155  2.3640 -1.3750
  471MPD2    H2 7067   0.321   2.169  17.017 -0.6776  1.7420  1.4424
  471MPD2    H3 7068   0.267   2.212  17.250  0.3219 -0.2743  1.2322
  471MPD2     N 7069   0.679   2.046  17.378 -0.0598 -0.3630  0.5011
  471MPD2    H5 7070   0.763   1.996  17.348  0.0604 -1.7101  3.0689
  471MPD2    N1 7071   0.547   2.125  16.907  0.2074 -0.5493 -0.0686
  471MPD2    H7 7072   0.640   2.099  16.878  0.2034 -1.6549  0.8837
  472TMC3    C1 7073   0.508   2.105  16.666  0.5917 -0.0926  0.1703
  472TMC3    C2 7074   0.458   2.172  16.559  0.9233 -0.2371 -0.2408
  472TMC3    C3 7075   0.462   2.111  16.438  0.2381 -0.2314  0.1679
  472TMC3    C4 7076   0.552   1.975  16.662 -0.2118 -0.3644  0.0962
  472TMC3    C5 7077   0.545   1.907  16.543  0.7089 -0.1429  0.4230
  472TMC3    C6 7078   0.496   1.981  16.433 -0.8461  0.1644 -0.6263
  472TMC3     C 7079   0.461   2.153  16.801  0.6054 -0.1404  0.7526
  472TMC3     O 7080   0.350   2.207  16.799 -0.2005  0.2290 -0.2781
  472TMC3     H 7081   0.411   2.269  16.574  0.6802 -0.4340  0.2525
  472TMC3    H1 7082   0.585   1.929  16.755  1.0422  0.9888  0.3248
  472TMC3    H2 7083   0.523   1.942  16.336  0.1407  0.2362 -0.3874
  472TMC3    C7 7084   0.500   1.773  16.545 -0.0636 -0.1554 -0.2846
  472TMC3    C8 7085   0.345   2.129  16.361 -0.6477  0.2964  0.4762
  472TMC3    O1 7086   0.500   1.724  16.655  0.3652  0.2750  0.1369
  472TMC3    O2 7087   0.317   2.231  16.301  0.0369  0.1171  0.5844
  473MPD2     C 7088   0.778   4.418  14.041 -0.1060 -0.1503 -0.0932
  473MPD2    C1 7089   0.686   4.505  13.994 -0.3076  0.0306 -0.1024
  473MPD2    C2 7090   0.685   4.629  14.045 -0.0508 -0.6686  1.0692
  473MPD2    C3 7091   0.783   4.682  14.131 -0.0903  0.1298 -0.3001
  473MPD2    C4 7092   0.873   4.591  14.176  0.3636 -0.1409 -0.5653
  473MPD2    C5 7093   0.877   4.459  14.128  0.0265 -0.7367  0.4377
  473MPD2     H 7094   0.605   4.693  14.009  1.2856  0.1109 -0.5037
  473MPD2    H1 7095   0.954   4.618  14.243  2.1729 -2.6492 -1.7399
  473MPD2    H2 7096   0.778   4.315  14.007 -1.2770 -0.2222  0.1109
  473MPD2    H3 7097   0.952   4.389  14.162  1.3155 -0.6090 -2.1779
  473MPD2     N 7098   0.789   0.074  14.190  0.6889  0.0466  0.8553
  473MPD2    H5 7099   0.868   0.101  14.247  0.3337  0.6994  1.0471
  473MPD2    N1 7100   0.569   4.463  13.913 -0.1361  0.1658 -0.3829
  473MPD2    H7 7101   0.489   4.525  13.902 -0.0159  0.4114  0.1563
  474TMC3    C1 7102   0.711   0.300  14.219  0.5355 -0.9786  1.2844
  474TMC3    C2 7103   0.607   0.389  14.200 -0.0893 -0.1521 -0.3759
  474TMC3    C3 7104   0.613   0.511  14.250  0.0811 -0.2945  0.0439
  474TMC3    C4 7105   0.818   0.337  14.300  0.1101 -0.2377 -0.5881
  474TMC3    C5 7106   0.821   0.468  14.348 -0.0955  0.5884 -0.6668
  474TMC3    C6 7107   0.722   0.558  14.325  0.0467 -0.2125  0.5839
  474TMC3     C 7108   0.692   0.167  14.164 -0.3410 -0.0798 -0.4689
  474TMC3     O 7109   0.592   0.156  14.099  0.0898 -0.0816  0.0333
  474TMC3     H 7110   0.519   0.355  14.147  1.8255 -1.0074 -2.9911
  474TMC3    H1 7111   0.893   0.265  14.329 -0.9851 -0.6465  1.1980
  474TMC3    H2 7112   0.742   0.660  14.354 -0.4753 -0.1887  0.8712
  474TMC3    C7 7113   0.909   0.503  14.452 -0.0752 -0.3534  0.3253
  474TMC3    C8 7114   0.535   0.605  14.173 -1.3219  0.6657  0.2051
  474TMC3    O1 7115   0.869   0.592  14.530 -0.6327  0.1159 -0.3769
  474TMC3    O2 7116   0.474   0.562  14.075 -0.4980 -0.2453  0.5272
  475MPD2     C 7117   3.645   2.191  10.381  0.2372 -0.7787  0.2682
  475MPD2    C1 7118   3.639   2.267  10.500  0.0163 -0.3747  0.1052
  475MPD2    C2 7119   3.526   2.255  10.589 -0.4122  0.6260 -0.5857
  475MPD2    C3 7120   3.421   2.177  10.548 -0.3726  0.2690  0.3322
  475MPD2    C4 7121   3.439   2.094  10.434 -0.5861  0.2096 -0.0061
  475MPD2    C5 7122   3.547   2.100  10.348  0.1224 -0.0582 -0.3068
  475MPD2     H 7123   3.519   2.307  10.684 -0.2488 -0.8106  0.2247
  475MPD2    H1 7124   3.356   2.031  10.406  0.5834 -1.7426  0.8643
  475MPD2    H2 7125   3.735   2.182  10.322  1.7096 -0.9950  2.5597
  475MPD2    H3 7126   3.545   2.036  10.260 -0.4956 -2.1193  1.2257
  475MPD2     N 7127   3.306   2.182  10.631 -0.0041  0.3559 -0.1526
  475MPD2    H5 7128   3.315   2.246  10.709 -0.2589  0.6514 -0.3643
  475MPD2    N1 7129   3.734   2.363  10.535 -0.5427  0.0556  0.4096
  475MPD2    H7 7130   3.716   2.426  10.613 -1.1017 -0.8814  1.0383
  476TMC3    C1 7131   3.875   2.529  10.508  0.5477 -0.1282 -0.3251
  476TMC3    C2 7132   3.797   2.628  10.451  0.1023  0.4300 -0.0438
  476TMC3    C3 7133   3.757   2.736  10.537  0.8154 -0.4190  0.6041
  476TMC3    C4 7134   3.907   2.539  10.639 -0.3365  0.1073  0.4685
  476TMC3    C5 7135   3.890   2.652  10.718 -0.1287  0.5638 -0.3373
  476TMC3    C6 7136   3.818   2.761  10.657  0.0355 -0.1077  0.0755
  476TMC3     C 7137   3.842   2.401  10.461 -0.3491 -0.7136 -0.0374
  476TMC3     O 7138   3.871   2.368  10.348  0.3716  0.0584  0.0626
  476TMC3     H 7139   3.747   2.611  10.356  0.3523 -1.2999  0.1379
  476TMC3    H1 7140   3.948   2.452  10.688 -0.4069  0.0893  0.4966
  476TMC3    H2 7141   3.786   2.841  10.722 -3.9533 -0.8767 -0.9544
  476TMC3    C7 7142   3.854   2.635  10.855  0.2406 -0.5621 -0.1922
  476TMC3    C8 7143   3.613   2.776  10.540 -0.3701 -0.6460 -0.3305
  476TMC3    O1 7144   3.805   2.527  10.886 -0.5979 -0.5628 -0.0361
  476TMC3    O2 7145   3.584   2.878  10.601  1.1019  0.7073 -0.1181
  477MPD2     C 7146   1.614   4.243  11.654 -0.2852  0.2965  0.4934
  477MPD2    C1 7147   1.509   4.174  11.716  1.3015 -0.1657 -0.1830
  477MPD2    C2 7148   1.538   4.052  11.769  0.2135  0.0601  0.0961
  477MPD2    C3 7149   1.671   4.015  11.793 -0.3610 -0.6472  0.3916
  477MPD2    C4 7150   1.770   4.098  11.751 -0.0692 -0.3845  0.7565
  477MPD2    C5 7151   1.744   4.207  11.678  0.6571  0.7428  0.5430
  477MPD2     H 7152   1.455   3.986  11.796 -0.6204  0.9381 -0.3135
  477MPD2    H1 7153   1.874   4.089  11.778  0.3576 -0.3278 -0.8562
  477MPD2    H2 7154   1.589   4.330  11.595 -0.7978 -0.9279 -1.1362
  477MPD2    H3 7155   1.823   4.281  11.674  0.2906  1.1554  0.9274
  477MPD2     N 7156   1.701   3.892  11.858  0.0824 -0.0412 -0.0070
  477MPD2    H5 7157   1.622   3.845  11.901 -0.5909  1.6634  0.6199
  477MPD2    N1 7158   1.386   4.233  11.706  0.3938 -0.1543  0.1778
  477MPD2    H7 7159   1.387   4.314  11.646 -0.0111 -0.4186 -0.1802
  478TMC3    C1 7160   1.165   4.283  11.747  0.8562 -0.6652 -0.1189
  478TMC3    C2 7161   1.052   4.261  11.818 -0.0429 -0.4883  0.3315
  478TMC3    C3 7162   0.936   4.299  11.758  0.4959  0.6548  0.6580
  478TMC3    C4 7163   1.159   4.319  11.616  0.1508  0.1896  0.5056
  478TMC3    C5 7164   1.040   4.348  11.557  0.0272  0.0073  0.2540
  478TMC3    C6 7165   0.928   4.344  11.629  0.2277 -0.4536  0.1558
  478TMC3     C 7166   1.277   4.203  11.782 -0.1646  0.4065  0.0804
  478TMC3     O 7167   1.264   4.127  11.882  0.0259  0.0692 -0.3818
  478TMC3     H 7168   1.046   4.217  11.917 -0.9523 -1.4044 -0.1431
  478TMC3    H1 7169   1.247   4.344  11.556  0.8270 -0.1597  1.3533
  478TMC3    H2 7170   0.826   4.350  11.592  0.0093  0.0583  0.8307
  478TMC3    C7 7171   1.033   4.333  11.411  0.7356  0.1635 -0.4640
  478TMC3    C8 7172   0.836   4.358  11.847  0.3670  0.4184 -0.2907
  478TMC3    O1 7173   1.147   4.333  11.359 -0.1131  0.0326  0.0288
  478TMC3    O2 7174   0.821   4.305  11.956  0.2037 -0.0913 -0.4178
  479MPD2     C 7175   0.167   1.938  15.170 -0.0986  0.4895  0.0509
  479MPD2    C1 7176   0.113   1.920  15.300  0.1090 -0.4364 -0.0083
  479MPD2    C2 7177   0.175   1.981  15.404 -0.3548  0.2216  0.0463
  479MPD2    C3 7178   0.286   2.062  15.376 -0.0796 -0.2963 -0.3079
  479MPD2    C4 7179   0.338   2.071  15.254  0.3904 -0.9068 -1.0805
  479MPD2    C5 7180   0.269   2.017  15.149  0.2674 -0.6752 -0.4014
  479MPD2     H 7181   0.144   1.956  15.505 -0.1655 -1.4159 -0.3004
  479MPD2    H1 7182   0.427   2.131  15.241 -0.8879  1.3725  0.6624
  479MPD2    H2 7183   0.120   1.893  15.083  2.1055  0.0631 -0.9195
  479MPD2    H3 7184   0.311   2.022  15.050  2.2746  1.4206  0.5611
  479MPD2     N 7185   0.356   2.138  15.481  0.2348 -0.5533  0.2253
  479MPD2    H5 7186   0.436   2.193  15.450 -0.3495  0.4863  0.5591
  479MPD2    N1 7187   4.730   1.852  15.307  0.4313 -0.5792  0.3931
  479MPD2    H7 7188   4.686   1.823  15.220 -0.0232 -2.2078  1.1715
  480TMC3    C1 7189   0.035   2.008  15.780  0.8778  0.5999  0.3959
  480TMC3    C2 7190   4.678   2.071  15.706  0.1250  0.1712  0.4471
  480TMC3    C3 7191   4.714   2.162  15.608  0.2939 -0.4942  0.8791
  480TMC3    C4 7192   0.168   2.044  15.763  0.1553 -0.5593 -0.6883
  480TMC3    C5 7193   0.197   2.137  15.665  0.0591 -0.1110 -0.0305
  480TMC3    C6 7194   0.102   2.208  15.595 -0.2574 -0.5559  0.6845
  480TMC3     C 7195   0.009   1.881  15.843 -0.1836  0.2295 -0.3883
  480TMC3     O 7196   0.105   1.803  15.861  0.1887 -0.3171 -0.1538
  480TMC3     H 7197   4.582   2.020  15.706  0.0231  0.3597 -1.0135
  480TMC3    H1 7198   0.248   1.988  15.809  0.1966  0.4457  0.4564
  480TMC3    H2 7199   0.131   2.295  15.538  0.2057 -0.3786  1.1895
  480TMC3    C7 7200   0.335   2.151  15.620  0.1897 -0.2744  0.1212
  480TMC3    C8 7201   4.621   2.177  15.491 -0.5601  0.3776  1.6519
  480TMC3    O1 7202   0.421   2.167  15.707 -0.0554  0.1320  0.0179
  480TMC3    O2 7203   4.511   2.131  15.514 -0.2455 -0.2089 -0.4964
  481MPD2     C 7204   1.694   1.354  14.079  0.5679 -0.1929 -0.2225
  481MPD2    C1 7205   1.621   1.273  14.159  1.1074  0.1994  0.3739
  481MPD2    C2 7206   1.665   1.252  14.291 -0.7856 -0.6234 -0.5503
  481MPD2    C3 7207   1.783   1.310  14.332 -0.2455 -0.8774 -0.7217
  481MPD2    C4 7208   1.847   1.402  14.253  0.2902 -0.1010 -0.4533
  481MPD2    C5 7209   1.795   1.433  14.131  0.0485  0.4681 -0.6992
  481MPD2     H 7210   1.614   1.189  14.362  4.0465 -0.3789  3.1181
  481MPD2    H1 7211   1.940   1.447  14.287 -0.1544  0.7611 -0.3826
  481MPD2    H2 7212   1.645   1.371  13.984  1.6458 -2.9480 -1.2735
  481MPD2    H3 7213   1.837   1.507  14.064  1.4722  0.9720  0.7540
  481MPD2     N 7214   1.829   1.299  14.465  0.6696 -0.6200 -1.0550
  481MPD2    H5 7215   1.929   1.312  14.479  0.2814 -0.4732  1.6670
  481MPD2    N1 7216   1.516   1.208  14.091  0.0448  0.4127 -0.5149
  481MPD2    H7 7217   1.499   1.227  13.992 -2.4527 -2.4323 -0.6395
  482TMC3    C1 7218   1.351   1.057  14.060 -0.0888  0.0682 -0.2763
  482TMC3    C2 7219   1.346   0.923  14.038  0.0492  0.5619  0.8968
  482TMC3    C3 7220   1.233   0.875  13.975 -0.3338  0.4253  0.0243
  482TMC3    C4 7221   1.247   1.143  14.033  0.0335  1.2664 -0.3208
  482TMC3    C5 7222   1.132   1.081  13.998  0.1136  0.4553 -0.3817
  482TMC3    C6 7223   1.122   0.952  13.962  0.1188 -0.7587  0.7341
  482TMC3     C 7224   1.457   1.096  14.142  0.0681  0.1288  0.1720
  482TMC3     O 7225   1.506   1.012  14.219 -0.1537  0.1322  0.0956
  482TMC3     H 7226   1.433   0.859  14.052 -0.0260  0.0978 -0.7046
  482TMC3    H1 7227   1.250   1.249  14.057  0.1149  0.8157  1.6274
  482TMC3    H2 7228   1.029   0.927  13.912 -0.1259  0.1632  0.7245
  482TMC3    C7 7229   1.008   1.153  13.986  0.5627 -0.2970  0.8150
  482TMC3    C8 7230   1.252   0.754  13.905  0.3406  0.6000  0.4004
  482TMC3    O1 7231   0.904   1.096  14.016 -0.1893  0.0404 -0.6524
  482TMC3    O2 7232   1.370   0.719  13.890 -0.0368 -0.8216  0.1398
  483TMC3    C1 7233   4.309   0.128   1.431  0.6802 -0.8177 -0.0541
  483TMC3    C2 7234   4.420   0.183   1.369  0.6558  0.4945  0.0676
  483TMC3    C3 7235   4.537   0.110   1.369  0.5471  0.2364  0.1501
  483TMC3    C4 7236   4.322   4.736   1.486  0.6587 -0.2773  0.5646
  483TMC3    C5 7237   4.431   4.660   1.451 -0.1377  0.2254 -0.5406
  483TMC3    C6 7238   4.542   4.717   1.405  0.1152 -0.2304  0.4397
  483TMC3     C 7239   4.176   0.153   1.368 -0.0665 -0.0771 -1.3074
  483TMC3     O 7240   4.169   0.269   1.324  0.4038  0.0513 -0.0006
  483TMC3     H 7241   4.418   0.287   1.339  1.7738  0.3529 -0.4957
  483TMC3    H1 7242   4.240   4.686   1.536 -0.8812  2.8177  1.1592
  483TMC3    H2 7243   4.623   4.659   1.361 -0.9966 -1.4318 -0.0262
  483TMC3    C7 7244   4.390   4.535   1.395 -0.5734  0.0891  0.5939
  483TMC3    C8 7245   4.640   0.154   1.276  0.4074 -0.1600 -0.2824
  483TMC3    O1 7246   4.269   4.517   1.383 -0.0042  0.0891 -0.8704
  483TMC3    O2 7247   4.602   0.234   1.189  0.0193 -0.3372  0.1488
  484MPD2     C 7248   2.312   2.816  13.209  0.3110  0.9348 -0.7733
  484MPD2    C1 7249   2.265   2.859  13.086  0.4430 -0.4768 -0.2278
  484MPD2    C2 7250   2.361   2.855  12.982  0.0901  0.4637  0.5289
  484MPD2    C3 7251   2.497   2.824  13.005 -0.7537  0.6796  0.9871
  484MPD2    C4 7252   2.536   2.776  13.135 -0.2123 -0.0764  0.0246
  484MPD2    C5 7253   2.444   2.779  13.231  0.3432  0.3390  0.1804
  484MPD2     H 7254   2.320   2.875  12.884  1.5551  1.8015  0.1909
  484MPD2    H1 7255   2.635   2.735  13.150  0.4802  1.4484 -0.4115
  484MPD2    H2 7256   2.241   2.797  13.289 -0.1844  1.0187 -1.1875
  484MPD2    H3 7257   2.468   2.730  13.324  2.6085 -0.8479 -1.0258
  484MPD2     N 7258   2.595   2.834  12.902  0.6746  0.4326  0.5727
  484MPD2    H5 7259   2.688   2.800  12.921  0.7282  0.4441  0.3290
  484MPD2    N1 7260   2.134   2.882  13.077 -0.0471 -0.0837 -0.4137
  484MPD2    H7 7261   2.082   2.849  13.157 -1.2328  0.3717 -0.9894
  485TMC3    C1 7262   2.691   2.890  12.691 -0.0021 -0.0657 -0.3997
  485TMC3    C2 7263   2.811   2.862  12.738  0.0319 -0.1326 -0.1220
  485TMC3    C3 7264   2.926   2.891  12.666  0.7945  0.2980  0.0862
  485TMC3    C4 7265   2.676   2.955  12.574 -0.2658 -0.1526  0.1785
  485TMC3    C5 7266   2.793   2.987  12.502 -0.2946 -0.0577 -0.9637
  485TMC3    C6 7267   2.918   2.950  12.541 -0.2977  0.3823  0.1504
  485TMC3     C 7268   2.570   2.867  12.772 -0.2751  0.5010  0.9697
  485TMC3     O 7269   2.468   2.904  12.719  0.0349 -0.3106 -0.4885
  485TMC3     H 7270   2.822   2.797  12.824  0.3462 -0.9370 -0.7727
  485TMC3    H1 7271   2.584   2.982  12.524 -0.1043  0.2963  0.1253
  485TMC3    H2 7272   3.007   2.998  12.500 -0.6075  3.6427  3.2692
  485TMC3    C7 7273   2.772   2.965  12.363  0.3463  0.8303 -0.4802
  485TMC3    C8 7274   3.020   2.785  12.628  0.0435  0.4497  0.3600
  485TMC3    O1 7275   2.683   3.017  12.299 -0.2984 -0.3305  0.3017
  485TMC3    O2 7276   3.002   2.745  12.511 -0.3307  1.0715  0.7304
  486MPD2     C 7277   0.118   1.708  13.623 -0.7833 -0.7423  0.4502
  486MPD2    C1 7278   0.060   1.661  13.502  0.8184  1.5109  0.5880
  486MPD2    C2 7279   4.693   1.731  13.451  0.2946 -1.0879  0.6397
  486MPD2    C3 7280   4.651   1.846  13.507  0.3721  0.0944 -0.4576
  486MPD2    C4 7281   4.715   1.892  13.624 -0.4701 -0.4744  0.3228
  486MPD2    C5 7282   0.077   1.822  13.682 -0.4259 -0.0839 -0.2553
  486MPD2     H 7283   4.639   1.708  13.360 -1.0472  0.7340  0.9642
  486MPD2    H1 7284   4.669   1.979  13.669  1.4491  0.2835  0.8321
  486MPD2    H2 7285   0.197   1.658  13.678  0.7792  1.4924  0.2192
  486MPD2    H3 7286   0.119   1.846  13.779  1.8297 -1.5371 -0.8763
  486MPD2     N 7287   4.535   1.906  13.447 -0.3117 -0.1859  0.0219
  486MPD2    H5 7288   4.487   1.857  13.372 -1.5122  1.4364 -0.2582
  486MPD2    N1 7289   0.095   1.544  13.434  1.0955  0.4994 -1.0194
  486MPD2    H7 7290   0.171   1.492  13.479  1.9345  3.2151  0.7118
  487TMC3    C1 7291   0.115   1.369  13.277  0.3070  0.6286  0.6379
  487TMC3    C2 7292   0.068   1.319  13.158 -0.0446  0.8401  0.0726
  487TMC3    C3 7293   0.041   1.187  13.135  0.1809 -0.0627  0.4179
  487TMC3    C4 7294   0.150   1.278  13.375 -0.0916 -0.5045 -0.4866
  487TMC3    C5 7295   0.125   1.147  13.349  0.0564  0.7198 -0.6280
  487TMC3    C6 7296   0.084   1.094  13.230 -0.3015  1.0116 -1.0585
  487TMC3     C 7297   0.052   1.490  13.316  0.0087 -0.3352 -0.3746
  487TMC3     O 7298   4.695   1.531  13.250 -0.1654 -0.0962 -0.2464
  487TMC3     H 7299   0.022   1.390  13.090  0.4769 -0.5981 -1.7707
  487TMC3    H1 7300   0.164   1.302  13.480  0.5859  3.2932 -1.4548
  487TMC3    H2 7301   0.061   0.992  13.204 -0.3720  1.2010 -1.7466
  487TMC3    C7 7302   0.045   1.090  13.459 -0.4612  0.1622 -0.4724
  487TMC3    C8 7303   4.648   1.167  13.091  0.7018 -0.4350 -0.3237
  487TMC3    O1 7304   0.086   1.132  13.564  0.1958  0.3024  0.0889
  487TMC3    O2 7305   4.628   1.055  13.047 -0.0900 -0.8701  0.0169
  488MPD2     C 7306   4.667   3.460  16.501 -0.2649 -0.2113 -0.2213
  488MPD2    C1 7307   4.665   3.601  16.514 -0.0417 -0.7719 -0.0983
  488MPD2    C2 7308   4.599   3.651  16.621  0.1758 -0.2886 -0.3774
  488MPD2    C3 7309   4.555   3.572  16.724 -0.1947 -0.7244 -0.6047
  488MPD2    C4 7310   4.583   3.431  16.725 -0.1135  0.6645  0.2039
  488MPD2    C5 7311   4.638   3.380  16.613  0.2248  0.3503 -0.9561
  488MPD2     H 7312   4.590   3.758  16.633 -0.4424  0.0447 -3.7947
  488MPD2    H1 7313   4.564   3.361  16.806  1.2440  1.8917  1.5632
  488MPD2    H2 7314   4.716   3.419  16.413  0.3719 -2.1698  1.0512
  488MPD2    H3 7315   4.653   3.272  16.613  2.1045  0.6152 -0.6137
  488MPD2     N 7316   4.499   3.634  16.838  0.7788 -0.2983 -0.4567
  488MPD2    H5 7317   4.469   3.730  16.823  0.7336 -0.0795  0.9779
  488MPD2    N1 7318   4.695   3.692  16.409 -0.8794 -0.0726 -0.3139
  488MPD2    H7 7319   4.684   3.791  16.430 -1.6867 -0.0949 -0.6587
  489TMC3    C1 7320   4.428   3.673  17.050 -0.2319 -0.8990  0.0810
  489TMC3    C2 7321   4.369   3.789  17.007 -0.1979  0.0364  0.0973
  489TMC3    C3 7322   4.349   3.895  17.087  0.8929  0.1997 -0.2927
  489TMC3    C4 7323   4.483   3.671  17.177  0.0468 -0.5442 -0.7466
  489TMC3    C5 7324   4.467   3.785  17.259  0.0507 -0.3251 -0.3298
  489TMC3    C6 7325   4.410   3.901  17.213 -0.6808 -0.3703  0.5835
  489TMC3     C 7326   4.480   3.574  16.959  0.2365 -0.1991 -0.4160
  489TMC3     O 7327   4.511   3.462  17.008  0.9630 -0.6144 -0.0626
  489TMC3     H 7328   4.329   3.802  16.908 -0.5687 -0.8553  0.1284
  489TMC3    H1 7329   4.515   3.574  17.214  1.3799  0.0389 -0.3845
  489TMC3    H2 7330   4.394   3.983  17.282 -1.3207 -0.1446  0.1682
  489TMC3    C7 7331   4.490   3.765  17.403 -0.5668  0.0465 -0.5522
  489TMC3    C8 7332   4.325   4.023  17.018 -0.3745  0.4288 -0.5005
  489TMC3    O1 7333   4.429   3.837  17.481  0.4765  0.1210 -0.1768
  489TMC3    O2 7334   4.318   4.021  16.898  0.3443 -0.2406  0.1710
  490MPD2     C 7335   4.727   2.997  17.514  0.2639  0.2527  0.2548
  490MPD2    C1 7336   0.063   2.907  17.583 -0.1644  0.5541 -0.1878
  490MPD2    C2 7337   0.188   2.947  17.636 -0.2646  0.0039 -0.4808
  490MPD2    C3 7338   0.245   3.063  17.597  0.2615 -0.4778  0.4133
  490MPD2    C4 7339   0.170   3.155  17.529 -0.2885 -0.0631 -0.2779
  490MPD2    C5 7340   0.045   3.121  17.494  0.8040  0.3879  0.2852
  490MPD2     H 7341   0.243   2.872  17.693 -1.7128 -0.3590  0.4322
  490MPD2    H1 7342   0.200   3.257  17.509 -1.0079  0.1101 -0.4744
  490MPD2    H2 7343   4.622   2.990  17.488  0.8147 -1.1598 -1.5320
  490MPD2    H3 7344   4.719   3.198  17.456 -0.9888 -1.9548 -1.3662
  490MPD2     N 7345   0.385   3.089  17.621  0.3024 -0.6326 -0.0899
  490MPD2    H5 7346   0.423   3.183  17.608 -0.3896 -0.4599 -0.8503
  490MPD2    N1 7347   0.011   2.781  17.630 -0.4110 -1.0318 -0.0274
  490MPD2    H7 7348   0.062   2.735  17.705 -0.1529 -1.0111 -0.1892
  491TMC3    C1 7349   4.615   2.592  17.647  0.0608  0.0354  0.3059
  491TMC3    C2 7350   4.690   2.593   0.005  0.3632  0.3045 -0.2466
  491TMC3    C3 7351   0.021   2.478   0.026  0.3438  1.1654 -0.6271
  491TMC3    C4 7352   4.608   2.485  17.565  0.3942  0.2839 -0.6576
  491TMC3    C5 7353   4.672   2.368  17.600  0.8852 -0.0211 -0.0423
  491TMC3    C6 7354   0.018   2.363  17.705 -0.7533  0.6215 -0.4218
  491TMC3     C 7355   4.638   2.718  17.577 -0.1626  0.3543 -0.0836
  491TMC3     O 7356   4.578   2.741  17.473  0.2608 -0.3961  0.3471
  491TMC3     H 7357   4.683   2.672   0.078  0.4318  0.7357 -0.7080
  491TMC3    H1 7358   4.550   2.491  17.473 -2.0382 -0.9377  0.7780
  491TMC3    H2 7359   0.084   2.277  17.718  1.2041  1.9779 -1.4336
  491TMC3    C7 7360   4.662   2.258  17.502  0.1509  0.8610 -0.0625
  491TMC3    C8 7361   0.131   2.506   0.118  0.4744 -0.4435 -0.0179
  491TMC3    O1 7362   4.613   2.283  17.396  0.3111 -0.4093  0.0600
  491TMC3    O2 7363   0.154   2.623   0.136 -0.1321  0.0503  0.3335
  492MPD2     C 7364   0.744   2.514  11.522  0.5865 -0.3882 -0.3300
  492MPD2    C1 7365   0.657   2.473  11.424  0.8800  0.3796 -0.1775
  492MPD2    C2 7366   0.553   2.392  11.471 -0.0866 -0.4896  0.6557
  492MPD2    C3 7367   0.535   2.346  11.607 -0.2874 -0.3914 -0.5674
  492MPD2    C4 7368   0.625   2.404  11.694 -0.2150 -1.0490 -0.7330
  492MPD2    C5 7369   0.732   2.480  11.655 -1.0231  0.0255  0.0313
  492MPD2     H 7370   0.486   2.342  11.402 -0.8188  2.5392 -0.8434
  492MPD2    H1 7371   0.610   2.390  11.800  1.2929  2.1758 -0.0825
  492MPD2    H2 7372   0.826   2.578  11.492  0.6053  0.3595  1.3764
  492MPD2    H3 7373   0.795   2.524  11.732 -0.4550 -2.1835  0.8196
  492MPD2     N 7374   0.433   2.273  11.661  0.0600 -0.6646  0.2380
  492MPD2    H5 7375   0.425   2.260  11.761 -1.4147 -2.6935 -0.1467
  492MPD2    N1 7376   0.668   2.531  11.296  0.2754 -0.4490 -0.2104
  492MPD2    H7 7377   0.758   2.576  11.281 -1.0516  2.7977  1.5548
  493TMC3    C1 7378   0.624   2.575  11.067 -0.6329  1.0476 -0.1654
  493TMC3    C2 7379   0.756   2.609  11.057  0.6559  0.6415  0.5641
  493TMC3    C3 7380   0.799   2.680  10.949  0.7960  0.6111 -0.2849
  493TMC3    C4 7381   0.536   2.606  10.962 -0.2567  0.7486  1.1912
  493TMC3    C5 7382   0.589   2.659  10.849  0.3914 -0.3005  0.4463
  493TMC3    C6 7383   0.719   2.710  10.840 -0.2189 -0.3590  0.1766
  493TMC3     C 7384   0.575   2.527  11.195 -0.0227  0.0218  0.0052
  493TMC3     O 7385   0.456   2.491  11.188  0.6754  0.0835  0.0794
  493TMC3     H 7386   0.826   2.572  11.131  1.7514 -0.9669 -1.2675
  493TMC3    H1 7387   0.433   2.572  10.960 -0.1820  0.6008 -0.1024
  493TMC3    H2 7388   0.760   2.753  10.749 -0.2994 -2.1026 -0.6869
  493TMC3    C7 7389   0.499   2.686  10.735 -0.3293 -0.4125 -0.3311
  493TMC3    C8 7390   0.915   2.766  10.981  0.1276  0.5558  0.8522
  493TMC3    O1 7391   0.396   2.621  10.737 -0.0214 -0.3100  0.1315
  493TMC3    O2 7392   0.975   2.755  11.087 -0.1554  0.2835  0.1612
  494TMC3    C1 7393   1.176   4.649   0.265 -0.0864 -0.8177  0.3490
  494TMC3    C2 7394   1.153   4.511   0.260 -0.4399 -0.2734 -0.6342
  494TMC3    C3 7395   1.209   4.442   0.149 -0.3748  0.2249  0.3392
  494TMC3    C4 7396   1.255   4.711   0.167  0.4756  0.0879  0.2387
  494TMC3    C5 7397   1.322   4.632   0.075  0.8991  0.1578  0.3202
  494TMC3    C6 7398   1.289   4.502   0.058 -0.4441 -1.1810  0.3861
  494TMC3     C 7399   1.167   4.712   0.394 -0.1510  0.0123  0.1264
  494TMC3     O 7400   1.185   0.090   0.416 -0.1448 -0.1505 -0.2852
  494TMC3     H 7401   1.083   4.455   0.321  1.4479 -0.6675  1.1413
  494TMC3    H1 7402   1.268   0.078   0.176  2.1546 -0.1415  0.4977
  494TMC3    H2 7403   1.347   4.441  17.747 -1.2533 -0.1275 -1.2230
  494TMC3    C7 7404   1.388   4.711  17.726  0.3975 -0.5108 -0.1751
  494TMC3    C8 7405   1.212   4.302   0.178 -0.3688  0.3559 -0.2362
  494TMC3    O1 7406   1.392   4.663  17.615  0.1313  0.1257 -0.3695
  494TMC3    O2 7407   1.231   4.286   0.300  0.0958 -0.1958 -0.2558
  495TMC3    C1 7408   0.222   1.927  14.699  0.1164  0.1611  0.2809
  495TMC3    C2 7409   0.242   1.968  14.566  0.0994 -0.1191  0.5623
  495TMC3    C3 7410   0.209   2.101  14.531 -0.7736  0.6225 -0.3854
  495TMC3    C4 7411   0.182   2.025  14.786  0.4561  1.1582  0.1843
  495TMC3    C5 7412   0.149   2.148  14.741  0.1511 -0.2252  0.0514
  495TMC3    C6 7413   0.162   2.198  14.619  0.0134 -0.0787  1.0263
  495TMC3     C 7414   0.171   1.794  14.731  0.0339 -0.0182  0.5934
  495TMC3     O 7415   0.130   1.783  14.843  0.0881  0.3732 -0.0163
  495TMC3     H 7416   0.302   1.908  14.499 -0.8220  0.4629 -0.7859
  495TMC3    H1 7417   0.159   1.997  14.888  1.3507 -0.4964 -0.0623
  495TMC3    H2 7418   0.136   2.296  14.580  0.5567 -0.6822 -0.8471
  495TMC3    C7 7419   0.093   2.224  14.849 -0.5089  0.0118 -0.1527
  495TMC3    C8 7420   0.152   2.095  14.399 -0.0674 -0.4629  0.5663
  495TMC3    O1 7421   0.175   2.277  14.919 -0.2029  0.2564 -0.1002
  495TMC3    O2 7422   0.220   2.044  14.314 -0.2980  0.3233 -0.0124
  496MPD2     C 7423   1.745   2.324  15.981 -0.7554  0.7105  0.2962
  496MPD2    C1 7424   1.787   2.205  15.945  0.1537 -0.1208 -0.8942
  496MPD2    C2 7425   1.691   2.104  15.928  0.0087 -0.4761 -0.7003
  496MPD2    C3 7426   1.561   2.130  15.943  0.3230  0.6610 -0.3493
  496MPD2    C4 7427   1.517   2.252  15.981  0.0831 -0.4513 -0.2802
  496MPD2    C5 7428   1.613   2.349  15.998  0.8327 -0.5745  0.0143
  496MPD2     H 7429   1.722   2.010  15.882  1.8990  0.7401 -1.8871
  496MPD2    H1 7430   1.411   2.275  15.985  0.3078  0.9418 -2.3032
  496MPD2    H2 7431   1.812   2.409  15.992 -2.2195  2.0558 -1.1518
  496MPD2    H3 7432   1.578   2.451  16.010  0.2387 -0.8205  0.4266
  496MPD2     N 7433   1.472   2.024  15.914 -0.6681 -0.8771  0.1342
  496MPD2    H5 7434   1.388   2.047  15.861 -1.3397 -1.0317  1.1481
  496MPD2    N1 7435   1.924   2.175  15.918  0.2051  0.2358  0.5291
  496MPD2    H7 7436   1.987   2.255  15.915  0.6509 -0.1170  0.5069
  497TMC3    C1 7437   1.425   1.804  15.852  0.2660  0.4120 -0.6846
  497TMC3    C2 7438   1.407   1.858  15.721 -0.4736 -0.0301 -0.4917
  497TMC3    C3 7439   1.451   1.782  15.620  0.2145  0.3254 -0.7726
  497TMC3    C4 7440   1.475   1.681  15.874  1.0582  0.3771 -0.2021
  497TMC3    C5 7441   1.534   1.620  15.770  0.7283 -0.0172 -0.4060
  497TMC3    C6 7442   1.529   1.664  15.644 -0.4458  0.7333 -1.2318
  497TMC3     C 7443   1.509   1.894  15.932  0.6111 -0.0389  0.3078
  497TMC3     O 7444   1.603   1.841  15.989  0.1643 -0.2978 -0.0485
  497TMC3     H 7445   1.356   1.952  15.703 -0.9605 -0.2911 -0.4814
  497TMC3    H1 7446   1.475   1.645  15.976 -0.9721 -1.2541 -0.7713
  497TMC3    H2 7447   1.556   1.589  15.571  1.2341 -1.8079  2.0091
  497TMC3    C7 7448   1.666   1.551  15.798  0.6627  0.2208  0.3810
  497TMC3    C8 7449   1.431   1.823  15.483  0.6152  0.3297 -0.1693
  497TMC3    O1 7450   1.716   1.483  15.708 -0.1221 -0.0233  0.1866
  497TMC3    O2 7451   1.359   1.919  15.462 -0.2087 -0.4193  0.1347
  498MPD2     C 7452   2.869   2.569  10.079 -0.4212 -0.3438 -0.0583
  498MPD2    C1 7453   2.873   2.641  10.196  0.1757 -0.2493  0.5998
  498MPD2    C2 7454   2.761   2.660  10.271  0.5199 -0.2461  0.2277
  498MPD2    C3 7455   2.641   2.601  10.241 -0.1636 -0.5997  0.0713
  498MPD2    C4 7456   2.632   2.541  10.115  1.1155 -0.1742  0.1245
  498MPD2    C5 7457   2.746   2.522  10.037  0.1041 -0.2456 -0.2151
  498MPD2     H 7458   2.765   2.720  10.361  1.2308 -0.8926  0.6320
  498MPD2    H1 7459   2.539   2.501  10.075  2.0094 -2.1119 -0.0222
  498MPD2    H2 7460   2.955   2.557  10.015  0.4249  1.6112  0.7180
  498MPD2    H3 7461   2.741   2.467   9.944 -1.2439 -1.9508  0.8622
  498MPD2     N 7462   2.526   2.606  10.327  0.3871 -0.0523 -0.6824
  498MPD2    H5 7463   2.544   2.636  10.422 -0.1517  1.1614 -0.9747
  498MPD2    N1 7464   2.996   2.702  10.233  0.7099 -0.7048  0.9575
  498MPD2    H7 7465   3.000   2.770  10.309  2.0114  1.1385 -0.7383
  499TMC3    C1 7466   3.217   2.776  10.206 -1.2279 -0.8293  0.4763
  499TMC3    C2 7467   3.349   2.736  10.191 -0.3707  0.0191  0.8522
  499TMC3    C3 7468   3.441   2.828  10.215 -1.2806  0.2289 -0.2341
  499TMC3    C4 7469   3.174   2.900  10.242  0.1785  0.2589  0.1744
  499TMC3    C5 7470   3.275   2.992  10.274  0.4704  0.3797  0.2752
  499TMC3    C6 7471   3.405   2.956  10.255 -0.0188 -0.2631  0.1598
  499TMC3     C 7472   3.119   2.680  10.171  0.7777 -0.4774  0.4946
  499TMC3     O 7473   3.161   2.584  10.117 -0.7512  0.5144  0.3412
  499TMC3     H 7474   3.373   2.642  10.142 -1.0438  0.7976 -0.9760
  499TMC3    H1 7475   3.070   2.928  10.245  0.0890 -0.1366  0.8007
  499TMC3    H2 7476   3.470   3.039  10.282  0.0283  0.0936 -1.0370
  499TMC3    C7 7477   3.249   3.134  10.284 -0.2957  0.3343  0.0734
  499TMC3    C8 7478   3.573   2.805  10.165 -0.2378 -0.5541  0.3581
  499TMC3    O1 7479   3.338   3.218  10.284 -0.2909  0.0139 -0.3953
  499TMC3    O2 7480   3.601   2.703  10.109  0.1277  0.1093 -0.5259
  500MPD2     C 7481   4.627   3.398  11.105 -0.4976  0.3913 -0.0468
  500MPD2    C1 7482   4.647   3.450  10.981 -0.3136  0.0379  0.1449
  500MPD2    C2 7483   4.545   3.463  10.890  0.1234 -0.2194  0.6229
  500MPD2    C3 7484   4.421   3.397  10.914  0.7393  0.0566 -0.1432
  500MPD2    C4 7485   4.402   3.337  11.040  0.1171  0.1366  0.1972
  500MPD2    C5 7486   4.500   3.348  11.132  0.0872 -0.2831 -0.2797
  500MPD2     H 7487   4.568   3.527  10.805  0.3352  0.6926  1.3711
  500MPD2    H1 7488   4.318   3.278  11.074 -0.4894  0.6038 -0.4739
  500MPD2    H2 7489   4.699   3.390  11.185 -1.6709  1.5191  1.1233
  500MPD2    H3 7490   4.483   3.317  11.234  2.6901 -1.1737 -0.1040
  500MPD2     N 7491   4.330   3.369  10.813  0.0230 -0.0821 -0.1341
  500MPD2    H5 7492   4.244   3.322  10.840 -0.3453  1.4891  1.4258
  500MPD2    N1 7493   0.028   3.519  10.950  0.3237  0.3486 -0.0820
  500MPD2    H7 7494   0.038   3.566  10.861  2.1393  3.0334  1.5654
  501TMC3    C1 7495   0.246   3.589  10.991  0.5001 -0.1061  0.4582
  501TMC3    C2 7496   0.214   3.693  10.912  0.0981 -0.3741  0.0426
  501TMC3    C3 7497   0.314   3.760  10.850  0.3050  0.5778  0.6881
  501TMC3    C4 7498   0.377   3.557  11.033  0.0565  0.5594 -0.0791
  501TMC3    C5 7499   0.469   3.619  10.962  0.9935  0.1351 -0.4573
  501TMC3    C6 7500   0.438   3.724  10.875 -0.1585 -0.2474  0.0769
  501TMC3     C 7501   0.139   3.503  11.025  0.6298  0.4884  1.3351
  501TMC3     O 7502   0.172   3.420  11.106  0.2342  0.2565  0.1008
  501TMC3     H 7503   0.114   3.734  10.902  0.6650  0.6424 -1.5400
  501TMC3    H1 7504   0.399   3.466  11.087  0.1762  1.6469  1.6737
  501TMC3    H2 7505   0.515   3.766  10.813 -0.4430 -1.6986 -1.2623
  501TMC3    C7 7506   0.600   3.584  11.002  0.6246  0.0216 -0.1398
  501TMC3    C8 7507   0.303   3.894  10.804  0.7296  0.0610 -0.6251
  501TMC3    O1 7508   0.627   3.470  11.042 -0.1147  0.2171  0.3832
  501TMC3    O2 7509   0.397   3.967  10.817 -0.2180  0.0418 -0.2254
  502TMC3    C1 7510   4.417   3.292  15.244 -0.5688 -0.8156 -0.4389
  502TMC3    C2 7511   4.396   3.429  15.255  0.3528 -0.2498 -0.5074
  502TMC3    C3 7512   4.294   3.473  15.180 -0.2412  0.8787  0.0693
  502TMC3    C4 7513   4.345   3.208  15.174 -0.4158  1.0441 -0.1351
  502TMC3    C5 7514   4.247   3.260  15.090 -0.1516  0.8128 -0.1422
  502TMC3    C6 7515   4.231   3.398  15.085 -0.0460  0.4627  0.3057
  502TMC3     C 7516   4.535   3.239  15.312 -0.0882 -0.2223  0.2039
  502TMC3     O 7517   4.620   3.321  15.331 -0.0801 -0.5398  0.9502
  502TMC3     H 7518   4.448   3.489  15.329 -2.1535  1.8337 -0.4639
  502TMC3    H1 7519   4.364   3.102  15.163 -0.9556  1.0747 -1.3407
  502TMC3    H2 7520   4.167   3.446  15.012 -1.1337 -2.0840 -0.3928
  502TMC3    C7 7521   4.128   3.182  15.055 -0.7499 -0.2329 -0.1929
  502TMC3    C8 7522   4.255   3.617  15.177 -0.0325  0.2934 -0.4146
  502TMC3    O1 7523   4.051   3.250  14.991  0.8378  0.2753  0.5627
  502TMC3    O2 7524   4.325   3.712  15.212 -0.2431  0.5896 -0.3507
  503MPD2     C 7525   1.810   3.861  16.894 -0.3221  0.5244 -0.9700
  503MPD2    C1 7526   1.768   3.877  17.026  0.8443  0.3588 -0.4588
  503MPD2    C2 7527   1.806   3.784  17.121 -0.0925  0.6658 -0.0568
  503MPD2    C3 7528   1.882   3.671  17.087  0.0695 -0.1645  0.3642
  503MPD2    C4 7529   1.934   3.661  16.958  1.0707  0.4672  1.0597
  503MPD2    C5 7530   1.891   3.750  16.868 -1.3176 -0.2227  0.2782
  503MPD2     H 7531   1.767   3.811  17.218 -2.7065  0.3341 -1.0165
  503MPD2    H1 7532   1.990   3.572  16.932  1.7416  0.4119  2.7169
  503MPD2    H2 7533   1.787   3.928  16.812  1.3220 -0.6308 -2.3702
  503MPD2    H3 7534   1.910   3.735  16.762 -0.3999 -2.9323  0.8141
  503MPD2     N 7535   1.930   3.573  17.177  0.0221 -0.2307  1.0378
  503MPD2    H5 7536   2.000   3.505  17.146 -0.0599 -0.5567  1.5679
  503MPD2    N1 7537   1.680   3.985  17.070  0.3597 -0.5127  0.1891
  503MPD2    H7 7538   1.637   3.983  17.162  1.6145 -1.8899  0.7458
  504TMC3    C1 7539   1.955   3.469  17.397 -0.3074 -0.0402 -0.4737
  504TMC3    C2 7540   1.934   3.484  17.531  0.7726 -0.6568  0.0767
  504TMC3    C3 7541   1.981   3.391  17.619 -0.2676  0.0735  0.8746
  504TMC3    C4 7542   2.039   3.368  17.356  0.0381  0.0287 -0.1541
  504TMC3    C5 7543   2.105   3.286  17.441  0.0751  0.0301  0.1321
  504TMC3    C6 7544   2.078   3.303  17.574 -0.0885 -0.4916  0.0216
  504TMC3     C 7545   1.887   3.560  17.307 -0.5714 -0.1032  0.1362
  504TMC3     O 7546   1.786   3.610  17.345 -0.1078  0.0775 -0.4062
  504TMC3     H 7547   1.850   3.547  17.557  0.3853 -0.7490 -0.9332
  504TMC3    H1 7548   2.040   3.343  17.251  1.7126 -0.6182  0.0074
  504TMC3    H2 7549   2.124   3.234  17.644  0.8095  1.7382  1.6583
  504TMC3    C7 7550   2.226   3.227  17.387  0.1727  0.5017 -0.3814
  504TMC3    C8 7551   1.926   3.397   0.002 -0.6834  0.4081 -0.1918
  504TMC3    O1 7552   2.252   3.254  17.274 -0.1141 -0.4738  0.4515
  504TMC3    O2 7553   1.854   3.491   0.023 -0.5317 -0.0692 -0.7181
  505MPD2     C 7554   1.618   1.565  10.709 -0.9808 -0.4136  0.0697
  505MPD2    C1 7555   1.697   1.535  10.600 -0.1057  0.0253 -0.7523
  505MPD2    C2 7556   1.830   1.498  10.613  0.4041 -0.2244  0.9451
  505MPD2    C3 7557   1.885   1.494  10.736  0.7837 -0.2105  0.1594
  505MPD2    C4 7558   1.809   1.532  10.845  0.1466 -0.0949 -1.0208
  505MPD2    C5 7559   1.680   1.568  10.832  0.1899  0.1446  0.0335
  505MPD2     H 7560   1.884   1.483  10.520  0.8181 -1.1068  1.3395
  505MPD2    H1 7561   1.842   1.541  10.948 -0.6398  0.6671 -0.8244
  505MPD2    H2 7562   1.517   1.604  10.701 -0.5841  1.0372  2.2442
  505MPD2    H3 7563   1.621   1.581  10.922  1.0118  0.3638  0.5418
  505MPD2     N 7564   2.019   1.456  10.755  0.0797 -0.2864  0.8136
  505MPD2    H5 7565   2.052   1.450  10.850  2.6530  0.1111 -0.0726
  505MPD2    N1 7566   1.633   1.537  10.475 -0.1340 -0.2031  0.4903
  505MPD2    H7 7567   1.543   1.583  10.474 -0.5391 -1.0036  0.2126
  506TMC3    C1 7568   1.588   1.523  10.247 -0.0895 -0.3331 -0.0776
  506TMC3    C2 7569   1.568   1.656  10.231 -0.1714 -0.4443 -0.0628
  506TMC3    C3 7570   1.585   1.719  10.113 -0.4661 -0.2077 -0.3344
  506TMC3    C4 7571   1.636   1.456  10.138 -0.6828 -0.4649 -0.6642
  506TMC3    C5 7572   1.656   1.520  10.019  0.1808  0.6786  0.0318
  506TMC3    C6 7573   1.630   1.652  10.007  0.0108 -0.7848  0.0474
  506TMC3     C 7574   1.664   1.473  10.359  0.2420  0.3540  1.0431
  506TMC3     O 7575   1.756   1.401  10.335 -0.4106  0.0425  0.9999
  506TMC3     H 7576   1.541   1.718  10.316  0.5729 -1.0496  0.6082
  506TMC3    H1 7577   1.658   1.350  10.141 -1.7202 -0.6174  1.3529
  506TMC3    H2 7578   1.657   1.706   9.917  0.6625 -1.0055  0.1085
  506TMC3    C7 7579   1.787   1.481   9.964  0.4466 -0.2110 -0.1778
  506TMC3    C8 7580   1.562   1.865  10.104  0.4927  0.0548 -0.2427
  506TMC3    O1 7581   1.816   1.496   9.847 -0.0693  0.1707 -0.3630
  506TMC3    O2 7582   1.458   1.909  10.053 -0.4763 -0.2581 -0.0873
  507TMC3    C1 7583   1.844   2.653  14.757  0.0313  0.7417  0.0430
  507TMC3    C2 7584   1.718   2.604  14.770 -0.8704  0.0963  0.3792
  507TMC3    C3 7585   1.625   2.636  14.680  0.1150  0.6059  0.2297
  507TMC3    C4 7586   1.890   2.734  14.650 -0.6435 -0.3312 -0.1704
  507TMC3    C5 7587   1.791   2.758  14.555  0.0704  0.2459 -0.5964
  507TMC3    C6 7588   1.664   2.714  14.572 -0.3478 -0.0190 -0.1840
  507TMC3     C 7589   1.944   2.617  14.854  0.3836 -0.5219 -0.0333
  507TMC3     O 7590   2.057   2.616  14.810 -0.4390 -0.1048  0.4116
  507TMC3     H 7591   1.690   2.539  14.852 -1.6408  0.9491  0.7843
  507TMC3    H1 7592   1.994   2.764  14.638 -0.1280 -1.9919  0.0855
  507TMC3    H2 7593   1.596   2.727  14.489 -0.9200  1.0542  0.4542
  507TMC3    C7 7594   1.791   2.886  14.487 -0.5783  0.0305  0.2985
  507TMC3    C8 7595   1.516   2.701  14.748  0.0361 -0.3421 -0.0131
  507TMC3    O1 7596   1.679   2.917  14.461 -0.1663 -0.7314  0.0041
  507TMC3    O2 7597   1.461   2.652  14.846 -0.3590 -0.2385  0.2629
  508MPD2     C 7598   3.890   0.549  16.082 -0.5056 -0.1940 -0.1095
  508MPD2    C1 7599   3.820   0.656  16.122  0.4284 -0.2949  0.3272
  508MPD2    C2 7600   3.772   0.757  16.037  0.6919  0.1734 -0.1658
  508MPD2    C3 7601   3.796   0.736  15.896 -0.2190  0.6648 -0.4541
  508MPD2    C4 7602   3.868   0.627  15.859 -0.5616  0.1134 -0.0540
  508MPD2    C5 7603   3.910   0.535  15.950 -0.0666 -0.5083  0.4040
  508MPD2     H 7604   3.723   0.847  16.074  0.4425 -0.1387  0.2732
  508MPD2    H1 7605   3.881   0.600  15.754  1.0805  3.0019 -0.6139
  508MPD2    H2 7606   3.920   0.476  16.155  1.6750  2.5594  1.7488
  508MPD2    H3 7607   3.964   0.451  15.907 -1.0396 -2.0183  2.1449
  508MPD2     N 7608   3.764   0.847  15.809  0.5258  0.6588 -0.3467
  508MPD2    H5 7609   3.707   0.925  15.841  1.0790  0.7093  0.5136
  508MPD2    N1 7610   3.808   0.664  16.260  0.4626  0.0869 -0.9605
  508MPD2    H7 7611   3.849   0.589  16.315  0.6037  0.6929 -0.2294
  509TMC3    C1 7612   3.729   1.061  15.408 -0.3655 -0.1508 -0.0898
  509TMC3    C2 7613   3.769   1.175  15.471  0.3621 -0.4212  0.0571
  509TMC3    C3 7614   3.791   1.179  15.605 -0.6011 -0.6192 -0.6429
  509TMC3    C4 7615   3.717   0.949  15.481 -0.4177 -0.0756 -0.1620
  509TMC3    C5 7616   3.746   0.958  15.614  0.6234  0.0911 -0.1475
  509TMC3    C6 7617   3.790   1.071  15.678  0.3454 -0.2655  0.7370
  509TMC3     C 7618   3.614   1.071  15.320  0.5971 -0.1612 -0.1124
  509TMC3     O 7619   3.590   0.976  15.245 -0.2336 -0.3505 -0.2062
  509TMC3     H 7620   3.784   1.257  15.402 -0.0678  0.1096  0.5966
  509TMC3    H1 7621   3.667   0.859  15.448 -0.9064 -0.2244  0.9887
  509TMC3    H2 7622   3.831   1.073  15.778  0.8192 -1.0253  0.5601
  509TMC3    C7 7623   3.765   0.835  15.676 -0.1622  1.0484 -0.3132
  509TMC3    C8 7624   3.826   1.310  15.669 -0.0029 -0.5404  0.2534
  509TMC3    O1 7625   3.777   0.738  15.601  0.1611  0.3138 -0.3836
  509TMC3    O2 7626   3.881   1.389  15.595  0.1449 -0.1612 -0.0522
  510MPD2     C 7627   1.207   2.094  14.783  0.0278  0.6087 -0.8762
  510MPD2    C1 7628   1.228   2.107  14.916 -0.0665  0.3241  0.3488
  510MPD2    C2 7629   1.356   2.147  14.961 -0.6140 -0.4946  0.7969
  510MPD2    C3 7630   1.455   2.177  14.867  0.0087  0.0499  0.5148
  510MPD2    C4 7631   1.415   2.202  14.733 -0.3886  0.2577  0.1976
  510MPD2    C5 7632   1.293   2.156  14.695 -0.2251 -0.2527 -0.3023
  510MPD2     H 7633   1.388   2.144  15.065 -0.5262  0.7944  0.8064
  510MPD2    H1 7634   1.484   2.237  14.657  0.0925 -1.3313 -0.0922
  510MPD2    H2 7635   1.114   2.063  14.736 -0.0994  2.0552 -1.5773
  510MPD2    H3 7636   1.272   2.165  14.589 -2.3060 -3.0932 -0.1038
  510MPD2     N 7637   1.587   2.187  14.906  0.9695  0.4796 -0.3938
  510MPD2    H5 7638   1.604   2.150  14.999 -2.1963 -1.4593 -0.5732
  510MPD2    N1 7639   1.131   2.053  14.999 -0.0331  0.2404 -0.0049
  510MPD2    H7 7640   1.050   2.013  14.954  0.1459 -1.8256  1.4904
  511TMC3    C1 7641   1.015   1.970  15.187  0.3508  0.8464  0.1590
  511TMC3    C2 7642   1.016   1.966  15.328 -0.2241 -0.6681  0.1151
  511TMC3    C3 7643   0.966   1.853  15.384 -0.2771  0.0756  0.8926
  511TMC3    C4 7644   0.961   1.868  15.109 -0.2263 -0.4769  0.1319
  511TMC3    C5 7645   0.913   1.756  15.174  0.3402  0.0840 -0.4307
  511TMC3    C6 7646   0.908   1.753  15.306  0.2392 -0.3269  0.0274
  511TMC3     C 7647   1.121   2.065  15.134  0.1479 -0.7093 -0.3180
  511TMC3     O 7648   1.192   2.124  15.213  0.0538 -0.4810  0.0873
  511TMC3     H 7649   1.078   2.036  15.382 -1.3073  1.0759 -0.8592
  511TMC3    H1 7650   0.943   1.879  15.002 -3.0336 -1.9387  0.4633
  511TMC3    H2 7651   0.857   1.670  15.352 -1.4340  0.3698 -0.5672
  511TMC3    C7 7652   0.875   1.640  15.094 -0.0126  0.4358  0.8692
  511TMC3    C8 7653   0.973   1.825  15.526 -0.1932  0.6472 -0.0255
  511TMC3    O1 7654   0.868   1.663  14.972  0.1673  0.2873 -0.0334
  511TMC3    O2 7655   1.003   1.705  15.550  0.0254 -0.0606 -0.1403
  512TMC3    C1 7656   0.206   1.860  13.209  0.0242 -0.3899  0.4435
  512TMC3    C2 7657   0.275   1.873  13.327  0.2742  0.3091 -0.9031
  512TMC3    C3 7658   0.370   1.770  13.358  0.4135 -0.7122  0.1048
  512TMC3    C4 7659   0.229   1.757  13.122  0.4157 -0.3572  0.3024
  512TMC3    C5 7660   0.325   1.668  13.156 -0.2683  0.5238 -0.1702
  512TMC3    C6 7661   0.399   1.669  13.266  0.0694 -0.0923  0.2487
  512TMC3     C 7662   0.108   1.954  13.168 -0.4541 -0.5373  0.3454
  512TMC3     O 7663   0.054   1.936  13.063 -0.3450  0.3678  0.3236
  512TMC3     H 7664   0.243   1.950  13.395 -1.7595 -0.1898 -1.2876
  512TMC3    H1 7665   0.180   1.760  13.025  3.1122 -0.4740 -1.0574
  512TMC3    H2 7666   0.480   1.599  13.284  0.9679  1.0781  0.7162
  512TMC3    C7 7667   0.325   1.545  13.072  0.0488  0.6667  0.2704
  512TMC3    C8 7668   0.474   1.793  13.460 -0.4403  0.1599  0.0586
  512TMC3    O1 7669   0.244   1.546  12.980  0.2237  0.1753  0.3359
  512TMC3    O2 7670   0.560   1.712  13.480  0.1901 -0.8052 -0.4608
  513MPD2     C 7671   1.959   1.075  13.664 -0.3925  0.5690 -0.7805
  513MPD2    C1 7672   1.973   1.154  13.555  0.2503 -0.3564  0.0986
  513MPD2    C2 7673   1.991   1.290  13.565  0.1653  0.5705  0.3733
  513MPD2    C3 7674   1.994   1.349  13.691  0.8901  0.3612 -0.1503
  513MPD2    C4 7675   1.972   1.269  13.803  0.1812 -0.6027  0.5985
  513MPD2    C5 7676   1.975   1.130  13.790  0.0602 -0.2584 -0.2967
  513MPD2     H 7677   2.005   1.350  13.476  1.6859 -0.8390 -0.3413
  513MPD2    H1 7678   1.974   1.313  13.902  2.4761 -0.3678  0.4522
  513MPD2    H2 7679   1.954   0.966  13.661  0.0062  0.5289 -0.0879
  513MPD2    H3 7680   1.956   1.062  13.873 -0.5008 -0.4778 -0.6080
  513MPD2     N 7681   2.020   1.486  13.702 -0.1279 -0.4165  0.1311
  513MPD2    H5 7682   2.040   1.536  13.616 -0.6797 -0.4369 -0.0056
  513MPD2    N1 7683   1.973   1.105  13.429 -0.5612  0.3858 -0.2546
  513MPD2    H7 7684   2.002   1.173  13.360 -2.3493  0.1785 -1.2218
  514TMC3    C1 7685   1.979   0.982  13.240  0.9594 -0.1226  0.6299
  514TMC3    C2 7686   1.871   0.993  13.156 -0.3696 -0.2044  0.0212
  514TMC3    C3 7687   1.893   1.062  13.040  0.0469 -0.2566  0.5285
  514TMC3    C4 7688   2.099   1.035  13.210  0.1919 -0.2797 -0.0388
  514TMC3    C5 7689   2.103   1.130  13.106 -0.3157 -0.2138 -0.5630
  514TMC3    C6 7690   2.007   1.136  13.013 -0.4047  0.7540  0.5396
  514TMC3     C 7691   1.949   0.984  13.386  0.7519  0.0154 -0.3070
  514TMC3     O 7692   1.925   0.878  13.448  0.1804 -0.0411  0.1399
  514TMC3     H 7693   1.780   0.946  13.191 -0.7856  0.9596  0.5023
  514TMC3    H1 7694   2.177   1.038  13.285  0.6421 -0.0146 -0.5129
  514TMC3    H2 7695   2.013   1.200  12.926  1.0403  1.7376  1.3651
  514TMC3    C7 7696   2.147   1.258  13.160  0.9728  0.1129 -0.2190
  514TMC3    C8 7697   1.784   1.080  12.949 -0.2189 -0.0151 -0.3627
  514TMC3    O1 7698   2.102   1.286  13.266 -0.1530 -0.1341  0.0223
  514TMC3    O2 7699   1.667   1.077  12.998  0.0969 -0.3765  0.3415
  515MPD2     C 7700   0.162   4.081  14.853  0.9505  0.9108  0.2454
  515MPD2    C1 7701   0.199   3.945  14.847  0.0266  0.8751  0.2798
  515MPD2    C2 7702   0.297   3.895  14.924 -0.4074 -0.1777  0.4326
  515MPD2    C3 7703   0.375   3.975  15.007 -0.5965  0.0532  0.2944
  515MPD2    C4 7704   0.352   4.112  14.995  0.1356 -0.1197  0.3109
  515MPD2    C5 7705   0.248   4.161  14.923 -0.8986 -0.0652 -0.2354
  515MPD2     H 7706   0.312   3.788  14.916  0.9862 -0.0006  0.5714
  515MPD2    H1 7707   0.409   4.185  15.052 -1.5733  1.9207 -0.5919
  515MPD2    H2 7708   0.082   4.121  14.792  0.3452  0.1716  0.5472
  515MPD2    H3 7709   0.231   4.267  14.929 -2.4528 -0.2316 -1.7374
  515MPD2     N 7710   0.477   3.924  15.093 -0.0045  0.5545 -0.7598
  515MPD2    H5 7711   0.532   3.993  15.143 -0.9733  1.2256 -0.6382
  515MPD2    N1 7712   0.121   3.853  14.774 -0.2469  0.0108 -0.4058
  515MPD2    H7 7713   0.149   3.756  14.786 -1.6772 -0.3178  0.2893
  516TMC3    C1 7714   4.677   3.752  14.666  0.4925  1.0067 -0.2614
  516TMC3    C2 7715   4.596   3.751  14.556 -0.2460  0.1190 -0.1206
  516TMC3    C3 7716   4.542   3.629  14.518 -0.1842 -0.6733 -0.3651
  516TMC3    C4 7717   4.703   3.642  14.738 -0.3605  0.2593 -0.1491
  516TMC3    C5 7718   4.630   3.533  14.709  0.2382  0.7603 -0.1593
  516TMC3    C6 7719   4.558   3.514  14.590  0.4281 -0.1828 -0.0629
  516TMC3     C 7720   0.011   3.876  14.695  0.4505  0.4570 -0.1959
  516TMC3     O 7721   4.701   3.978  14.648  0.5276 -0.1718 -0.1175
  516TMC3     H 7722   4.590   3.843  14.499 -1.2423  0.0019 -0.2137
  516TMC3    H1 7723   0.016   3.635  14.832 -0.7846  1.0802  0.1550
  516TMC3    H2 7724   4.510   3.423  14.556  0.2244 -0.2739  0.4650
  516TMC3    C7 7725   4.657   3.421  14.787 -0.0652 -0.2512  0.6450
  516TMC3    C8 7726   4.471   3.616  14.388  0.2447  0.0943  0.7931
  516TMC3    O1 7727   0.027   3.416  14.839  0.4727  0.4933  0.3992
  516TMC3    O2 7728   4.449   3.506  14.347  0.6347  0.3835  0.0308
  517MPD2     C 7729   4.731   4.344   0.329  0.0530  0.6606  0.3600
  517MPD2    C1 7730   0.000   4.441   0.233 -0.1591  0.5784 -0.9932
  517MPD2    C2 7731   0.013   4.574   0.276 -1.0126  0.1440  0.7101
  517MPD2    C3 7732   0.010   4.612   0.414 -0.3396 -0.1482 -0.3154
  517MPD2    C4 7733   4.726   4.510   0.506 -0.4199  0.1062  0.6733
  517MPD2    C5 7734   4.728   4.381   0.466 -0.1958 -0.1375  0.7198
  517MPD2     H 7735   0.017   4.647   0.196 -2.4371 -1.3417 -0.7236
  517MPD2    H1 7736   4.710   4.541   0.609  0.8244  1.1856  0.5452
  517MPD2    H2 7737   0.001   4.239   0.302  0.5110  0.3096  1.9097
  517MPD2    H3 7738   4.706   4.297   0.531  0.5750 -1.0388 -0.1826
  517MPD2     N 7739   0.014   0.010   0.462 -0.0355 -0.6241 -0.2882
  517MPD2    H5 7740   0.014   0.015   0.563 -1.6955 -0.6867 -0.2887
  517MPD2    N1 7741   4.731   4.408   0.090  0.0400 -0.2952  0.0042
  517MPD2    H7 7742   0.013   4.485   0.027 -0.6947 -0.2883 -0.2448
  518TMC3    C1 7743   4.733   4.259  17.655 -0.5632  0.6645  0.6391
  518TMC3    C2 7744   0.005   4.133  17.600  0.2074 -0.2603 -0.0438
  518TMC3    C3 7745   0.043   4.116  17.465 -0.1453 -0.1396  0.2058
  518TMC3    C4 7746   0.018   4.367  17.582  0.2617  0.0896  0.7580
  518TMC3    C5 7747   0.074   4.351  17.455 -0.1551  1.0035 -0.1149
  518TMC3    C6 7748   0.079   4.230  17.391  0.1723  0.0812  0.8083
  518TMC3     C 7749   4.713   4.280   0.039  0.2438  0.1482  0.3497
  518TMC3     O 7750   4.695   4.176   0.102 -0.3514  0.0745 -0.0915
  518TMC3     H 7751   4.703   4.053  17.660 -2.3657  1.9028  1.0296
  518TMC3    H1 7752   0.014   4.464  17.630 -1.4937 -0.8017  2.4384
  518TMC3    H2 7753   0.128   4.217  17.295  0.0125 -1.9146  1.0000
  518TMC3    C7 7754   0.149   4.459  17.408  1.0245  0.2599 -0.0317
  518TMC3    C8 7755   0.062   3.982  17.410  0.6327  0.4805  0.2194
  518TMC3    O1 7756   0.131   4.572  17.461  0.5150 -0.5804 -0.2549
  518TMC3    O2 7757   0.100   3.895  17.482 -0.3445  0.1954  0.4912
  519MPD2     C 7758   1.209   2.611  14.554 -0.1440  0.4096  0.3748
  519MPD2    C1 7759   1.219   2.733  14.493  0.4643  0.1165 -0.1483
  519MPD2    C2 7760   1.296   2.747  14.378  0.3093  0.4684  0.0721
  519MPD2    C3 7761   1.379   2.649  14.342  0.5194  0.6893  0.9174
  519MPD2    C4 7762   1.372   2.522  14.410 -0.6619 -0.8202  0.0435
  519MPD2    C5 7763   1.285   2.506  14.516 -0.6747  0.4649  0.7966
  519MPD2     H 7764   1.288   2.837  14.319 -0.8026 -0.2002 -0.8004
  519MPD2    H1 7765   1.438   2.440  14.381  1.4812  0.3408  1.6415
  519MPD2    H2 7766   1.146   2.611  14.642  1.5018 -0.6750  1.5323
  519MPD2    H3 7767   1.280   2.414  14.572  1.0506  1.1063  1.9712
  519MPD2     N 7768   1.469   2.640  14.236 -0.2565  0.0636 -0.0898
  519MPD2    H5 7769   1.507   2.547  14.224 -0.4353 -0.0954  0.5696
  519MPD2    N1 7770   1.128   2.833  14.530 -0.3445  0.3824  0.2285
  519MPD2    H7 7771   1.045   2.817  14.587 -0.8430 -0.0263 -0.6079
  520TMC3    C1 7772   1.608   2.702  14.065 -0.3598 -0.7365 -0.1630
  520TMC3    C2 7773   1.630   2.783  13.957  0.6257  0.6985  0.9721
  520TMC3    C3 7774   1.762   2.812  13.923 -0.3597  0.0188  0.6154
  520TMC3    C4 7775   1.707   2.646  14.139  0.1558  0.1480  0.3652
  520TMC3    C5 7776   1.834   2.675  14.100  0.1350 -0.0402  0.3812
  520TMC3    C6 7777   1.868   2.757  13.996 -0.5569 -0.9262  0.4152
  520TMC3     C 7778   1.499   2.743  14.150 -0.5385  0.9442 -0.3819
  520TMC3     O 7779   1.470   2.859  14.130 -0.7630  0.0971  0.0606
  520TMC3     H 7780   1.545   2.828  13.906  0.6183  1.1663  1.4058
  520TMC3    H1 7781   1.697   2.575  14.220  1.1080 -0.7521 -0.3068
  520TMC3    H2 7782   1.972   2.777  13.975 -0.5346 -0.3092  1.1381
  520TMC3    C7 7783   1.929   2.659  14.209  0.3286 -0.2139  0.8354
  520TMC3    C8 7784   1.787   2.860  13.785  1.1352  0.0060  0.0716
  520TMC3    O1 7785   1.921   2.570  14.291 -0.5253  0.0647 -0.0441
  520TMC3    O2 7786   1.889   2.828  13.725 -0.0018  0.0221 -0.1241
  521MPD2     C 7787   2.634   1.396   0.035 -0.0099  0.1073  0.5475
  521MPD2    C1 7788   2.633   1.281  17.716  0.0307  0.4674 -0.5076
  521MPD2    C2 7789   2.755   1.236  17.654  0.6274 -0.3443 -0.2925
  521MPD2    C3 7790   2.863   1.323  17.652  0.3719 -0.7524 -0.9316
  521MPD2    C4 7791   2.859   1.445  17.715 -0.3618 -0.0254  0.3726
  521MPD2    C5 7792   2.746   1.477   0.038  0.1043 -1.1267  0.4025
  521MPD2     H 7793   2.766   1.141  17.603  1.5001 -1.1182  1.3517
  521MPD2    H1 7794   2.943   1.513  17.720 -1.5422  1.5395 -1.1777
  521MPD2    H2 7795   2.544   1.437   0.079 -0.3073  0.9106 -0.8205
  521MPD2    H3 7796   2.735   1.573   0.088 -0.2841 -1.1442  0.3558
  521MPD2     N 7797   2.964   1.282  17.567  0.2666  0.3665  0.4145
  521MPD2    H5 7798   2.952   1.193  17.520 -2.8303 -0.0418  1.9884
  521MPD2    N1 7799   2.509   1.208  17.698  0.1390  0.5089  0.2832
  521MPD2    H7 7800   2.430   1.253  17.742 -0.6047  0.9094 -1.4865
  522TMC3    C1 7801   3.111   1.300  17.398 -0.0743  0.1713 -0.1031
  522TMC3    C2 7802   3.217   1.366  17.345 -0.6372 -0.2965  0.0045
  522TMC3    C3 7803   3.255   1.337  17.219 -0.1624 -0.1933 -0.0900
  522TMC3    C4 7804   3.026   1.227  17.324  0.1547 -0.3095 -0.3876
  522TMC3    C5 7805   3.067   1.217  17.192  0.2587 -0.4226 -0.7976
  522TMC3    C6 7806   3.182   1.261  17.130 -0.6340  0.1534  0.7183
  522TMC3     C 7807   3.068   1.357  17.528 -0.1604 -0.5861  0.3422
  522TMC3     O 7808   3.107   1.470  17.561 -0.3893  0.0903  0.3030
  522TMC3     H 7809   3.288   1.423  17.403  0.0284  0.3082 -1.3831
  522TMC3    H1 7810   2.937   1.183  17.366  0.2226 -0.6961 -0.6544
  522TMC3    H2 7811   3.195   1.251  17.023 -0.5084 -2.9160  1.0278
  522TMC3    C7 7812   3.017   1.107  17.123 -0.0482  0.1983 -0.0332
  522TMC3    C8 7813   3.362   1.410  17.166 -0.1946 -0.1874  0.3783
  522TMC3    O1 7814   3.096   1.035  17.062 -0.0729 -0.2049 -0.0307
  522TMC3    O2 7815   3.378   1.529  17.198 -0.8790  0.6980 -0.4369
  523MPD2     C 7816   0.261   1.274  10.933  0.5511 -0.3525  0.0078
  523MPD2    C1 7817   0.198   1.199  10.831 -0.1457 -0.2783  0.2047
  523MPD2    C2 7818   0.129   1.268  10.728  0.1896 -0.1623 -0.2920
  523MPD2    C3 7819   0.121   1.405  10.730  0.4738 -0.8946  0.2922
  523MPD2    C4 7820   0.185   1.473  10.829  0.1894  0.7449  0.0945
  523MPD2    C5 7821   0.249   1.410  10.929 -0.0582 -0.4549 -0.5152
  523MPD2     H 7822   0.082   1.207  10.652  1.3578 -0.4159 -0.8062
  523MPD2    H1 7823   0.185   1.581  10.832  1.5787  0.7054  1.5165
  523MPD2    H2 7824   0.325   1.229  11.008 -0.9913 -0.0436  1.5267
  523MPD2    H3 7825   0.292   1.470  11.009 -2.0227  0.5681 -0.2232
  523MPD2     N 7826   0.067   1.476  10.626  0.1128  0.7321  0.1031
  523MPD2    H5 7827   0.075   1.578  10.630  0.4992  0.6649  1.1868
  523MPD2    N1 7828   0.225   1.060  10.835 -0.5486 -0.5589  0.0054
  523MPD2    H7 7829   0.269   1.019  10.917  1.9366  0.6094 -0.7549
  524TMC3    C1 7830   4.713   1.528  10.423 -0.0683  0.0056  0.4926
  524TMC3    C2 7831   0.062   1.637  10.422 -0.1775  0.0873  0.6107
  524TMC3    C3 7832   0.035   1.734  10.333 -0.2183  0.2636  0.4402
  524TMC3    C4 7833   4.602   1.514  10.342 -0.9320  0.1477 -0.2413
  524TMC3    C5 7834   4.586   1.616  10.253 -0.2312  0.9846  0.6539
  524TMC3    C6 7835   4.669   1.724  10.248  0.5489 -0.1386  0.6893
  524TMC3     C 7836   4.737   1.425  10.519 -0.1997  0.4055 -0.3106
  524TMC3     O 7837   4.659   1.333  10.529 -0.3305 -0.2248 -0.4392
  524TMC3     H 7838   0.166   1.629  10.453  0.0887  0.4293 -0.1817
  524TMC3    H1 7839   4.551   1.419  10.334  0.8611 -1.0621  2.8303
  524TMC3    H2 7840   4.638   1.812  10.193 -1.5697 -0.8666  0.7099
  524TMC3    C7 7841   4.457   1.612  10.187 -0.3812 -0.8148 -0.6727
  524TMC3    C8 7842   0.134   1.832  10.295 -0.8235 -0.0642 -0.0573
  524TMC3    O1 7843   4.383   1.520  10.214  0.3603  0.2495 -0.4348
  524TMC3    O2 7844   0.108   1.893  10.192  0.4298 -0.1397  0.1796
  525MPD2     C 7845   2.906   3.046  14.446  0.3483  0.5839  0.1495
  525MPD2    C1 7846   3.043   3.040  14.480  0.1146  0.7041 -0.3196
  525MPD2    C2 7847   3.122   3.150  14.461 -0.1839 -0.0482 -0.0998
  525MPD2    C3 7848   3.059   3.266  14.423 -0.1149 -1.3046  0.1775
  525MPD2    C4 7849   2.929   3.271  14.399 -0.2143 -0.4665  0.0763
  525MPD2    C5 7850   2.850   3.160  14.402 -1.0672  0.5029 -0.1370
  525MPD2     H 7851   3.223   3.149  14.499 -0.9286 -0.7545  1.8377
  525MPD2    H1 7852   2.878   3.365  14.379 -1.5390 -1.0864  0.5328
  525MPD2    H2 7853   2.842   2.958  14.442  1.2649 -0.1359  1.2001
  525MPD2    H3 7854   2.747   3.170  14.369 -0.8047  0.9724 -0.8217
  525MPD2     N 7855   3.123   3.390  14.444 -0.4039 -0.4267 -0.7556
  525MPD2    H5 7856   3.064   3.472  14.430 -1.8633 -1.3956 -0.2156
  525MPD2    N1 7857   3.104   2.926  14.538  0.1572  0.4378 -0.7245
  525MPD2    H7 7858   3.205   2.937  14.549  0.0634  1.0310 -0.4439
  526TMC3    C1 7859   3.134   2.705  14.622 -0.4010  0.2313 -0.2674
  526TMC3    C2 7860   3.091   2.617  14.722  0.3547 -0.7617 -0.0841
  526TMC3    C3 7861   3.167   2.499  14.741  0.2806 -0.3117  0.4137
  526TMC3    C4 7862   3.247   2.684  14.545 -0.3102  0.0731  0.3128
  526TMC3    C5 7863   3.322   2.570  14.566  0.3071  0.1228 -0.2274
  526TMC3    C6 7864   3.278   2.479  14.665  0.8599 -0.6716 -0.2183
  526TMC3     C 7865   3.044   2.808  14.577  0.1624  0.1947  0.2554
  526TMC3     O 7866   2.932   2.798  14.617 -0.0679 -0.5164  0.0727
  526TMC3     H 7867   3.002   2.648  14.775  1.7200 -1.7468  2.7935
  526TMC3    H1 7868   3.284   2.758  14.475  0.1753  0.2458  0.7486
  526TMC3    H2 7869   3.332   2.385  14.675 -0.4992 -1.4098  0.1564
  526TMC3    C7 7870   3.467   2.584  14.552 -0.0001 -0.4733  0.3050
  526TMC3    C8 7871   3.191   2.465  14.881  0.5537 -0.4660 -0.0536
  526TMC3    O1 7872   3.515   2.692  14.527 -0.0112 -0.1012 -0.1371
  526TMC3    O2 7873   3.301   2.420  14.903  0.0754 -0.1129 -0.2761
  527MPD2     C 7874   1.547   1.079   1.588  0.0803 -0.0092  0.1914
  527MPD2    C1 7875   1.477   0.977   1.519  0.7053 -0.3748  0.2964
  527MPD2    C2 7876   1.549   0.876   1.454  0.1646  0.3926  0.2535
  527MPD2    C3 7877   1.676   0.899   1.419 -1.0259 -0.0054  0.0050
  527MPD2    C4 7878   1.743   1.002   1.476  0.0462 -0.1230  0.1043
  527MPD2    C5 7879   1.675   1.093   1.560  0.4967  0.5472  0.7420
  527MPD2     H 7880   1.499   0.797   1.399  0.3770  0.5051 -0.1089
  527MPD2    H1 7881   1.841   1.043   1.453  0.2548 -0.8852 -0.3567
  527MPD2    H2 7882   1.503   1.157   1.649 -2.0865 -0.9656 -0.1272
  527MPD2    H3 7883   1.730   1.179   1.599  2.6216 -1.2268  1.6657
  527MPD2     N 7884   1.730   0.806   1.325  0.4832 -0.2115  0.1127
  527MPD2    H5 7885   1.680   0.724   1.293  1.1421 -0.5416 -0.0624
  527MPD2    N1 7886   1.338   0.953   1.522  0.1905  0.7005 -0.1706
  527MPD2    H7 7887   1.300   0.877   1.466  0.8989 -0.0884  0.4215
  528TMC3    C1 7888   1.105   0.985   1.573  0.5624 -0.1083  0.0851
  528TMC3    C2 7889   1.075   0.894   1.476  0.4909  0.7792  0.2751
  528TMC3    C3 7890   0.953   0.877   1.426  0.1266  0.2370 -0.2646
  528TMC3    C4 7891   1.006   1.068   1.620  0.0672 -0.9462  0.2881
  528TMC3    C5 7892   0.877   1.052   1.563  0.8080 -0.0763  0.3545
  528TMC3    C6 7893   0.850   0.959   1.472 -0.4641  0.8314 -0.2243
  528TMC3     C 7894   1.247   1.022   1.601 -0.2140 -0.2034 -0.4370
  528TMC3     O 7895   1.276   1.110   1.675  0.0477 -0.4433  0.0381
  528TMC3     H 7896   1.153   0.832   1.432  2.5222  3.6710 -0.2234
  528TMC3    H1 7897   1.042   1.146   1.686 -1.3874 -0.6701  0.7554
  528TMC3    H2 7898   0.753   0.939   1.427 -0.7966 -2.7209  2.1544
  528TMC3    C7 7899   0.768   1.134   1.598 -0.0105 -0.7562  0.0828
  528TMC3    C8 7900   0.937   0.826   1.287  0.0719 -0.2743  0.5415
  528TMC3    O1 7901   0.666   1.133   1.534  0.2924  0.2395 -0.2296
  528TMC3    O2 7902   1.035   0.845   1.216  0.0238 -0.4808 -0.3293
  529MPD2     C 7903   3.519   3.989   0.970  0.7555  0.6758 -0.5458
  529MPD2    C1 7904   3.572   3.930   0.854 -0.2411 -0.2730 -0.1467
  529MPD2    C2 7905   3.530   3.985   0.738  0.5035  0.4360 -0.7525
  529MPD2    C3 7906   3.454   4.099   0.730 -0.1643 -0.4101 -0.2993
  529MPD2    C4 7907   3.412   4.168   0.845  0.8766 -0.1425  0.0499
  529MPD2    C5 7908   3.444   4.105   0.963  0.2513 -0.3714 -0.6201
  529MPD2     H 7909   3.572   3.946   0.646  1.1413 -0.4121 -0.1106
  529MPD2    H1 7910   3.352   4.258   0.848 -1.0677 -1.4383  0.1448
  529MPD2    H2 7911   3.554   3.957   1.067  2.1689 -0.1307 -1.3189
  529MPD2    H3 7912   3.436   4.158   1.057  2.2462  0.9487 -1.1953
  529MPD2     N 7913   3.424   4.162   0.610 -0.4367 -0.3130  0.6026
  529MPD2    H5 7914   3.359   4.240   0.611  0.1190  0.1622  0.3185
  529MPD2    N1 7915   3.656   3.813   0.847 -0.2691 -0.3942 -0.0266
  529MPD2    H7 7916   3.679   3.775   0.756 -2.7620 -0.3838 -0.6650
  530TMC3    C1 7917   3.818   3.654   0.910  0.1038  0.6632 -0.1058
  530TMC3    C2 7918   3.940   3.644   0.966  0.3806  0.1288 -0.3018
  530TMC3    C3 7919   4.015   3.534   0.935  0.4926 -0.3363  0.0358
  530TMC3    C4 7920   3.778   3.567   0.806  0.1595 -0.0058  0.1101
  530TMC3    C5 7921   3.851   3.457   0.776  0.3480  0.2575  0.2177
  530TMC3    C6 7922   3.975   3.439   0.839 -0.1021  0.5745  0.5141
  530TMC3     C 7923   3.724   3.753   0.953 -0.8031 -0.2130  0.0538
  530TMC3     O 7924   3.728   3.794   1.070 -0.2114  0.3413  0.3079
  530TMC3     H 7925   3.962   3.713   1.047  0.1867 -0.5338  0.3146
  530TMC3    H1 7926   3.679   3.567   0.762  0.3537 -1.6902 -0.3384
  530TMC3    H2 7927   4.032   3.350   0.816 -0.7136  0.3767 -0.2512
  530TMC3    C7 7928   3.789   3.335   0.731  0.4134 -0.2768  0.1549
  530TMC3    C8 7929   4.111   3.503   1.046  0.4052  0.5835 -0.2902
  530TMC3    O1 7930   3.728   3.340   0.627  0.0295  0.5097 -0.0662
  530TMC3    O2 7931   4.090   3.562   1.156  0.5869  0.4087 -0.1038
  531MPD2     C 7932   2.350   1.737  13.134 -0.5685  0.2648 -0.3489
  531MPD2    C1 7933   2.290   1.672  13.236 -0.6338  0.1966  0.2115
  531MPD2    C2 7934   2.252   1.536  13.220 -0.4296 -0.7336  0.3033
  531MPD2    C3 7935   2.278   1.470  13.105  0.0082  0.6839 -0.3874
  531MPD2    C4 7936   2.347   1.537  13.002 -0.7105 -0.4342 -0.3602
  531MPD2    C5 7937   2.381   1.670  13.019  0.1743  0.1572  0.4844
  531MPD2     H 7938   2.207   1.489  13.307 -0.9550 -3.6575 -1.5612
  531MPD2    H1 7939   2.373   1.488  12.909 -1.9737 -1.2014 -0.3162
  531MPD2    H2 7940   2.400   1.833  13.139 -0.7301  0.2441  1.4084
  531MPD2    H3 7941   2.435   1.727  12.943  0.3612 -0.2598  0.3027
  531MPD2     N 7942   2.227   1.336  13.078  0.7959 -0.1791 -0.2192
  531MPD2    H5 7943   2.255   1.295  12.989  1.9568 -0.8826  0.4713
  531MPD2    N1 7944   2.258   1.748  13.357 -0.2604 -0.2492 -0.1075
  531MPD2    H7 7945   2.311   1.834  13.365 -0.4208 -0.0995 -0.6709
  532TMC3    C1 7946   2.166   1.755  13.584  0.4211 -0.1519  1.0203
  532TMC3    C2 7947   2.059   1.715  13.656 -0.0911  0.0364  0.1349
  532TMC3    C3 7948   2.070   1.685  13.789 -0.1950 -0.1042 -0.2635
  532TMC3    C4 7949   2.282   1.786  13.644  0.3641 -0.0896  0.0239
  532TMC3    C5 7950   2.281   1.785  13.784 -0.1849 -0.1005 -0.8582
  532TMC3    C6 7951   2.180   1.728  13.858 -0.5221  0.6721  0.0603
  532TMC3     C 7952   2.164   1.703  13.451 -0.4340  0.4487  0.3869
  532TMC3     O 7953   2.077   1.624  13.433  0.5336  0.0662 -0.7924
  532TMC3     H 7954   1.961   1.694  13.615  0.1692 -1.0676  0.0865
  532TMC3    H1 7955   2.366   1.831  13.592 -0.6129  1.6173 -0.0540
  532TMC3    H2 7956   2.186   1.721  13.966  3.1454  1.3603 -0.1246
  532TMC3    C7 7957   2.405   1.801  13.856  0.2733  0.4113  0.3611
  532TMC3    C8 7958   2.031   1.553  13.817  0.3985 -0.2389 -0.3026
  532TMC3    O1 7959   2.399   1.824  13.974 -0.0526  1.0565  0.3288
  532TMC3    O2 7960   2.011   1.519  13.936  0.2789  0.0682  0.9816
  533TMC3    C1 7961   3.266   3.552  14.503  0.3302  0.2375 -0.8376
  533TMC3    C2 7962   3.390   3.602  14.470  0.3368  1.1429 -0.4004
  533TMC3    C3 7963   3.438   3.705  14.540  0.6200 -0.5696  0.3907
  533TMC3    C4 7964   3.195   3.607  14.604 -0.7608 -0.1790 -0.4004
  533TMC3    C5 7965   3.253   3.696  14.689 -0.1894 -0.3316 -0.4001
  533TMC3    C6 7966   3.373   3.755  14.651  0.3435  0.6694  0.2495
  533TMC3     C 7967   3.251   3.415  14.475  0.8506  0.0658 -0.1570
  533TMC3     O 7968   3.350   3.338  14.470 -0.6219 -0.2955 -0.2604
  533TMC3     H 7969   3.448   3.562  14.388  2.7263  0.7634  1.5019
  533TMC3    H1 7970   3.110   3.547  14.636 -0.4491 -0.5265 -0.2175
  533TMC3    H2 7971   3.421   3.826  14.718 -0.4426  3.0630 -1.7449
  533TMC3    C7 7972   3.246   3.649  14.827 -1.1565 -0.4663  0.6159
  533TMC3    C8 7973   3.553   3.785  14.501  0.3115  0.2609  0.1027
  533TMC3    O1 7974   3.163   3.561  14.845 -0.4817 -0.3242  0.2397
  533TMC3    O2 7975   3.565   3.893  14.554  0.3469  0.2481  1.0444
  534MPD2     C 7976   1.512   4.009   1.204 -0.7192  0.5015  0.0406
  534MPD2    C1 7977   1.489   4.105   1.106 -0.7317  0.0091 -0.1504
  534MPD2    C2 7978   1.358   4.139   1.077 -0.9543 -0.3343  1.0084
  534MPD2    C3 7979   1.252   4.087   1.149 -0.3732  0.3741 -0.1240
  534MPD2    C4 7980   1.278   3.995   1.245 -0.4452  0.0022  0.0932
  534MPD2    C5 7981   1.411   3.951   1.273 -0.2560  0.2932  0.0491
  534MPD2     H 7982   1.343   4.224   1.012 -0.4079  0.2570  1.6484
  534MPD2    H1 7983   1.194   3.945   1.292 -0.3346 -1.4318 -1.2513
  534MPD2    H2 7984   1.616   3.987   1.223 -0.6832  2.7907  2.4729
  534MPD2    H3 7985   1.446   3.886   1.352  0.3986 -0.7603 -1.1053
  534MPD2     N 7986   1.115   4.115   1.122 -0.0149 -0.4647  0.4209
  534MPD2    H5 7987   1.048   4.084   1.191 -0.9408 -0.3135 -0.4042
  534MPD2    N1 7988   1.590   4.187   1.051  0.7256 -0.4663 -0.1007
  534MPD2    H7 7989   1.552   4.267   1.001 -1.1045  0.2602  2.4039
  535TMC3    C1 7990   0.924   4.200   1.006  0.4347  0.3704 -0.2890
  535TMC3    C2 7991   0.844   4.098   1.060  0.2394  0.4036 -0.0020
  535TMC3    C3 7992   0.721   4.083   1.014 -0.5074  0.5156  0.4796
  535TMC3    C4 7993   0.879   4.282   0.908 -0.4184  0.5959 -0.3313
  535TMC3    C5 7994   0.753   4.262   0.863 -0.3114 -0.1844  0.3939
  535TMC3    C6 7995   0.677   4.162   0.916 -0.2138 -0.3237  0.2254
  535TMC3     C 7996   1.063   4.177   1.007  0.6799 -0.4583  0.3948
  535TMC3     O 7997   1.128   4.210   0.908 -0.3315  0.2365 -0.2870
  535TMC3     H 7998   0.880   4.029   1.136 -0.5120 -1.9149 -1.7630
  535TMC3    H1 7999   0.958   4.336   0.857 -0.2043 -0.5559 -1.2165
  535TMC3    H2 8000   0.579   4.135   0.878 -0.3742 -0.8104  0.9921
  535TMC3    C7 8001   0.714   4.311   0.726 -0.1351  0.1109  0.2603
  535TMC3    C8 8002   0.628   3.986   1.062  0.1157  0.1303 -0.1725
  535TMC3    O1 8003   0.645   4.235   0.656 -0.2075  0.1270  0.1063
  535TMC3    O2 8004   0.528   3.952   0.998 -0.2873  0.2354  0.6066
  536MPD2     C 8005   0.157   2.470  16.501  0.5209  0.2132 -0.1876
  536MPD2    C1 8006   0.046   2.390  16.479  0.4971 -0.3874 -0.5619
  536MPD2    C2 8007   4.700   2.421  16.380  0.1307  0.4467  0.1732
  536MPD2    C3 8008   4.708   2.542  16.315  0.1859 -0.0086 -0.1498
  536MPD2    C4 8009   0.061   2.634  16.358  0.6005  0.1607 -0.4251
  536MPD2    C5 8010   0.158   2.594  16.444  0.5842 -0.2014  0.5883
  536MPD2     H 8011   4.632   2.350  16.333  0.7758 -0.0184 -0.0724
  536MPD2    H1 8012   0.076   2.728  16.307 -0.4649  1.3942  1.5374
  536MPD2    H2 8013   0.231   2.440  16.575 -0.1083 -1.4542 -0.2446
  536MPD2    H3 8014   0.239   2.659  16.473  1.0004 -0.0429 -0.9619
  536MPD2     N 8015   4.624   2.579  16.207 -0.2096  0.0538 -0.4350
  536MPD2    H5 8016   4.643   2.669  16.163 -0.7280  0.8510  1.0005
  536MPD2    N1 8017   0.032   2.280  16.566  0.1002 -0.4908 -0.0683
  536MPD2    H7 8018   0.115   2.257  16.620 -0.6236 -3.7278 -0.3437
  537TMC3    C1 8019   4.698   2.082  16.682  0.3109 -0.0131  1.0069
  537TMC3    C2 8020   0.050   2.101  16.777 -0.0545  0.3588 -0.7235
  537TMC3    C3 8021   0.026   2.012  16.882  0.4272 -0.0941  0.6773
  537TMC3    C4 8022   4.610   1.978  16.669  0.0290 -0.2167 -0.8017
  537TMC3    C5 8023   4.593   1.890  16.770 -0.7154 -0.1788 -0.0890
  537TMC3    C6 8024   4.670   1.910  16.884  1.3636  0.2084  0.6236
  537TMC3     C 8025   4.673   2.190  16.584  0.4288 -0.1356 -0.6349
  537TMC3     O 8026   4.562   2.193  16.533  0.0708  0.5804  0.2039
  537TMC3     H 8027   0.109   2.189  16.799  0.1957 -0.1507  0.6525
  537TMC3    H1 8028   4.555   1.961  16.577 -0.7598 -2.0421  0.0287
  537TMC3    H2 8029   4.635   1.865  16.977 -1.4675  0.5744 -0.2673
  537TMC3    C7 8030   4.469   1.816  16.771  0.4041 -0.1896  0.2780
  537TMC3    C8 8031   0.063   2.046  17.018  0.3086  0.4312  0.0261
  537TMC3    O1 8032   4.398   1.844  16.677 -0.1503 -0.3202  0.7017
  537TMC3    O2 8033   0.058   2.163  17.051 -0.3088 -0.7653 -0.1811
  538TMC3    C1 8034   1.117   0.341  11.309  0.0029 -0.0368  0.3451
  538TMC3    C2 8035   1.178   0.320  11.189  0.4056 -0.3038  0.3559
  538TMC3    C3 8036   1.121   0.372  11.078  0.1564  0.4349 -0.4785
  538TMC3    C4 8037   0.998   0.408  11.326  0.2807 -0.1602 -0.3876
  538TMC3    C5 8038   0.959   0.469  11.211  0.3469  0.7458 -0.3464
  538TMC3    C6 8039   1.008   0.445  11.087  0.0954 -0.1301 -0.2267
  538TMC3     C 8040   1.213   0.357  11.417  0.2370 -0.0197 -0.6156
  538TMC3     O 8041   1.191   0.440  11.509  0.6579  0.2421 -0.0069
  538TMC3     H 8042   1.263   0.255  11.173 -0.6823 -1.6199 -0.0168
  538TMC3    H1 8043   0.974   0.458  11.419 -0.8598 -0.1037 -0.7228
  538TMC3    H2 8044   0.961   0.482  10.996  2.4762 -1.5724 -2.0530
  538TMC3    C7 8045   0.864   0.575  11.233 -0.2610 -0.3030  0.3639
  538TMC3    C8 8046   1.197   0.352  10.958  0.3958  0.2204  0.0496
  538TMC3    O1 8047   0.801   0.579  11.336  0.6588 -0.1344  0.6344
  538TMC3    O2 8048   1.273   0.253  10.952  0.1450  0.2078 -0.2026
  539MPD2     C 8049   0.694   4.583  12.005  0.4706 -0.2290 -0.3587
  539MPD2    C1 8050   0.751   4.594  11.884  0.3536 -0.1784 -0.5949
  539MPD2    C2 8051   0.760   4.717  11.821 -0.3449  0.5375 -0.4377
  539MPD2    C3 8052   0.698   0.086  11.889  0.0161 -0.2204  0.1424
  539MPD2    C4 8053   0.629   0.071  12.011 -0.4291 -0.3350  0.0949
  539MPD2    C5 8054   0.633   4.687  12.071 -0.0994 -0.6263  0.1670
  539MPD2     H 8055   0.815   4.730  11.728 -1.5674 -0.8462 -1.3599
  539MPD2    H1 8056   0.582   0.155  12.059 -0.7686  0.3906 -1.5122
  539MPD2    H2 8057   0.701   4.486  12.051  1.8871  0.1472  0.2210
  539MPD2    H3 8058   0.582   4.672  12.165 -2.3863  3.7347 -0.3752
  539MPD2     N 8059   0.713   0.217  11.837 -0.2494  0.1812 -0.1744
  539MPD2    H5 8060   0.679   0.299  11.886  0.8958  0.9840 -0.7316
  539MPD2    N1 8061   0.822   4.494  11.811  0.3143  0.2046  1.0457
  539MPD2    H7 8062   0.857   4.528  11.722  0.9037 -0.9971  0.8215
  540TMC3    C1 8063   0.751   0.396  11.703  0.0287  0.1746 -0.4816
  540TMC3    C2 8064   0.684   0.426  11.583  0.1547  0.1121  0.4928
  540TMC3    C3 8065   0.599   0.534  11.582 -0.2580  0.7876 -0.2885
  540TMC3    C4 8066   0.724   0.465  11.820  0.2431 -0.7447  0.6867
  540TMC3    C5 8067   0.645   0.579  11.808  0.7433  0.1251  0.2060
  540TMC3    C6 8068   0.587   0.620  11.692 -1.1454 -0.6756  0.8123
  540TMC3     C 8069   0.764   0.251  11.720 -0.1389  0.6067 -0.0163
  540TMC3     O 8070   0.786   0.181  11.622 -0.2727 -0.9285  0.2833
  540TMC3     H 8071   0.720   0.385  11.490  2.0824 -2.0024  2.1718
  540TMC3    H1 8072   0.771   0.441  11.915  1.9004  1.8727  0.5449
  540TMC3    H2 8073   0.528   0.710  11.688  0.7419  0.5284  0.1665
  540TMC3    C7 8074   0.604   0.634  11.931 -0.1505  0.0855 -0.2082
  540TMC3    C8 8075   0.512   0.559  11.460  0.2791  0.1956 -0.0614
  540TMC3    O1 8076   0.620   0.553  12.023 -0.0936 -0.2147  0.1870
  540TMC3    O2 8077   0.471   0.675  11.459 -0.3137  0.4397  0.3637
  541MPD2     C 8078   3.802   1.909  13.536 -0.1609 -0.0733  0.1032
  541MPD2    C1 8079   3.848   1.810  13.456 -0.1401 -0.3554  0.2974
  541MPD2    C2 8080   3.859   1.833  13.323 -0.7796  0.1710 -0.2709
  541MPD2    C3 8081   3.814   1.952  13.267 -0.1609 -0.1525  0.1305
  541MPD2    C4 8082   3.752   2.037  13.351 -0.5910  0.4160 -0.3134
  541MPD2    C5 8083   3.751   2.021  13.484 -0.2533 -0.2144  0.8853
  541MPD2     H 8084   3.905   1.751  13.267 -1.4347  0.0529 -0.6368
  541MPD2    H1 8085   3.704   2.124  13.307 -2.4756  0.2060  1.3061
  541MPD2    H2 8086   3.785   1.894  13.642 -0.0846 -4.5195 -0.5014
  541MPD2    H3 8087   3.708   2.097  13.548 -4.1531 -1.8771  0.1834
  541MPD2     N 8088   3.828   1.982  13.133 -0.1408  0.1476  0.1081
  541MPD2    H5 8089   3.782   2.068  13.106  1.6818  0.4949 -1.9028
  541MPD2    N1 8090   3.890   1.685  13.503 -0.4025  0.3816  0.6490
  541MPD2    H7 8091   3.919   1.619  13.431  0.6104  1.7967 -0.2283
  542TMC3    C1 8092   3.864   1.933  12.900 -0.0062 -0.3998 -0.2089
  542TMC3    C2 8093   3.929   1.863  12.805 -0.7383 -0.2976 -0.4728
  542TMC3    C3 8094   3.905   1.884  12.671  0.8396  0.0190  0.4418
  542TMC3    C4 8095   3.774   2.029  12.864  0.0001 -0.1944  0.2701
  542TMC3    C5 8096   3.762   2.050  12.735  0.0460  0.4685 -0.2164
  542TMC3    C6 8097   3.819   1.982  12.632  1.0024  0.4483  0.2506
  542TMC3     C 8098   3.880   1.893  13.039  1.0228  0.4008  0.3727
  542TMC3     O 8099   3.953   1.794  13.059  0.2615 -0.5494  0.2936
  542TMC3     H 8100   3.993   1.786  12.845 -1.8438 -0.8806  0.1768
  542TMC3    H1 8101   3.712   2.086  12.932 -0.1074  0.3597 -0.2988
  542TMC3    H2 8102   3.814   1.997  12.524 -1.9336  3.9601  0.9110
  542TMC3    C7 8103   3.651   2.139  12.710  0.0752 -0.9921  0.2597
  542TMC3    C8 8104   3.921   1.769  12.582  1.0619 -0.2692 -0.3924
  542TMC3    O1 8105   3.612   2.221  12.793  0.3636 -0.3157 -0.2501
  542TMC3    O2 8106   3.867   1.788  12.472 -0.1478 -0.6551 -0.0208
  543TMC3    C1 8107   3.149   3.064  17.372  0.1198 -0.3048 -0.0521
  543TMC3    C2 8108   3.113   2.987  17.478  0.9555  0.4329  0.3364
  543TMC3    C3 8109   3.125   3.040  17.603 -1.1616  0.1953 -0.0650
  543TMC3    C4 8110   3.186   3.193  17.386  0.1323 -0.2371 -0.5295
  543TMC3    C5 8111   3.197   3.244  17.514  0.4611  0.3716 -0.4029
  543TMC3    C6 8112   3.170   3.169  17.625 -0.1188 -0.5893  0.1230
  543TMC3     C 8113   3.145   3.014  17.232  0.6897 -0.0252 -0.3203
  543TMC3     O 8114   3.173   2.899  17.212  0.0982  0.3800  0.1080
  543TMC3     H 8115   3.077   2.885  17.469  1.6782  0.2678 -0.6166
  543TMC3    H1 8116   3.197   3.258  17.299  2.3525 -0.8611 -0.7195
  543TMC3    H2 8117   3.177   3.209  17.725  1.4446  1.9050 -0.9989
  543TMC3    C7 8118   3.253   3.376  17.532 -0.8906 -1.0441 -0.1052
  543TMC3    C8 8119   3.084   2.954  17.713  0.1443 -0.4343  0.1562
  543TMC3    O1 8120   3.240   3.436  17.638 -0.5866 -0.3241  0.0727
  543TMC3    O2 8121   3.036   2.844  17.691 -0.7711  0.6744  0.4703
  544MPD2     C 8122   2.971   2.909   0.445  0.6751  0.0571 -0.2479
  544MPD2    C1 8123   3.008   2.802   0.360  0.8267  0.3226 -0.1543
  544MPD2    C2 8124   3.032   2.843   0.232  0.2950 -0.0213 -0.0967
  544MPD2    C3 8125   3.037   2.978   0.189 -0.1017 -0.4861 -0.5960
  544MPD2    C4 8126   3.015   3.079   0.285 -0.1820  0.8038  0.2208
  544MPD2    C5 8127   2.968   3.038   0.406 -0.3966 -0.3888  0.1915
  544MPD2     H 8128   3.053   2.770   0.155  0.5171 -0.1823  0.1175
  544MPD2    H1 8129   3.026   3.183   0.257  1.0697  0.0572 -2.0497
  544MPD2    H2 8130   2.929   2.894   0.544  0.0022 -2.1761 -0.8679
  544MPD2    H3 8131   2.939   3.115   0.477 -0.8287 -1.8410  1.5866
  544MPD2     N 8132   3.069   3.033   0.065  0.5533 -0.3118  0.0956
  544MPD2    H5 8133   3.092   3.132   0.063 -0.3773 -0.0854  0.3778
  544MPD2    N1 8134   2.985   2.669   0.398  0.4516 -0.6322 -0.2499
  544MPD2    H7 8135   2.960   2.643   0.493  0.7946  0.8100  0.2435
  545TMC3    C1 8136   3.019   2.442   0.401 -0.8040  0.5775 -0.3948
  545TMC3    C2 8137   3.040   2.440   0.531  0.4039 -0.5408 -0.4556
  545TMC3    C3 8138   3.007   2.321   0.600 -0.7304 -0.4112  0.0286
  545TMC3    C4 8139   2.971   2.336   0.335  1.0163  0.6872 -0.2534
  545TMC3    C5 8140   2.939   2.222   0.404 -0.4986 -0.8232  0.4233
  545TMC3    C6 8141   2.950   2.211   0.542 -0.0551 -0.6342  0.2036
  545TMC3     C 8142   3.034   2.564   0.325  0.2419  0.4837  0.2136
  545TMC3     O 8143   3.066   2.555   0.205 -0.0150  0.5700  0.3223
  545TMC3     H 8144   3.098   2.524   0.566  0.2141 -0.6120  0.0225
  545TMC3    H1 8145   2.936   2.347   0.233 -0.5626  0.8646  0.3013
  545TMC3    H2 8146   2.915   2.123   0.595 -1.0925 -2.0609 -2.8177
  545TMC3    C7 8147   2.869   2.123   0.322  0.1329  0.3051 -0.3068
  545TMC3    C8 8148   3.032   2.324   0.748 -0.6359  0.0646  0.0994
  545TMC3    O1 8149   2.829   2.159   0.212 -0.5402  0.7089  0.5413
  545TMC3    O2 8150   3.012   2.431   0.801 -0.1807  0.4809  0.0212
  546MPD2     C 8151   0.167   2.468  17.392  0.5902 -0.4367 -0.5561
  546MPD2    C1 8152   0.103   2.541  17.298 -0.4443  0.5127 -0.2311
  546MPD2    C2 8153   0.149   2.665  17.262  0.8632 -0.0391  0.0227
  546MPD2    C3 8154   0.246   2.724  17.335  0.4308  0.1766  0.9646
  546MPD2    C4 8155   0.300   2.659  17.438 -0.4374  0.8052 -0.4088
  546MPD2    C5 8156   0.270   2.527  17.458 -0.0358 -0.1683  0.2796
  546MPD2     H 8157   0.114   2.708  17.169  1.3259 -1.5583 -0.8703
  546MPD2    H1 8158   0.384   2.697  17.495 -0.1653 -0.0669 -0.2328
  546MPD2    H2 8159   0.135   2.367  17.416  0.8770 -0.7417 -1.4294
  546MPD2    H3 8160   0.315   2.473  17.541  0.5998  0.3643  0.2772
  546MPD2     N 8161   0.292   2.857  17.307  0.5757 -0.0784  0.8195
  546MPD2    H5 8162   0.361   2.895  17.371 -0.3020 -0.5304  2.0484
  546MPD2    N1 8163   4.725   2.485  17.238 -0.0203  0.2877 -0.0090
  546MPD2    H7 8164   4.695   2.397  17.279 -0.1486 -0.0165 -0.7600
  547TMC3    C1 8165   4.540   2.454  17.097  0.0072 -0.1648  0.0212
  547TMC3    C2 8166   4.438   2.514  17.026  0.0251 -0.7826 -0.3576
  547TMC3    C3 8167   4.354   2.439  16.961  0.4983  0.3186  0.0579
  547TMC3    C4 8168   4.550   2.319  17.114  0.8682  0.1054  0.2761
  547TMC3    C5 8169   4.449   2.247  17.052  0.6993 -0.3514  0.4077
  547TMC3    C6 8170   4.361   2.304  16.963  0.1792  0.1966 -0.1691
  547TMC3     C 8171   4.652   2.537  17.128  0.7811  0.0584 -0.1649
  547TMC3     O 8172   4.675   2.631  17.053  0.2529  0.5369  0.1595
  547TMC3     H 8173   4.427   2.622  17.020 -0.1975 -0.7614  0.3891
  547TMC3    H1 8174   4.625   2.261  17.166  0.1822 -1.8867 -0.9629
  547TMC3    H2 8175   4.294   2.238  16.909 -0.6882  1.5520 -0.7487
  547TMC3    C7 8176   4.426   2.107  17.088  0.7067 -0.4500 -0.1590
  547TMC3    C8 8177   4.215   2.482  16.961 -0.3159  0.0855 -0.2797
  547TMC3    O1 8178   4.367   2.031  17.006  0.1912  0.3536  0.4827
  547TMC3    O2 8179   4.134   2.419  16.895 -0.0750  0.2198 -0.8903
  548MPD2     C 8180   4.556   3.383  12.877 -0.0086  0.3864 -0.7913
  548MPD2    C1 8181   4.500   3.259  12.900 -0.8200  0.1778  0.5864
  548MPD2    C2 8182   4.560   3.149  12.837  0.0225 -0.2656  0.3616
  548MPD2    C3 8183   4.680   3.157  12.771 -0.2883 -0.7382 -0.3986
  548MPD2    C4 8184   0.010   3.279  12.767 -0.3490 -0.1319  0.2329
  548MPD2    C5 8185   4.676   3.390  12.814  0.9209  0.5807  0.7070
  548MPD2     H 8186   4.512   3.052  12.838  2.3585 -1.4228  0.4871
  548MPD2    H1 8187   0.101   3.297  12.711  0.9303  1.0522  2.6725
  548MPD2    H2 8188   4.519   3.476  12.918 -0.9168 -0.0758 -0.5615
  548MPD2    H3 8189   4.715   3.491  12.806  0.6053  0.7965  1.9166
  548MPD2     N 8190   4.726   3.045  12.698 -0.0197  0.5124  0.0003
  548MPD2    H5 8191   4.666   2.964  12.686  0.1877  0.4428 -0.5481
  548MPD2    N1 8192   4.379   3.240  12.973  0.5848 -0.5105 -0.2815
  548MPD2    H7 8193   4.320   3.320  12.995  0.0328 -1.1262  0.4630
  549TMC3    C1 8194   4.198   3.107  13.047  0.2887  0.3505  0.2370
  549TMC3    C2 8195   4.109   3.168  12.960 -0.0726 -0.1002  0.1080
  549TMC3    C3 8196   3.978   3.137  12.964 -0.2352 -1.0814  0.4588
  549TMC3    C4 8197   4.151   3.020  13.140  0.0896  0.3023  0.0100
  549TMC3    C5 8198   4.017   2.992  13.145 -0.0692  0.5559  0.0890
  549TMC3    C6 8199   3.933   3.048  13.056 -0.0302 -0.2826  0.2027
  549TMC3     C 8200   4.337   3.121  13.033  0.1782 -0.2068  0.2520
  549TMC3     O 8201   4.405   3.023  13.066  1.1000  0.2623  0.3764
  549TMC3     H 8202   4.152   3.248  12.901 -0.1347  1.0932  1.6683
  549TMC3    H1 8203   4.219   2.987  13.218 -1.2067  0.8990  1.3861
  549TMC3    H2 8204   3.834   3.004  13.048  1.2914 -3.1180 -0.8036
  549TMC3    C7 8205   3.961   2.929  13.259  0.2991 -0.0190  0.1959
  549TMC3    C8 8206   3.896   3.169  12.849 -0.0016 -0.3236  0.1603
  549TMC3    O1 8207   3.840   2.934  13.278  0.3715  0.1672  0.2625
  549TMC3    O2 8208   3.775   3.145  12.860 -0.4755  0.4892 -0.0675
  550TMC3    C1 8209   3.041   1.000  12.294 -0.4723 -0.1391 -0.1980
  550TMC3    C2 8210   3.046   1.080  12.407 -0.1748 -0.1118 -0.2332
  550TMC3    C3 8211   2.927   1.130  12.457  0.5380 -0.9476  0.9938
  550TMC3    C4 8212   2.928   0.968  12.235 -0.3600 -0.5817 -0.2942
  550TMC3    C5 8213   2.809   1.012  12.290  0.8077 -0.9271  0.5484
  550TMC3    C6 8214   2.808   1.092  12.400 -0.2747 -0.7326  0.2113
  550TMC3     C 8215   3.166   0.975  12.224 -0.0973  0.0842 -0.0021
  550TMC3     O 8216   3.264   0.975  12.296  0.5906 -0.4565 -0.0547
  550TMC3     H 8217   3.140   1.116  12.448  1.0537 -2.6902 -0.8238
  550TMC3    H1 8218   2.927   0.891  12.159 -0.8981 -1.5762  0.7216
  550TMC3    H2 8219   2.720   1.144  12.438 -0.6111 -0.9649 -0.2530
  550TMC3    C7 8220   2.681   0.983  12.229 -0.3627 -0.7267 -0.8552
  550TMC3    C8 8221   2.931   1.232  12.559  0.6589 -0.8811 -0.3091
  550TMC3    O1 8222   2.581   1.012  12.294  0.1913  0.1384 -0.9140
  550TMC3    O2 8223   3.015   1.319  12.561 -0.5004  0.2038 -0.3149
  551TMC3    C1 8224   1.225   4.431  13.857  0.5213  0.0762 -1.2572
  551TMC3    C2 8225   1.337   4.415  13.784 -0.1389 -0.2071 -0.3692
  551TMC3    C3 8226   1.459   4.440  13.854 -0.0705 -0.0692  0.6276
  551TMC3    C4 8227   1.214   4.478  13.986 -0.6385  0.2143 -0.7076
  551TMC3    C5 8228   1.332   4.513  14.046  0.2746  0.0651  0.0734
  551TMC3    C6 8229   1.451   4.489  13.986  0.0318  0.2409 -0.5946
  551TMC3     C 8230   1.114   4.351  13.804 -0.2550 -0.0384 -0.4984
  551TMC3     O 8231   1.149   4.244  13.761  0.2901 -0.1138 -0.2685
  551TMC3     H 8232   1.338   4.390  13.679 -0.8140  0.6259 -0.5688
  551TMC3    H1 8233   1.124   4.487  14.046 -0.7176 -3.2458 -0.3461
  551TMC3    H2 8234   1.550   4.516  14.021 -0.0501  1.3046 -1.1915
  551TMC3    C7 8235   1.331   4.586  14.163 -0.2317 -0.4847  0.4453
  551TMC3    C8 8236   1.580   4.463  13.782  0.6465 -0.6972  0.3020
  551TMC3    O1 8237   1.257   4.553  14.257  0.0111  0.1034 -0.0281
  551TMC3    O2 8238   1.687   4.448  13.839  0.3483  0.2815 -0.1958
  552MPD2     C 8239   2.644   1.508  14.124  0.8456  0.5836 -0.0316
  552MPD2    C1 8240   2.650   1.373  14.153  0.3413 -0.6938 -0.2443
  552MPD2    C2 8241   2.751   1.343  14.244  0.1274 -0.7338  0.3591
  552MPD2    C3 8242   2.826   1.438  14.311 -0.5830 -0.2173 -0.1048
  552MPD2    C4 8243   2.811   1.570  14.286 -0.1255 -0.3759  0.2280
  552MPD2    C5 8244   2.715   1.593  14.195 -0.5781  0.1206 -0.1026
  552MPD2     H 8245   2.766   1.237  14.264 -1.6079 -1.3225 -1.3672
  552MPD2    H1 8246   2.860   1.647  14.345  1.4385 -0.7975 -0.5218
  552MPD2    H2 8247   2.584   1.548  14.043  1.6792  0.0448 -0.9205
  552MPD2    H3 8248   2.713   1.698  14.168 -1.6667  0.5966  1.8822
  552MPD2     N 8249   2.907   1.402  14.416 -0.1793  0.9753 -0.0288
  552MPD2    H5 8250   2.957   1.481  14.457 -0.7715  1.2942  0.0846
  552MPD2    N1 8251   2.582   1.281  14.076  0.5573  0.1958 -0.1822
  552MPD2    H7 8252   2.627   1.191  14.086 -0.7763 -0.2873  1.6675
  553TMC3    C1 8253   2.395   1.187  13.944 -0.4532  0.5028  0.1349
  553TMC3    C2 8254   2.336   1.214  13.824 -0.2082 -0.0672  0.0934
  553TMC3    C3 8255   2.339   1.128  13.717 -0.0153 -0.0529 -0.5563
  553TMC3    C4 8256   2.453   1.063  13.957  0.1689 -0.3894 -0.0797
  553TMC3    C5 8257   2.477   0.984  13.846  0.5495  0.7396 -0.8186
  553TMC3    C6 8258   2.404   1.003  13.733  0.1583  0.3436 -0.3990
  553TMC3     C 8259   2.461   1.303  14.006  0.2735  0.0793 -0.7851
  553TMC3     O 8260   2.388   1.399  14.003  0.1534  0.1962 -0.2313
  553TMC3     H 8261   2.288   1.311  13.812 -2.5204 -1.3039 -0.5877
  553TMC3    H1 8262   2.499   1.042  14.053  2.7516 -2.1113 -1.6937
  553TMC3    H2 8263   2.442   0.952  13.645 -2.0829 -1.7422 -0.1632
  553TMC3    C7 8264   2.624   0.990  13.819  0.8038  0.3426 -0.2913
  553TMC3    C8 8265   2.355   1.189  13.589  0.0555 -0.3884  0.1196
  553TMC3    O1 8266   2.655   1.041  13.714 -0.0927 -0.3297 -0.2974
  553TMC3    O2 8267   2.385   1.307  13.584 -0.9452 -0.1063  0.0609
  554TMC3    C1 8268   0.215   4.534  11.866  0.1171  1.0598 -0.6391
  554TMC3    C2 8269   0.133   4.487  11.768 -0.9076  0.8751 -1.4282
  554TMC3    C3 8270   0.149   4.539  11.644  0.1512  0.3580 -0.0184
  554TMC3    C4 8271   0.306   4.636  11.845  0.1448  0.2129 -0.4155
  554TMC3    C5 8272   0.315   4.687  11.720 -0.0443 -0.5792  0.5861
  554TMC3    C6 8273   0.243   4.636  11.618 -0.0280  0.3042  0.4777
  554TMC3     C 8274   0.242   4.438  11.972  0.0771 -0.2129  0.2392
  554TMC3     O 8275   0.226   4.319  11.948 -0.7747 -0.1583 -0.1487
  554TMC3     H 8276   0.059   4.411  11.789  0.0119  0.1670 -0.7379
  554TMC3    H1 8277   0.370   4.678  11.922 -2.0583  2.7566  0.0058
  554TMC3    H2 8278   0.240   4.694  11.527 -1.0150 -0.0822  0.2676
  554TMC3    C7 8279   0.340   0.089  11.708 -0.0991  0.1429  0.2756
  554TMC3    C8 8280   0.055   4.522  11.530 -0.5523 -0.4783  0.0950
  554TMC3    O1 8281   0.360   0.127  11.594  0.2225 -0.2430 -0.5672
  554TMC3    O2 8282   0.073   4.596  11.432 -0.5937 -0.2241 -0.2627
  555TMC3    C1 8283   4.024   0.216  15.078  0.2866  0.0583 -0.1448
  555TMC3    C2 8284   3.934   0.300  15.139  0.0824 -0.2345  0.5981
  555TMC3    C3 8285   3.867   0.252  15.253 -0.3164  0.0757  0.2157
  555TMC3    C4 8286   4.036   0.084  15.128  0.3562 -0.3809 -0.7109
  555TMC3    C5 8287   3.964   0.049  15.237 -0.3052  0.7411 -0.5855
  555TMC3    C6 8288   3.878   0.130  15.301 -1.0491 -0.4797 -0.2845
  555TMC3     C 8289   4.065   0.244  14.941  0.0152 -0.9276  0.1540
  555TMC3     O 8290   4.166   0.195  14.898  0.1345  0.3448 -0.0008
  555TMC3     H 8291   3.931   0.406  15.117  1.5460 -0.3597 -0.1617
  555TMC3    H1 8292   4.086   0.012  15.065  0.6161 -1.4789  0.7506
  555TMC3    H2 8293   3.826   0.096  15.390 -2.8210 -0.4897 -1.3364
  555TMC3    C7 8294   3.957   4.653  15.274  0.1541  0.5020  0.3128
  555TMC3    C8 8295   3.791   0.353  15.327  0.5016  0.3097 -0.1471
  555TMC3    O1 8296   3.853   4.627  15.333 -0.1236  0.3485  0.4825
  555TMC3    O2 8297   3.761   0.455  15.270  0.0336 -0.0142  0.2718
  556MPD2     C 8298   1.098   1.608  10.857 -0.6951 -0.9387  0.2093
  556MPD2    C1 8299   1.150   1.500  10.921  0.4689 -0.7689  0.8860
  556MPD2    C2 8300   1.229   1.414  10.843 -0.2042  1.6443  0.0102
  556MPD2    C3 8301   1.254   1.441  10.707 -0.7473  0.2415 -0.0280
  556MPD2    C4 8302   1.198   1.551  10.647  0.0435 -0.0386 -0.2873
  556MPD2    C5 8303   1.133   1.634  10.727  0.3267  0.1179 -0.3593
  556MPD2     H 8304   1.256   1.317  10.882 -1.3716  1.0919 -0.5552
  556MPD2    H1 8305   1.211   1.577  10.542  1.8225  1.7960  0.3767
  556MPD2    H2 8306   1.019   1.671  10.896  0.5174  0.7656 -0.1086
  556MPD2    H3 8307   1.096   1.727  10.686 -1.1596 -0.2690  0.1001
  556MPD2     N 8308   1.319   1.336  10.641 -0.2263 -0.2603 -0.3265
  556MPD2    H5 8309   1.341   1.257  10.702 -0.2120 -0.9240 -1.1861
  556MPD2    N1 8310   1.135   1.470  11.059 -0.3342 -0.1689 -0.6440
  556MPD2    H7 8311   1.187   1.392  11.096 -0.2100 -0.0578 -0.5871
  557TMC3    C1 8312   1.394   1.202  10.460  0.4393 -0.6953 -0.2457
  557TMC3    C2 8313   1.436   1.191  10.327  0.5970  0.7490  0.2759
  557TMC3    C3 8314   1.441   1.063  10.275 -0.0697  0.0555  0.5132
  557TMC3    C4 8315   1.359   1.093  10.532 -0.1545  0.4017 -0.1004
  557TMC3    C5 8316   1.383   0.967  10.482 -0.3828 -0.3019 -0.2925
  557TMC3    C6 8317   1.415   0.947  10.349  0.3596 -0.5210  0.3327
  557TMC3     C 8318   1.354   1.336  10.507  0.6641  0.3588  0.0749
  557TMC3     O 8319   1.340   1.420  10.421  0.9252  0.3523 -0.0799
  557TMC3     H 8320   1.471   1.277  10.272 -2.2954  1.2944 -0.6922
  557TMC3    H1 8321   1.337   1.101  10.638  1.6752  2.1116  0.1508
  557TMC3    H2 8322   1.430   0.849  10.305  0.3114 -0.1534 -0.4962
  557TMC3    C7 8323   1.328   0.852  10.553 -0.7654  0.2067  0.1713
  557TMC3    C8 8324   1.477   1.050  10.135 -0.1278  0.2395 -0.8347
  557TMC3    O1 8325   1.233   0.876  10.627 -0.9081  0.2880 -0.6179
  557TMC3    O2 8326   1.554   1.126  10.075  0.1582 -0.1459  0.0713
  558TMC3    C1 8327   4.244   3.344  10.593  0.9339  0.4023  0.4801
  558TMC3    C2 8328   4.145   3.277  10.649  0.4726  0.2273  0.8534
  558TMC3    C3 8329   4.040   3.263  10.568 -0.2777  0.1914 -0.8679
  558TMC3    C4 8330   4.241   3.395  10.467  0.7647  0.8822  0.6010
  558TMC3    C5 8331   4.120   3.390  10.401 -0.1076  0.8273  0.4834
  558TMC3    C6 8332   4.015   3.318  10.447  0.2404 -0.1740  0.4412
  558TMC3     C 8333   4.354   3.388  10.678  0.3961 -0.2907 -0.6987
  558TMC3     O 8334   4.449   3.443  10.623 -0.0734 -0.5489  0.0286
  558TMC3     H 8335   4.165   3.220  10.739  0.4515  1.1446  1.4399
  558TMC3    H1 8336   4.320   3.463  10.439  1.6589 -1.0431 -1.5572
  558TMC3    H2 8337   3.922   3.308  10.392 -1.0055  0.4701  2.4239
  558TMC3    C7 8338   4.100   3.508  10.312 -0.5358  0.2987 -0.5778
  558TMC3    C8 8339   3.919   3.230  10.637  0.2140 -0.6537 -0.1150
  558TMC3    O1 8340   4.198   3.553  10.253  0.2467 -0.0814  0.5105
  558TMC3    O2 8341   3.848   3.150  10.582  0.2839  0.0060 -0.2696
  559MPD2     C 8342   4.344   4.350  10.609 -0.7763 -0.3385  0.1690
  559MPD2    C1 8343   4.256   4.302  10.705 -0.7244  0.2015  0.3083
  559MPD2    C2 8344   4.310   4.237  10.817  0.5779 -0.7521 -0.3301
  559MPD2    C3 8345   4.445   4.244  10.837 -0.8638 -0.2151  0.6884
  559MPD2    C4 8346   4.529   4.283  10.738 -0.8011 -0.1844 -0.6752
  559MPD2    C5 8347   4.481   4.341  10.631  0.6146 -0.0654  0.0281
  559MPD2     H 8348   4.251   4.194  10.897 -0.1427 -1.2764 -1.1508
  559MPD2    H1 8349   4.636   4.282  10.754 -0.9002  2.2832  0.0982
  559MPD2    H2 8350   4.314   4.409  10.523  0.1513  0.1122  0.1593
  559MPD2    H3 8351   4.551   4.380  10.558 -1.7218  0.1403 -2.0976
  559MPD2     N 8352   4.499   4.184  10.962 -0.8799  0.5514  0.3308
  559MPD2    H5 8353   4.425   4.147  11.020 -2.5138 -0.6100 -2.4697
  559MPD2    N1 8354   4.116   4.327  10.686 -0.0865 -0.3990 -0.4201
  559MPD2    H7 8355   4.092   4.383  10.604 -0.6633 -0.6309 -0.4145
  560TMC3    C1 8356   4.653   4.136  11.146 -0.2568  0.3872  0.6525
  560TMC3    C2 8357   4.572   4.034  11.177  0.1589  0.4006  0.7305
  560TMC3    C3 8358   4.615   3.947  11.274  1.2594  0.0698 -0.6210
  560TMC3    C4 8359   0.028   4.164  11.213  0.4173 -0.0890 -0.8556
  560TMC3    C5 8360   0.068   4.081  11.311 -0.2548  0.1389 -0.3161
  560TMC3    C6 8361   4.731   3.969  11.343  0.1491 -1.0137  0.0505
  560TMC3     C 8362   4.632   4.193  11.013  0.7278  0.2804  0.2397
  560TMC3     O 8363   4.725   4.269  10.980 -0.0216 -0.1734 -0.6033
  560TMC3     H 8364   4.475   4.012  11.134 -0.0416  1.3231  0.7157
  560TMC3    H1 8365   0.101   4.240  11.186 -0.0867  0.4686 -0.6391
  560TMC3    H2 8366   0.026   3.906  11.423 -2.1428  1.3369  2.8887
  560TMC3    C7 8367   0.169   4.119  11.407  0.2295  0.4096 -0.5296
  560TMC3    C8 8368   4.529   3.832  11.301 -0.1356  0.0654 -0.2416
  560TMC3    O1 8369   0.175   4.057  11.516 -0.1091 -0.0079  1.0421
  560TMC3    O2 8370   4.411   3.840  11.266 -0.4703  0.5660 -0.2610
  561TMC3    C1 8371   2.637   3.251  11.086 -0.5495  0.0327 -0.4098
  561TMC3    C2 8372   2.576   3.203  11.191  0.5584 -0.1563 -0.2322
  561TMC3    C3 8373   2.452   3.249  11.234  0.0432  0.4004  0.0430
  561TMC3    C4 8374   2.586   3.360  11.016  0.3109  0.2174 -0.3077
  561TMC3    C5 8375   2.459   3.407  11.054  0.0871  0.3428  0.0421
  561TMC3    C6 8376   2.394   3.349  11.163  0.7990 -0.6775 -0.4522
  561TMC3     C 8377   2.780   3.237  11.081  0.0634  0.0183 -0.0272
  561TMC3     O 8378   2.815   3.128  11.128  0.0113  0.2164  0.3156
  561TMC3     H 8379   2.619   3.120  11.245  0.6589 -0.7233 -1.1776
  561TMC3    H1 8380   2.639   3.399  10.930  0.1792 -0.9204 -0.9158
  561TMC3    H2 8381   2.300   3.388  11.202  0.6033 -1.9037  0.2937
  561TMC3    C7 8382   2.378   3.504  10.982 -0.1024  0.2411  0.4775
  561TMC3    C8 8383   2.402   3.205  11.362 -0.9101  0.8110 -0.2780
  561TMC3    O1 8384   2.270   3.537  11.028 -0.5900  0.1062 -0.0139
  561TMC3    O2 8385   2.455   3.103  11.407  0.2617 -0.3519  0.0080
  562TMC3    C1 8386   3.454   0.553  16.510 -0.2665 -0.2394 -0.2722
  562TMC3    C2 8387   3.391   0.668  16.476 -0.8893 -0.4737 -0.9673
  562TMC3    C3 8388   3.312   0.666  16.370 -0.0379  0.9632 -0.2372
  562TMC3    C4 8389   3.429   0.433  16.444 -0.5146 -0.2568 -0.3215
  562TMC3    C5 8390   3.345   0.439  16.337 -0.0966  0.5520 -0.6093
  562TMC3    C6 8391   3.284   0.559  16.303 -0.1422  0.0475  1.0522
  562TMC3     C 8392   3.542   0.563  16.631  0.0065 -0.4782  0.5971
  562TMC3     O 8393   3.519   0.659  16.698  0.0078  0.1510 -0.5704
  562TMC3     H 8394   3.426   0.762  16.518  1.1309 -0.5122 -2.5749
  562TMC3    H1 8395   3.489   0.349  16.476  0.5500  2.1480  4.1251
  562TMC3    H2 8396   3.223   0.561  16.214  1.3155  0.0657  0.0598
  562TMC3    C7 8397   3.293   0.323  16.280 -0.3040 -0.2562  0.0838
  562TMC3    C8 8398   3.227   0.792  16.358 -0.3076 -0.6153 -0.0616
  562TMC3    O1 8399   3.201   0.332  16.199  0.1906  0.6704 -1.0283
  562TMC3    O2 8400   3.228   0.858  16.458  0.8317 -0.6715  0.4059
  563MPD2     C 8401   1.217   1.484  15.472 -1.3419 -0.1036 -0.7360
  563MPD2    C1 8402   1.210   1.442  15.604  0.3573  0.3957 -0.5031
  563MPD2    C2 8403   1.304   1.355  15.659  0.7006  0.3120 -0.7338
  563MPD2    C3 8404   1.401   1.309  15.580 -0.5911 -0.3747  0.0473
  563MPD2    C4 8405   1.417   1.356  15.450  0.0934  0.9296  0.2884
  563MPD2    C5 8406   1.323   1.439  15.397 -0.6851  0.3374 -0.5822
  563MPD2     H 8407   1.311   1.320  15.762 -1.1575  3.3560  0.4297
  563MPD2    H1 8408   1.494   1.313  15.386 -1.8691 -0.8333 -0.8876
  563MPD2    H2 8409   1.146   1.543  15.416  0.8452  2.8242 -0.4364
  563MPD2    H3 8410   1.332   1.475  15.295 -0.8282 -0.4546 -0.8678
  563MPD2     N 8411   1.493   1.221  15.640  0.1768 -0.0614  1.0426
  563MPD2    H5 8412   1.466   1.194  15.734  0.6949  2.0899  1.8149
  563MPD2    N1 8413   1.101   1.493  15.682 -0.7985 -0.4765  0.1710
  563MPD2    H7 8414   1.039   1.559  15.637  0.9253  0.6759 -0.5245
  564TMC3    C1 8415   0.972   1.533  15.887  0.9815 -0.0018 -0.4317
  564TMC3    C2 8416   0.852   1.513  15.818 -0.2226  0.1675  0.0759
  564TMC3    C3 8417   0.739   1.499  15.897 -0.4627  0.0033 -0.3251
  564TMC3    C4 8418   0.985   1.529  16.026 -0.0369  0.3039  1.0119
  564TMC3    C5 8419   0.865   1.515  16.094 -0.0394 -0.7792 -0.0632
  564TMC3    C6 8420   0.742   1.508  16.037 -0.2690  0.0578 -0.5093
  564TMC3     C 8421   1.095   1.490  15.818  0.0274 -0.4470  0.2970
  564TMC3     O 8422   1.171   1.423  15.888  0.1712  0.2245 -0.0849
  564TMC3     H 8423   0.853   1.493  15.711  1.6191  1.3721 -0.1212
  564TMC3    H1 8424   1.081   1.531  16.075 -0.9662 -2.7367  2.9513
  564TMC3    H2 8425   0.667   1.477  16.109 -0.2914 -0.4645 -0.7526
  564TMC3    C7 8426   0.879   1.412  16.202  0.3481 -0.2980 -0.3152
  564TMC3    C8 8427   0.645   1.392  15.857 -0.5010  0.0972  0.2670
  564TMC3    O1 8428   0.956   1.425  16.295 -0.0638 -0.8878  0.0979
  564TMC3    O2 8429   0.611   1.315  15.949 -0.0678  0.0134 -0.3777
  565TMC3    C1 8430   1.063   2.590  10.175  0.7004  0.7132 -0.8740
  565TMC3    C2 8431   1.052   2.509  10.280 -0.2232 -0.1715  0.6822
  565TMC3    C3 8432   0.950   2.411  10.279  0.3153 -0.3577  0.0810
  565TMC3    C4 8433   0.969   2.584  10.072  0.0366 -0.2413 -0.0133
  565TMC3    C5 8434   0.885   2.476  10.066  0.4261  0.0220 -0.9246
  565TMC3    C6 8435   0.887   2.377  10.163 -0.0466 -0.3723 -0.5994
  565TMC3     C 8436   1.164   2.689  10.174  0.2837 -0.2590  0.0434
  565TMC3     O 8437   1.142   2.799  10.118  0.6388  0.2385 -0.0857
  565TMC3     H 8438   1.116   2.525  10.366 -0.0091  2.1127  0.1181
  565TMC3    H1 8439   0.961   2.662   9.997 -0.3894  0.2628  0.5613
  565TMC3    H2 8440   0.808   2.303  10.159 -1.6160  1.1940  1.5502
  565TMC3    C7 8441   0.791   2.474   9.955 -0.0763  0.3258  0.2224
  565TMC3    C8 8442   0.965   2.316  10.394 -0.1622  0.4767  0.2897
  565TMC3    O1 8443   0.761   2.583   9.906 -0.4034 -0.3297 -0.7234
  565TMC3    O2 8444   1.056   2.344  10.474 -0.4479  0.7683  0.4141
  566MPD2     C 8445   3.143   4.264  14.486 -0.1623  1.2732  0.1975
  566MPD2    C1 8446   3.147   4.276  14.352  0.3575  0.9726  0.0308
  566MPD2    C2 8447   3.031   4.248  14.277 -0.3631 -0.1926 -0.0102
  566MPD2    C3 8448   2.912   4.217  14.340  0.3708  0.8516  0.4529
  566MPD2    C4 8449   2.908   4.206  14.471 -0.4507 -0.3420 -0.6903
  566MPD2    C5 8450   3.024   4.221  14.541 -0.4974  0.3791  0.2739
  566MPD2     H 8451   3.023   4.241  14.169 -1.3051  0.0163  0.0408
  566MPD2    H1 8452   2.812   4.200  14.521  0.1538 -2.2329  0.2459
  566MPD2    H2 8453   3.234   4.269  14.544  0.0408  2.1940 -0.2063
  566MPD2    H3 8454   3.008   4.220  14.649  3.4254  1.5683  0.8555
  566MPD2     N 8455   2.797   4.208  14.258 -0.3128  0.2545 -1.1598
  566MPD2    H5 8456   2.818   4.224  14.160  1.6040  1.4083 -0.5597
  566MPD2    N1 8457   3.272   4.320  14.285 -0.1215  0.6434  0.1785
  566MPD2    H7 8458   3.340   4.352  14.352  2.2856 -1.3643 -1.2767
  567TMC3    C1 8459   3.385   4.435  14.121 -0.0037 -0.0823  0.3673
  567TMC3    C2 8460   3.336   4.520  14.025  0.1297 -0.3890 -0.2463
  567TMC3    C3 8461   3.371   4.654  14.014 -0.0506 -0.1467  0.0523
  567TMC3    C4 8462   3.465   4.488  14.225 -0.6875  0.1846 -0.1002
  567TMC3    C5 8463   3.491   4.626  14.219 -0.3426 -0.5163  0.3131
  567TMC3    C6 8464   3.441   4.706  14.121  0.5877 -0.0282 -0.6149
  567TMC3     C 8465   3.296   4.324  14.147  0.6242 -0.5220 -0.2311
  567TMC3     O 8466   3.239   4.283  14.045 -0.4803 -0.6685  0.5296
  567TMC3     H 8467   3.286   4.476  13.940 -0.2404 -0.0941 -0.1786
  567TMC3    H1 8468   3.516   4.427  14.298 -2.8827 -2.7298 -1.0047
  567TMC3    H2 8469   3.448   0.074  14.129 -1.3022  0.1362 -1.1534
  567TMC3    C7 8470   3.587   4.691  14.301 -0.3872 -0.0582  0.3712
  567TMC3    C8 8471   3.298   0.004  13.920  0.1587 -0.2759  1.0624
  567TMC3    O1 8472   3.632   0.057  14.259  0.8560  0.1925 -0.8197
  567TMC3    O2 8473   3.194   4.714  13.863 -0.1725 -0.0205  0.2957
  568MPD2     C 8474   0.176   4.729  16.108 -0.0889  0.0021 -0.4802
  568MPD2    C1 8475   0.275   0.065  16.170  0.3315  0.0625  0.4227
  568MPD2    C2 8476   0.313   0.180  16.114 -0.0441 -0.1461 -0.1332
  568MPD2    C3 8477   0.236   0.243  16.014 -0.2920 -0.0715 -0.1870
  568MPD2    C4 8478   0.136   0.176  15.956  0.4318  0.3724  0.2423
  568MPD2    C5 8479   0.106   0.048  16.003 -0.1154  0.0536 -0.7096
  568MPD2     H 8480   0.394   0.234  16.163 -0.4821  0.6759 -0.3138
  568MPD2    H1 8481   0.065   0.226  15.891 -2.0307 -1.4598  1.5000
  568MPD2    H2 8482   0.139   4.633  16.141 -1.5560  0.3174 -1.2201
  568MPD2    H3 8483   0.028   4.725  15.964  0.5904 -1.2011 -0.1189
  568MPD2     N 8484   0.263   0.380  15.994 -0.4420 -0.5910 -0.0880
  568MPD2    H5 8485   0.353   0.416  16.026 -1.5791  1.6817  0.5774
  568MPD2    N1 8486   0.334   0.010  16.289  0.2466  0.1034 -0.6502
  568MPD2    H7 8487   0.294   4.660  16.315 -1.1861  0.5416 -1.3781
  569TMC3    C1 8488   0.267   0.593  15.900 -0.4551  0.0837  0.0706
  569TMC3    C2 8489   0.341   0.624  16.013  0.1450 -0.6051  0.6861
  569TMC3    C3 8490   0.445   0.710  15.990 -0.1316  0.8280 -0.0046
  569TMC3    C4 8491   0.293   0.637  15.773 -0.4661 -0.5042 -0.7471
  569TMC3    C5 8492   0.404   0.724  15.753  0.9320  0.1831  0.4736
  569TMC3    C6 8493   0.483   0.749  15.863  0.2692 -0.3826  0.7793
  569TMC3     C 8494   0.193   0.468  15.918 -0.2948  0.5526 -0.2372
  569TMC3     O 8495   0.101   0.446  15.837  0.6396  0.1176  0.3098
  569TMC3     H 8496   0.306   0.611  16.115 -0.8466 -1.1547  0.2731
  569TMC3    H1 8497   0.241   0.606  15.684 -0.5246 -2.1869 -0.1263
  569TMC3    H2 8498   0.568   0.814  15.846 -0.3669  0.5506  1.1635
  569TMC3    C7 8499   0.412   0.826  15.645  0.3080  0.0402  0.7836
  569TMC3    C8 8500   0.453   0.837  16.063 -0.0266  0.2263 -0.0018
  569TMC3    O1 8501   0.385   0.787  15.529  0.1672 -0.3939  0.1269
  569TMC3    O2 8502   0.446   0.935  15.988 -0.1703 -0.0143  0.3344
  570TMC3    C1 8503   0.031   3.778  16.209 -0.3673 -0.2452 -0.5132
  570TMC3    C2 8504   0.160   3.793  16.159 -0.6088 -0.0865 -0.8034
  570TMC3    C3 8505   0.186   3.925  16.122 -0.0036 -0.3681  0.7353
  570TMC3    C4 8506   4.683   3.882  16.228  0.5231  0.1877 -0.2580
  570TMC3    C5 8507   4.722   4.009  16.199  0.8243 -0.3406 -0.5071
  570TMC3    C6 8508   0.105   4.035  16.151 -0.3010  0.2862 -0.2980
  570TMC3     C 8509   0.012   3.656  16.287  0.1501  0.5459  0.3472
  570TMC3     O 8510   0.067   3.551  16.252 -0.3714 -0.5893 -0.0611
  570TMC3     H 8511   0.228   3.714  16.132 -1.9470 -1.2167 -0.8455
  570TMC3    H1 8512   4.586   3.849  16.265  0.4904  1.6420  0.9247
  570TMC3    H2 8513   0.127   4.139  16.128 -0.4757  0.1624 -1.0124
  570TMC3    C7 8514   4.641   4.121  16.242 -0.2680  0.0621 -0.3341
  570TMC3    C8 8515   0.295   3.955  16.027 -0.0749  0.1061  0.0313
  570TMC3    O1 8516   4.706   4.221  16.271 -0.5515 -0.3343  0.6921
  570TMC3    O2 8517   0.361   4.060  16.055  0.1892 -0.4524  0.3805
  571MPD2     C 8518   2.784   0.847   0.571 -0.2434 -0.0011 -0.1161
  571MPD2    C1 8519   2.664   0.903   0.611  0.3084 -0.0176 -0.1999
  571MPD2    C2 8520   2.662   1.030   0.667 -0.2736 -0.0956 -0.1876
  571MPD2    C3 8521   2.775   1.093   0.694  0.2160  0.4101  0.6530
  571MPD2    C4 8522   2.895   1.030   0.661  0.4531  0.0113  0.3219
  571MPD2    C5 8523   2.906   0.913   0.596 -0.1106 -0.0034  0.3092
  571MPD2     H 8524   2.569   1.083   0.688  0.2209  0.8109 -0.2684
  571MPD2    H1 8525   2.990   1.081   0.675  1.3365 -1.7636  0.7742
  571MPD2    H2 8526   2.787   0.748   0.526  0.5727 -0.4347  0.9187
  571MPD2    H3 8527   3.000   0.866   0.567  0.3149  0.9845  0.1060
  571MPD2     N 8528   2.780   1.232   0.743  0.0081 -0.1594 -0.5405
  571MPD2    H5 8529   2.873   1.267   0.761 -0.7660  0.3195  2.5017
  571MPD2    N1 8530   2.536   0.840   0.582 -0.2728  0.0232 -0.5701
  571MPD2    H7 8531   2.550   0.749   0.539  0.2028  0.3921 -1.1966
  572TMC3    C1 8532   2.717   1.442   0.830 -0.6900  0.0435  0.2225
  572TMC3    C2 8533   2.826   1.438   0.919  0.4826 -0.5974  0.7872
  572TMC3    C3 8534   2.882   1.561   0.948 -0.8924 -0.0902 -0.5455
  572TMC3    C4 8535   2.652   1.556   0.795  0.2891 -0.4438  0.5898
  572TMC3    C5 8536   2.698   1.672   0.844 -0.2619  0.1265 -0.0202
  572TMC3    C6 8537   2.812   1.680   0.925 -0.7226 -0.2346 -0.7597
  572TMC3     C 8538   2.679   1.321   0.755  0.1400  0.8981  0.3553
  572TMC3     O 8539   2.560   1.296   0.755  0.0951  0.4199  0.2005
  572TMC3     H 8540   2.884   1.351   0.947  1.3385 -0.6045 -0.9712
  572TMC3    H1 8541   2.570   1.559   0.724  0.7860  1.0088  0.0746
  572TMC3    H2 8542   2.854   1.774   0.959  1.5796 -2.4051  2.3635
  572TMC3    C7 8543   2.636   1.796   0.804 -0.5859  0.2839  0.2622
  572TMC3    C8 8544   3.000   1.572   1.030 -0.4085 -0.5083 -0.4920
  572TMC3    O1 8545   2.573   1.793   0.700 -0.2275  0.2520  0.4037
  572TMC3    O2 8546   3.033   1.686   1.063 -0.6077 -0.4815 -0.8307
  573MPD2     C 8547   3.376   1.244  17.737  0.1810 -0.3459  0.3986
  573MPD2    C1 8548   3.364   1.303   0.101 -0.1762 -0.4204  0.8946
  573MPD2    C2 8549   3.253   1.269   0.184  0.0768 -0.3499  0.3574
  573MPD2    C3 8550   3.158   1.178   0.138  0.7521  0.4904  0.0915
  573MPD2    C4 8551   3.177   1.114   0.014 -0.1206  0.1013 -0.0830
  573MPD2    C5 8552   3.282   1.155  17.690 -0.1037 -0.7666 -0.1570
  573MPD2     H 8553   3.260   1.307   0.285  3.5633  1.0205 -0.3923
  573MPD2    H1 8554   3.114   1.039  17.725 -0.3363  0.6657 -0.7124
  573MPD2    H2 8555   3.453   1.265  17.664  0.0362 -0.1422  0.3078
  573MPD2    H3 8556   3.290   1.124  17.587  0.5990 -0.5329 -0.1721
  573MPD2     N 8557   3.038   1.150   0.206 -0.6356 -0.0458 -0.3593
  573MPD2    H5 8558   2.978   1.078   0.166  1.0582 -1.6488  0.0077
  573MPD2    N1 8559   3.460   1.407   0.131  0.4144 -0.0979  1.1070
  573MPD2    H7 8560   3.510   1.437   0.048  0.9698 -2.4177  0.6174
  574TMC3    C1 8561   2.854   1.201   0.343 -0.4180  0.0953 -0.1832
  574TMC3    C2 8562   2.791   1.313   0.397  0.6387  0.5832  0.2681
  574TMC3    C3 8563   2.654   1.316   0.397 -0.3421  0.0937  0.6844
  574TMC3    C4 8564   2.776   1.113   0.276  0.0816  0.5348  0.0262
  574TMC3    C5 8565   2.639   1.128   0.281  0.2444 -0.2335  0.0080
  574TMC3    C6 8566   2.573   1.222   0.352 -0.1467  0.5259 -0.2725
  574TMC3     C 8567   2.997   1.218   0.320 -0.2660  0.1729 -0.5987
  574TMC3     O 8568   3.050   1.312   0.376 -0.4284 -0.1147  0.6119
  574TMC3     H 8569   2.846   1.405   0.413  1.6360  0.2417 -1.2364
  574TMC3    H1 8570   2.823   1.020   0.245  1.1417  2.1369 -3.1095
  574TMC3    H2 8571   2.465   1.229   0.364  0.0357 -1.0253  2.3585
  574TMC3    C7 8572   2.561   1.007   0.256 -0.2599  0.0867 -0.3998
  574TMC3    C8 8573   2.590   1.446   0.381  0.8498 -0.2529  0.5497
  574TMC3    O1 8574   2.446   1.002   0.302 -0.3193 -0.0239  0.0169
  574TMC3    O2 8575   2.470   1.450   0.354  0.5817  0.1725 -0.4144
  575TMC3    C1 8576   1.303   2.164  11.136 -0.1407 -0.0671 -0.1960
  575TMC3    C2 8577   1.255   2.085  11.239  0.3586  0.6413  0.6231
  575TMC3    C3 8578   1.143   2.013  11.213  0.9096  0.3197 -1.1235
  575TMC3    C4 8579   1.251   2.172  11.010  0.6193  0.4903  0.0260
  575TMC3    C5 8580   1.132   2.105  10.990 -0.5353  0.6429 -0.3574
  575TMC3    C6 8581   1.074   2.031  11.095  0.1304  0.2807 -0.3080
  575TMC3     C 8582   1.396   2.263  11.166  0.4356 -0.1726  0.2393
  575TMC3     O 8583   1.481   2.269  11.082  0.0489 -0.3504  0.4001
  575TMC3     H 8584   1.308   2.079  11.333  0.3626  0.6802  0.6236
  575TMC3    H1 8585   1.296   2.236  10.935  1.3818 -0.2306 -0.1394
  575TMC3    H2 8586   0.976   1.988  11.077  0.2550  0.8501 -2.4030
  575TMC3    C7 8587   1.066   2.129  10.866 -0.0061 -0.0058  0.5528
  575TMC3    C8 8588   1.077   1.965  11.337 -0.2213  0.0549  0.1112
  575TMC3    O1 8589   1.106   2.229  10.811  0.3436 -0.1000  0.3484
  575TMC3    O2 8590   1.120   2.001  11.442 -0.0337  0.3254  0.4416
  576MPD2     C 8591   1.911   3.702  12.556 -0.5608  0.0996 -0.3824
  576MPD2    C1 8592   1.930   3.782  12.446  0.2666  0.5253 -0.2042
  576MPD2    C2 8593   1.978   3.911  12.468 -0.1361 -0.2513  0.1544
  576MPD2    C3 8594   2.034   3.948  12.593  0.1570 -0.1178 -0.4939
  576MPD2    C4 8595   2.019   3.865  12.699 -0.2847 -0.3593  1.1114
  576MPD2    C5 8596   1.959   3.745  12.680 -0.7177  0.4643 -0.5384
  576MPD2     H 8597   1.982   3.989  12.393  3.4419 -0.4046  0.2083
  576MPD2    H1 8598   2.068   3.887  12.793 -0.4814  0.4894  1.0168
  576MPD2    H2 8599   1.852   3.611  12.553 -0.0902 -0.2050 -0.4680
  576MPD2    H3 8600   1.944   3.678  12.764  0.5487 -0.2458 -0.8714
  576MPD2     N 8601   2.093   4.077  12.604 -0.1904 -1.3507 -0.1057
  576MPD2    H5 8602   2.081   4.139  12.524  0.2580  1.0902  1.7062
  576MPD2    N1 8603   1.888   3.740  12.311  0.2865 -0.1924 -0.3547
  576MPD2    H7 8604   1.886   3.812  12.239  2.5816  0.7451  0.5256
  577TMC3    C1 8605   1.806   3.601  12.136 -0.4137 -0.5508 -0.1640
  577TMC3    C2 8606   1.849   3.484  12.082 -0.3161  0.0838  0.3980
  577TMC3    C3 8607   1.866   3.481  11.943 -0.2100 -0.2962 -0.3086
  577TMC3    C4 8608   1.774   3.705  12.058  0.0555 -0.4499 -0.4277
  577TMC3    C5 8609   1.808   3.695  11.928  0.0666  0.6187 -0.3598
  577TMC3    C6 8610   1.845   3.585  11.860 -0.2352  0.2724 -0.0227
  577TMC3     C 8611   1.847   3.618  12.271  0.0373 -0.3229 -0.8528
  577TMC3     O 8612   1.862   3.520  12.341 -0.7052  0.0514 -0.0581
  577TMC3     H 8613   1.881   3.401  12.144  1.1386 -0.0959 -0.6166
  577TMC3    H1 8614   1.774   3.798  12.114 -0.3800 -0.6506 -0.0947
  577TMC3    H2 8615   1.869   3.588  11.754  0.0808 -0.6851  0.0238
  577TMC3    C7 8616   1.817   3.823  11.858 -0.6492  0.9171  0.5677
  577TMC3    C8 8617   1.936   3.360  11.894  0.0046  0.6748  0.2153
  577TMC3    O1 8618   1.915   3.834  11.780  0.3235  0.1832  0.0126
  577TMC3    O2 8619   1.933   3.263  11.967  0.5758  0.2477  0.6021
  578MPD2     C 8620   3.989   3.956   1.305  0.9241 -0.0980 -0.4286
  578MPD2    C1 8621   4.041   3.955   1.177  0.8330 -0.1254  1.3281
  578MPD2    C2 8622   4.159   3.883   1.163 -1.0580 -0.0005  0.2176
  578MPD2    C3 8623   4.232   3.825   1.271 -0.5128 -0.1985  0.4101
  578MPD2    C4 8624   4.181   3.837   1.400 -0.0234 -0.2205  0.3189
  578MPD2    C5 8625   4.051   3.887   1.409  0.3446 -0.1546 -0.1720
  578MPD2     H 8626   4.207   3.872   1.067 -0.0720 -1.2336  0.8557
  578MPD2    H1 8627   4.218   3.792   1.491 -0.7695 -1.8159 -0.1547
  578MPD2    H2 8628   3.891   3.999   1.323  2.2636  1.5769  2.7790
  578MPD2    H3 8629   4.010   3.891   1.509 -0.1321  0.2547 -0.3850
  578MPD2     N 8630   4.364   3.770   1.247  0.0647 -0.3740 -0.3742
  578MPD2    H5 8631   4.406   3.764   1.155 -0.4414 -0.2444 -0.6151
  578MPD2    N1 8632   3.974   4.029   1.079  0.2530 -0.5146 -0.4364
  578MPD2    H7 8633   3.895   4.086   1.105  1.5529  0.9721  0.2742
  579TMC3    C1 8634   4.575   3.682   1.302  0.0945 -0.0519 -0.2326
  579TMC3    C2 8635   4.680   3.699   1.388  0.2229 -0.4986 -0.3160
  579TMC3    C3 8636   0.055   3.637   1.351 -0.0848  0.4274  0.3925
  579TMC3    C4 8637   4.581   3.629   1.177 -0.4357  0.1021 -0.2401
  579TMC3    C5 8638   4.700   3.583   1.136  0.5016 -0.1094  0.6141
  579TMC3    C6 8639   0.064   3.584   1.228 -1.1645  0.6827  0.8898
  579TMC3     C 8640   4.445   3.726   1.349 -0.1043 -0.0237  0.1610
  579TMC3     O 8641   4.431   3.737   1.469 -0.0853  0.1444  0.0192
  579TMC3     H 8642   4.661   3.745   1.484 -0.1445 -2.0309  0.3374
  579TMC3    H1 8643   4.486   3.599   1.135 -0.3156  0.6521 -0.9040
  579TMC3    H2 8644   0.156   3.528   1.212 -0.6871  1.6734  0.1338
  579TMC3    C7 8645   4.714   3.509   1.007  0.7077 -0.5091  0.8418
  579TMC3    C8 8646   0.169   3.680   1.422 -0.1205 -0.1407  1.2450
  579TMC3    O1 8647   0.066   3.433   0.997  0.2108 -0.6031  0.1123
  579TMC3    O2 8648   0.160   3.720   1.536 -0.0004 -0.3224 -0.1645
  580TMC3    C1 8649   3.828   2.814  12.605 -0.1746  0.0527  0.3277
  580TMC3    C2 8650   3.944   2.879  12.583  0.3426 -0.0815  0.0085
  580TMC3    C3 8651   4.040   2.862  12.675  0.6663 -0.2069 -0.0406
  580TMC3    C4 8652   3.808   2.728  12.706 -0.4804 -0.4847  0.0386
  580TMC3    C5 8653   3.908   2.711  12.795  0.3202  0.1086 -0.1426
  580TMC3    C6 8654   4.028   2.775  12.777  0.0894 -0.0897 -0.1264
  580TMC3     C 8655   3.723   2.826  12.504 -0.0421 -0.4891  0.0664
  580TMC3     O 8656   3.766   2.835  12.390  0.1114 -0.1739 -0.0082
  580TMC3     H 8657   3.954   2.947  12.500  0.5589 -0.0344  0.0745
  580TMC3    H1 8658   3.710   2.688  12.729 -1.2789  1.2929 -0.2782
  580TMC3    H2 8659   4.117   2.752  12.835  0.6016  1.3767 -0.3277
  580TMC3    C7 8660   3.929   2.583  12.866  0.6993  0.6736 -0.0045
  580TMC3    C8 8661   4.171   2.907  12.650  0.4930  0.1450  0.5356
  580TMC3    O1 8662   3.956   2.590  12.983 -1.2400 -0.0129  0.7916
  580TMC3    O2 8663   4.246   2.934  12.743  0.6066  0.0507  0.4012
  581MPD2     C 8664   1.833   3.044  15.278 -0.6076  0.4234  0.8484
  581MPD2    C1 8665   1.716   2.963  15.289  0.2814  0.5432  0.0130
  581MPD2    C2 8666   1.593   3.025  15.261 -0.2274  0.2317 -0.2454
  581MPD2    C3 8667   1.585   3.165  15.253  0.3364 -0.1984 -0.3874
  581MPD2    C4 8668   1.701   3.242  15.253  0.1049  0.2838 -0.0377
  581MPD2    C5 8669   1.820   3.178  15.260 -0.1799  0.4707  0.3282
  581MPD2     H 8670   1.501   2.968  15.253 -0.8451  1.1783  0.1307
  581MPD2    H1 8671   1.701   3.350  15.241  0.4398  0.2223 -0.5990
  581MPD2    H2 8672   1.929   2.995  15.269 -2.1105 -2.2727 -0.4926
  581MPD2    H3 8673   1.912   3.236  15.267  0.2580 -0.1683 -0.1182
  581MPD2     N 8674   1.470   3.247  15.242 -0.1829 -0.1070 -0.4444
  581MPD2    H5 8675   1.480   3.347  15.229 -2.2146 -0.0491 -1.4859
  581MPD2    N1 8676   1.725   2.826  15.331 -0.8589  0.3421  0.2276
  581MPD2    H7 8677   1.816   2.794  15.363  0.7985  1.2008 -3.6488
  582TMC3    C1 8678   1.649   2.631  15.449 -0.0834  0.1550  0.2133
  582TMC3    C2 8679   1.748   2.645  15.541 -0.7290  0.2259  0.9432
  582TMC3    C3 8680   1.763   2.554  15.640  0.3852 -0.1167 -0.0401
  582TMC3    C4 8681   1.564   2.524  15.451  0.9252  0.8599  0.8140
  582TMC3    C5 8682   1.571   2.440  15.554 -0.3855  0.8773  0.1672
  582TMC3    C6 8683   1.671   2.452  15.649  0.1658  0.4925  0.5415
  582TMC3     C 8684   1.620   2.735  15.351  0.5439 -0.1283  0.3084
  582TMC3     O 8685   1.517   2.731  15.287 -0.1040  0.2880  0.5678
  582TMC3     H 8686   1.816   2.730  15.543 -0.1384 -0.2621  1.4891
  582TMC3    H1 8687   1.484   2.514  15.378  0.7018 -0.8585  1.2955
  582TMC3    H2 8688   1.667   2.392  15.739  0.3345 -1.6537 -0.8631
  582TMC3    C7 8689   1.451   2.403  15.623  0.1028  0.0027 -0.0284
  582TMC3    C8 8690   1.816   2.617  15.766 -0.9409 -0.2787  0.2526
  582TMC3    O1 8691   1.442   2.421  15.738 -0.0838  0.2513 -0.4610
  582TMC3    O2 8692   1.732   2.650  15.849 -0.2424 -0.1988 -0.2756
  583MPD2     C 8693   1.725   4.610  16.371  0.0198  0.1540 -0.0474
  583MPD2    C1 8694   1.842   4.612  16.452 -0.0959  0.0252  0.3153
  583MPD2    C2 8695   1.838   4.697  16.563 -0.5592 -0.5367  0.2934
  583MPD2    C3 8696   1.718   0.016  16.607 -0.3292  0.1222  0.2464
  583MPD2    C4 8697   1.605   0.000  16.528 -0.3170  0.0904  0.4331
  583MPD2    C5 8698   1.605   4.666  16.418  0.3702 -0.5259 -0.0820
  583MPD2     H 8699   1.932   4.706  16.617 -0.6381  0.6358  0.2267
  583MPD2    H1 8700   1.511   0.042  16.559 -1.2379  0.4946 -2.9392
  583MPD2    H2 8701   1.727   4.558  16.275 -0.3057 -1.9625  1.0995
  583MPD2    H3 8702   1.514   4.653  16.360  0.9681 -1.0872 -0.8981
  583MPD2     N 8703   1.720   0.094  16.728  0.6917 -0.1924 -0.6224
  583MPD2    H5 8704   1.811   0.120  16.766  1.9876 -1.9289 -2.5717
  583MPD2    N1 8705   1.960   4.549  16.421 -0.6803 -0.3910  0.1194
  583MPD2    H7 8706   2.037   4.577  16.481 -0.9114  0.0321  0.2206
  584TMC3    C1 8707   1.631   0.214  16.910 -0.1777 -0.2376  0.4323
  584TMC3    C2 8708   1.717   0.320  16.886 -0.8555  0.6248 -0.1862
  584TMC3    C3 8709   1.749   0.403  16.992 -0.0492 -0.2539  0.2616
  584TMC3    C4 8710   1.588   0.184  17.040  0.3402 -0.1653 -0.1375
  584TMC3    C5 8711   1.624   0.272  17.139 -1.1735 -0.3085 -1.2706
  584TMC3    C6 8712   1.698   0.387  17.119  0.0064  0.4406 -0.5557
  584TMC3     C 8713   1.609   0.118  16.809 -0.8973  0.0641 -0.7003
  584TMC3     O 8714   1.512   0.043  16.815 -0.1843 -0.1904 -0.0349
  584TMC3     H 8715   1.743   0.346  16.784 -0.1289 -1.5504 -0.5438
  584TMC3    H1 8716   1.519   0.101  17.047 -0.4678  0.5586  0.4348
  584TMC3    H2 8717   1.715   0.460  17.197 -0.6257 -1.7121  1.5816
  584TMC3    C7 8718   1.593   0.226  17.271  0.4392  0.6960  0.1353
  584TMC3    C8 8719   1.858   0.496  16.956  0.5001  0.4572 -0.2349
  584TMC3    O1 8720   1.527   0.127  17.275 -0.3182 -0.2408 -0.2677
  584TMC3    O2 8721   1.883   0.510  16.839 -0.1182 -0.4271 -0.5232
  585MPD2     C 8722   0.982   3.724   0.313 -0.1339  0.1287  1.0756
  585MPD2    C1 8723   0.887   3.723   0.218 -0.3675 -0.1781  0.2747
  585MPD2    C2 8724   0.834   3.602   0.183  0.4212  0.7754  0.1845
  585MPD2    C3 8725   0.876   3.486   0.246  0.2260 -0.1478 -0.3958
  585MPD2    C4 8726   0.970   3.488   0.345 -0.3893  0.2123 -0.4274
  585MPD2    C5 8727   1.027   3.607   0.373  0.1499  0.7198  0.0530
  585MPD2     H 8728   0.761   3.586   0.104  2.1721  0.2495 -1.3116
  585MPD2    H1 8729   1.016   3.401   0.391 -0.3303 -0.4401 -1.7291
  585MPD2    H2 8730   1.022   3.822   0.338 -0.0507 -0.0112  1.5050
  585MPD2    H3 8731   1.109   3.619   0.443 -0.3346  0.7981  0.6049
  585MPD2     N 8732   0.838   3.361   0.200 -0.2081 -0.3013  0.2510
  585MPD2    H5 8733   0.888   3.281   0.239  0.5955  0.3267  0.5206
  585MPD2    N1 8734   0.857   3.848   0.158  0.5484 -0.6906  0.5445
  585MPD2    H7 8735   0.889   3.936   0.196  0.6225 -0.6405  0.3639
  586TMC3    C1 8736   0.722   3.195   0.077 -0.0574 -0.1684  0.8655
  586TMC3    C2 8737   0.832   3.110   0.092 -0.5957  0.2450 -0.3216
  586TMC3    C3 8738   0.811   2.989   0.030  1.1840 -0.4346 -1.1297
  586TMC3    C4 8739   0.609   3.167   0.006  0.2372  0.1876  0.2531
  586TMC3    C5 8740   0.604   3.048  17.704 -0.1152  0.4939 -0.6078
  586TMC3    C6 8741   0.705   2.958  17.709 -0.3735  0.3427  0.0908
  586TMC3     C 8742   0.728   3.337   0.119  0.6581  0.3925  0.1815
  586TMC3     O 8743   0.633   3.411   0.092  0.3611 -0.3821 -0.1540
  586TMC3     H 8744   0.914   3.130   0.160 -2.8242  0.7482  2.2342
  586TMC3    H1 8745   0.517   3.219   0.031 -1.1090 -1.4661 -1.2676
  586TMC3    H2 8746   0.692   2.862  17.659 -0.7704  0.8910 -0.8478
  586TMC3    C7 8747   0.474   2.994  17.676 -0.2966  0.6073  0.3758
  586TMC3    C8 8748   0.919   2.887   0.037 -0.5903 -0.1271 -0.5646
  586TMC3    O1 8749   0.465   2.871  17.678  0.6590  0.3979 -0.3212
  586TMC3    O2 8750   0.891   2.779  17.739 -0.2140 -0.3931  0.1107
  587TMC3    C1 8751   3.076   2.434  16.004  0.4809 -0.1858  0.5691
  587TMC3    C2 8752   3.105   2.430  16.140 -0.2733 -0.4433  0.0446
  587TMC3    C3 8753   3.239   2.403  16.173  0.1929 -0.4157 -0.1506
  587TMC3    C4 8754   3.170   2.424  15.900  0.4827 -0.1025  0.3213
  587TMC3    C5 8755   3.299   2.412  15.939  0.0121 -0.3569 -0.3154
  587TMC3    C6 8756   3.338   2.395  16.072 -0.6922  0.6937  0.4644
  587TMC3     C 8757   2.934   2.422  15.965  0.2208 -0.3639 -0.4911
  587TMC3     O 8758   2.907   2.464  15.851 -0.3031 -0.6351  0.1645
  587TMC3     H 8759   3.030   2.457  16.213 -1.3460  1.2897 -1.7050
  587TMC3    H1 8760   3.140   2.423  15.795 -1.9030  4.0746  0.9362
  587TMC3    H2 8761   3.442   2.386  16.100  0.6152  0.7044 -4.3855
  587TMC3    C7 8762   3.408   2.390  15.843 -0.1348 -0.2707 -0.1513
  587TMC3    C8 8763   3.292   2.437  16.301  1.0656  0.3682 -0.8370
  587TMC3    O1 8764   3.520   2.359  15.889  0.0089 -0.1858 -0.8342
  587TMC3    O2 8765   3.392   2.373  16.339  0.1660 -0.3496 -0.3220
  588TMC3    C1 8766   0.553   4.443   9.979  0.3187 -0.1204  0.6666
  588TMC3    C2 8767   0.525   4.307   9.992  0.2274 -0.3536  0.4537
  588TMC3    C3 8768   0.627   4.222   9.971 -0.3372  0.4569  0.6532
  588TMC3    C4 8769   0.675   4.481   9.942 -0.0719 -0.1296 -0.0296
  588TMC3    C5 8770   0.778   4.390   9.925  0.3569 -0.3571 -0.6003
  588TMC3    C6 8771   0.757   4.257   9.945 -0.3525  0.3419  0.0689
  588TMC3     C 8772   0.484   4.539  10.064 -0.3633 -0.1516  0.2001
  588TMC3     O 8773   0.364   4.531  10.087 -0.5081 -0.6117 -0.9819
  588TMC3     H 8774   0.430   4.263  10.022  1.0289 -0.4712  2.7951
  588TMC3    H1 8775   0.690   4.588   9.930 -0.0498 -0.1686 -0.3653
  588TMC3    H2 8776   0.843   4.192   9.954 -1.2597 -0.6937  1.2894
  588TMC3    C7 8777   0.911   4.437   9.890 -0.4121 -0.1576 -0.4250
  588TMC3    C8 8778   0.598   4.082   9.983 -0.2685  0.3745  0.1692
  588TMC3    O1 8779   1.002   4.355   9.894  0.2748  0.2793 -0.1138
  588TMC3    O2 8780   0.496   4.044   9.929 -0.2558 -0.0751  0.1771
  589TMC3    C1 8781   0.085   2.050   0.997 -0.0780 -0.1087  0.1555
  589TMC3    C2 8782   0.156   2.098   1.103  0.2971  0.1162 -0.0066
  589TMC3    C3 8783   0.274   2.040   1.130 -0.0329  0.5541  0.2214
  589TMC3    C4 8784   0.135   1.948   0.919  0.3248 -0.5240  0.6388
  589TMC3    C5 8785   0.249   1.890   0.960  0.0544  0.3412 -0.5952
  589TMC3    C6 8786   0.327   1.938   1.064  0.5662 -0.0862  0.9419
  589TMC3     C 8787   4.731   2.135   0.932  0.6245 -0.3494 -0.1450
  589TMC3     O 8788   4.683   2.102   0.821  0.5397 -0.2812 -0.2064
  589TMC3     H 8789   0.124   2.182   1.163  2.7900  0.9041  0.2118
  589TMC3    H1 8790   0.081   1.922   0.828 -0.5241  0.9600  0.7279
  589TMC3    H2 8791   0.415   1.891   1.106 -0.4612 -2.0111  0.9722
  589TMC3    C7 8792   0.288   1.767   0.891 -0.8186  0.3336  0.3122
  589TMC3    C8 8793   0.341   2.079   1.251  0.0791  0.0401 -0.0612
  589TMC3    O1 8794   0.196   1.709   0.839  0.7248 -0.3918 -0.5339
  589TMC3    O2 8795   0.275   2.137   1.337 -0.9055  0.2242  0.3798
  590MPD2     C 8796   4.358   0.620  16.586 -0.2320 -0.4139 -0.2063
  590MPD2    C1 8797   4.307   0.741  16.568  0.5340  0.3605  0.3833
  590MPD2    C2 8798   4.387   0.837  16.509  0.6037  0.1425  0.3094
  590MPD2    C3 8799   4.516   0.816  16.477  0.1772 -0.5071  0.3335
  590MPD2    C4 8800   4.570   0.697  16.505  0.4142  0.6352  0.3294
  590MPD2    C5 8801   4.485   0.597  16.548 -0.2596 -0.3895 -0.1931
  590MPD2     H 8802   4.337   0.928  16.474  1.7443  0.4061 -0.6184
  590MPD2    H1 8803   4.676   0.675  16.494  0.3702 -1.5321  3.9727
  590MPD2    H2 8804   4.302   0.533  16.618 -0.1778 -0.1417  0.6103
  590MPD2    H3 8805   4.520   0.495  16.557 -0.0605 -0.0972  2.2664
  590MPD2     N 8806   4.588   0.918  16.403 -0.1552 -0.0550  0.4447
  590MPD2    H5 8807   4.536   0.999  16.371 -2.0203 -1.9071 -1.2162
  590MPD2    N1 8808   4.163   0.755  16.587 -0.3313  0.1364  0.3751
  590MPD2    H7 8809   4.120   0.671  16.625  1.0971 -1.4852 -1.5619
  591TMC3    C1 8810   0.009   1.017  16.273 -0.6945  0.1043 -0.2179
  591TMC3    C2 8811   0.079   0.979  16.161  0.2732 -0.3780 -0.4376
  591TMC3    C3 8812   0.085   1.063  16.052  0.4092  0.4499  0.5337
  591TMC3    C4 8813   4.664   1.130  16.272 -0.2400  0.0103 -0.1135
  591TMC3    C5 8814   4.674   1.207  16.160 -0.2628 -0.0180  0.0486
  591TMC3    C6 8815   0.010   1.181  16.045  0.1316  0.0114  0.1722
  591TMC3     C 8816   4.715   0.908  16.361  0.9081  0.5040 -0.5796
  591TMC3     O 8817   0.056   0.816  16.360 -0.2179  0.3232  0.4474
  591TMC3     H 8818   0.145   0.893  16.160  1.6574  0.6710  0.3862
  591TMC3    H1 8819   4.639   1.179  16.365 -1.3387 -0.9890  0.1100
  591TMC3    H2 8820   0.006   1.248  15.961  1.5463  0.8267  0.7587
  591TMC3    C7 8821   4.591   1.326  16.159  0.2366 -0.7633 -0.1343
  591TMC3    C8 8822   0.121   0.994  15.931  0.1436  1.1401  0.8184
  591TMC3    O1 8823   4.488   1.318  16.217 -0.0347  0.7774 -0.0338
  591TMC3    O2 8824   0.116   0.876  15.928 -0.2645 -0.3542  0.1352
  592MPD2     C 8825   0.092   2.371  11.496 -0.5877  0.0153 -1.0047
  592MPD2    C1 8826   0.069   2.431  11.615 -0.0615 -0.4301 -0.5970
  592MPD2    C2 8827   4.703   2.389  11.696 -0.3332  0.4380 -0.3371
  592MPD2    C3 8828   4.637   2.275  11.653 -0.3899  0.6797  0.2278
  592MPD2    C4 8829   4.670   2.206  11.539 -1.0559  0.0790 -0.3976
  592MPD2    C5 8830   0.023   2.259  11.458 -0.2748 -0.0936 -0.7414
  592MPD2     H 8831   4.677   2.452  11.781 -2.4666  0.5234 -1.0731
  592MPD2    H1 8832   4.596   2.133  11.507 -2.4792  0.6640  1.5524
  592MPD2    H2 8833   0.171   2.396  11.425 -0.3101 -0.2935 -0.8050
  592MPD2    H3 8834   0.047   2.218  11.360  0.8994 -0.3715 -0.3418
  592MPD2     N 8835   4.526   2.250  11.741 -0.0605 -0.5414 -0.1328
  592MPD2    H5 8836   4.501   2.322  11.808  0.5118  0.4106 -0.9578
  592MPD2    N1 8837   0.150   2.540  11.658 -0.2360  0.2815  0.0281
  592MPD2    H7 8838   0.214   2.583  11.592 -0.6755  2.3469  0.9502
  593TMC3    C1 8839   0.261   2.694  11.784 -0.0649  0.2483 -0.3626
  593TMC3    C2 8840   0.239   2.791  11.882 -0.2579  0.0663 -0.4223
  593TMC3    C3 8841   0.331   2.888  11.901  0.1745  0.6538 -0.2143
  593TMC3    C4 8842   0.386   2.679  11.725  0.1783 -0.0484  0.4855
  593TMC3    C5 8843   0.482   2.769  11.762  0.4668  0.5818 -0.3889
  593TMC3    C6 8844   0.458   2.876  11.845  0.0243 -0.2626 -0.4573
  593TMC3     C 8845   0.158   2.598  11.780 -0.3190  0.6855 -0.3190
  593TMC3     O 8846   0.090   2.583  11.880 -0.5593 -0.0220  0.4525
  593TMC3     H 8847   0.144   2.809  11.932 -0.8071 -1.4377 -0.9165
  593TMC3    H1 8848   0.416   2.594  11.665 -0.5982  0.7038 -0.9629
  593TMC3    H2 8849   0.533   2.952  11.865  0.8750 -0.2053 -3.9378
  593TMC3    C7 8850   0.582   2.805  11.662  0.2244 -0.8950  0.1618
  593TMC3    C8 8851   0.272   3.019  11.880  0.0570  0.1124 -0.5922
  593TMC3    O1 8852   0.689   2.851  11.705 -0.3656  0.2717 -0.1972
  593TMC3    O2 8853   0.162   3.017  11.822 -0.1219  0.5676 -0.4642
  594MPD2     C 8854   3.512   1.413  14.173 -0.4701  0.3837 -0.0033
  594MPD2    C1 8855   3.494   1.440  14.307 -0.4022 -0.0219 -0.7494
  594MPD2    C2 8856   3.592   1.523  14.364  0.2941 -0.5616  0.3375
  594MPD2    C3 8857   3.700   1.561  14.290  0.2463 -1.1069  0.2418
  594MPD2    C4 8858   3.712   1.531  14.156  0.0411  0.1978  0.1073
  594MPD2    C5 8859   3.611   1.463  14.094  0.2819  0.0628 -0.0341
  594MPD2     H 8860   3.583   1.556  14.466 -1.8956 -1.2632  0.3782
  594MPD2    H1 8861   3.805   1.554  14.105  0.4315  1.3334  1.3357
  594MPD2    H2 8862   3.438   1.357  14.117  0.6740 -0.6099 -0.5232
  594MPD2    H3 8863   3.621   1.439  13.988  1.7343  0.6295 -0.0312
  594MPD2     N 8864   3.782   1.652  14.361  0.0404 -0.8990  0.0794
  594MPD2    H5 8865   3.756   1.663  14.459 -0.0700  3.0575 -0.4146
  594MPD2    N1 8866   3.388   1.388  14.387 -0.3097 -0.0353 -0.3796
  594MPD2    H7 8867   3.303   1.353  14.344  0.5916 -1.2466 -1.1962
  595TMC3    C1 8868   4.139   1.940  14.434  0.4388  0.2379 -0.6084
  595TMC3    C2 8869   4.089   1.826  14.381  0.3035  0.2813  0.8351
  595TMC3    C3 8870   3.966   1.780  14.427  0.7455 -0.2796 -0.4004
  595TMC3    C4 8871   4.067   2.017  14.527  0.1244  0.2302 -0.2580
  595TMC3    C5 8872   3.938   1.971  14.570  0.5411  0.5959  0.5872
  595TMC3    C6 8873   3.893   1.854  14.521 -0.4128  0.0986 -0.2830
  595TMC3     C 8874   4.278   1.981  14.417  0.2576  0.0465 -0.0406
  595TMC3     O 8875   4.318   2.049  14.513 -0.1740 -0.3634  0.4863
  595TMC3     H 8876   4.154   1.774  14.312 -0.5326  0.8699 -0.4138
  595TMC3    H1 8877   4.111   2.109  14.564 -2.3364  1.0245  0.6740
  595TMC3    H2 8878   3.788   1.839  14.539 -0.3144  0.0100  0.2104
  595TMC3    C7 8879   3.843   2.072  14.625 -0.0499  0.6387  0.0986
  595TMC3    C8 8880   3.899   1.718  14.318 -0.4344  0.2344  0.7428
  595TMC3    O1 8881   3.727   2.039  14.618  0.1648 -0.7472 -0.1500
  595TMC3    O2 8882   3.960   1.708  14.212 -0.6708  0.2514  0.5168
  596MPD2     C 8883   2.425   4.321  16.623  0.1542  0.6680 -0.2755
  596MPD2    C1 8884   2.527   4.409  16.611  0.3999 -0.0711  0.4951
  596MPD2    C2 8885   2.634   4.385  16.526  0.2124  0.3184  0.2178
  596MPD2    C3 8886   2.633   4.275  16.442  0.5989 -1.0958 -0.8289
  596MPD2    C4 8887   2.530   4.181  16.456  0.0499 -0.0613 -0.2576
  596MPD2    C5 8888   2.424   4.208  16.541 -0.3860 -0.4940  0.4084
  596MPD2     H 8889   2.703   4.463  16.496 -1.4352  1.5699 -0.3193
  596MPD2    H1 8890   2.522   4.091  16.397 -0.8565 -1.8104  2.5101
  596MPD2    H2 8891   2.336   4.343  16.680 -0.7642 -1.4120 -0.9081
  596MPD2    H3 8892   2.350   4.131  16.554  1.0758 -1.7978  0.9952
  596MPD2     N 8893   2.720   4.262  16.333  0.5508 -0.2946  0.0695
  596MPD2    H5 8894   2.719   4.176  16.280 -1.4000  0.5146 -1.2181
  596MPD2    N1 8895   2.530   4.531  16.685 -0.1551 -0.1715 -0.3527
  596MPD2    H7 8896   2.603   4.597  16.660  1.4992 -1.9486 -0.1512
  597TMC3    C1 8897   2.479   4.690  16.854 -0.0003  0.2101  0.1977
  597TMC3    C2 8898   2.513   0.054  16.773 -0.7694 -0.0538  0.3734
  597TMC3    C3 8899   2.516   0.181  16.828 -0.7345 -0.3866 -0.5648
  597TMC3    C4 8900   2.455   4.703  16.989 -0.0955 -0.2829  0.5263
  597TMC3    C5 8901   2.453   0.096  17.037 -0.0345 -0.0434 -0.0886
  597TMC3    C6 8902   2.470   0.205  16.957  0.1607  0.1598  0.8636
  597TMC3     C 8903   2.461   4.552  16.804 -0.0890  0.0452 -0.0767
  597TMC3     O 8904   2.389   4.477  16.866 -0.1214  0.2786 -0.2399
  597TMC3     H 8905   2.531   0.050  16.666 -2.6179 -0.1243  0.0708
  597TMC3    H1 8906   2.422   4.619  17.049 -0.2007 -0.5649  0.0711
  597TMC3    H2 8907   2.480   0.302  17.003 -0.0137  0.0199  1.2007
  597TMC3    C7 8908   2.384   0.120  17.163 -0.1196  0.2188 -0.5304
  597TMC3    C8 8909   2.572   0.293  16.754 -0.0690 -0.1498 -0.4867
  597TMC3    O1 8910   2.360   0.021  17.231 -0.0386 -0.2751  0.3340
  597TMC3    O2 8911   2.528   0.403  16.778 -0.6486 -0.0976  0.5042
  598TMC3    C1 8912   0.756   0.701  15.494  0.1267  0.4868 -0.6579
  598TMC3    C2 8913   0.703   0.614  15.401  0.4205 -0.7157 -0.4156
  598TMC3    C3 8914   0.649   0.665  15.283 -0.4954  0.2049  1.0184
  598TMC3    C4 8915   0.760   0.838  15.466 -0.0819 -0.1658 -0.4309
  598TMC3    C5 8916   0.699   0.878  15.349  0.3973 -0.1243  0.2854
  598TMC3    C6 8917   0.650   0.798  15.249  0.4970 -0.2634 -0.0156
  598TMC3     C 8918   0.769   0.651  15.627 -0.2878 -0.0581  0.0751
  598TMC3     O 8919   0.673   0.579  15.662  0.2676 -0.3519 -0.4210
  598TMC3     H 8920   0.709   0.506  15.406 -1.4692 -0.8705 -1.2098
  598TMC3    H1 8921   0.772   0.901  15.553  0.7283 -1.9963  0.7746
  598TMC3    H2 8922   0.609   0.832  15.154 -0.9025 -0.9958  0.3263
  598TMC3    C7 8923   0.746   1.015  15.313  0.5479 -0.2821 -0.4281
  598TMC3    C8 8924   0.564   0.577  15.205  0.0640 -0.0099 -0.0025
  598TMC3    O1 8925   0.811   1.076  15.398 -0.4799  0.1942 -0.1366
  598TMC3    O2 8926   0.576   0.456  15.218  0.6955  0.3279 -0.5681
  599MPD2     C 8927   1.105   3.304  16.102  0.3287  0.1398  0.0534
  599MPD2    C1 8928   1.085   3.266  16.234  0.5300 -0.5895 -0.0694
  599MPD2    C2 8929   0.992   3.332  16.318  0.5472 -0.0208  0.2371
  599MPD2    C3 8930   0.917   3.430  16.260  0.8947 -0.4467 -0.4824
  599MPD2    C4 8931   0.938   3.472  16.132 -0.1045 -0.2097  0.2183
  599MPD2    C5 8932   1.039   3.414  16.056  0.4627 -0.4228 -0.5755
  599MPD2     H 8933   0.976   3.294  16.419 -1.4256 -1.5790 -0.6642
  599MPD2    H1 8934   0.886   3.557  16.088  0.4670  0.0466  0.0403
  599MPD2    H2 8935   1.174   3.258  16.032 -1.6238 -2.4409 -0.1585
  599MPD2    H3 8936   1.044   3.454  15.955  2.2275 -2.5632 -1.3427
  599MPD2     N 8937   0.815   3.497  16.335  0.9982 -0.5135 -0.7787
  599MPD2    H5 8938   0.761   3.568  16.286  0.5802  0.4588  1.0858
  599MPD2    N1 8939   1.169   3.163  16.287  0.3061 -0.1028  0.4896
  599MPD2    H7 8940   1.223   3.105  16.224 -2.6003 -0.9966 -1.1664
  600TMC3    C1 8941   0.636   3.496  16.487  0.1808 -0.1881  0.8771
  600TMC3    C2 8942   0.555   3.390  16.520  0.1824 -0.0126  0.4524
  600TMC3    C3 8943   0.419   3.412  16.521  0.5187  0.0635 -0.3169
  600TMC3    C4 8944   0.587   3.616  16.441  0.3271  0.3504  0.2862
  600TMC3    C5 8945   0.451   3.631  16.431 -0.2958  0.3577  0.6881
  600TMC3    C6 8946   0.364   3.529  16.469  0.3534 -0.3534  0.2890
  600TMC3     C 8947   0.774   3.458  16.460 -0.4460  0.6825 -0.1771
  600TMC3     O 8948   0.815   3.374  16.536  0.7030  0.0921 -0.3362
  600TMC3     H 8949   0.594   3.292  16.545 -0.2798 -0.7977 -1.9514
  600TMC3    H1 8950   0.652   3.702  16.430  1.2878 -0.5293 -0.8971
  600TMC3    H2 8951   0.258   3.549  16.478  0.1423 -2.8127  2.9610
  600TMC3    C7 8952   0.396   3.770  16.419  0.2629  0.6988 -0.0108
  600TMC3    C8 8953   0.341   3.295  16.551 -0.3162 -0.0619 -0.0521
  600TMC3    O1 8954   0.277   3.777  16.453  0.7489 -0.0942  0.0929
  600TMC3    O2 8955   0.376   3.215  16.636 -0.3761  0.1369  0.0782
  601MPD2     C 8956   2.658   2.303   0.797 -0.1321  0.4793  0.1503
  601MPD2    C1 8957   2.627   2.209   0.702 -0.2520 -0.4379  0.2296
  601MPD2    C2 8958   2.628   2.074   0.727 -1.4852  0.2204  0.1393
  601MPD2    C3 8959   2.684   2.038   0.850 -0.6481 -0.3276 -0.1978
  601MPD2    C4 8960   2.713   2.128   0.946 -0.1592  0.6891 -0.2574
  601MPD2    C5 8961   2.706   2.263   0.924  0.3827 -0.7345  0.6152
  601MPD2     H 8962   2.613   2.004   0.646 -1.3140  0.6095 -0.2270
  601MPD2    H1 8963   2.770   2.103   1.035  1.0999  0.2804 -1.1785
  601MPD2    H2 8964   2.664   2.410   0.779 -0.3190  0.0954 -2.1889
  601MPD2    H3 8965   2.742   2.341   0.990 -0.0791  0.4464 -0.5320
  601MPD2     N 8966   2.683   1.901   0.883  0.1328 -0.0488  0.4772
  601MPD2    H5 8967   2.738   1.882   0.966  0.3495  1.1207  0.6025
  601MPD2    N1 8968   2.600   2.247   0.568 -0.6442 -0.6689 -0.4512
  601MPD2    H7 8969   2.564   2.175   0.506  1.2798 -1.8750 -0.1645
  602TMC3    C1 8970   2.574   2.367   0.375  0.1352 -0.0306  0.3928
  602TMC3    C2 8971   2.646   2.448   0.291 -0.0463  0.8657  0.1825
  602TMC3    C3 8972   2.617   2.452   0.162 -0.1009 -0.3952 -0.1240
  602TMC3    C4 8973   2.478   2.282   0.333 -0.2145 -0.1782  0.2435
  602TMC3    C5 8974   2.467   2.280   0.197 -0.6413  0.2822 -0.1960
  602TMC3    C6 8975   2.528   2.367   0.110 -0.0257 -0.5965 -0.2515
  602TMC3     C 8976   2.607   2.372   0.513 -0.1699 -0.1390  0.2534
  602TMC3     O 8977   2.665   2.469   0.561 -0.0249 -0.0837  0.2508
  602TMC3     H 8978   2.717   2.518   0.335 -0.6968  1.8686 -0.3467
  602TMC3    H1 8979   2.425   2.225   0.408 -0.6816  0.0245  0.0642
  602TMC3    H2 8980   2.474   2.389   0.019  0.9483  4.0543  0.3233
  602TMC3    C7 8981   2.390   2.175   0.140  0.8084 -0.8403 -0.5687
  602TMC3    C8 8982   2.694   2.532   0.064 -0.1110 -0.7552 -0.2785
  602TMC3    O1 8983   2.315   2.118   0.220  0.4994 -0.1280 -0.5760
  602TMC3    O2 8984   2.703   2.653   0.082 -0.0910  0.3301  0.0437
  603TMC3    C1 8985   0.480   1.786  11.335  0.2519 -0.2244 -0.2091
  603TMC3    C2 8986   0.499   1.807  11.467 -0.3096  0.4052 -0.4309
  603TMC3    C3 8987   0.578   1.911  11.513  0.0191 -0.5648 -0.1028
  603TMC3    C4 8988   0.517   1.885  11.245 -0.4301 -0.0310 -0.5636
  603TMC3    C5 8989   0.601   1.984  11.289  0.2997 -0.3666 -0.1650
  603TMC3    C6 8990   0.640   1.993  11.423  0.2033 -0.0528 -0.4256
  603TMC3     C 8991   0.368   1.698  11.285 -0.7796  0.0677 -0.1922
  603TMC3     O 8992   0.308   1.720  11.180 -0.2988 -0.2314  0.0335
  603TMC3     H 8993   0.447   1.732  11.526  0.5850  0.4174  0.3776
  603TMC3    H1 8994   0.494   1.876  11.139 -0.9093 -0.1060 -0.4574
  603TMC3    H2 8995   0.692   2.083  11.455  0.1561 -0.8826  1.9318
  603TMC3    C7 8996   0.650   2.081  11.198  0.7809  0.6583  0.0033
  603TMC3    C8 8997   0.580   1.934  11.657 -0.2162  0.3126 -1.1085
  603TMC3    O1 8998   0.750   2.139  11.231  0.1362  0.2998 -0.2159
  603TMC3    O2 8999   0.501   1.860  11.713  0.1216 -0.3662 -0.2697
  604MPD2     C 9000   1.848   0.840  16.541  0.2449  0.0945 -0.1055
  604MPD2    C1 9001   1.742   0.776  16.479 -1.0371 -0.3456 -0.5091
  604MPD2    C2 9002   1.758   0.718  16.356  0.3231  0.2027 -0.6844
  604MPD2    C3 9003   1.883   0.738  16.291 -0.1712  0.1899  0.1555
  604MPD2    C4 9004   1.988   0.800  16.355  0.3275 -0.3243  0.4279
  604MPD2    C5 9005   1.966   0.851  16.481 -0.1567 -0.1693 -0.0297
  604MPD2     H 9006   1.689   0.654  16.302 -1.4817  0.7708  0.9394
  604MPD2    H1 9007   2.082   0.829  16.310  1.8736 -2.3215  2.4070
  604MPD2    H2 9008   1.832   0.886  16.638  1.7108  1.2317 -0.4196
  604MPD2    H3 9009   2.053   0.894  16.528  0.0068 -1.1777  0.5958
  604MPD2     N 9010   1.900   0.680  16.164 -0.5428 -0.7619  0.7519
  604MPD2    H5 9011   1.807   0.654  16.135 -1.1011  0.7984  1.1379
  604MPD2    N1 9012   1.615   0.758  16.553  0.0283  0.1848 -0.0952
  604MPD2    H7 9013   1.609   0.796  16.647 -0.8398  0.0354 -0.0906
  605TMC3    C1 9014   1.385   0.753  16.574 -0.4437  0.0276 -0.1005
  605TMC3    C2 9015   1.410   0.772  16.704 -0.4083 -0.3749  0.1905
  605TMC3    C3 9016   1.369   0.893  16.754  0.4316 -0.7240 -0.1423
  605TMC3    C4 9017   1.295   0.832  16.505 -0.2681 -0.4559  0.5326
  605TMC3    C5 9018   1.235   0.934  16.571  0.9590 -0.1971 -0.2478
  605TMC3    C6 9019   1.281   0.976  16.686 -0.2492 -0.3043  0.5772
  605TMC3     C 9020   1.496   0.720  16.493 -0.1008 -0.9201 -0.2619
  605TMC3     O 9021   1.475   0.689  16.378 -0.2743  0.5349 -0.7625
  605TMC3     H 9022   1.477   0.710  16.763  0.9867 -0.7065 -1.7580
  605TMC3    H1 9023   1.285   0.812  16.399  0.0676 -3.2356  1.0311
  605TMC3    H2 9024   1.247   1.075  16.715 -2.1173 -0.8148  0.1067
  605TMC3    C7 9025   1.146   1.011  16.494  0.0003  0.1717  0.3325
  605TMC3    C8 9026   1.479   0.955  16.818 -0.1174 -1.2495  0.2425
  605TMC3    O1 9027   1.142   1.130  16.523  0.2496  0.0431 -0.2020
  605TMC3    O2 9028   1.589   0.899  16.802 -0.6374 -0.2618 -0.0575
  606TMC3    C1 9029   2.589   0.125  17.558  0.1277 -1.0923 -1.2580
  606TMC3    C2 9030   2.616   0.142  17.687  0.2881 -0.0695 -0.9188
  606TMC3    C3 9031   2.636   0.030  17.754  0.4483 -0.2470 -0.2389
  606TMC3    C4 9032   2.571   0.000  17.496  0.7039  0.9483 -0.8416
  606TMC3    C5 9033   2.586   4.632  17.576 -0.1977 -0.1179  0.3763
  606TMC3    C6 9034   2.628   4.642  17.704 -0.0795  0.3576 -0.2490
  606TMC3     C 9035   2.597   0.238  17.473  0.4542 -0.2892 -0.4510
  606TMC3     O 9036   2.564   0.348  17.509  0.8333 -0.6076  0.0499
  606TMC3     H 9037   2.633   0.237  17.736  1.0526 -1.6565  1.9508
  606TMC3    H1 9038   2.540   4.719  17.394  0.1607  2.8245 -1.0658
  606TMC3    H2 9039   2.643   4.552   0.005 -0.3045  0.8796  0.6124
  606TMC3    C7 9040   2.645   4.516  17.514 -0.2382  0.1558  0.5034
  606TMC3    C8 9041   2.676   0.039   0.133 -0.1121  0.0519  0.4730
  606TMC3    O1 9042   2.698   4.538  17.400 -0.4076  0.1934  0.0300
  606TMC3    O2 9043   2.609   0.108   0.206  0.0312 -0.1409  0.4442
  607MPD2     C 9044   4.707   1.525  11.707  0.1962  0.4473  0.2400
  607MPD2    C1 9045   4.649   1.642  11.759 -0.1106 -0.1422  0.9615
  607MPD2    C2 9046   4.546   1.629  11.851  0.5164  0.4655  0.5812
  607MPD2    C3 9047   4.508   1.509  11.892 -0.3453  0.5388 -0.5033
  607MPD2    C4 9048   4.564   1.393  11.842 -0.3625  0.1435  0.5124
  607MPD2    C5 9049   4.670   1.402  11.756  0.2134 -0.0619 -0.2440
  607MPD2     H 9050   4.497   1.718  11.885  2.3008  1.1718  1.3014
  607MPD2    H1 9051   4.529   1.295  11.871 -0.8331  0.3618  0.6760
  607MPD2    H2 9052   0.048   1.537  11.636  0.1701 -3.8282 -0.4808
  607MPD2    H3 9053   4.725   1.315  11.722  1.3162  0.8259 -0.7690
  607MPD2     N 9054   4.407   1.512  11.990 -0.0322  0.0369  0.5486
  607MPD2    H5 9055   4.377   1.606  12.011  0.3977  0.3721 -0.3097
  607MPD2    N1 9056   4.699   1.770  11.725 -0.2587 -0.1070 -0.3449
  607MPD2    H7 9057   4.633   1.847  11.732  0.5588  0.5660 -0.0044
  608TMC3    C1 9058   0.105   1.945  11.701 -0.1531 -0.4809  0.0542
  608TMC3    C2 9059   0.073   1.974  11.834  0.1696  0.1866  0.3822
  608TMC3    C3 9060   0.123   2.097  11.876  0.3664 -0.5087  0.1088
  608TMC3    C4 9061   0.198   2.003  11.627 -0.1343  0.0992  0.2378
  608TMC3    C5 9062   0.246   2.122  11.678  0.3264  0.0355 -0.2142
  608TMC3    C6 9063   0.198   2.176  11.795  0.3710  0.4467 -0.5879
  608TMC3     C 9064   0.073   1.811  11.662 -0.4495 -0.0843 -0.3415
  608TMC3     O 9065   0.161   1.742  11.608 -0.8822  0.3721  0.6438
  608TMC3     H 9066   0.043   1.895  11.901 -0.3349 -1.2369 -1.5373
  608TMC3    H1 9067   0.223   1.959  11.531 -0.9416  1.2117 -0.4683
  608TMC3    H2 9068   0.225   2.276  11.828  1.2231  0.3487 -0.9967
  608TMC3    C7 9069   0.342   2.192  11.595  0.8133 -0.0888 -0.0455
  608TMC3    C8 9070   0.064   2.143  12.000 -0.0937 -0.0733  0.5858
  608TMC3    O1 9071   0.346   2.168  11.473 -0.0174  0.2003  0.4302
  608TMC3    O2 9072   0.134   2.213  12.077  0.0708  0.5972 -0.3063
  609TMC3    C1 9073   3.018   0.503   9.738  0.7165  0.2546 -0.1997
  609TMC3    C2 9074   2.897   0.478   9.684 -0.0183  0.8008  0.4008
  609TMC3    C3 9075   2.896   0.420   9.558  0.6453 -0.2688 -0.1309
  609TMC3    C4 9076   3.134   0.489   9.663 -0.1117 -0.2183  0.9250
  609TMC3    C5 9077   3.126   0.438   9.541 -0.0055  0.1196  0.6600
  609TMC3    C6 9078   3.006   0.409   9.476 -0.3998  0.2078 -0.1578
  609TMC3     C 9079   3.022   0.604   9.851 -0.7054  0.5841  0.0986
  609TMC3     O 9080   2.948   0.581   9.947  0.3732 -0.3059 -1.1299
  609TMC3     H 9081   2.806   0.493   9.740  0.9210 -0.9471  2.3939
  609TMC3    H1 9082   3.233   0.507   9.702  0.0562 -0.8988  0.8081
  609TMC3    H2 9083   3.005   0.376   9.373  2.9662  0.7440 -0.3919
  609TMC3    C7 9084   3.251   0.456   9.473 -0.4124 -1.1917 -0.1447
  609TMC3    C8 9085   2.762   0.395   9.501 -0.5676 -0.8526 -0.2725
  609TMC3    O1 9086   3.333   0.537   9.516 -0.4381 -0.0773  0.0393
  609TMC3    O2 9087   2.670   0.426   9.571  0.1380 -0.0659 -0.4123
  610TMC3    C1 9088   0.028   2.172  12.745 -0.7000 -0.0012 -0.4580
  610TMC3    C2 9089   0.058   2.104  12.628 -0.6731  0.6471 -0.3927
  610TMC3    C3 9090   0.185   2.056  12.605  0.2974  0.2207 -0.1775
  610TMC3    C4 9091   0.129   2.194  12.835  0.4321  0.8755 -0.3045
  610TMC3    C5 9092   0.260   2.146  12.804 -0.1271 -0.4537  0.3181
  610TMC3    C6 9093   0.290   2.083  12.687  0.2237 -0.0993  0.0049
  610TMC3     C 9094   4.648   2.242  12.755  1.3014  0.0158  0.4734
  610TMC3     O 9095   4.560   2.215  12.672  0.5444 -0.5316 -0.0152
  610TMC3     H 9096   4.716   2.080  12.561 -0.9174 -0.7094  0.3781
  610TMC3    H1 9097   0.116   2.237  12.934 -1.2496 -1.3663  0.4384
  610TMC3    H2 9098   0.388   2.040  12.671  0.3993  0.5038 -0.5555
  610TMC3    C7 9099   0.359   2.130  12.907 -0.2966 -0.6757 -1.0039
  610TMC3    C8 9100   0.216   1.985  12.476 -0.6289 -0.0436  0.4718
  610TMC3    O1 9101   0.462   2.076  12.869 -0.2905  0.0823 -0.0630
  610TMC3    O2 9102   0.333   2.013  12.442  0.1056  0.0574 -0.1956
  611MPD2     C 9103   4.206   1.960  10.345 -0.2752  0.4281  0.0920
  611MPD2    C1 9104   4.295   1.884  10.410 -0.4416  0.5817 -0.2486
  611MPD2    C2 9105   4.425   1.931  10.431 -0.8179  0.4002  0.1269
  611MPD2    C3 9106   4.467   2.049  10.362  0.6964 -0.2711 -0.3551
  611MPD2    C4 9107   4.371   2.107  10.277 -0.4268 -1.2594  0.2318
  611MPD2    C5 9108   4.235   2.074  10.277 -0.4110  0.2735 -0.4344
  611MPD2     H 9109   4.499   1.875  10.486  1.4561  1.9538 -1.3711
  611MPD2    H1 9110   4.399   2.193  10.218 -2.3306 -0.6005  0.3033
  611MPD2    H2 9111   4.105   1.924  10.333 -0.8264  1.3857  1.8801
  611MPD2    H3 9112   4.162   2.131  10.221 -0.6570  2.2304  1.9142
  611MPD2     N 9113   4.597   2.113  10.375  0.2055 -0.6529  0.1012
  611MPD2    H5 9114   4.615   2.189  10.310 -2.7140  0.9082  1.1409
  611MPD2    N1 9115   4.258   1.752  10.444  1.1690 -0.2308 -0.2087
  611MPD2    H7 9116   4.173   1.717  10.401  0.6709  2.3496 -1.2609
  612TMC3    C1 9117   0.076   2.168  10.410 -0.7103  0.1488  0.8770
  612TMC3    C2 9118   0.160   2.202  10.513  0.2385  0.6731 -0.1313
  612TMC3    C3 9119   0.252   2.304  10.483  0.2177 -0.5931  0.2605
  612TMC3    C4 9120   0.076   2.231  10.289 -0.6202 -0.0917  0.6077
  612TMC3    C5 9121   0.164   2.324  10.268 -0.1165  0.0859  0.5776
  612TMC3    C6 9122   0.257   2.365  10.365 -0.1456  0.1614  0.2978
  612TMC3     C 9123   4.705   2.086  10.453 -0.0046 -0.2112 -0.0418
  612TMC3     O 9124   4.724   2.008  10.545  0.2714  0.3851 -0.5344
  612TMC3     H 9125   0.154   2.153  10.610 -0.6398  0.5302 -0.2585
  612TMC3    H1 9126   0.019   2.196  10.204  0.9726  0.7645 -0.8356
  612TMC3    H2 9127   0.323   2.449  10.346  1.3350 -1.5429 -2.0741
  612TMC3    C7 9128   0.163   2.400  10.139 -0.0665 -0.2103  0.1376
  612TMC3    C8 9129   0.370   2.328  10.561  0.5273 -0.1445 -0.9615
  612TMC3    O1 9130   0.053   2.399  10.087 -0.1269  0.0182 -0.6888
  612TMC3    O2 9131   0.458   2.391  10.505 -0.0197  0.1079 -0.2447
  613MPD2     C 9132   4.149   0.128  16.568  0.4862  0.2208  0.2251
  613MPD2    C1 9133   4.021   0.138  16.528  0.5979 -0.5846  0.3316
  613MPD2    C2 9134   3.934   0.035  16.554  0.5407  0.4435  0.5962
  613MPD2    C3 9135   3.983   4.660  16.596  0.1763  0.0027 -0.3430
  613MPD2    C4 9136   4.105   4.659  16.655  0.5802 -0.0941  0.8398
  613MPD2    C5 9137   4.194   0.018  16.622 -0.3694  0.0936 -0.6224
  613MPD2     H 9138   3.826   0.036  16.540  0.1348  0.1014  3.7188
  613MPD2    H1 9139   4.144   4.571  16.705 -0.5614  0.3238  2.4678
  613MPD2    H2 9140   4.209   0.216  16.547  0.0904  0.0970 -1.4240
  613MPD2    H3 9141   4.296   0.006  16.656 -0.5405 -1.6538 -0.7178
  613MPD2     N 9142   3.913   4.541  16.599 -0.4833 -0.4659 -0.1615
  613MPD2    H5 9143   3.972   4.462  16.623 -2.5175 -1.9827 -0.1917
  613MPD2    N1 9144   3.983   0.265  16.472  0.0963 -0.0544 -1.0222
  613MPD2    H7 9145   4.047   0.342  16.484 -0.2034 -0.1463  1.0198
  614TMC3    C1 9146   3.808   0.222  16.307  0.2742 -0.9315 -0.4343
  614TMC3    C2 9147   3.866   0.102  16.269  0.5579 -1.2433  0.3188
  614TMC3    C3 9148   3.819   0.048  16.150  0.9355 -0.1993 -0.0417
  614TMC3    C4 9149   3.702   0.284  16.249 -0.0403  0.5466 -0.5834
  614TMC3    C5 9150   3.671   0.232  16.128  0.1974  0.2902  0.2424
  614TMC3    C6 9151   3.727   0.117  16.076  0.3921 -0.5093 -0.1679
  614TMC3     C 9152   3.864   0.298  16.420  0.1771  0.0561  0.8144
  614TMC3     O 9153   3.808   0.405  16.436  0.0258 -0.4781 -0.4342
  614TMC3     H 9154   3.952   0.056  16.318  2.0757  0.9083 -0.3215
  614TMC3    H1 9155   3.661   0.381  16.274  0.5241  1.0063 -1.4275
  614TMC3    H2 9156   3.689   0.080  15.982 -3.2280  0.5964  0.8757
  614TMC3    C7 9157   3.606   0.320  16.027  0.3302 -0.5178 -0.1889
  614TMC3    C8 9158   3.822   4.647  16.153  0.6866 -0.7566  0.2522
  614TMC3    O1 9159   3.522   0.404  16.062 -0.1585  0.1487  0.2556
  614TMC3    O2 9160   3.896   4.585  16.227 -0.1692  0.0241 -0.2073
  615MPD2     C 9161   3.413   0.972  15.677  0.5347 -0.6690 -0.7297
  615MPD2    C1 9162   3.342   1.068  15.742 -0.2231 -0.0950  0.0059
  615MPD2    C2 9163   3.231   1.121  15.683 -0.3806  1.1140 -0.3614
  615MPD2    C3 9164   3.195   1.085  15.549  0.3943  0.8788 -0.0587
  615MPD2    C4 9165   3.279   1.003  15.479 -0.7933 -0.3706  0.8129
  615MPD2    C5 9166   3.380   0.942  15.545  0.1611 -0.1826 -0.1576
  615MPD2     H 9167   3.173   1.199  15.731 -1.2414  0.6737 -0.6883
  615MPD2    H1 9168   3.262   0.984  15.373 -0.6692  0.9334  0.5587
  615MPD2    H2 9169   3.487   0.916  15.732  1.7901  0.3523 -1.3821
  615MPD2    H3 9170   3.434   0.867  15.489 -1.5479 -2.0537  0.7233
  615MPD2     N 9171   3.095   1.146  15.473 -0.2348  0.0377 -0.6889
  615MPD2    H5 9172   3.098   1.128  15.373  1.6501 -0.0668 -0.6165
  615MPD2    N1 9173   3.378   1.096  15.877 -0.3135 -0.0368  0.2672
  615MPD2    H7 9174   3.312   1.160  15.921  0.3040 -2.0382  4.1096
  616TMC3    C1 9175   3.497   1.115  16.080 -0.6911 -0.7818  0.1492
  616TMC3    C2 9176   3.618   1.129  16.143  0.1205  1.0064  0.3130
  616TMC3    C3 9177   3.623   1.188  16.266  0.0515 -0.3105  0.8331
  616TMC3    C4 9178   3.376   1.149  16.138 -0.0441 -0.5574 -0.9051
  616TMC3    C5 9179   3.389   1.206  16.260  0.2926  0.1583  0.1896
  616TMC3    C6 9180   3.505   1.229  16.329 -0.3083  0.3397  0.1940
  616TMC3     C 9181   3.499   1.083  15.936  0.2493 -0.7257  1.3181
  616TMC3     O 9182   3.607   1.053  15.883  0.5418 -0.3424  0.0274
  616TMC3     H 9183   3.712   1.127  16.089  0.7235  0.9572  1.3665
  616TMC3    H1 9184   3.280   1.132  16.090  0.0108  0.8544 -1.5109
  616TMC3    H2 9185   3.509   1.270  16.429 -0.5232 -0.0340  0.3558
  616TMC3    C7 9186   3.272   1.268  16.314 -0.2735 -0.2905  0.3548
  616TMC3    C8 9187   3.744   1.250  16.304 -0.5446  0.7371 -0.5388
  616TMC3    O1 9188   3.281   1.298  16.433  1.1341 -0.0611  0.1815
  616TMC3    O2 9189   3.847   1.189  16.273 -0.2758 -0.5025 -0.5451
  617MPD2     C 9190   1.468   4.267  14.397  0.5663  0.8991 -0.4049
  617MPD2    C1 9191   1.426   4.225  14.274  0.4535 -0.2185  0.3250
  617MPD2    C2 9192   1.291   4.200  14.255  1.0800  0.3148 -0.7881
  617MPD2    C3 9193   1.194   4.230  14.350  0.1656 -0.4247 -0.7419
  617MPD2    C4 9194   1.237   4.295  14.463 -0.2122  0.6855 -0.2962
  617MPD2    C5 9195   1.373   4.315  14.484  0.1178  0.8505 -0.1266
  617MPD2     H 9196   1.254   4.163  14.160 -1.2578  1.4486 -0.3320
  617MPD2    H1 9197   1.167   4.336  14.534 -0.2240 -1.2263  0.8101
  617MPD2    H2 9198   1.572   4.283  14.422  0.2838 -0.5023  1.6612
  617MPD2    H3 9199   1.408   4.360  14.577 -0.2521  0.1643  0.3439
  617MPD2     N 9200   1.055   4.207  14.335  0.6059 -0.0236  0.0218
  617MPD2    H5 9201   0.993   4.257  14.398 -0.3526 -0.0102 -0.9497
  617MPD2    N1 9202   1.515   4.188  14.174 -0.7272  0.1535  0.7666
  617MPD2    H7 9203   1.466   4.144  14.097 -1.0766 -1.2720  1.8221
  618TMC3    C1 9204   1.719   4.162  14.071  0.2100  0.0803 -0.5235
  618TMC3    C2 9205   1.688   4.027  14.040  0.0134 -0.2698 -0.0509
  618TMC3    C3 9206   1.782   3.957  13.975  0.8239 -0.0674 -0.1257
  618TMC3    C4 9207   1.841   4.214  14.046 -0.3016 -0.6632  0.4620
  618TMC3    C5 9208   1.928   4.139  13.973 -0.5192 -0.3220 -0.1131
  618TMC3    C6 9209   1.912   4.002  13.952  0.0718 -0.4708 -0.1450
  618TMC3     C 9210   1.646   4.228  14.173  0.1037  0.1778  0.4742
  618TMC3     O 9211   1.694   4.315  14.245 -0.1841 -0.0970  0.6330
  618TMC3     H 9212   1.597   3.982  14.079  0.2042 -1.3584 -0.8488
  618TMC3    H1 9213   1.848   4.321  14.058  0.5538 -0.4717 -1.7320
  618TMC3    H2 9214   1.990   3.944  13.904  1.2627  0.6116  0.4861
  618TMC3    C7 9215   2.044   4.214  13.930  1.0175 -0.3017 -0.1772
  618TMC3    C8 9216   1.745   3.834  13.918 -0.1465  0.5294  0.4490
  618TMC3    O1 9217   2.096   4.279  14.020  0.7037 -0.6034  0.1645
  618TMC3    O2 9218   1.639   3.785  13.953  0.0217 -0.7356 -0.1860
  619MPD2     C 9219   3.199   0.812  13.722  0.3129  0.2063 -0.2852
  619MPD2    C1 9220   3.083   0.875  13.688 -0.0561  0.0436  0.6486
  619MPD2    C2 9221   2.962   0.808  13.707  0.3464  0.0479  0.3590
  619MPD2    C3 9222   2.958   0.677  13.760  0.2060 -0.2928  0.8558
  619MPD2    C4 9223   3.080   0.622  13.804 -0.1074 -0.2595 -0.9931
  619MPD2    C5 9224   3.193   0.687  13.781 -0.1605  0.4958  0.0140
  619MPD2     H 9225   2.874   0.862  13.675  0.7834  0.2284 -0.5167
  619MPD2    H1 9226   3.073   0.521  13.844  1.2193  0.5397  1.3128
  619MPD2    H2 9227   3.295   0.859  13.704 -0.0164  0.4250 -1.5133
  619MPD2    H3 9228   3.288   0.637  13.795  0.0512  0.4049 -1.7364
  619MPD2     N 9229   2.844   0.601  13.793 -0.1647  0.0189 -0.4251
  619MPD2    H5 9230   2.854   0.519  13.852 -1.5735  0.9905  1.1535
  619MPD2    N1 9231   3.073   1.000  13.620  0.7270  0.3920 -0.2189
  619MPD2    H7 9232   2.982   1.036  13.591  0.4142 -0.8449 -0.7312
  620TMC3    C1 9233   3.131   1.213  13.554  0.1481 -0.4840  0.6012
  620TMC3    C2 9234   3.030   1.216  13.453 -0.1760 -0.4977 -0.5950
  620TMC3    C3 9235   2.968   1.342  13.431 -0.4742  0.4823  0.5752
  620TMC3    C4 9236   3.162   1.326  13.628  0.2864  0.7570  0.9658
  620TMC3    C5 9237   3.086   1.438  13.611  0.3872  0.2800  0.1006
  620TMC3    C6 9238   2.991   1.447  13.512 -0.8891  1.1738 -0.1747
  620TMC3     C 9239   3.182   1.089  13.609  0.1886 -0.2301 -0.6927
  620TMC3     O 9240   3.297   1.090  13.651 -0.0923  0.0801  0.0527
  620TMC3     H 9241   3.014   1.128  13.392 -0.1388  0.1574 -1.5421
  620TMC3    H1 9242   3.241   1.317  13.702 -0.2566 -0.9297  1.3223
  620TMC3    H2 9243   2.949   1.542  13.482  1.4422  2.3146  0.1713
  620TMC3    C7 9244   3.053   1.517  13.724 -0.1149  0.0653 -0.7295
  620TMC3    C8 9245   2.831   1.345  13.401  0.6359 -0.0359 -0.6604
  620TMC3    O1 9246   3.144   1.572  13.788  0.1467 -0.1171  0.1210
  620TMC3    O2 9247   2.753   1.418  13.457  0.3237 -0.2568  0.2065
  621MPD2     C 9248   2.872   0.342  10.797 -0.0103 -0.6159  0.2000
  621MPD2    C1 9249   2.821   0.370  10.674  0.1689  0.4018 -0.2587
  621MPD2    C2 9250   2.894   0.397  10.562 -0.3767 -0.0178 -0.0419
  621MPD2    C3 9251   3.030   0.373  10.573 -0.0833 -0.7855  0.3752
  621MPD2    C4 9252   3.090   0.349  10.695 -0.5470 -0.2518 -0.1299
  621MPD2    C5 9253   3.010   0.334  10.807  0.1804 -0.4547 -0.7546
  621MPD2     H 9254   2.858   0.419  10.463  2.0806 -3.2063 -1.6451
  621MPD2    H1 9255   3.197   0.336  10.707 -0.6079  1.1048  1.8285
  621MPD2    H2 9256   2.817   0.320  10.888  0.7661  0.9474  1.0401
  621MPD2    H3 9257   3.050   0.309  10.905  1.5573  3.0149 -0.4067
  621MPD2     N 9258   3.104   0.392  10.450  0.0142 -0.1147 -0.1439
  621MPD2    H5 9259   3.053   0.437  10.374 -1.4487  1.3943  1.7472
  621MPD2    N1 9260   2.683   0.359  10.649 -0.5129  0.2748  0.6300
  621MPD2    H7 9261   2.665   0.355  10.549  2.8482  0.3745  0.0383
  622TMC3    C1 9262   2.479   0.256  10.674 -0.3510  0.4430  0.3225
  622TMC3    C2 9263   2.353   0.288  10.721 -0.2060  0.0048 -0.2623
  622TMC3    C3 9264   2.252   0.216  10.660  0.7955 -0.5983  0.1050
  622TMC3    C4 9265   2.504   0.182  10.559 -0.2163 -0.2002  0.3468
  622TMC3    C5 9266   2.397   0.113  10.512 -0.1059  0.1143  0.1609
  622TMC3    C6 9267   2.268   0.133  10.554  0.1786 -0.0175  0.2207
  622TMC3     C 9268   2.588   0.328  10.737  0.2176  0.8733  0.6257
  622TMC3     O 9269   2.588   0.333  10.861 -0.3392  0.6510  0.4836
  622TMC3     H 9270   2.345   0.340  10.816 -1.0221  2.6384 -1.7866
  622TMC3    H1 9271   2.606   0.163  10.528 -0.7438 -0.8334 -0.9954
  622TMC3    H2 9272   2.185   0.070  10.522 -0.4802  1.9142 -1.8605
  622TMC3    C7 9273   2.415   0.031  10.390 -0.6306  0.2323  0.2025
  622TMC3    C8 9274   2.117   0.233  10.702 -0.4494 -0.1293 -0.2438
  622TMC3    O1 9275   2.332   0.037  10.300 -0.4026  0.1339  0.5574
  622TMC3    O2 9276   2.041   0.133  10.711  0.1035  0.2766 -0.6990
  623MPD2     C 9277   2.197   1.089  15.928  0.4880 -0.0308  0.5487
  623MPD2    C1 9278   2.085   1.040  15.996 -0.3046 -0.3055 -0.4222
  623MPD2    C2 9279   2.072   1.048  16.132  0.0790  0.2472 -0.2907
  623MPD2    C3 9280   2.177   1.105  16.207  0.0284 -0.4072 -0.4693
  623MPD2    C4 9281   2.281   1.167  16.138  0.0278 -0.0268 -0.2492
  623MPD2    C5 9282   2.291   1.165  15.997 -0.1034  0.9599 -0.0600
  623MPD2     H 9283   1.987   1.004  16.183 -0.3300 -0.1064 -1.2787
  623MPD2    H1 9284   2.364   1.218  16.186  0.2498  0.9128 -1.6075
  623MPD2    H2 9285   2.205   1.077  15.820  1.1397  1.6910  0.3980
  623MPD2    H3 9286   2.382   1.200  15.949 -0.1171  0.7792 -0.2194
  623MPD2     N 9287   2.168   1.105  16.350 -0.2148 -0.6655 -0.2373
  623MPD2    H5 9288   2.086   1.058  16.386  0.4694 -1.0419  0.8143
  623MPD2    N1 9289   1.969   0.993  15.934 -0.0515  0.0047 -0.1193
  623MPD2    H7 9290   1.889   0.981  15.996 -0.6776 -0.1152 -0.9573
  624TMC3    C1 9291   2.311   1.180  16.793  0.2516  0.3650  0.1923
  624TMC3    C2 9292   2.187   1.199  16.841 -0.3806  0.3709  0.0931
  624TMC3    C3 9293   2.079   1.188  16.747  0.0970  0.1323  0.3378
  624TMC3    C4 9294   2.334   1.154  16.663 -0.0154  0.5003 -0.0714
  624TMC3    C5 9295   2.235   1.153  16.577  0.2699  0.2820  0.4158
  624TMC3    C6 9296   2.104   1.160  16.612 -0.6120 -1.0592  0.1307
  624TMC3     C 9297   2.416   1.151  16.892 -0.8524 -0.4829  0.1447
  624TMC3     O 9298   2.404   1.210  16.998 -0.3172 -0.2702 -0.4399
  624TMC3     H 9299   2.161   1.214  16.945 -0.2928  1.0898  0.0085
  624TMC3    H1 9300   2.433   1.138  16.622  0.4290 -0.2660  1.3187
  624TMC3    H2 9301   2.021   1.152  16.543  0.5084  1.5992 -1.5446
  624TMC3    C7 9302   2.266   1.153  16.434  0.3742 -0.2175 -0.0068
  624TMC3    C8 9303   1.945   1.172  16.787 -0.5197 -0.1554 -0.1732
  624TMC3    O1 9304   2.363   1.220  16.413  0.0620  0.1842  0.2374
  624TMC3    O2 9305   1.893   1.084  16.728  0.6775  0.0858  0.0539
  625MPD2     C 9306   2.570   2.678   1.029  0.3064  0.1113 -0.0519
  625MPD2    C1 9307   2.612   2.774   0.941 -0.0809  1.0251 -0.2885
  625MPD2    C2 9308   2.742   2.787   0.905  0.0581  0.1293 -0.3400
  625MPD2    C3 9309   2.834   2.711   0.977  0.2813  0.8639 -0.2358
  625MPD2    C4 9310   2.798   2.623   1.077 -0.1426 -0.0079 -0.8217
  625MPD2    C5 9311   2.664   2.604   1.099  0.4375 -0.0272  0.1122
  625MPD2     H 9312   2.771   2.852   0.824  4.1946 -1.4897 -0.1604
  625MPD2    H1 9313   2.865   2.544   1.109 -0.4555 -0.1932 -0.6322
  625MPD2    H2 9314   2.467   2.678   1.063  0.2587  2.3802 -0.2090
  625MPD2    H3 9315   2.641   2.522   1.165 -0.9800 -0.4055 -0.8458
  625MPD2     N 9316   2.969   2.739   0.941 -0.0032  0.1830 -0.2632
  625MPD2    H5 9317   2.979   2.799   0.860 -0.5796  1.0456  0.2949
  625MPD2    N1 9318   2.522   2.872   0.895 -0.5299  0.2768 -0.1068
  625MPD2    H7 9319   2.565   2.951   0.849  2.4543 -0.8806  0.6998
  626TMC3    C1 9320   2.332   3.003   0.855 -0.0881  0.8942  0.5891
  626TMC3    C2 9321   2.285   2.999   0.725  0.0343 -0.1017  0.3192
  626TMC3    C3 9322   2.222   3.107   0.680  0.1838 -0.3815 -0.1834
  626TMC3    C4 9323   2.293   3.100   0.945  0.2130 -0.4503  0.0579
  626TMC3    C5 9324   2.246   3.214   0.889  0.9082 -0.1890  0.1770
  626TMC3    C6 9325   2.199   3.217   0.764 -0.7718 -0.2041 -1.1429
  626TMC3     C 9326   2.386   2.879   0.912  0.2035  0.0942 -0.1163
  626TMC3     O 9327   2.301   2.796   0.938 -0.2309 -0.0134 -0.3380
  626TMC3     H 9328   2.290   2.907   0.668 -0.7450 -0.7242  1.2486
  626TMC3    H1 9329   2.338   3.102   1.044 -0.3266 -0.2048  0.3017
  626TMC3    H2 9330   2.167   3.312   0.722 -1.4245 -0.1683 -0.5663
  626TMC3    C7 9331   2.207   3.323   0.982 -0.3070  0.0478  0.1339
  626TMC3    C8 9332   2.151   3.102   0.548 -0.6157 -0.2567  0.4068
  626TMC3    O1 9333   2.281   3.362   1.072 -0.4432 -0.2382 -0.4766
  626TMC3    O2 9334   2.184   3.037   0.449  0.3367  0.5767 -0.6955
  627MPD2     C 9335   0.792   3.236  14.859 -0.4347 -0.1822 -0.3738
  627MPD2    C1 9336   0.813   3.155  14.968  0.0662  0.5818  0.4265
  627MPD2    C2 9337   0.768   3.020  14.970 -0.5122  0.1895 -0.3495
  627MPD2    C3 9338   0.707   2.969  14.858  0.1203  0.0298  0.3484
  627MPD2    C4 9339   0.685   3.056  14.750 -0.0152  0.6629 -0.2265
  627MPD2    C5 9340   0.727   3.185  14.748  0.5195  0.2116  0.2706
  627MPD2     H 9341   0.791   2.958  15.056  0.3713 -1.2874 -1.6342
  627MPD2    H1 9342   0.636   3.030  14.656  1.6916 -1.4344 -0.5375
  627MPD2    H2 9343   0.826   3.339  14.853 -0.7203  0.0652  1.9519
  627MPD2    H3 9344   0.705   3.252  14.666 -0.2720 -0.5823 -0.1662
  627MPD2     N 9345   0.652   2.841  14.868 -0.0473  0.2544 -0.2851
  627MPD2    H5 9346   0.675   2.790  14.952  0.8792 -0.4261 -0.9506
  627MPD2    N1 9347   0.891   3.206  15.072  0.1252  0.3930  0.5402
  627MPD2    H7 9348   0.928   3.144  15.144 -1.3945 -0.1107  0.8823
  628TMC3    C1 9349   1.028   3.382  15.157  0.2178  0.1191 -0.1381
  628TMC3    C2 9350   1.111   3.286  15.195 -0.4565 -0.1420  0.1506
  628TMC3    C3 9351   1.247   3.316  15.203 -0.1492 -0.1692 -0.4733
  628TMC3    C4 9352   1.065   3.516  15.133 -0.2792  0.0581 -0.2951
  628TMC3    C5 9353   1.196   3.542  15.138  0.1249 -0.1497  0.7308
  628TMC3    C6 9354   1.293   3.448  15.176  0.1279  0.2049 -0.3466
  628TMC3     C 9355   0.904   3.338  15.093 -0.0992  0.7495 -0.4571
  628TMC3     O 9356   0.827   3.427  15.070 -0.2313  0.2352  0.1300
  628TMC3     H 9357   1.085   3.184  15.220  0.9068 -0.5048  0.1156
  628TMC3    H1 9358   0.994   3.597  15.120 -1.4180 -1.0077 -0.7027
  628TMC3    H2 9359   1.395   3.481  15.195  0.1213  0.4168 -0.6751
  628TMC3    C7 9360   1.249   3.658  15.073 -0.2165  0.4410  0.5268
  628TMC3    C8 9361   1.341   3.202  15.230  0.2061 -0.4278 -0.1505
  628TMC3    O1 9362   1.366   3.701  15.088  0.0340  0.8041  0.4901
  628TMC3    O2 9363   1.299   3.086  15.252 -0.9331 -0.0676 -0.1054
  629MPD2     C 9364   3.994   1.659  16.479 -0.1860  0.7775  0.2975
  629MPD2    C1 9365   4.043   1.537  16.439 -0.1830  0.2596 -1.0363
  629MPD2    C2 9366   3.953   1.429  16.408  0.8393  0.7738 -0.0837
  629MPD2    C3 9367   3.818   1.459  16.407 -0.0885  0.4574  0.0465
  629MPD2    C4 9368   3.772   1.582  16.443  0.4263 -0.6094 -0.1528
  629MPD2    C5 9369   3.859   1.677  16.484  0.4528  0.1245  0.1431
  629MPD2     H 9370   3.994   1.335  16.374 -0.3932  0.0695  0.3524
  629MPD2    H1 9371   3.664   1.598  16.442  0.6997  1.0766 -1.4213
  629MPD2    H2 9372   4.063   1.739  16.500  1.1541 -0.7952  1.9173
  629MPD2    H3 9373   3.816   1.771  16.516 -1.5214 -0.7231  0.0420
  629MPD2     N 9374   3.723   1.371  16.359  0.1823  1.0359 -0.0193
  629MPD2    H5 9375   3.627   1.403  16.349  0.5648  2.3623  0.5743
  629MPD2    N1 9376   4.185   1.517  16.448  0.1007 -0.0053 -0.5067
  629MPD2    H7 9377   4.238   1.603  16.462  0.3326  0.0097 -1.4322
  630TMC3    C1 9378   4.381   1.416  16.518 -0.6883 -0.2864 -0.2608
  630TMC3    C2 9379   4.448   1.529  16.491  0.6276 -0.8716  0.4670
  630TMC3    C3 9380   4.570   1.541  16.554 -0.1547  0.5090 -0.1985
  630TMC3    C4 9381   4.421   1.315  16.602 -1.0465 -0.5866  0.2062
  630TMC3    C5 9382   4.527   1.347  16.677  0.1711 -0.2575  0.8466
  630TMC3    C6 9383   4.610   1.454  16.650  0.1290 -0.2641  0.1786
  630TMC3     C 9384   4.247   1.402  16.472 -0.1828 -0.1743 -0.1781
  630TMC3     O 9385   4.199   1.289  16.466  0.3162 -0.7153 -0.3952
  630TMC3     H 9386   4.418   1.590  16.407 -0.6017 -0.2450  1.3552
  630TMC3    H1 9387   4.349   1.241  16.636 -1.1509 -0.2178  0.7820
  630TMC3    H2 9388   4.704   1.470  16.702 -0.5288  0.7956  1.0566
  630TMC3    C7 9389   4.570   1.245  16.785 -0.9499  0.2653 -0.9978
  630TMC3    C8 9390   4.659   1.647  16.518 -0.6449 -0.0609 -0.1070
  630TMC3    O1 9391   4.486   1.163  16.816  0.0210  0.5302  0.0372
  630TMC3    O2 9392   0.030   1.638  16.571  0.1810  0.3778 -0.4185
  631MPD2     C 9393   2.183   1.565  15.777 -0.1462  0.3048  0.6657
  631MPD2    C1 9394   2.296   1.642  15.778 -0.3186  0.1041  0.5989
  631MPD2    C2 9395   2.398   1.613  15.690 -0.4593 -1.0627 -0.3369
  631MPD2    C3 9396   2.408   1.497  15.617  0.4256  0.3179 -0.3439
  631MPD2    C4 9397   2.307   1.412  15.631 -0.2816 -0.0662 -0.2059
  631MPD2    C5 9398   2.194   1.452  15.703  0.1743 -0.5367  0.8465
  631MPD2     H 9399   2.467   1.694  15.666 -0.8629 -1.8683 -4.1780
  631MPD2    H1 9400   2.300   1.316  15.583 -0.2441 -0.5354  0.7290
  631MPD2    H2 9401   2.098   1.597  15.836  0.2354  0.4774  1.1207
  631MPD2    H3 9402   2.110   1.384  15.713  0.3199 -0.6756  1.1368
  631MPD2     N 9403   2.523   1.472  15.538 -0.0676 -0.3368  0.1858
  631MPD2    H5 9404   2.595   1.543  15.536 -1.0161  0.6255  0.2060
  631MPD2    N1 9405   2.291   1.763  15.849  0.2790  0.3826 -0.7213
  631MPD2    H7 9406   2.199   1.791  15.881 -0.4342 -1.5753 -1.0596
  632TMC3    C1 9407   2.342   1.981  15.892 -0.1280  0.9130 -0.0156
  632TMC3    C2 9408   2.207   1.978  15.927 -0.8572 -1.0629 -0.0809
  632TMC3    C3 9409   2.122   2.074  15.873  0.1591  0.0771 -0.8013
  632TMC3    C4 9410   2.383   2.073  15.797  0.2833 -0.0316  0.2548
  632TMC3    C5 9411   2.290   2.157  15.739 -0.0865 -0.0729  0.5376
  632TMC3    C6 9412   2.158   2.151  15.767 -0.1730 -0.4807 -0.3180
  632TMC3     C 9413   2.392   1.851  15.860  0.3951  0.3272  0.2902
  632TMC3     O 9414   2.512   1.840  15.828 -0.7550  0.3295  0.0247
  632TMC3     H 9415   2.175   1.931  16.019 -0.2398 -1.1966  0.0659
  632TMC3    H1 9416   2.487   2.073  15.767  0.7025  0.1047  1.6788
  632TMC3    H2 9417   2.076   2.209  15.726 -0.8364 -1.3753 -0.2649
  632TMC3    C7 9418   2.316   2.206  15.601  0.2658 -0.0499  0.3276
  632TMC3    C8 9419   1.986   2.053  15.898  0.0388 -0.1139 -0.8353
  632TMC3    O1 9420   2.227   2.193  15.512  0.0701  0.7460  0.2526
  632TMC3    O2 9421   1.946   1.941  15.934  0.4597  0.3545 -0.1968
  633MPD2     C 9422   1.909   4.158  17.394 -0.1641  0.7409 -0.9085
  633MPD2    C1 9423   1.995   4.100  17.295 -0.8910  0.4636 -0.5711
  633MPD2    C2 9424   2.053   3.975  17.317 -0.2749 -0.0591  0.6152
  633MPD2    C3 9425   2.058   3.923  17.445  0.3986 -0.1114  0.6911
  633MPD2    C4 9426   1.978   3.979  17.540 -0.0681 -0.0855  0.2425
  633MPD2    C5 9427   1.902   4.094  17.511 -0.5417  0.2468 -0.0333
  633MPD2     H 9428   2.110   3.933  17.234 -0.4548 -0.3030  0.6147
  633MPD2    H1 9429   1.982   3.936  17.639 -0.7223  0.3841  0.4773
  633MPD2    H2 9430   1.868   4.256  17.374 -0.7062  0.4016 -1.4750
  633MPD2    H3 9431   1.862   4.140  17.601 -0.5184  0.6898 -0.2525
  633MPD2     N 9432   2.148   3.815  17.475  0.8607 -0.5566  0.1948
  633MPD2    H5 9433   2.165   3.800  17.574  0.9532  1.3358  0.4624
  633MPD2    N1 9434   2.014   4.162  17.169  0.0582  0.2601  0.6687
  633MPD2    H7 9435   2.064   4.102  17.105 -1.0018 -0.4001  0.4524
  634TMC3    C1 9436   2.019   4.302  16.987  0.6824 -0.4014  0.4219
  634TMC3    C2 9437   2.013   4.190  16.905  0.5561 -0.1059 -0.2761
  634TMC3    C3 9438   2.016   4.209  16.775 -0.2260 -0.2091  0.4690
  634TMC3    C4 9439   2.044   4.428  16.939 -0.2275 -0.2791 -0.1522
  634TMC3    C5 9440   2.053   4.445  16.805 -0.1404  0.2805 -0.2259
  634TMC3    C6 9441   2.032   4.337  16.719  0.0382  0.1171 -0.1094
  634TMC3     C 9442   1.987   4.293  17.131 -0.2057  0.1214 -0.2298
  634TMC3     O 9443   1.954   4.397  17.190 -0.4162  0.2590  0.4120
  634TMC3     H 9444   1.998   4.087  16.935 -1.1787  0.5364  1.0614
  634TMC3    H1 9445   2.081   4.497  17.013  0.1138 -0.8574  0.2234
  634TMC3    H2 9446   2.045   4.346  16.612  0.7429 -0.7096 -0.0861
  634TMC3    C7 9447   2.100   4.574  16.752  0.2214  0.5106  0.6724
  634TMC3    C8 9448   2.026   4.107  16.676 -0.4303  0.3049  0.4200
  634TMC3    O1 9449   2.136   4.581  16.635  0.2767 -0.4717 -0.2101
  634TMC3    O2 9450   1.987   4.131  16.559  0.2923  0.0811 -0.7022
  635TMC3    C1 9451   2.298   0.789   0.589  0.0129  0.2091 -0.0141
  635TMC3    C2 9452   2.322   0.672   0.526 -0.3647  0.2306  0.1065
  635TMC3    C3 9453   2.223   0.573   0.528  0.1035  0.7577  0.9834
  635TMC3    C4 9454   2.181   0.811   0.656 -0.1903  0.4278 -0.1450
  635TMC3    C5 9455   2.087   0.714   0.654  0.2322  1.1184 -0.5034
  635TMC3    C6 9456   2.110   0.588   0.600 -0.3137  0.3929 -0.2197
  635TMC3     C 9457   2.411   0.889   0.616  0.0392  0.0171  0.3165
  635TMC3     O 9458   2.373   0.970   0.700 -0.5461 -0.0939  0.8419
  635TMC3     H 9459   2.408   0.655   0.462 -1.5229 -2.8608 -0.5951
  635TMC3    H1 9460   2.167   0.906   0.707  2.5792 -0.5528  2.3998
  635TMC3    H2 9461   2.031   0.513   0.600  0.2136 -0.1745 -2.7566
  635TMC3    C7 9462   1.956   0.765   0.687 -0.9245  0.1960 -0.0434
  635TMC3    C8 9463   2.249   0.455   0.449  0.4381  0.0036 -0.7048
  635TMC3    O1 9464   1.872   0.707   0.626  0.0536  0.3922 -0.5059
  635TMC3    O2 9465   2.315   0.464   0.348 -0.0495  0.7372 -0.5850
  636MPD2     C 9466   3.223   0.035  16.211 -0.0557  0.0025 -0.6211
  636MPD2    C1 9467   3.326   0.081  16.292 -0.0061  0.1811 -0.0123
  636MPD2    C2 9468   3.398   4.729  16.359 -0.2287 -0.0790 -0.8117
  636MPD2    C3 9469   3.382   4.593  16.333 -0.5900  0.4625  0.0410
  636MPD2    C4 9470   3.279   4.550  16.245  0.2628  0.9789 -0.0505
  636MPD2    C5 9471   3.197   4.641  16.187  0.3560  0.5488  0.1478
  636MPD2     H 9472   3.476   0.019  16.428 -0.7161  3.7387 -1.9149
  636MPD2    H1 9473   3.258   4.446  16.219  0.1436  0.8679  0.4847
  636MPD2    H2 9474   3.173   0.109  16.150  2.1451  0.9236 -1.3180
  636MPD2    H3 9475   3.136   4.616  16.101  0.2591 -2.4923  1.0909
  636MPD2     N 9476   3.460   4.500  16.404  0.1687 -0.5221  0.1930
  636MPD2    H5 9477   3.549   4.534  16.439  0.3559  0.1138 -0.8832
  636MPD2    N1 9478   3.352   0.215  16.332 -0.5206  0.1027  0.0523
  636MPD2    H7 9479   3.425   0.224  16.402  1.3181 -0.1951 -1.8347
  637TMC3    C1 9480   3.530   4.303  16.496  0.6043 -0.2718 -0.4073
  637TMC3    C2 9481   3.599   4.389  16.582 -0.4143 -0.2496 -0.0316
  637TMC3    C3 9482   3.736   4.382  16.586 -0.2542  0.2645  0.2541
  637TMC3    C4 9483   3.591   4.220  16.409  0.8374 -0.6901  0.3529
  637TMC3    C5 9484   3.731   4.218  16.416 -0.2011 -0.6222  0.2010
  637TMC3    C6 9485   3.799   4.292  16.505  0.3667 -0.2366 -0.0628
  637TMC3     C 9486   3.422   4.368  16.427 -0.0568  0.5001 -0.3896
  637TMC3     O 9487   3.333   4.304  16.376  0.0801 -0.1294 -0.3994
  637TMC3     H 9488   3.552   4.465  16.643  0.1944 -0.7795  1.0989
  637TMC3    H1 9489   3.532   4.169  16.334  0.4262  1.5335 -0.8357
  637TMC3    H2 9490   3.904   4.274  16.528  0.7420 -0.0956 -1.7135
  637TMC3    C7 9491   3.813   4.144  16.324  0.0455  0.6390 -0.2975
  637TMC3    C8 9492   3.780   4.520  16.578  0.3589  0.3272 -0.2282
  637TMC3    O1 9493   3.904   4.077  16.370 -0.1138  0.1186  0.0331
  637TMC3    O2 9494   3.691   4.599  16.558  0.2181 -0.2456 -0.3859
  638MPD2     C 9495   3.431   3.711  15.138  0.0701  0.2139  0.2247
  638MPD2    C1 9496   3.346   3.653  15.048  0.9354 -0.0392 -0.4685
  638MPD2    C2 9497   3.297   3.533  15.088  0.1693  0.4166  0.1590
  638MPD2    C3 9498   3.313   3.473  15.212 -0.0948 -0.3590 -0.0029
  638MPD2    C4 9499   3.381   3.548  15.308 -0.3784 -0.0484  0.1397
  638MPD2    C5 9500   3.440   3.664  15.265  0.8910  0.0484 -0.5776
  638MPD2     H 9501   3.266   3.457  15.016  3.3272  0.2418 -1.0427
  638MPD2    H1 9502   3.396   3.508  15.408 -0.4257  1.6894  0.8381
  638MPD2    H2 9503   3.489   3.798  15.109 -1.1646  0.9001 -0.1776
  638MPD2    H3 9504   3.512   3.710  15.331  2.1584  0.3456 -2.1766
  638MPD2     N 9505   3.286   3.331  15.223  0.0240 -0.3581 -0.6576
  638MPD2    H5 9506   3.237   3.294  15.143  2.2360  1.5507 -2.8868
  638MPD2    N1 9507   3.336   3.700  14.911  0.4145 -0.6859 -0.5234
  638MPD2    H7 9508   3.401   3.773  14.880 -0.7378 -0.1086 -1.5789
  639TMC3    C1 9509   3.333   3.115  15.238 -0.2765 -0.0665 -0.2544
  639TMC3    C2 9510   3.208   3.080  15.197 -0.8231  0.0433  0.3723
  639TMC3    C3 9511   3.195   2.979  15.106 -0.2853  0.2159  0.3720
  639TMC3    C4 9512   3.440   3.049  15.204 -0.4216 -0.4866  0.8858
  639TMC3    C5 9513   3.424   2.957  15.106 -0.5913 -0.8914  0.2228
  639TMC3    C6 9514   3.306   2.908  15.067  0.7033 -0.5460 -0.1331
  639TMC3     C 9515   3.350   3.245  15.304 -0.0211 -0.1799 -1.1983
  639TMC3     O 9516   3.450   3.264  15.374  0.6563 -0.7609 -0.0961
  639TMC3     H 9517   3.117   3.135  15.218  0.5193  2.3969  0.1175
  639TMC3    H1 9518   3.537   3.072  15.245  0.2442  0.0939 -0.9970
  639TMC3    H2 9519   3.305   2.821  15.002  0.9102 -0.1954 -0.6109
  639TMC3    C7 9520   3.535   2.878  15.066 -0.4532  0.2985 -0.6357
  639TMC3    C8 9521   3.067   2.915  15.086 -0.1325  0.1946 -0.1815
  639TMC3    O1 9522   3.515   2.759  15.053  0.2261  0.7322  0.0373
  639TMC3    O2 9523   3.048   2.846  14.981 -0.4383  0.2320 -0.5185
  640MPD2     C 9524   3.543   1.858   9.889 -0.0338 -0.4996 -0.1358
  640MPD2    C1 9525   3.444   1.786   9.945  0.5416  0.0453  0.1493
  640MPD2    C2 9526   3.346   1.845  10.025  0.0518  0.1373  0.1248
  640MPD2    C3 9527   3.343   1.983  10.033 -0.6855 -0.1478  0.1822
  640MPD2    C4 9528   3.444   2.057   9.986  0.3620 -0.0714 -0.1400
  640MPD2    C5 9529   3.545   1.996   9.911  0.7592 -0.6220  0.9444
  640MPD2     H 9530   3.270   1.784  10.073  0.5579  1.5408  2.7348
  640MPD2    H1 9531   3.441   2.164  10.004 -2.0350  0.3307 -2.8846
  640MPD2    H2 9532   3.617   1.808   9.828  1.6403  1.9148 -0.0936
  640MPD2    H3 9533   3.635   2.046   9.878 -0.2037  0.2031 -0.4728
  640MPD2     N 9534   3.230   2.056  10.079 -0.1713  0.7835 -0.2870
  640MPD2    H5 9535   3.241   2.155  10.098 -2.6143  0.7481  1.3131
  640MPD2    N1 9536   3.439   1.644   9.907  0.1088  0.4094 -0.4075
  640MPD2    H7 9537   3.505   1.607   9.840 -1.2392  0.7273 -1.9035
  641TMC3    C1 9538   3.333   1.441   9.869  0.6117 -0.0593 -0.0942
  641TMC3    C2 9539   3.441   1.404   9.786  0.6933  0.1354 -0.2247
  641TMC3    C3 9540   3.416   1.318   9.677  0.3938 -0.1339 -0.2253
  641TMC3    C4 9541   3.210   1.383   9.845  0.2407 -0.1708  0.1385
  641TMC3    C5 9542   3.190   1.306   9.733  0.0794 -1.0001 -0.0872
  641TMC3    C6 9543   3.294   1.264   9.655 -0.2314 -0.4835 -0.6020
  641TMC3     C 9544   3.338   1.558   9.949  0.2127  0.1110 -0.2763
  641TMC3     O 9545   3.245   1.565  10.030 -0.4566  0.0320 -0.1375
  641TMC3     H 9546   3.544   1.435   9.803  1.3953 -2.6605  0.5408
  641TMC3    H1 9547   3.128   1.419   9.907 -0.0844  1.4433 -1.2012
  641TMC3    H2 9548   3.271   1.209   9.565 -0.0783 -0.8324 -0.4283
  641TMC3    C7 9549   3.055   1.256   9.706 -0.2250 -0.1603  0.7398
  641TMC3    C8 9550   3.528   1.248   9.619  0.2946  0.9878  0.0226
  641TMC3    O1 9551   3.036   1.223   9.590 -0.0773  0.6555  0.6959
  641TMC3    O2 9552   3.507   1.139   9.571 -0.1252 -0.5165  0.0095
  642TMC3    C1 9553   0.129   2.924  12.544 -0.2070  0.4637  0.4678
  642TMC3    C2 9554   0.250   2.898  12.496 -0.7696 -0.1636 -0.3597
  642TMC3    C3 9555   0.264   2.798  12.404  0.2470  0.0577  0.0320
  642TMC3    C4 9556   0.014   2.853  12.501 -0.4115  0.7015  0.5162
  642TMC3    C5 9557   0.037   2.762  12.398 -0.8317 -0.0289  0.6226
  642TMC3    C6 9558   0.157   2.719  12.361 -0.9949  0.0823  0.4395
  642TMC3     C 9559   0.107   3.040  12.631  0.3644 -0.4970 -0.4930
  642TMC3     O 9560   0.198   3.124  12.636 -0.6499  0.3582  0.1523
  642TMC3     H 9561   0.329   2.964  12.528 -1.6036  0.9016 -0.5125
  642TMC3    H1 9562   4.657   2.898  12.518 -0.5461 -0.2863  2.2886
  642TMC3    H2 9563   0.162   2.642  12.285  2.6527 -0.7082  1.4493
  642TMC3    C7 9564   4.672   2.682  12.348 -0.1934  0.2175 -0.3494
  642TMC3    C8 9565   0.371   2.812  12.311 -0.5185 -0.5639  0.8726
  642TMC3    O1 9566   4.683   2.660  12.225  0.6183 -0.0829 -1.0284
  642TMC3    O2 9567   0.403   2.925  12.278  0.6591  0.2791 -0.8810
  643TMC3    C1 9568   3.977   2.004   0.200 -0.1351  0.0548 -0.0350
  643TMC3    C2 9569   3.883   2.100   0.182 -0.8916 -0.2117  0.1221
  643TMC3    C3 9570   3.879   2.172   0.067 -0.2407 -0.3992  0.0754
  643TMC3    C4 9571   4.069   1.986   0.101  0.7902  0.7621 -0.3195
  643TMC3    C5 9572   4.083   2.074  17.756 -0.1767  0.0126  0.1511
  643TMC3    C6 9573   3.989   2.171  17.736  0.4036  0.3157 -0.0106
  643TMC3     C 9574   4.032   2.019   0.332 -0.0436 -0.1030  0.5909
  643TMC3     O 9575   3.955   2.053   0.418 -0.5426 -0.1295 -0.8814
  643TMC3     H 9576   3.807   2.129   0.254 -0.0444 -2.5501  1.9588
  643TMC3    H1 9577   4.140   1.906   0.118 -0.1481  0.1940  0.9512
  643TMC3    H2 9578   3.995   2.234  17.648 -2.9918  0.0588 -0.4177
  643TMC3    C7 9579   4.182   2.061  17.645  0.0089  0.3442 -1.0457
  643TMC3    C8 9580   3.802   2.292   0.075 -0.4972  0.2542 -0.6820
  643TMC3    O1 9581   4.209   2.170  17.595 -0.2556 -0.0941  0.3889
  643TMC3    O2 9582   3.690   2.299   0.136 -0.3784 -0.3132 -0.4563
  644MPD2     C 9583   3.440   2.407   9.758 -0.1955 -0.1255 -0.1181
  644MPD2    C1 9584   3.555   2.485   9.756  0.9259  0.8135 -0.0325
  644MPD2    C2 9585   3.541   2.616   9.787 -0.1611  0.2637 -0.4485
  644MPD2    C3 9586   3.420   2.668   9.823  0.2732  0.0106  1.0446
  644MPD2    C4 9587   3.310   2.586   9.830 -0.1142  0.4881  0.3254
  644MPD2    C5 9588   3.320   2.457   9.799 -1.1770 -0.1741  0.3082
  644MPD2     H 9589   3.625   2.683   9.800  0.4207 -0.0350 -2.6711
  644MPD2    H1 9590   3.212   2.624   9.855 -0.6913 -1.6486  1.2942
  644MPD2    H2 9591   3.445   2.303   9.726  0.0807  0.0784 -0.7329
  644MPD2    H3 9592   3.232   2.393   9.806 -0.5528 -1.1834 -1.4079
  644MPD2     N 9593   3.410   2.804   9.850 -0.0848  0.0235  0.2576
  644MPD2    H5 9594   3.496   2.857   9.835 -1.2515  1.8478 -0.0112
  644MPD2    N1 9595   3.685   2.429   9.727  0.0814 -0.6051 -0.0817
  644MPD2    H7 9596   3.692   2.328   9.717 -0.9671 -0.5841 -1.1287
  645TMC3    C1 9597   3.331   3.016   9.913  1.0684 -0.3409  0.2577
  645TMC3    C2 9598   3.461   3.071   9.924  0.0692  0.0262 -0.5334
  645TMC3    C3 9599   3.474   3.207   9.943 -0.7055 -0.0331 -0.2314
  645TMC3    C4 9600   3.221   3.102   9.916  0.0451  0.3745  0.1101
  645TMC3    C5 9601   3.247   3.234   9.927  0.3195  0.5297 -0.4377
  645TMC3    C6 9602   3.371   3.292   9.947 -0.6570  0.5882  0.0519
  645TMC3     C 9603   3.297   2.877   9.887  0.9278  0.4134  0.1556
  645TMC3     O 9604   3.183   2.847   9.903 -0.0579 -0.1473 -0.7481
  645TMC3     H 9605   3.546   3.005   9.932 -1.4537 -2.0404 -1.3946
  645TMC3    H1 9606   3.125   3.055   9.900  0.2260  0.4512 -1.1945
  645TMC3    H2 9607   3.378   3.400   9.958 -2.9581  0.7054  0.4585
  645TMC3    C7 9608   3.150   3.339   9.911 -0.5927 -0.3423  0.3507
  645TMC3    C8 9609   3.602   3.271   9.945  0.0345 -0.1977 -0.3372
  645TMC3    O1 9610   3.181   3.454   9.885  0.5415  0.3371 -0.4246
  645TMC3    O2 9611   3.605   3.379  10.009 -0.3991 -0.0882  0.2643
  646MPD2     C 9612   3.222   2.093  14.692  0.5581  0.2135 -0.6303
  646MPD2    C1 9613   3.162   2.084  14.811  0.7554 -0.6619  0.1675
  646MPD2    C2 9614   3.037   2.145  14.841  0.1745  0.0775  0.3962
  646MPD2    C3 9615   2.981   2.226  14.750 -0.5554 -0.1625 -0.0496
  646MPD2    C4 9616   3.038   2.237  14.620 -0.6220 -0.3169 -0.2139
  646MPD2    C5 9617   3.155   2.170  14.604 -0.0309 -0.5465  0.1683
  646MPD2     H 9618   3.003   2.143  14.944  1.4639 -0.3298  0.8180
  646MPD2    H1 9619   3.001   2.294  14.536  1.6309  0.7176 -0.5111
  646MPD2    H2 9620   3.309   2.034  14.666  0.6855 -0.0734  0.4503
  646MPD2    H3 9621   3.207   2.183  14.510 -1.3970  1.3290 -0.3252
  646MPD2     N 9622   2.862   2.291  14.794 -0.6332 -0.8259  0.2983
  646MPD2    H5 9623   2.827   2.259  14.884  2.1477 -0.7809  1.3774
  646MPD2    N1 9624   3.222   1.987  14.902  0.1346 -0.2869 -0.1327
  646MPD2    H7 9625   3.301   1.931  14.871 -0.2337 -1.3082  0.7623
  647TMC3    C1 9626   3.293   1.874  15.100  0.5125 -0.1211 -0.3869
  647TMC3    C2 9627   3.243   1.807  15.211  0.7068  0.0598  0.5453
  647TMC3    C3 9628   3.328   1.786  15.315 -0.1943 -0.1652 -0.0278
  647TMC3    C4 9629   3.420   1.925  15.105 -0.2924  0.0444 -0.3799
  647TMC3    C5 9630   3.503   1.914  15.212 -0.1886 -0.2013  0.7129
  647TMC3    C6 9631   3.453   1.850  15.322 -0.6702 -0.7414  0.0457
  647TMC3     C 9632   3.191   1.958  15.034  0.2915 -0.0255 -0.8579
  647TMC3     O 9633   3.092   1.985  15.100  0.1277  0.3564 -0.3956
  647TMC3     H 9634   3.144   1.764  15.217  0.3773  1.0413  2.0275
  647TMC3    H1 9635   3.460   1.992  15.030 -1.5428 -1.2101 -2.1818
  647TMC3    H2 9636   3.514   1.822  15.407  0.3708 -0.8242 -0.7299
  647TMC3    C7 9637   3.647   1.914  15.204  0.5717 -0.0728  0.4365
  647TMC3    C8 9638   3.346   1.652  15.357  0.6291 -0.9825 -0.4144
  647TMC3    O1 9639   3.709   1.913  15.310 -0.0961  0.2709 -0.6986
  647TMC3    O2 9640   3.430   1.626  15.440 -0.0797  0.3567 -0.2884
  648TMC3    C1 9641   2.835   4.325  16.135 -0.6711 -0.9543 -0.3512
  648TMC3    C2 9642   2.842   4.196  16.085 -0.3332  0.5375  0.5269
  648TMC3    C3 9643   2.847   4.186  15.955  0.2325  0.0736  0.1261
  648TMC3    C4 9644   2.804   4.429  16.056  0.0949  0.4865 -0.3003
  648TMC3    C5 9645   2.786   4.408  15.920 -0.8183 -0.0646  0.6317
  648TMC3    C6 9646   2.824   4.290  15.870 -0.2464 -0.3868 -0.3078
  648TMC3     C 9647   2.804   4.353  16.275 -0.3821 -0.0360  0.3566
  648TMC3     O 9648   2.818   4.471  16.308  0.4082 -0.0198 -0.3273
  648TMC3     H 9649   2.863   4.114  16.152  0.8157  1.0443  0.7858
  648TMC3    H1 9650   2.775   4.524  16.099 -1.0562  0.3827 -0.8331
  648TMC3    H2 9651   2.832   4.284  15.762  2.0124 -1.9464 -0.0404
  648TMC3    C7 9652   2.702   4.492  15.836 -0.5715 -0.4212 -1.0442
  648TMC3    C8 9653   2.912   4.064  15.910 -0.4717  0.2173 -0.2821
  648TMC3    O1 9654   2.720   4.488  15.715 -0.2454  0.1928 -0.2780
  648TMC3    O2 9655   2.879   3.956  15.956  0.1864 -0.1416  0.0816
  649TMC3    C1 9656   1.437   0.868  12.675 -0.3510  0.4868  0.6145
  649TMC3    C2 9657   1.513   0.838  12.562 -0.0272 -0.3091  1.0649
  649TMC3    C3 9658   1.630   0.777  12.585 -0.2517 -0.7875  0.0831
  649TMC3    C4 9659   1.475   0.830  12.798 -0.1245  0.5647 -0.3043
  649TMC3    C5 9660   1.597   0.772  12.815  0.3486  0.1343 -0.3764
  649TMC3    C6 9661   1.683   0.752  12.708  0.1607  0.8636 -0.1456
  649TMC3     C 9662   1.330   0.973  12.661 -0.1995 -0.0724 -0.3070
  649TMC3     O 9663   1.287   1.016  12.764 -0.1184  0.0106 -0.7376
  649TMC3     H 9664   1.486   0.879  12.465  3.0519 -0.4161  0.1472
  649TMC3    H1 9665   1.400   0.810  12.873 -0.0797  1.1884 -0.0946
  649TMC3    H2 9666   1.777   0.700  12.725 -1.3988 -1.7299  0.5005
  649TMC3    C7 9667   1.633   0.728  12.948  0.2299 -0.3001  0.4217
  649TMC3    C8 9668   1.720   0.784  12.472 -0.7442  0.1641 -0.7612
  649TMC3    O1 9669   1.545   0.742  13.029 -0.0187  0.4606  0.0062
  649TMC3    O2 9670   1.672   0.793  12.361 -0.0946 -0.3507 -0.6184
  650TMC3    C1 9671   4.346   2.047  13.428  0.2813 -0.7155 -0.2764
  650TMC3    C2 9672   4.258   2.140  13.488  0.1047 -0.1409  0.1307
  650TMC3    C3 9673   4.142   2.169  13.426  0.0311 -0.0391  0.4828
  650TMC3    C4 9674   4.325   1.986  13.306 -0.0771 -0.2901  0.2760
  650TMC3    C5 9675   4.206   2.020  13.249 -0.3432  0.9587  0.4275
  650TMC3    C6 9676   4.113   2.100  13.310 -0.3118  0.6119  0.7005
  650TMC3     C 9677   4.474   2.024  13.489  0.2141  0.2541  0.0831
  650TMC3     O 9678   4.502   2.092  13.586  0.1615  0.2901 -0.0269
  650TMC3     H 9679   4.285   2.182  13.584  3.5937 -2.1872  0.0593
  650TMC3    H1 9680   4.402   1.933  13.251 -0.7855 -1.0677  0.0385
  650TMC3    H2 9681   4.021   2.123  13.258  0.3246  4.0198  1.1112
  650TMC3    C7 9682   4.222   2.028  13.104  0.0064  0.0133  0.6506
  650TMC3    C8 9683   4.126   2.311  13.410  0.1941 -0.3332 -0.1277
  650TMC3    O1 9684   4.264   1.936  13.038 -0.5066 -0.2215  0.4906
  650TMC3    O2 9685   4.138   2.351  13.292 -0.3366  0.2624  0.0678
  651MPD2     C 9686   3.232   4.246  10.172  0.8572  0.4479 -0.4397
  651MPD2    C1 9687   3.202   4.250  10.308 -0.2317  0.0732 -0.3619
  651MPD2    C2 9688   3.304   4.280  10.394 -0.3941  0.7291 -0.2397
  651MPD2    C3 9689   3.437   4.294  10.357  0.1583  0.2144  0.6871
  651MPD2    C4 9690   3.460   4.287  10.221  0.0802  0.2185 -0.3850
  651MPD2    C5 9691   3.361   4.263  10.123 -0.6608 -0.2600  0.5586
  651MPD2     H 9692   3.293   4.281  10.502  1.6552  1.2655 -0.0375
  651MPD2    H1 9693   3.556   4.314  10.177  0.7388 -0.6418  0.5266
  651MPD2    H2 9694   3.160   4.213  10.097 -0.2094 -0.2924  0.9180
  651MPD2    H3 9695   3.386   4.259  10.017  1.3532 -0.2242  1.0268
  651MPD2     N 9696   3.528   4.328  10.457  0.3095 -0.1266 -0.2566
  651MPD2    H5 9697   3.488   4.326  10.551 -1.1795  1.9798 -0.8450
  651MPD2    N1 9698   3.085   4.220  10.368  0.3234  0.0450 -0.3192
  651MPD2    H7 9699   3.081   4.212  10.470 -1.4166  1.2618 -0.2918
  652TMC3    C1 9700   3.886   4.335  10.725 -0.3724  0.4434 -0.3036
  652TMC3    C2 9701   3.842   4.333  10.598  0.6263  0.3470 -0.0761
  652TMC3    C3 9702   3.718   4.371  10.577  0.7192  0.2690 -0.1550
  652TMC3    C4 9703   3.793   4.337  10.828 -0.1837 -1.1339  0.8916
  652TMC3    C5 9704   3.676   4.400  10.805 -0.0114 -0.8807  0.1177
  652TMC3    C6 9705   3.634   4.423  10.675 -0.4111 -0.9803  0.3376
  652TMC3     C 9706   4.013   4.288  10.771  0.2663  0.3951 -0.0937
  652TMC3     O 9707   4.012   4.227  10.879  0.3406 -0.2006  0.4067
  652TMC3     H 9708   3.910   4.312  10.516 -1.5969 -3.3324 -0.9382
  652TMC3    H1 9709   3.831   4.337  10.929 -1.1208  0.7624  1.2536
  652TMC3    H2 9710   3.532   4.459  10.662  0.1696  0.3888 -0.4166
  652TMC3    C7 9711   3.661   4.514  10.888  0.0450  0.2185  0.4328
  652TMC3    C8 9712   3.660   4.348  10.444  1.6494 -0.1024  0.0481
  652TMC3    O1 9713   3.678   4.499  11.006  0.3235 -0.0997  0.0003
  652TMC3    O2 9714   3.737   4.338  10.349 -0.8831 -0.3689  0.1335
  653MPD2     C 9715   1.672   4.394   0.062  0.0246  0.4220 -0.2843
  653MPD2    C1 9716   1.686   4.495  17.729  0.3259  0.3692  0.3103
  653MPD2    C2 9717   1.622   4.479  17.603 -0.1779  0.5701 -0.0826
  653MPD2    C3 9718   1.555   4.367  17.573 -0.0610  0.4442 -0.1365
  653MPD2    C4 9719   1.539   4.259  17.669  0.2027 -0.5008 -0.0941
  653MPD2    C5 9720   1.599   4.278   0.035  0.5025  0.3223 -0.2826
  653MPD2     H 9721   1.615   4.551  17.523 -0.6991  0.6405  0.0260
  653MPD2    H1 9722   1.492   4.163  17.652 -0.7125  0.5133 -3.1664
  653MPD2    H2 9723   1.730   4.396   0.153 -1.1079 -0.1773  0.4462
  653MPD2    H3 9724   1.584   4.201   0.110  1.1897 -1.2429 -1.7628
  653MPD2     N 9725   1.515   4.341  17.438  0.0683 -0.2658  0.2000
  653MPD2    H5 9726   1.556   4.404  17.370 -1.0254  2.4728  2.0698
  653MPD2    N1 9727   1.751   4.618  17.751 -0.9398  0.1708  0.3551
  653MPD2    H7 9728   1.762   4.678  17.670 -2.0325 -0.1917 -0.0568
  654TMC3    C1 9729   1.437   4.239  17.243 -0.1994  0.4877 -0.6975
  654TMC3    C2 9730   1.333   4.287  17.172 -0.4214 -0.3151  0.0660
  654TMC3    C3 9731   1.334   4.267  17.035  0.5227 -0.3003 -0.6097
  654TMC3    C4 9732   1.546   4.179  17.191  0.4179  0.0109 -0.0873
  654TMC3    C5 9733   1.549   4.179  17.057 -0.6363  0.1534  0.7809
  654TMC3    C6 9734   1.447   4.221  16.976 -0.1009  0.7933 -0.2345
  654TMC3     C 9735   1.432   4.243  17.387 -0.1975 -0.1790  0.1900
  654TMC3     O 9736   1.343   4.174  17.445  0.0446  0.1332  0.3148
  654TMC3     H 9737   1.241   4.298  17.229  0.4257  0.1915  1.3469
  654TMC3    H1 9738   1.630   4.141  17.247 -0.9069 -2.5246  0.2094
  654TMC3    H2 9739   1.452   4.211  16.868  2.8040  2.0465 -0.1975
  654TMC3    C7 9740   1.645   4.094  16.996  0.4473 -0.2389 -0.1547
  654TMC3    C8 9741   1.222   4.304  16.945  0.4315 -0.2642 -0.5880
  654TMC3    O1 9742   1.680   4.113  16.881 -0.0168  0.3433  0.3032
  654TMC3    O2 9743   1.137   4.365  17.001 -0.0576  0.3437  0.6028
  655MPD2     C 9744   3.472   0.081  15.698  0.3952 -0.0493 -0.2781
  655MPD2    C1 9745   3.373   0.032  15.616  0.1087  0.3908  0.3217
  655MPD2    C2 9746   3.407   4.705  15.499  0.7949  0.2347  0.1400
  655MPD2    C3 9747   3.542   4.680  15.478 -0.7783 -0.2183 -0.0425
  655MPD2    C4 9748   3.632   4.738  15.558  0.0753  0.0724 -0.1835
  655MPD2    C5 9749   3.601   0.062  15.673 -0.2042 -0.8116 -0.2514
  655MPD2     H 9750   3.329   4.670  15.431 -0.2174 -0.9689  1.9220
  655MPD2    H1 9751   3.739   4.724  15.550  0.6309  4.6656 -0.7377
  655MPD2    H2 9752   3.457   0.138  15.789  0.7070 -1.2088  0.5102
  655MPD2    H3 9753   3.676   0.092  15.746 -2.0673 -1.0175  1.7383
  655MPD2     N 9754   3.593   4.601  15.373 -0.3806  0.5985 -0.5713
  655MPD2    H5 9755   3.692   4.582  15.362 -0.0837  1.8127  0.0632
  655MPD2    N1 9756   3.243   0.069  15.648  0.1955 -0.2463 -0.5695
  655MPD2    H7 9757   3.169   0.048  15.580  0.7971  0.1610 -1.3519
  656TMC3    C1 9758   3.064   0.126  15.789  0.0057  0.3268 -0.3013
  656TMC3    C2 9759   3.003   0.099  15.904  0.0602  0.4482  0.3331
  656TMC3    C3 9760   2.886   0.167  15.938 -0.3317  0.1534 -0.5339
  656TMC3    C4 9761   3.006   0.220  15.705  0.2006 -0.2018 -0.1844
  656TMC3    C5 9762   2.885   0.280  15.746  0.0691  0.1984  0.2452
  656TMC3    C6 9763   2.817   0.243  15.849 -0.2635  0.2165 -0.6569
  656TMC3     C 9764   3.206   0.093  15.779  0.2594 -0.2122 -0.2665
  656TMC3     O 9765   3.260   0.074  15.888 -0.0704 -0.3733 -0.2359
  656TMC3     H 9766   3.057   0.031  15.969 -0.9019 -1.3183 -0.7138
  656TMC3    H1 9767   3.065   0.249  15.618 -0.1140  0.8348 -0.0483
  656TMC3    H2 9768   2.711   0.259  15.864 -0.0051  0.8182  0.4987
  656TMC3    C7 9769   2.840   0.378  15.651 -0.7765  0.1491 -1.1586
  656TMC3    C8 9770   2.824   0.126  16.058  0.2423 -0.0310  0.0271
  656TMC3    O1 9771   2.882   0.375  15.538  0.1236 -0.0748 -0.3901
  656TMC3    O2 9772   2.862   0.023  16.105  0.0249 -0.0943  0.2096
  657TMC3    C1 9773   1.923   3.618  14.800 -0.1643 -0.1615 -0.9326
  657TMC3    C2 9774   1.927   3.728  14.883  0.1053  0.3385 -0.1344
  657TMC3    C3 9775   1.995   3.843  14.851  0.2486 -0.1393 -0.1282
  657TMC3    C4 9776   2.002   3.622  14.687 -0.3594  0.3918 -0.1260
  657TMC3    C5 9777   2.085   3.732  14.662  0.0647 -0.6827 -0.2645
  657TMC3    C6 9778   2.073   3.847  14.738  0.1849 -0.0408 -0.1882
  657TMC3     C 9779   1.829   3.504  14.812  0.3159  0.2236 -0.1149
  657TMC3     O 9780   1.722   3.521  14.865  0.7650  0.1826 -0.5443
  657TMC3     H 9781   1.865   3.732  14.972  0.3704 -0.0111  0.0620
  657TMC3    H1 9782   1.999   3.531  14.628 -0.3574 -0.3775  1.0379
  657TMC3    H2 9783   2.130   3.932  14.703  1.3354 -0.5142  0.5465
  657TMC3    C7 9784   2.168   3.732  14.551 -0.3455  0.0509 -0.5271
  657TMC3    C8 9785   2.009   3.963  14.941 -0.1096 -0.0103 -0.0072
  657TMC3    O1 9786   2.181   3.829  14.471 -0.2527 -0.5293 -0.3101
  657TMC3    O2 9787   2.051   4.067  14.891  0.6321  0.1604  0.0815
  658MPD2     C 9788   3.888   4.702  14.715  0.0513 -0.2240  0.7305
  658MPD2    C1 9789   3.794   4.598  14.724 -0.1666 -0.8063  0.5685
  658MPD2    C2 9790   3.715   4.580  14.622 -0.1978  0.0347 -0.1118
  658MPD2    C3 9791   3.706   4.663  14.517  0.6462  0.7860  0.2639
  658MPD2    C4 9792   3.789   0.032  14.509  0.1513 -0.0158  0.2612
  658MPD2    C5 9793   3.884   0.042  14.601 -0.3054  0.3910 -0.0242
  658MPD2     H 9794   3.658   4.487  14.620 -0.8568  0.4519 -0.8940
  658MPD2    H1 9795   3.776   0.113  14.439 -1.6195 -0.2817  0.2877
  658MPD2    H2 9796   3.960   4.720  14.794  1.3347 -1.6599 -0.1246
  658MPD2    H3 9797   3.954   0.125  14.592  0.0080 -0.0980 -2.1149
  658MPD2     N 9798   3.606   4.628  14.424  0.3840 -0.2247  0.1963
  658MPD2    H5 9799   3.544   4.553  14.454  1.4987  0.2537  3.6831
  658MPD2    N1 9800   3.784   4.533  14.842 -0.6003  0.2878  0.1196
  658MPD2    H7 9801   3.836   4.572  14.919 -0.6992 -0.4848  0.5778
  659TMC3    C1 9802   3.702   4.380  15.008  0.1969  0.8267 -0.0741
  659TMC3    C2 9803   3.677   4.483  15.094  0.5861  0.0976  0.1620
  659TMC3    C3 9804   3.606   4.439  15.206  0.0074  0.0881  0.3373
  659TMC3    C4 9805   3.656   4.252  15.025  0.0026  0.0938  1.0131
  659TMC3    C5 9806   3.598   4.224  15.145 -0.2155  0.4710 -0.2109
  659TMC3    C6 9807   3.572   4.315  15.235 -0.7684  0.0849  0.0214
  659TMC3     C 9808   3.722   4.413  14.867 -0.1653  0.0169 -0.0260
  659TMC3     O 9809   3.671   4.328  14.795  0.2072  0.0617 -0.8042
  659TMC3     H 9810   3.687   4.590  15.078  0.0573  0.0853 -0.2332
  659TMC3    H1 9811   3.679   4.171  14.956 -1.4227  1.4974 -1.1107
  659TMC3    H2 9812   3.516   4.288  15.324  0.6018 -0.9163  0.5762
  659TMC3    C7 9813   3.492   4.136  15.122  0.6158  0.8618 -0.7594
  659TMC3    C8 9814   3.524   4.540  15.271  0.4034  0.2830  0.3249
  659TMC3    O1 9815   3.452   4.057  15.208 -0.2870 -0.1473  0.0036
  659TMC3    O2 9816   3.405   4.541  15.234  0.3319 -0.0656 -0.6498
  660MPD2     C 9817   1.155   3.371  12.393  0.5198 -0.3337 -0.8020
  660MPD2    C1 9818   1.023   3.413  12.374 -0.1783 -0.3897  0.4295
  660MPD2    C2 9819   0.924   3.386  12.466 -0.4826 -0.0580 -0.2939
  660MPD2    C3 9820   0.954   3.311  12.581  0.0129 -0.5070 -0.8858
  660MPD2    C4 9821   1.078   3.264  12.588  0.7701 -0.1889  0.3370
  660MPD2    C5 9822   1.178   3.290  12.499 -0.0463 -0.7289 -0.2551
  660MPD2     H 9823   0.825   3.428  12.453 -0.2441  0.5307 -0.2101
  660MPD2    H1 9824   1.113   3.209  12.675 -0.7983  1.2752  1.8813
  660MPD2    H2 9825   1.238   3.394  12.328  2.1010 -0.1752  1.2716
  660MPD2    H3 9826   1.279   3.260  12.525  0.4206 -0.6312 -1.9115
  660MPD2     N 9827   0.863   3.272  12.679 -0.0181 -0.2290  0.6524
  660MPD2    H5 9828   0.901   3.214  12.754 -2.2966 -0.3492  1.7243
  660MPD2    N1 9829   0.994   3.488  12.256  0.0053 -0.2367 -0.1021
  660MPD2    H7 9830   1.059   3.486  12.177  0.0908 -0.0581 -0.0366
  661TMC3    C1 9831   0.870   3.627  12.106 -0.0399  0.2356  0.7188
  661TMC3    C2 9832   0.984   3.673  12.044  0.6903 -0.4845 -0.3672
  661TMC3    C3 9833   0.970   3.736  11.916 -0.0039  0.4013  0.7256
  661TMC3    C4 9834   0.748   3.636  12.045  1.3933  0.3118 -0.4307
  661TMC3    C5 9835   0.730   3.698  11.920 -0.3828  1.2465  0.3239
  661TMC3    C6 9836   0.849   3.738  11.851  0.1530  0.0633  0.5188
  661TMC3     C 9837   0.872   3.564  12.234  0.2481  0.7734 -0.1950
  661TMC3     O 9838   0.775   3.576  12.305  0.2096  0.3993  0.5253
  661TMC3     H 9839   1.081   3.682  12.091  0.3010 -2.3564  0.8208
  661TMC3    H1 9840   0.663   3.599  12.102  1.6449  0.1138 -0.1864
  661TMC3    H2 9841   0.843   3.771  11.748  0.4114  0.5154  0.6455
  661TMC3    C7 9842   0.616   3.650  11.833 -0.2042  0.3077  0.5300
  661TMC3    C8 9843   1.095   3.779  11.851  0.0397  1.1498  0.2306
  661TMC3    O1 9844   0.588   3.714  11.731  0.3307 -0.1227  0.6159
  661TMC3    O2 9845   1.201   3.749  11.904  0.1048  0.0190  0.7490
  662MPD2     C 9846   1.384   2.697   0.145  0.4782 -0.6301 -0.6554
  662MPD2    C1 9847   1.268   2.637   0.086 -0.3756  0.4051  0.3265
  662MPD2    C2 9848   1.148   2.709   0.088  0.4254 -0.6122 -0.1576
  662MPD2    C3 9849   1.148   2.842   0.119  0.0533 -0.6451 -0.2166
  662MPD2    C4 9850   1.254   2.898   0.174 -0.6254 -0.6192  0.0669
  662MPD2    C5 9851   1.366   2.821   0.198  0.1409  0.8253  0.0580
  662MPD2     H 9852   1.057   2.652   0.070 -0.1620  0.5616 -0.9270
  662MPD2    H1 9853   1.248   3.000   0.210  0.6789 -0.0013 -1.4893
  662MPD2    H2 9854   1.480   2.649   0.160  0.2661 -0.8814 -0.0693
  662MPD2    H3 9855   1.450   2.865   0.251  1.6104 -1.5140 -0.3361
  662MPD2     N 9856   1.035   2.928   0.096  0.4649  0.2944  0.2689
  662MPD2    H5 9857   1.043   3.023   0.129 -3.9585  0.0679  1.9328
  662MPD2    N1 9858   1.261   2.504   0.029  0.2283  0.7738 -0.6293
  662MPD2    H7 9859   1.183   2.490  17.724  0.7437 -0.4727 -0.9973
  663TMC3    C1 9860   1.350   2.295  17.703  0.4159  1.0543  0.3233
  663TMC3    C2 9861   1.261   2.302  17.598  0.3682  0.0421 -0.1576
  663TMC3    C3 9862   1.231   2.196  17.518  0.1901 -0.4783  0.7953
  663TMC3    C4 9863   1.410   2.174  17.730  0.9131 -0.3261  0.9032
  663TMC3    C5 9864   1.354   2.066  17.662  0.2158  0.8088 -0.2427
  663TMC3    C6 9865   1.276   2.080  17.554 -0.1635 -0.2215 -0.2783
  663TMC3     C 9866   1.357   2.405   0.043 -0.6671  0.1836 -0.5801
  663TMC3     O 9867   1.439   2.396   0.136  0.1131  0.2019  0.8778
  663TMC3     H 9868   1.259   2.397  17.545  2.3147  0.9523  1.4234
  663TMC3    H1 9869   1.458   2.157   0.068  2.6268 -1.9851 -0.2500
  663TMC3    H2 9870   1.199   2.006  17.534 -0.3649  0.2933 -1.4393
  663TMC3    C7 9871   1.291   1.981   0.002  0.1070 -0.6847 -0.3000
  663TMC3    C8 9872   1.084   2.188  17.514  0.0504  0.5708  0.1183
  663TMC3    O1 9873   1.251   2.028   0.110  0.4967 -0.3262  0.4924
  663TMC3    O2 9874   1.022   2.125  17.429  0.1681 -0.1016  0.1101
  664MPD2     C 9875   3.944   0.844  17.533 -0.5639  0.0044 -0.0898
  664MPD2    C1 9876   4.024   0.954  17.558 -0.5649 -0.2896  0.9963
  664MPD2    C2 9877   4.028   1.003  17.685  0.0836 -0.1030 -0.0593
  664MPD2    C3 9878   3.973   0.939   0.039  0.6121  0.3160 -0.9357
  664MPD2    C4 9879   3.894   0.828   0.010  0.3542 -0.1039  0.2173
  664MPD2    C5 9880   3.884   0.778  17.638 -0.3281  0.5905 -0.2139
  664MPD2     H 9881   4.078   1.097  17.706 -2.0755  1.4298 -1.7185
  664MPD2    H1 9882   3.831   0.789   0.089  1.4612 -3.2387 -0.4409
  664MPD2    H2 9883   3.917   0.809  17.434  1.6881 -0.7735 -0.4352
  664MPD2    H3 9884   3.814   0.699  17.611  1.3564 -0.7205 -0.7330
  664MPD2     N 9885   3.983   0.997   0.167  0.0274  0.2791  0.0770
  664MPD2    H5 9886   4.021   1.091   0.174 -0.6124  0.4472  1.2481
  664MPD2    N1 9887   4.093   1.016  17.452 -0.1542  0.7789  0.2715
  664MPD2    H7 9888   4.149   1.098  17.474 -0.2670  0.8391  0.3350
  665TMC3    C1 9889   3.990   1.008   0.407 -0.0847  0.2167 -0.1416
  665TMC3    C2 9890   4.096   0.979   0.483 -0.2562  0.1336 -0.1963
  665TMC3    C3 9891   4.160   1.079   0.553 -0.1400 -0.1971 -0.0089
  665TMC3    C4 9892   3.935   1.136   0.404  0.1533 -0.4623 -0.9242
  665TMC3    C5 9893   3.995   1.233   0.473 -0.1096 -0.4225 -0.1287
  665TMC3    C6 9894   4.112   1.206   0.545 -0.9802  0.3065 -0.2108
  665TMC3     C 9895   3.972   0.923   0.293  0.0849  0.1073 -0.2571
  665TMC3     O 9896   3.967   0.805   0.313 -0.6514 -0.2774  0.3123
  665TMC3     H 9897   4.141   0.881   0.484 -1.8945 -0.5842  1.6920
  665TMC3    H1 9898   3.847   1.151   0.342 -0.2756 -0.9287 -0.4354
  665TMC3    H2 9899   4.162   1.292   0.588  0.5178 -0.4159 -0.5085
  665TMC3    C7 9900   3.914   1.353   0.483 -0.0039 -0.1212  0.2098
  665TMC3    C8 9901   4.232   1.053   0.674  0.2767 -0.2589 -0.6586
  665TMC3    O1 9902   3.815   1.363   0.412  0.1887  0.4441  0.5798
  665TMC3    O2 9903   4.230   1.147   0.752 -0.1773 -0.2645 -0.9010
  666TMC3    C1 9904   3.290   0.410  10.314 -0.1067  0.5169  0.1515
  666TMC3    C2 9905   3.318   0.326  10.210  0.2645  0.2970 -0.5563
  666TMC3    C3 9906   3.342   0.385  10.091 -0.8142 -0.8495 -0.2633
  666TMC3    C4 9907   3.262   0.536  10.293 -0.2431 -0.3128 -0.8251
  666TMC3    C5 9908   3.294   0.601  10.174  0.7430 -0.2066  0.0151
  666TMC3    C6 9909   3.335   0.520  10.071  0.2722 -0.1623 -0.2389
  666TMC3     C 9910   3.237   0.360  10.432 -0.5484 -0.3514 -0.0698
  666TMC3     O 9911   3.308   0.284  10.498 -0.0396 -0.4184 -0.2089
  666TMC3     H 9912   3.331   0.219  10.224 -3.5872 -0.1674 -0.5181
  666TMC3    H1 9913   3.240   0.603  10.375  0.2222 -2.1347  0.7735
  666TMC3    H2 9914   3.353   0.562   9.973 -2.5230  0.1658 -0.6218
  666TMC3    C7 9915   3.360   0.727  10.195 -0.3257 -1.0280 -0.1224
  666TMC3    C8 9916   3.358   0.302   9.972  0.2798 -0.4251 -0.1600
  666TMC3    O1 9917   3.324   0.800  10.291 -0.7980 -0.1499  0.1634
  666TMC3    O2 9918   3.271   0.217   9.965  0.7203  0.1638 -0.6253
  667MPD2     C 9919   0.432   1.393  14.674  0.2782  0.5271  0.0508
  667MPD2    C1 9920   0.348   1.382  14.785  0.0082 -0.0251 -0.4552
  667MPD2    C2 9921   0.250   1.292  14.788 -0.3438 -0.0397 -0.4906
  667MPD2    C3 9922   0.239   1.192  14.689 -0.6943  0.3468 -0.0647
  667MPD2    C4 9923   0.326   1.201  14.580 -0.3785  0.7381 -0.0501
  667MPD2    C5 9924   0.426   1.294  14.579 -0.6598 -0.3605 -0.3338
  667MPD2     H 9925   0.189   1.279  14.877 -0.6625 -0.5086 -0.7781
  667MPD2    H1 9926   0.324   1.126  14.503  0.3445  1.9958 -1.2969
  667MPD2    H2 9927   0.519   1.457  14.680  0.5755 -0.0054  1.4199
  667MPD2    H3 9928   0.506   1.294  14.507 -0.5041 -1.9290 -0.1549
  667MPD2     N 9929   0.154   1.079  14.702  0.1950 -0.9253 -0.1759
  667MPD2    H5 9930   0.136   1.030  14.615 -1.2580 -0.9106  0.1291
  667MPD2    N1 9931   0.361   1.469  14.900  0.2462  0.0386 -0.0557
  667MPD2    H7 9932   0.297   1.449  14.977  0.0062 -2.7487 -0.9578
  668TMC3    C1 9933   0.440   1.639  15.036 -0.4628  0.4301  0.0471
  668TMC3    C2 9934   0.507   1.761  15.037  0.0677 -0.2861 -0.1689
  668TMC3    C3 9935   0.526   1.821  15.162  0.1515 -0.1982  0.4655
  668TMC3    C4 9936   0.389   1.580  15.148 -0.6832 -0.5358 -0.0079
  668TMC3    C5 9937   0.395   1.656  15.259 -0.5287  0.5970  0.1358
  668TMC3    C6 9938   0.472   1.766  15.272 -0.6026  0.1439 -0.5120
  668TMC3     C 9939   0.429   1.582  14.907  0.0207  0.7676 -0.0775
  668TMC3     O 9940   0.486   1.640  14.818  0.0928  0.1972  0.8724
  668TMC3     H 9941   0.558   1.794  14.948  0.4101 -0.0964  0.0938
  668TMC3    H1 9942   0.331   1.489  15.141 -1.2142 -0.2151  0.2989
  668TMC3    H2 9943   0.485   1.805  15.373 -2.1308  0.7371 -0.5425
  668TMC3    C7 9944   0.340   1.605  15.383  0.2672  0.3742 -0.0591
  668TMC3    C8 9945   0.608   1.942  15.174 -0.2111 -0.2412  0.0308
  668TMC3    O1 9946   0.391   1.640  15.486 -0.0884  0.4567 -0.0755
  668TMC3    O2 9947   0.639   1.964  15.291 -0.1617  0.3863 -0.0727
  669TMC3    C1 9948   3.165   1.169  14.707 -0.4420  0.0016  0.2000
  669TMC3    C2 9949   3.060   1.171  14.623 -0.8690 -0.0640 -0.0125
  669TMC3    C3 9950   3.053   1.274  14.539 -0.7089  0.7069 -0.9428
  669TMC3    C4 9951   3.274   1.250  14.681 -0.8104  0.4021 -0.4081
  669TMC3    C5 9952   3.270   1.346  14.582 -0.2538 -0.6916 -0.3388
  669TMC3    C6 9953   3.154   1.360  14.513  0.1944  0.1755  0.0433
  669TMC3     C 9954   3.201   1.052  14.792 -0.3527  0.3502 -0.3838
  669TMC3     O 9955   3.316   1.010  14.775 -0.1400 -0.8695 -0.8197
  669TMC3     H 9956   2.979   1.101  14.638 -0.2103 -0.7063  0.5714
  669TMC3    H1 9957   3.358   1.244  14.749 -1.8345 -0.3500  0.7921
  669TMC3    H2 9958   3.145   1.428  14.429  1.7438  1.6703  1.0962
  669TMC3    C7 9959   3.395   1.373  14.521  0.1361 -0.4877 -0.3769
  669TMC3    C8 9960   2.944   1.272  14.453  0.4147 -0.4237 -0.0986
  669TMC3    O1 9961   3.495   1.377  14.591 -0.7066  0.5364 -0.2932
  669TMC3    O2 9962   2.893   1.162  14.447  0.2924 -0.0529  0.3656
  670MPD2     C 9963   1.292   3.824  14.235  0.1538  0.2647  0.7148
  670MPD2    C1 9964   1.251   3.748  14.132 -0.2172  0.1172  0.3561
  670MPD2    C2 9965   1.179   3.634  14.168  0.1974 -0.7786  0.3988
  670MPD2    C3 9966   1.164   3.586  14.298 -0.8402  0.4871  0.5289
  670MPD2    C4 9967   1.217   3.665  14.396  1.4672 -0.5707 -0.0162
  670MPD2    C5 9968   1.280   3.777  14.365 -0.6786 -0.8072  0.4841
  670MPD2     H 9969   1.149   3.567  14.088 -0.3035 -0.2884  0.1786
  670MPD2    H1 9970   1.198   3.653  14.502  0.3550  3.0074  0.1938
  670MPD2    H2 9971   1.357   3.910  14.224 -2.0172  1.5466 -2.1378
  670MPD2    H3 9972   1.314   3.833  14.451 -0.8703  1.5015 -0.9393
  670MPD2     N 9973   1.092   3.465  14.325  0.0245 -0.7570  0.2322
  670MPD2    H5 9974   1.038   3.419  14.252  3.2587  0.7423 -3.0748
  670MPD2    N1 9975   1.279   3.770  13.993  0.6879 -0.1817 -1.0270
  670MPD2    H7 9976   1.243   3.703  13.926 -0.4994 -1.3271  0.7739
  671TMC3    C1 9977   1.039   3.266  14.444  0.2447 -0.1410  0.1021
  671TMC3    C2 9978   1.081   3.182  14.540  0.2909 -0.3869 -0.5973
  671TMC3    C3 9979   1.042   3.050  14.533  0.2844  0.4880 -0.2300
  671TMC3    C4 9980   0.942   3.238  14.356 -0.3106 -0.4900  0.2504
  671TMC3    C5 9981   0.894   3.110  14.367 -0.0304 -0.1150  0.0869
  671TMC3    C6 9982   0.932   3.021  14.462 -0.1448  0.7354  0.7207
  671TMC3     C 9983   1.095   3.400  14.446  0.4461  0.4679 -0.4067
  671TMC3     O 9984   1.140   3.442  14.552 -0.5390 -0.2072  0.1672
  671TMC3     H 9985   1.174   3.216  14.585 -1.8076  1.6680  2.1707
  671TMC3    H1 9986   0.888   3.315  14.302  1.7914  1.2634  0.6577
  671TMC3    H2 9987   0.893   2.920  14.458  1.3033  0.2029 -0.0911
  671TMC3    C7 9988   0.795   3.073  14.272 -0.0552  0.1342 -0.6478
  671TMC3    C8 9989   1.151   2.965  14.493  0.2873 -0.8976 -0.3354
  671TMC3    O1 9990   0.715   2.981  14.292  0.0293  0.2099 -0.0123
  671TMC3    O2 9991   1.251   3.021  14.443  0.5285 -0.3059  0.2937
  672MPD2     C 9992   1.811   4.364   0.640 -0.1689  1.2439 -0.5102
  672MPD2    C1 9993   1.915   4.282   0.601  0.1401  0.5791 -0.1190
  672MPD2    C2 9994   2.044   4.317   0.641 -0.6669  0.2136 -0.1232
  672MPD2    C3 9995   2.064   4.442   0.702  0.0486  0.2581 -0.1544
  672MPD2    C4 9996   1.957   4.524   0.734 -0.2147 -0.3528  0.3289
  672MPD2    C5 9997   1.828   4.481   0.703 -0.0827  0.3019 -0.1042
  672MPD2     H 9998   2.126   4.248   0.625 -2.0925 -1.1908 -1.3710
  672MPD2    H1 9999   1.970   4.623   0.776 -1.4366 -0.2772  0.5163
  672MPD2    H210000   1.705   4.342   0.632 -0.2889  0.8062  2.4983
  672MPD2    H310001   1.741   4.539   0.731 -0.3619  0.6746 -1.7361
  672MPD2     N10002   2.192   4.504   0.718 -0.5010 -0.1549  0.7027
  672MPD2    H510003   2.184   4.598   0.757 -0.9820 -0.3802  1.1495
  672MPD2    N110004   1.884   4.153   0.540 -0.1390  0.1781  0.5414
  672MPD2    H710005   1.957   4.083   0.546 -0.4951 -0.0283  2.4858
  673TMC3    C110006   1.734   3.981   0.493  0.5556  0.5346  0.1446
  673TMC3    C210007   1.822   3.888   0.534  1.0354  0.3643 -0.0933
  673TMC3    C310008   1.804   3.756   0.513 -0.2101 -0.6292  0.1360
  673TMC3    C410009   1.619   3.946   0.426 -0.3653 -0.0548  0.5037
  673TMC3    C510010   1.607   3.808   0.417 -0.1819 -0.6862  0.3109
  673TMC3    C610011   1.693   3.708   0.448 -0.7491 -0.3153  0.1791
  673TMC3     C10012   1.756   4.121   0.501  0.9775  0.0987 -0.1903
  673TMC3     O10013   1.670   4.199   0.458  0.4551 -0.4818  0.0686
  673TMC3     H10014   1.908   3.916   0.593 -1.2878  3.2832  1.9352
  673TMC3    H110015   1.551   4.018   0.383  0.3194 -0.8384 -1.8985
  673TMC3    H210016   1.672   3.602   0.434 -1.5765 -0.0335 -0.7911
  673TMC3    C710017   1.502   3.765   0.335  0.2147  0.0143  0.1965
  673TMC3    C810018   1.923   3.679   0.477  0.1148 -0.3638 -0.2630
  673TMC3    O110019   1.521   3.664   0.267 -0.0177 -0.4651  0.0440
  673TMC3    O210020   1.909   3.594   0.393  0.2933  0.2497  0.3228
  674MPD2     C10021   1.286   3.877  17.197 -0.1308  1.2082 -0.0660
  674MPD2    C110022   1.254   3.803  17.312 -0.5195  0.2987 -0.8218
  674MPD2    C210023   1.158   3.862  17.396  0.6183 -0.3972 -0.7280
  674MPD2    C310024   1.097   3.982  17.373  0.2052  0.0415 -0.8931
  674MPD2    C410025   1.134   4.055  17.259 -0.3745 -0.2032 -0.3238
  674MPD2    C510026   1.216   3.994  17.172  0.0373 -0.7522  0.2180
  674MPD2     H10027   1.133   3.815  17.490 -0.0700  0.0375 -0.6958
  674MPD2    H110028   1.083   4.145  17.227  0.3331 -0.5870 -2.5012
  674MPD2    H210029   1.362   3.845  17.127  0.4592  4.4931 -0.9430
  674MPD2    H310030   1.231   4.041  17.075  1.3759  0.6291  1.0930
  674MPD2     N10031   0.988   4.024  17.454  0.0112  0.1228 -0.2341
  674MPD2    H510032   0.961   3.966  17.533  0.9015 -0.7287 -0.5623
  674MPD2    N110033   1.315   3.686  17.353 -0.1645  1.0007  0.0745
  674MPD2    H710034   1.407   3.673  17.312 -1.3779 -4.2424 -0.9532
  675TMC3    C110035   1.398   3.552  17.515 -0.1371 -0.4692  0.5278
  675TMC3    C210036   1.373   3.460  17.610 -0.0426 -0.2582  0.2141
  675TMC3    C310037   1.456   3.459  17.722  0.3397  0.4175  0.2957
  675TMC3    C410038   1.500   3.644  17.537  0.4322 -0.2356  0.1018
  675TMC3    C510039   1.588   3.632  17.638 -0.4823 -0.1298  0.2432
  675TMC3    C610040   1.562   3.541  17.740 -0.3896 -0.1377 -0.7858
  675TMC3     C10041   1.275   3.604  17.450 -0.4138  0.1407 -0.4436
  675TMC3     O10042   1.178   3.591  17.525  0.5384 -0.5687  0.3715
  675TMC3     H10043   1.287   3.395  17.615  0.1709 -0.5429  0.2070
  675TMC3    H110044   1.513   3.727  17.468  0.7507  0.1726  0.6540
  675TMC3    H210045   1.608   3.550   0.081 -2.0183 -1.6267  0.1075
  675TMC3    C710046   1.650   3.753  17.681 -1.3075 -0.1026 -0.2647
  675TMC3    C810047   1.431   3.356   0.063  0.1711 -0.0625 -0.3983
  675TMC3    O110048   1.611   3.862  17.636 -0.5200  0.0752  0.3244
  675TMC3    O210049   1.382   3.251   0.025 -0.1624  0.1248  0.4815
  676MPD2     C10050   4.291   1.640  11.512  0.6645  0.2008  0.2963
  676MPD2    C110051   4.160   1.598  11.498  0.1094 -0.2241  0.2742
  676MPD2    C210052   4.130   1.464  11.515  0.5929  0.3301 -0.3810
  676MPD2    C310053   4.238   1.374  11.525  0.5437 -0.0012 -0.0065
  676MPD2    C410054   4.366   1.418  11.532  0.0205  0.1214 -0.4876
  676MPD2    C510055   4.396   1.550  11.532  0.2051  0.2852 -0.0931
  676MPD2     H10056   4.028   1.429  11.502 -0.3075  3.2429 -1.0382
  676MPD2    H110057   4.440   1.340  11.519  1.3602  0.9930  1.9002
  676MPD2    H210058   4.326   1.741  11.527  0.0672  0.5754 -0.9355
  676MPD2    H310059   4.500   1.579  11.541  0.2753 -0.0434  0.1652
  676MPD2     N10060   4.220   1.233  11.523 -0.4040  0.1406 -0.0193
  676MPD2    H510061   4.299   1.169  11.526  1.4094  2.3783 -0.1094
  676MPD2    N110062   4.051   1.690  11.487  0.0667 -0.4113  0.5688
  676MPD2    H710063   3.958   1.649  11.482 -0.0835  0.0413 -0.4664
  677TMC3    C110064   3.922   1.881  11.488 -0.2984 -0.3677  0.1198
  677TMC3    C210065   3.820   1.788  11.514  0.5124 -0.1437  0.1012
  677TMC3    C310066   3.722   1.820  11.602  0.0511  0.0482 -0.0573
  677TMC3    C410067   3.917   1.995  11.553  0.2749 -0.3391  0.7084
  677TMC3    C510068   3.820   2.028  11.648  0.2334 -0.0713  0.0155
  677TMC3    C610069   3.717   1.939  11.666  0.6039 -0.5768 -0.1624
  677TMC3     C10070   4.054   1.823  11.483 -0.1141 -0.0961  0.2861
  677TMC3     O10071   4.152   1.894  11.507 -0.1823  0.0703  0.4580
  677TMC3     H10072   3.806   1.693  11.465 -2.5045  1.3987 -1.9964
  677TMC3    H110073   4.001   2.061  11.537 -0.1966 -0.2779 -1.4500
  677TMC3    H210074   3.640   1.960  11.739 -0.8955 -1.3340 -1.5080
  677TMC3    C710075   3.824   2.140  11.739  0.6848 -0.7499 -0.2775
  677TMC3    C810076   3.640   1.706  11.646  0.2325 -0.2968 -0.1488
  677TMC3    O110077   3.722   2.164  11.806  0.2189  0.6700 -0.4243
  677TMC3    O210078   3.597   1.638  11.553  0.4189 -0.3213  0.6927
  678MPD2     C10079   0.776   2.287   1.425  0.3076  0.5963  0.0527
  678MPD2    C110080   0.793   2.254   1.298  0.1429 -0.0472  0.0833
  678MPD2    C210081   0.697   2.182   1.235 -0.4062  0.1392 -0.3444
  678MPD2    C310082   0.575   2.146   1.293  0.3718 -0.3786 -0.3930
  678MPD2    C410083   0.560   2.181   1.427  0.5456  0.8124  0.7794
  678MPD2    C510084   0.660   2.251   1.488  0.2794  0.8923 -0.0046
  678MPD2     H10085   0.719   2.150   1.134  0.3949 -0.4039  0.0030
  678MPD2    H110086   0.469   2.166   1.484 -0.9927 -0.6600 -2.0752
  678MPD2    H210087   0.842   2.348   1.487  1.0119  0.5819 -0.6742
  678MPD2    H310088   0.649   2.281   1.591  1.3548  0.3704  0.2652
  678MPD2     N10089   0.480   2.069   1.229 -0.4156 -0.1759 -0.9544
  678MPD2    H510090   0.517   2.031   1.143 -1.5038  0.8495 -1.8753
  678MPD2    N110091   0.905   2.294   1.233  0.0056  0.0104  0.0830
  678MPD2    H710092   0.909   2.281   1.132  1.5078 -1.9864  0.4110
  679TMC3    C110093   1.211   2.373   0.971  0.1824  1.0186  0.7573
  679TMC3    C210094   1.121   2.336   1.069  0.0108 -0.0106  0.5942
  679TMC3    C310095   1.100   2.419   1.176  0.0729 -0.3040  0.8120
  679TMC3    C410096   1.254   2.503   0.961 -1.0798  0.4508  0.4319
  679TMC3    C510097   1.200   2.585   1.053 -0.0202 -0.4492 -0.5625
  679TMC3    C610098   1.131   2.551   1.167 -0.5840 -0.1763  0.5551
  679TMC3     C10099   1.212   2.285   0.855  0.0599 -0.2643 -0.5893
  679TMC3     O10100   1.188   2.163   0.869 -0.5225  0.1376 -0.2671
  679TMC3     H10101   1.089   2.233   1.075  1.2318 -0.4192  0.0907
  679TMC3    H110102   1.308   2.540   0.875  1.4985 -1.5928  1.1520
  679TMC3    H210103   1.119   2.626   1.244  1.9481  0.6120  0.1818
  679TMC3    C710104   1.135   2.693   0.985 -0.1633 -0.7880 -0.7021
  679TMC3    C810105   0.998   2.386   1.275 -0.5089 -0.7716  0.0443
  679TMC3    O110106   1.162   2.697   0.864  0.5306  0.0673 -0.7810
  679TMC3    O210107   0.995   2.460   1.373  0.0794  0.6458 -0.2027
  680MPD2     C10108   1.104   0.423  13.547  0.7773 -0.4543  0.4242
  680MPD2    C110109   1.217   0.428  13.624 -0.1535  0.1899  0.1506
  680MPD2    C210110   1.225   0.521  13.727 -0.5405 -0.7306 -0.3731
  680MPD2    C310111   1.117   0.601  13.762  0.2264  0.9766  0.3440
  680MPD2    C410112   1.004   0.602  13.680  0.5964 -0.2485 -0.3872
  680MPD2    C510113   1.002   0.512  13.576  0.6342 -0.2779  0.3439
  680MPD2     H10114   1.310   0.531  13.794 -0.9159 -0.4494  0.0639
  680MPD2    H110115   0.915   0.663  13.690  0.1165 -1.1637  0.9401
  680MPD2    H210116   1.097   0.359  13.460  3.4716  0.2175 -0.3030
  680MPD2    H310117   0.921   0.511  13.504  1.6855 -0.1343 -0.8406
  680MPD2     N10118   1.131   0.707  13.853 -0.6224 -0.5533  0.8093
  680MPD2    H510119   1.048   0.763  13.868  0.2425  1.8830 -3.5366
  680MPD2    N110120   1.325   0.341  13.608 -0.7105  0.1781 -0.0241
  680MPD2    H710121   1.407   0.361  13.663 -0.2563  1.1198 -1.0631
  681TMC3    C110122   1.461   0.185  13.524  0.0740 -0.4954 -0.0349
  681TMC3    C210123   1.477   0.129  13.643 -0.1800 -1.0509 -0.0314
  681TMC3    C310124   1.594   0.141  13.706 -0.2964 -0.4720 -0.1609
  681TMC3    C410125   1.546   0.280  13.480 -0.1825  0.2651 -0.2487
  681TMC3    C510126   1.652   0.308  13.555  0.2178  0.3215 -0.3003
  681TMC3    C610127   1.684   0.236  13.663 -0.2931 -0.6139 -0.1601
  681TMC3     C10128   1.335   0.245  13.516 -0.0748 -0.2558 -0.6287
  681TMC3     O10129   1.247   0.192  13.448  0.1260  0.1434 -0.3556
  681TMC3     H10130   1.400   0.064  13.684 -0.8856  0.0708  0.4390
  681TMC3    H110131   1.518   0.334  13.390 -0.1328 -0.9787 -1.0028
  681TMC3    H210132   1.766   0.263  13.728 -1.3397  1.9564  0.1077
  681TMC3    C710133   1.759   0.383  13.495  0.0882 -0.0296 -0.2401
  681TMC3    C810134   1.560   0.130  13.847  0.2301  0.6178  0.0700
  681TMC3    O110135   1.872   0.370  13.537  0.3727  0.2635 -0.0397
  681TMC3    O210136   1.503   0.030  13.891 -0.3023 -0.4792 -0.3470
  682MPD2     C10137   3.580   1.885  10.692 -0.1130 -0.2868 -0.2899
  682MPD2    C110138   3.459   1.835  10.671 -0.4539 -1.0220 -0.2650
  682MPD2    C210139   3.360   1.858  10.761 -0.0695  0.0510 -0.2996
  682MPD2    C310140   3.382   1.930  10.878 -0.3437 -0.1091 -0.3039
  682MPD2    C410141   3.503   1.998  10.885  0.4726  0.4569  0.2020
  682MPD2    C510142   3.606   1.968  10.795 -0.3027 -0.5790  0.1994
  682MPD2     H10143   3.267   1.804  10.748  1.4062 -2.1994 -1.6156
  682MPD2    H110144   3.526   2.063  10.969 -0.1431 -0.6539  1.2377
  682MPD2    H210145   3.669   1.868  10.632  0.3294 -0.4806  0.4158
  682MPD2    H310146   3.711   1.992  10.795 -0.3313 -0.4741 -1.7489
  682MPD2     N10147   3.282   1.941  10.980 -0.2307  0.4702  0.1060
  682MPD2    H510148   3.303   1.999  11.061 -1.7877  0.0659  0.8099
  682MPD2    N110149   3.432   1.730  10.580  0.4681  0.0666 -0.2515
  682MPD2    H710150   3.336   1.696  10.577  1.2888 -2.1351 -1.2146
  683TMC3    C110151   3.123   1.862  11.346 -0.2362 -0.0108  0.3008
  683TMC3    C210152   3.024   1.768  11.366  0.3668  0.0089  0.0919
  683TMC3    C310153   2.989   1.697  11.257  0.3892 -0.3374  0.5642
  683TMC3    C410154   3.179   1.893  11.223  0.0394  0.5017 -0.0417
  683TMC3    C510155   3.126   1.827  11.120 -0.3650 -0.0451 -0.5410
  683TMC3    C610156   3.041   1.719  11.132  0.3124 -0.0303 -0.0080
  683TMC3     C10157   3.192   1.924  11.454  0.4400  0.2555  0.1707
  683TMC3     O10158   3.282   2.006  11.430 -0.0601 -0.4575  0.0800
  683TMC3     H10159   2.989   1.752  11.467 -0.4176 -2.7374 -0.6094
  683TMC3    H110160   3.235   1.986  11.218  1.7982 -0.4282  2.4365
  683TMC3    H210161   3.012   1.656  11.048  0.9074 -0.7916  0.3646
  683TMC3    C710162   3.172   1.856  10.987 -0.4713  0.0565  0.0684
  683TMC3    C810163   2.903   1.585  11.265  0.1308 -0.5046  0.5294
  683TMC3    O110164   3.106   1.806  10.895 -0.4737 -0.0652 -0.2089
  683TMC3    O210165   2.787   1.597  11.302 -0.5675 -0.3856  0.0426
  684MPD2     C10166   1.689   1.160  16.343 -0.4591  0.5234  0.5484
  684MPD2    C110167   1.657   1.234  16.233  0.3499  0.0145 -0.5160
  684MPD2    C210168   1.631   1.376  16.256 -0.1485  0.4096  0.1025
  684MPD2    C310169   1.662   1.439  16.382  0.1741  0.3515 -0.2331
  684MPD2    C410170   1.699   1.358  16.491  0.2944 -0.3398  0.6355
  684MPD2    C510171   1.716   1.224  16.463  0.2404  0.1124 -0.0791
  684MPD2     H10172   1.602   1.433  16.168 -0.3834 -0.9313 -0.6890
  684MPD2    H110173   1.715   1.404  16.588  2.6640  1.0831 -0.4121
  684MPD2    H210174   1.701   1.052  16.344 -2.1094  0.3538  3.8431
  684MPD2    H310175   1.738   1.151  16.540 -0.2754 -0.5212 -0.5288
  684MPD2     N10176   1.655   1.573  16.406 -0.0137  0.4049 -0.0776
  684MPD2    H510177   1.684   1.608  16.497  1.6869 -1.8975  0.2740
  684MPD2    N110178   1.645   1.182  16.104 -0.5259  0.5161  0.1334
  684MPD2    H710179   1.601   1.243  16.035  0.9198  1.8423  0.3861
  685TMC3    C110180   1.659   1.038  15.930  0.9593 -0.2159 -0.1087
  685TMC3    C210181   1.622   1.138  15.842 -0.0741  0.0649  0.7752
  685TMC3    C310182   1.691   1.139  15.710  0.4525 -0.1851  0.0985
  685TMC3    C410183   1.749   0.943  15.882 -0.1543 -0.6986 -0.6451
  685TMC3    C510184   1.810   0.958  15.769  0.4807  0.0708  0.5135
  685TMC3    C610185   1.786   1.050  15.677 -0.3292 -0.1459  0.1348
  685TMC3     C10186   1.681   1.056  16.069  0.4544  0.1590 -0.0634
  685TMC3     O10187   1.749   0.974  16.123  0.1669 -0.3268  0.5050
  685TMC3     H10188   1.552   1.216  15.869 -1.1654 -0.2856 -1.0074
  685TMC3    H110189   1.770   0.855  15.942  0.2922  0.3116  0.6792
  685TMC3    H210190   1.851   1.059  15.590  0.0214  0.0587  0.4197
  685TMC3    C710191   1.951   0.979  15.799 -0.2254  0.4554 -0.9127
  685TMC3    C810192   1.621   1.203  15.600  0.1468 -0.6233  0.0743
  685TMC3    O110193   2.032   0.994  15.709  0.3360 -0.5461  0.1973
  685TMC3    O210194   1.682   1.247  15.501  0.5276  0.0691  0.1492
  686MPD2     C10195   2.719   1.897  15.619 -1.1817  0.2018 -0.3973
  686MPD2    C110196   2.760   1.768  15.623  1.1157  0.0018  0.0669
  686MPD2    C210197   2.824   1.709  15.517 -0.6003 -0.8162 -0.6384
  686MPD2    C310198   2.829   1.777  15.394 -0.2046 -0.6040 -0.1756
  686MPD2    C410199   2.779   1.904  15.391  0.7136  0.3403  0.4726
  686MPD2    C510200   2.737   1.966  15.500  0.6241 -0.1664  0.1501
  686MPD2     H10201   2.873   1.613  15.526  0.0224 -0.7288 -3.2509
  686MPD2    H110202   2.784   1.964  15.301 -3.2914 -0.2724 -0.1715
  686MPD2    H210203   2.668   1.944  15.702 -1.8612 -1.1209 -0.0765
  686MPD2    H310204   2.686   2.061  15.491 -0.9301 -1.1381 -1.2798
  686MPD2     N10205   2.875   1.719  15.267 -0.0713  0.4317 -0.4112
  686MPD2    H510206   2.873   1.785  15.190 -3.0421  0.7988 -0.0200
  686MPD2    N110207   2.720   1.696  15.738  0.1330 -0.3036  0.4375
  686MPD2    H710208   2.657   1.753  15.794 -1.5209 -0.5724 -1.1517
  687TMC3    C110209   2.863   1.486  15.334 -0.6347 -0.2327  0.1739
  687TMC3    C210210   2.728   1.473  15.344  0.7309 -0.0049  0.7878
  687TMC3    C310211   2.680   1.361  15.406  0.1202 -0.1779 -0.1703
  687TMC3    C410212   2.944   1.379  15.356 -0.3143  0.4678 -0.1341
  687TMC3    C510213   2.891   1.262  15.416 -0.0742 -0.6506 -0.2380
  687TMC3    C610214   2.761   1.265  15.451  0.0719  0.3393  0.2837
  687TMC3     C10215   2.916   1.589  15.248 -1.2055 -0.2415 -0.0306
  687TMC3     O10216   2.996   1.552  15.163 -0.0226  0.0177  1.0199
  687TMC3     H10217   2.659   1.546  15.304  1.5629  0.1407 -0.3448
  687TMC3    H110218   3.050   1.379  15.334 -0.0438 -0.2529  1.1575
  687TMC3    H210219   2.725   1.192  15.523  0.3761  0.3665  0.4642
  687TMC3    C710220   2.984   1.212  15.521 -0.2645  0.6463  0.6572
  687TMC3    C810221   2.550   1.356  15.467 -0.5700  0.0371 -0.1951
  687TMC3    O110222   2.934   1.214  15.637  0.2892 -0.2673 -0.2886
  687TMC3    O210223   2.496   1.250  15.484 -0.3284  0.2057  0.4703
  688MPD2     C10224   2.198   0.440  17.510 -0.5039 -0.3598  0.1323
  688MPD2    C110225   2.173   0.301  17.500  0.4368  0.0159  0.7917
  688MPD2    C210226   2.226   0.234  17.389  0.7375  0.5007 -0.0358
  688MPD2    C310227   2.287   0.307  17.287 -0.4172 -0.5649  0.2314
  688MPD2    C410228   2.291   0.446  17.288 -0.0483 -0.6264 -0.1699
  688MPD2    C510229   2.255   0.505  17.404 -0.1760 -0.4467 -0.0908
  688MPD2     H10230   2.221   0.127  17.372  1.0717  0.2206  1.7222
  688MPD2    H110231   2.340   0.501  17.208  0.7560 -0.4149  0.4620
  688MPD2    H210232   2.183   0.497  17.601  0.6708  0.8977 -0.4727
  688MPD2    H310233   2.271   0.611  17.416  1.7234 -0.7805  0.2740
  688MPD2     N10234   2.357   0.253  17.180  0.3428 -0.0512 -0.1804
  688MPD2    H510235   2.395   0.315  17.109  2.9204 -2.1007 -0.6075
  688MPD2    N110236   2.114   0.227  17.608  0.1219  0.3915 -0.2513
  688MPD2    H710237   2.122   0.126  17.613  0.7846  0.5255  1.4516
  689TMC3    C110238   1.991   0.215   0.063  0.0560  0.2119  0.2543
  689TMC3    C210239   1.967   0.290   0.173  0.1288  0.9730  0.3336
  689TMC3    C310240   1.879   0.239   0.263 -0.0101  0.2545  0.1841
  689TMC3    C410241   1.918   0.103   0.029  0.2034  0.1070  0.1510
  689TMC3    C510242   1.828   0.059   0.122  0.2255 -0.2234  1.1968
  689TMC3    C610243   1.819   0.117   0.248  0.5057  0.9796 -0.1856
  689TMC3     C10244   2.048   0.297  17.715 -1.2953  0.3839  0.2216
  689TMC3     O10245   2.030   0.415  17.730 -0.4920  0.0870  0.1469
  689TMC3     H10246   2.022   0.382   0.194  3.7101 -0.3261 -3.3465
  689TMC3    H110247   1.939   0.054  17.692 -0.0369 -2.7075  1.5476
  689TMC3    H210248   1.760   0.076   0.330  4.0956 -2.3971  0.6780
  689TMC3    C710249   1.796   4.659   0.116  0.0188 -0.4484 -0.0352
  689TMC3    C810250   1.828   0.326   0.362 -0.1750 -0.4645 -0.1650
  689TMC3    O110251   1.801   4.597   0.224  0.3080 -0.5430 -0.1561
  689TMC3    O210252   1.892   0.430   0.375 -0.0708  0.7039 -0.3940
  690MPD2     C10253   4.654   2.349  15.906 -0.0141 -0.4830  0.5751
  690MPD2    C110254   4.566   2.368  15.797  0.1123  0.3979 -0.2056
  690MPD2    C210255   4.604   2.460  15.699  0.2998 -0.4185 -0.8644
  690MPD2    C310256   4.722   2.534  15.706  0.0396 -0.2366 -0.1904
  690MPD2    C410257   0.061   2.513  15.815 -1.0657 -0.7491 -0.1395
  690MPD2    C510258   0.020   2.423  15.912  0.4623  0.0244  0.6643
  690MPD2     H10259   4.533   2.488  15.623 -0.5051 -0.5428 -0.1561
  690MPD2    H110260   0.154   2.566  15.826 -1.0196 -1.2759  1.9848
  690MPD2    H210261   4.627   2.275  15.981 -2.0358  0.1880  0.5144
  690MPD2    H310262   0.078   2.385  15.995 -0.2470 -1.3914  0.5117
  690MPD2     N10263   0.019   2.609  15.592 -0.1052 -0.0052 -0.7304
  690MPD2    H510264   4.697   2.609  15.512  0.0128 -1.1606 -0.8241
  690MPD2    N110265   4.438   2.294  15.782  0.0303  0.7865  0.0414
  690MPD2    H710266   4.371   2.334  15.717 -0.1739 -0.5415 -0.5732
  691TMC3    C110267   4.265   2.135  15.826 -0.4864 -0.0282 -0.2465
  691TMC3    C210268   4.255   2.120  15.691  0.4390 -0.2837  0.2821
  691TMC3    C310269   4.175   2.024  15.635 -0.1699  0.0450  0.3983
  691TMC3    C410270   4.198   2.042  15.903  0.4994  0.3389 -0.3582
  691TMC3    C510271   4.128   1.943  15.844  0.1061  0.4293 -0.0059
  691TMC3    C610272   4.115   1.929  15.710 -0.2141  0.2686  0.6042
  691TMC3     C10273   4.391   2.187  15.864  0.4908 -0.3487 -0.2170
  691TMC3     O10274   4.453   2.128  15.953  0.4986 -0.3290  0.3505
  691TMC3     H10275   4.317   2.173  15.620  0.9213 -1.5666 -0.2706
  691TMC3    H110276   4.217   2.035  16.009  1.4590 -0.3616 -0.5740
  691TMC3    H210277   4.063   1.844  15.666  2.8333 -1.6633  0.7232
  691TMC3    C710278   4.057   1.855  15.933 -0.2753 -0.3006 -0.2108
  691TMC3    C810279   4.146   2.023  15.489  0.1842 -0.7007  0.3105
  691TMC3    O110280   4.034   1.890  16.047 -0.3957 -0.3131 -0.0585
  691TMC3    O210281   4.088   1.920  15.452  0.2907 -0.2077  0.5694
  692TMC3    C110282   1.233   3.011  16.449 -0.2394  0.0825  0.4821
  692TMC3    C210283   1.255   2.994  16.584 -0.8014 -0.5789  0.2309
  692TMC3    C310284   1.230   2.867  16.636 -0.1923 -0.0376 -0.6657
  692TMC3    C410285   1.180   2.908  16.368  0.4474  0.6161 -0.3511
  692TMC3    C510286   1.169   2.780  16.429 -0.0882  0.1091 -0.3356
  692TMC3    C610287   1.211   2.757  16.561 -0.6617  0.4151  0.1020
  692TMC3     C10288   1.193   3.145  16.419  0.4607  0.1916  0.5804
  692TMC3     O10289   1.180   3.227  16.508 -0.4162 -0.0392  0.2386
  692TMC3     H10290   1.310   3.063  16.647 -1.8544  0.1612  0.3478
  692TMC3    H110291   1.152   2.925  16.265  1.2216 -2.3409 -1.0450
  692TMC3    H210292   1.196   2.668  16.620 -0.0187  0.2761  0.0567
  692TMC3    C710293   1.113   2.673  16.345  0.2204  0.1349 -0.1209
  692TMC3    C810294   1.308   2.842  16.750 -1.0575  0.4291  1.0453
  692TMC3    O110295   1.034   2.700  16.260 -0.8069  0.0700 -0.0208
  692TMC3    O210296   1.373   2.744  16.756 -0.7181  0.2657 -0.2761
  693MPD2     C10297   0.559   0.947  11.057  0.6620 -0.6313 -0.6113
  693MPD2    C110298   0.539   0.865  11.165  0.1449 -0.1214 -0.0238
  693MPD2    C210299   0.632   0.767  11.191 -0.4610  0.1117  0.6020
  693MPD2    C310300   0.747   0.749  11.104  0.0153  0.3169  0.3829
  693MPD2    C410301   0.765   0.825  10.996 -0.1361  0.1750  0.4468
  693MPD2    C510302   0.672   0.933  10.989 -0.1927  0.3816 -1.1568
  693MPD2     H10303   0.612   0.701  11.274 -1.3384  0.8722  0.9987
  693MPD2    H110304   0.850   0.814  10.929  1.3414 -0.2334  2.3632
  693MPD2    H210305   0.495   1.030  11.030  3.4115  1.9680  0.9736
  693MPD2    H310306   0.684   0.991  10.897  0.0564  0.5581 -1.0145
  693MPD2     N10307   0.860   0.667  11.133 -0.3773 -0.5214 -0.0088
  693MPD2    H510308   0.936   0.675  11.066 -0.1454  0.1603  0.3322
  693MPD2    N110309   0.425   0.875  11.240 -0.2183  0.1345  0.1499
  693MPD2    H710310   0.429   0.822  11.326  0.4364  0.8686  0.5786
  694TMC3    C110311   0.197   0.908  11.288 -0.4386  0.0268  0.4321
  694TMC3    C210312   0.088   0.858  11.225 -0.7499 -0.4104  0.1165
  694TMC3    C310313   0.017   0.764  11.293 -0.1988 -0.3584 -0.5754
  694TMC3    C410314   0.236   0.865  11.416 -0.3525  0.2863 -0.3276
  694TMC3    C510315   0.150   0.776  11.480  0.6125  0.6248  0.4251
  694TMC3    C610316   0.042   0.717  11.420 -0.7995 -0.2463  0.4008
  694TMC3     C10317   0.307   0.928  11.202 -0.8663  0.1326  0.0304
  694TMC3     O10318   0.280   0.963  11.087 -0.0287  0.2446  0.7502
  694TMC3     H10319   0.062   0.891  11.125  1.9577  1.5507  0.0597
  694TMC3    H110320   0.318   0.894  11.480  2.4070 -1.1285 -3.2603
  694TMC3    H210321   4.718   0.648  11.474 -2.3170  1.3327  0.6142
  694TMC3    C710322   0.193   0.719  11.608  0.5677 -0.0684  0.3281
  694TMC3    C810323   4.671   0.674  11.212  0.1369  0.2518 -0.2401
  694TMC3    O110324   0.272   0.783  11.677  0.3032  0.2591 -0.2083
  694TMC3    O210325   4.640   0.567  11.266 -0.4124 -0.6061 -0.1534
  695MPD2     C10326   1.743   2.987  13.513 -0.4504 -0.4136 -0.4241
  695MPD2    C110327   1.650   2.984  13.614  0.1309  0.5349  0.5880
  695MPD2    C210328   1.528   3.040  13.595  0.2440 -0.3978 -0.0858
  695MPD2    C310329   1.489   3.093  13.475  0.1698 -0.3956 -0.0995
  695MPD2    C410330   1.585   3.098  13.377  0.2658 -0.3020 -0.1995
  695MPD2    C510331   1.709   3.045  13.396  0.3588  0.1851  0.7200
  695MPD2     H10332   1.461   3.039  13.681  1.1200  1.2301  0.6076
  695MPD2    H110333   1.566   3.148  13.283 -1.5221 -1.0118 -0.1988
  695MPD2    H210334   1.845   2.951  13.526 -0.1515  0.9294  0.9605
  695MPD2    H310335   1.794   3.039  13.328 -1.1716  2.4439 -1.3969
  695MPD2     N10336   1.370   3.163  13.475 -0.3261  0.0899 -0.2793
  695MPD2    H510337   1.320   3.153  13.562  0.8312 -2.6833  0.0733
  695MPD2    N110338   1.682   2.937  13.744  0.3179  0.5938  0.0411
  695MPD2    H710339   1.599   2.944  13.802  0.8760 -0.0102  0.9134
  696TMC3    C110340   1.175   3.265  13.394 -0.3313 -0.5149  0.5152
  696TMC3    C210341   1.097   3.203  13.492 -0.4163  0.0341 -0.1076
  696TMC3    C310342   0.976   3.252  13.530 -0.2382  0.8060  0.5219
  696TMC3    C410343   1.125   3.388  13.347  0.3225 -0.5786  0.1452
  696TMC3    C510344   1.016   3.444  13.408 -0.1063  0.1386  0.6188
  696TMC3    C610345   0.935   3.369  13.483 -0.0558 -0.1661  0.7112
  696TMC3     C10346   1.311   3.224  13.370 -0.7982 -0.3922 -0.4996
  696TMC3     O10347   1.365   3.262  13.267  0.1618 -0.4505 -0.1543
  696TMC3     H10348   1.135   3.113  13.538 -0.9388  0.8855  1.9788
  696TMC3    H110349   1.198   3.438  13.285 -0.6365 -0.2718 -0.7444
  696TMC3    H210350   0.843   3.416  13.517 -0.8952 -2.1249  1.1280
  696TMC3    C710351   1.037   3.581  13.442  0.7974  0.0622 -0.1103
  696TMC3    C810352   0.925   3.196  13.655 -0.2781 -0.8777 -0.4159
  696TMC3    O110353   1.112   3.647  13.372 -0.0562  0.2863 -0.2642
  696TMC3    O210354   1.011   3.156  13.731  0.2110 -0.0669  0.1079
  697MPD2     C10355   0.957   0.142  15.795 -0.5499 -0.0254 -0.4470
  697MPD2    C110356   0.899   0.132  15.668  0.1049  0.3256 -0.0536
  697MPD2    C210357   0.923   0.227  15.572  0.6110  0.9791  0.7093
  697MPD2    C310358   0.995   0.339  15.606  0.7782 -0.0766 -0.8125
  697MPD2    C410359   1.062   0.351  15.728  0.4237  0.3093  0.0048
  697MPD2    C510360   1.036   0.256  15.823 -0.1805 -0.2299  0.1167
  697MPD2     H10361   0.878   0.222  15.474  1.4810 -0.9887  0.3992
  697MPD2    H110362   1.111   0.443  15.756 -1.1747  0.9290  0.7466
  697MPD2    H210363   0.940   0.068  15.872 -0.3159 -0.2256 -0.5894
  697MPD2    H310364   1.069   0.271  15.925  0.2777 -2.2786  0.2550
  697MPD2     N10365   1.045   0.428  15.509 -0.4076  0.3025 -0.1116
  697MPD2    H510366   1.107   0.504  15.534  1.2395 -1.2928  0.6031
  697MPD2    N110367   0.836   0.012  15.619  0.2044  0.3759  0.2447
  697MPD2    H710368   0.796   0.008  15.526  2.1508 -2.3411 -0.4944
  698TMC3    C110369   1.101   0.499  15.294  0.0534 -0.2744  0.7093
  698TMC3    C210370   1.232   0.485  15.330  0.2655 -0.1917  0.5151
  698TMC3    C310371   1.329   0.544  15.251 -0.0797 -0.1433  0.1739
  698TMC3    C410372   1.064   0.527  15.171 -0.8639 -0.7971  0.0538
  698TMC3    C510373   1.162   0.581  15.090 -0.0058 -0.3344  0.8067
  698TMC3    C610374   1.293   0.600  15.130 -0.3125  0.3651 -0.3430
  698TMC3     C10375   1.002   0.429  15.375 -0.8784  0.0055 -0.2352
  698TMC3     O10376   0.915   0.367  15.314 -0.2607  0.3633  0.8052
  698TMC3     H10377   1.263   0.443  15.425  2.3921 -0.8965 -0.4812
  698TMC3    H110378   0.961   0.521  15.137 -1.5543  0.8001  1.8072
  698TMC3    H210379   1.366   0.657  15.075  0.9599 -1.2138 -0.3086
  698TMC3    C710380   1.137   0.572  14.951  0.2842 -0.5903 -0.1225
  698TMC3    C810381   1.452   0.582  15.318 -0.4254 -0.3487 -0.5407
  698TMC3    O110382   1.017   0.570  14.928  1.0258  0.7852 -0.1095
  698TMC3    O210383   1.473   0.547  15.434 -0.1236  0.8280  0.2356
  699TMC3    C110384   0.664   3.280  12.810 -1.2538  0.3207 -0.7594
  699TMC3    C210385   0.715   3.195  12.898 -0.1653  0.2206  0.6322
  699TMC3    C310386   0.657   3.175  13.020 -0.3681  0.9293  0.2466
  699TMC3    C410387   0.546   3.345  12.830  0.7579  0.4819 -0.1683
  699TMC3    C510388   0.485   3.323  12.951  0.4361 -0.7726  0.3755
  699TMC3    C610389   0.536   3.241  13.046  0.1990 -0.3255 -0.5326
  699TMC3     C10390   0.730   3.302  12.682  0.6018 -0.1956  0.3530
  699TMC3     O10391   0.670   3.368  12.601 -0.0664 -0.6640 -0.2913
  699TMC3     H10392   0.801   3.135  12.871 -2.1740 -2.4290  0.0741
  699TMC3    H110393   0.502   3.399  12.747  1.4763 -1.0948 -1.5634
  699TMC3    H210394   0.491   3.231  13.144 -0.5026  1.8536 -0.6394
  699TMC3    C710395   0.378   3.403  13.008 -0.2856  0.1410  0.2020
  699TMC3    C810396   0.714   3.103  13.135 -0.1061 -0.2780  0.0276
  699TMC3    O110397   0.317   3.359  13.107 -0.0538 -0.4676  0.7563
  699TMC3    O210398   0.631   3.090  13.226  0.1949  0.0329 -0.4517
  700TMC3    C110399   4.414   0.313  17.213 -0.7016  0.3824  0.6241
  700TMC3    C210400   4.462   0.226  17.124 -1.1402  0.2330  0.3715
  700TMC3    C310401   4.557   0.138  17.170  0.3173  0.4524  0.5163
  700TMC3    C410402   4.451   0.312  17.349  0.1074 -0.2535  0.4892
  700TMC3    C510403   4.552   0.221  17.387  0.1606  0.4557  0.4935
  700TMC3    C610404   4.603   0.129  17.297 -0.4692  0.6332 -0.1512
  700TMC3     C10405   4.363   0.438  17.156  0.3564 -0.0325  0.4813
  700TMC3     O10406   4.274   0.502  17.208 -0.4572 -0.4138  0.2312
  700TMC3     H10407   4.430   0.219  17.021  0.6766  1.4036 -0.2699
  700TMC3    H110408   4.416   0.389  17.416 -0.1805  0.7711 -0.8389
  700TMC3    H210409   4.689   0.064  17.307 -1.0119 -0.1023 -0.2452
  700TMC3    C710410   4.646   0.286  17.485  1.0330 -0.3315  0.4431
  700TMC3    C810411   4.624   0.061  17.068  0.2851  0.3553  0.9298
  700TMC3    O110412   4.641   0.406  17.509 -0.1620  0.6923  0.1860
  700TMC3    O210413   4.617   0.104  16.952 -0.5906  0.5487 -0.0552
  701TMC3    C110414   0.156   4.125  15.677 -0.1943  0.2431  0.3110
  701TMC3    C210415   0.158   4.023  15.580 -0.3102  0.7608  0.5782
  701TMC3    C310416   0.200   4.059  15.454  0.4611 -0.0509 -0.1602
  701TMC3    C410417   0.244   4.232  15.654  0.0654  0.3143 -0.3839
  701TMC3    C510418   0.286   4.262  15.530 -0.1879  0.4974  0.0063
  701TMC3    C610419   0.262   4.179  15.425  0.1366 -0.2682 -0.1602
  701TMC3     C10420   0.031   4.158  15.733 -0.3655 -0.1171  0.8352
  701TMC3     O10421   4.675   4.098  15.689 -0.1648  0.6121  0.0614
  701TMC3     H10422   0.106   3.929  15.595 -0.8967  1.4709  3.1021
  701TMC3    H110423   0.245   4.311  15.728  2.8843  1.5166 -1.7102
  701TMC3    H210424   0.308   4.190  15.328  0.1381  0.9357 -0.0267
  701TMC3    C710425   0.305   4.402  15.501 -0.2750 -0.1481  0.7650
  701TMC3    C810426   0.175   3.955  15.348  0.0592 -0.0551  0.8438
  701TMC3    O110427   0.262   4.441  15.391  0.3200  0.3235  0.9650
  701TMC3    O210428   0.192   3.836  15.389 -0.1841 -0.2386  0.1055
  702MPD2     C10429   4.565   1.046  11.098 -0.0085  0.6443 -0.5796
  702MPD2    C110430   4.434   1.020  11.054  0.2772  0.3634  0.3018
  702MPD2    C210431   4.389   1.078  10.935 -0.5385 -0.0603  0.6200
  702MPD2    C310432   4.471   1.170  10.871 -0.0608 -0.3739 -0.0762
  702MPD2    C410433   4.598   1.193  10.916  1.1479 -0.5657  0.0902
  702MPD2    C510434   4.649   1.128  11.028 -0.8317 -0.1657  0.0248
  702MPD2     H10435   4.293   1.048  10.896  0.1914 -2.8449  0.9640
  702MPD2    H110436   4.662   1.266  10.865  0.8203  0.9509  1.8690
  702MPD2    H210437   4.597   1.019  11.198 -2.0084  1.7665  0.3538
  702MPD2    H310438   0.003   1.165  11.067  1.0104 -2.7820 -1.9522
  702MPD2     N10439   4.446   1.241  10.750  0.7772 -0.1627  0.0546
  702MPD2    H510440   4.505   1.313  10.709 -0.2320  0.3370 -0.5191
  702MPD2    N110441   4.341   0.941  11.130 -0.0089  0.0846 -0.0870
  702MPD2    H710442   4.243   0.951  11.103 -0.0403 -0.0519 -0.0253
  703TMC3    C110443   4.323   1.308  10.567  0.0169  0.0660  0.2365
  703TMC3    C210444   4.205   1.275  10.494  0.2780  0.3310  0.1051
  703TMC3    C310445   4.112   1.371  10.470 -0.0897  0.4062 -0.2209
  703TMC3    C410446   4.360   1.442  10.581  0.6161  0.3246 -0.3430
  703TMC3    C510447   4.276   1.536  10.535  0.4351  0.5982  0.2983
  703TMC3    C610448   4.150   1.503  10.490 -0.3739 -0.3285 -0.1910
  703TMC3     C10449   4.334   1.220  10.677  0.3365  0.3300 -0.9721
  703TMC3     O10450   4.241   1.148  10.703 -0.0395 -0.3473 -0.3831
  703TMC3     H10451   4.181   1.170  10.482  3.5896  0.0194 -3.6571
  703TMC3    H110452   4.454   1.480  10.619  0.5466  0.8067 -0.6520
  703TMC3    H210453   4.076   1.578  10.465 -1.3796 -1.3283 -0.2391
  703TMC3    C710454   4.326   1.675  10.535  0.5314  0.1444  0.3673
  703TMC3    C810455   3.981   1.323  10.486 -0.6029 -0.0954 -0.1043
  703TMC3    O110456   4.431   1.696  10.594  0.2064  0.1663 -0.3792
  703TMC3    O210457   3.965   1.208  10.456  0.1664  0.1497 -0.0702
  704TMC3    C110458   2.903   4.682  12.497 -0.1551  0.1988  0.4218
  704TMC3    C210459   2.977   4.690  12.384 -0.1972  0.1378  0.0773
  704TMC3    C310460   3.088   4.616  12.365 -0.1196 -0.3114 -0.2733
  704TMC3    C410461   2.954   4.610  12.601  0.2122  0.0881 -0.0789
  704TMC3    C510462   3.067   4.537  12.584  0.8145  0.0733  0.2479
  704TMC3    C610463   3.137   4.539  12.467  0.0508 -0.1853 -0.5727
  704TMC3     C10464   2.758   4.672  12.493 -0.3241  0.0508 -0.3313
  704TMC3     O10465   2.698   4.679  12.598 -0.2787  0.5069  0.2839
  704TMC3     H10466   2.942   0.015  12.305 -2.8582 -0.8903  0.4014
  704TMC3    H110467   2.889   4.572  12.679 -0.2924 -0.3780 -0.7292
  704TMC3    H210468   3.219   4.472  12.444  1.2647  1.6958 -1.7785
  704TMC3    C710469   3.028   4.405  12.630  0.2143  0.6094 -0.5929
  704TMC3    C810470   3.080   4.554  12.238 -0.6184 -0.4903  0.6751
  704TMC3    O110471   2.980   4.332  12.544  0.1286 -0.3441  0.4464
  704TMC3    O210472   2.967   4.532  12.198 -0.7654 -0.3880 -0.0240
  705MPD2     C10473   1.933   2.584  17.163 -0.6524 -0.5107  0.0304
  705MPD2    C110474   1.824   2.604  17.079  0.4317  0.3145  0.2634
  705MPD2    C210475   1.700   2.590  17.140 -0.0745  0.3506  0.6694
  705MPD2    C310476   1.688   2.573  17.277 -0.0907 -0.4601  0.8306
  705MPD2    C410477   1.798   2.572  17.361 -0.1476  0.1390 -0.7648
  705MPD2    C510478   1.926   2.577  17.303  0.3838  0.8021 -0.5057
  705MPD2     H10479   1.619   2.583  17.068  0.2093  3.0937  0.1026
  705MPD2    H110480   1.781   2.563  17.467  2.6002  1.8257 -0.1772
  705MPD2    H210481   2.035   2.586  17.127  0.4748 -2.4006  3.1501
  705MPD2    H310482   2.013   2.546  17.359 -0.0242 -0.2173 -0.4314
  705MPD2     N10483   1.560   2.567  17.339 -0.3845  0.2432 -0.1596
  705MPD2    H510484   1.563   2.577  17.440 -2.9110  2.5275 -0.2932
  705MPD2    N110485   1.825   2.634  16.938  0.1672  0.5032  0.1175
  705MPD2    H710486   1.731   2.637  16.901  0.6773 -1.1705 -1.3043
  706TMC3    C110487   1.973   2.668  16.491  0.0454  0.9691  0.2172
  706TMC3    C210488   1.863   2.747  16.466  0.6309 -0.5527 -0.0651
  706TMC3    C310489   1.778   2.780  16.564 -0.1012 -0.3976 -0.7939
  706TMC3    C410490   1.998   2.618  16.616  0.0813 -0.6147  0.3019
  706TMC3    C510491   1.910   2.655  16.716  0.1413  0.7430 -0.8891
  706TMC3    C610492   1.799   2.735  16.693  0.6974  0.9043  0.1127
  706TMC3     C10493   2.060   2.648  16.380 -0.1120  0.2747 -0.2605
  706TMC3     O10494   2.176   2.626  16.413 -0.0143 -0.6381  0.2853
  706TMC3     H10495   1.848   2.785  16.365 -0.5125  2.0871  1.0751
  706TMC3    H110496   2.087   2.557  16.630  0.1932 -0.4124  0.4847
  706TMC3    H210497   1.747   2.780  16.776 -0.7075 -0.7533  0.1207
  706TMC3    C710498   1.941   2.632  16.858  0.0605 -0.4095 -0.4927
  706TMC3    C810499   1.688   2.887  16.533 -0.0106 -0.2740  0.0284
  706TMC3    O110500   2.052   2.596  16.893  0.4608 -0.5711 -0.1683
  706TMC3    O210501   1.654   2.889  16.417  0.0283  0.0058  0.4390
  707TMC3    C110502   3.506   2.027   1.198  0.5852 -0.6256  0.4306
  707TMC3    C210503   3.557   1.923   1.275  0.3572 -0.4018 -0.2104
  707TMC3    C310504   3.618   1.945   1.389  1.0465  0.0460 -0.4007
  707TMC3    C410505   3.496   2.154   1.249 -0.0263  0.2062  0.3852
  707TMC3    C510506   3.561   2.168   1.372  0.1979 -0.5149  0.1585
  707TMC3    C610507   3.626   2.070   1.445 -0.1358 -0.3936  0.3919
  707TMC3     C10508   3.491   2.010   1.051  0.0209  0.1607  0.8589
  707TMC3     O10509   3.516   1.898   1.013 -0.1154  0.0104  0.1417
  707TMC3     H10510   3.561   1.822   1.236 -0.8382 -1.0203  1.3054
  707TMC3    H110511   3.436   2.230   1.200 -1.8706 -1.9494 -0.6797
  707TMC3    H210512   3.663   2.087   1.545 -0.4656  0.9527  0.2983
  707TMC3    C710513   3.596   2.308   1.399 -0.2650 -0.0506 -0.6476
  707TMC3    C810514   3.654   1.829   1.467  0.2497  0.3148  1.4265
  707TMC3    O110515   3.594   2.389   1.307 -0.4805  0.3759  0.2620
  707TMC3    O210516   3.750   1.824   1.543 -0.0053  0.7368 -0.2608
  708MPD2     C10517   4.282   0.832  14.348  0.1686  0.8716 -0.5652
  708MPD2    C110518   4.358   0.945  14.371  0.1012  0.6872 -0.3208
  708MPD2    C210519   4.351   1.002  14.497  0.5666  0.5627  0.4720
  708MPD2    C310520   4.259   0.958  14.588 -0.4413 -1.2898  0.1052
  708MPD2    C410521   4.181   0.849  14.553 -0.2606  0.3056 -0.7534
  708MPD2    C510522   4.193   0.787  14.433 -0.1779  0.7551  0.8024
  708MPD2     H10523   4.404   1.092  14.525  0.8850  0.5976 -0.2421
  708MPD2    H110524   4.117   0.803  14.627  2.8213  1.2458  2.5157
  708MPD2    H210525   4.282   0.785  14.250 -0.1160 -2.8690  1.2170
  708MPD2    H310526   4.115   0.720  14.398 -0.0342 -0.1587  2.2117
  708MPD2     N10527   4.242   1.025  14.711 -0.4662 -0.0111 -0.4427
  708MPD2    H510528   4.156   1.001  14.759 -0.4526  1.3718  0.2747
  708MPD2    N110529   4.430   1.005  14.261  0.3101 -0.0856 -0.1917
  708MPD2    H710530   4.405   0.982  14.165  2.4590  1.7139 -1.1760
  709TMC3    C110531   4.508   1.209  14.167 -0.0817  0.2192 -0.1725
  709TMC3    C210532   4.464   1.163  14.046 -0.4697 -0.2079  0.0545
  709TMC3    C310533   4.355   1.223  13.995 -0.0534  0.2011  0.1521
  709TMC3    C410534   4.453   1.317  14.230  0.1433  0.4386  0.3205
  709TMC3    C510535   4.341   1.368  14.176 -0.4439  0.9873  0.5803
  709TMC3    C610536   4.290   1.323  14.058 -0.0588  0.8776 -0.5323
  709TMC3     C10537   4.519   1.107  14.279  0.0060  0.1904 -0.7023
  709TMC3     O10538   4.588   1.138  14.377  0.0709  0.3109  0.2606
  709TMC3     H10539   4.511   1.076  14.000  0.6392  0.1694  0.4602
  709TMC3    H110540   4.482   1.340  14.331 -2.0114 -0.6236  1.1819
  709TMC3    H210541   4.202   1.368  14.015 -1.0220  1.1154  1.6792
  709TMC3    C710542   4.246   1.417  14.279  0.0723 -0.2129 -0.2545
  709TMC3    C810543   4.298   1.187  13.869  0.0546  0.6752 -0.1017
  709TMC3    O110544   4.298   1.492  14.365  0.3922 -0.4436 -0.4170
  709TMC3    O210545   4.178   1.206  13.856 -0.6912 -0.4424  0.0255
  710TMC3    C110546   0.589   2.864   0.329  0.2243 -0.3944  0.9366
  710TMC3    C210547   0.615   2.747   0.260 -0.2983  0.7531  0.1670
  710TMC3    C310548   0.739   2.684   0.278  0.1818  0.4839 -0.6745
  710TMC3    C410549   0.669   2.910   0.426  0.3361 -0.1882 -0.4321
  710TMC3    C510550   0.775   2.833   0.453 -0.1600 -0.6748 -0.3605
  710TMC3    C610551   0.823   2.731   0.372 -0.8368  1.0252 -0.4166
  710TMC3     C10552   0.475   2.944   0.286  0.2781 -0.2441 -0.6042
  710TMC3     O10553   0.388   2.900   0.214 -0.0396  0.1311  0.2148
  710TMC3     H10554   0.538   2.711   0.192  0.5645  1.5928 -1.2534
  710TMC3    H110555   0.650   2.999   0.485 -0.7293 -0.3318 -0.5552
  710TMC3    H210556   0.905   2.664   0.396  0.1507  1.9716 -1.1275
  710TMC3    C710557   0.851   2.852   0.574  0.7911  0.1313  1.0753
  710TMC3    C810558   0.784   2.570   0.192  0.6468 -0.2409 -0.1859
  710TMC3    O110559   0.946   2.775   0.579  0.6841 -0.7937 -0.5481
  710TMC3    O210560   0.896   2.522   0.217 -0.3413 -0.2385  0.0645
  711TMC3    C110561   0.604   3.745  15.196  0.6819  0.3136 -0.0609
  711TMC3    C210562   0.693   3.831  15.255 -0.3507 -0.5074 -0.4439
  711TMC3    C310563   0.797   3.776  15.335  0.4873  0.0900 -0.2123
  711TMC3    C410564   0.600   3.613  15.239 -0.2801  0.4811 -0.5110
  711TMC3    C510565   0.696   3.565  15.324 -0.0914 -0.4575  0.8351
  711TMC3    C610566   0.800   3.647  15.363  0.1204  0.0230  0.2083
  711TMC3     C10567   0.506   3.787  15.094 -0.0572  0.1609  0.4913
  711TMC3     O10568   0.451   3.694  15.036  0.2183 -0.4547 -0.1474
  711TMC3     H10569   0.682   3.937  15.236 -2.4273 -0.3378  1.6524
  711TMC3    H110570   0.531   3.543  15.194  0.9808  0.4111 -2.3603
  711TMC3    H210571   0.855   3.607  15.448 -1.9865 -1.7375  0.7551
  711TMC3    C710572   0.690   3.433  15.386 -0.4812  0.3945  0.2157
  711TMC3    C810573   0.857   3.871  15.422 -0.0485 -0.0804 -0.4875
  711TMC3    O110574   0.798   3.390  15.422 -0.2284 -0.1686 -0.1815
  711TMC3    O210575   0.800   3.977  15.442 -0.1058  0.5185 -0.2616
  712MPD2     C10576   2.716   4.637  14.288 -0.1810  0.0744  0.0652
  712MPD2    C110577   2.595   4.669  14.253  0.1947 -0.2578  0.2048
  712MPD2    C210578   2.571   0.031  14.165 -0.2267 -0.4146 -0.1482
  712MPD2    C310579   2.671   0.120  14.131 -0.2482  0.5870 -0.1741
  712MPD2    C410580   2.796   0.093  14.181  0.3577  0.0996  0.5133
  712MPD2    C510581   2.816   4.720  14.256 -0.2908 -0.1951  0.3108
  712MPD2     H10582   2.469   0.053  14.135 -0.8366 -0.0192  2.1689
  712MPD2    H110583   2.884   0.155  14.166  0.9422 -0.3710  1.9527
  712MPD2    H210584   2.745   4.558  14.357 -1.8164  1.0930  1.9299
  712MPD2    H310585   2.916   4.699  14.292 -0.5786  0.3127  1.4086
  712MPD2     N10586   2.644   0.247  14.070 -0.3303  0.3416  0.3668
  712MPD2    H510587   2.724   0.310  14.063  1.3926 -1.9936 -0.9111
  712MPD2    N110588   2.482   4.591  14.292  0.2377  0.1124 -0.4307
  712MPD2    H710589   2.400   4.613  14.238  1.5486  3.5931 -1.0010
  713TMC3    C110590   2.528   0.429  13.980  0.4987  0.2926 -0.2669
  713TMC3    C210591   2.632   0.461  13.897  0.6187  0.5456  0.5340
  713TMC3    C310592   2.607   0.560  13.810 -0.0799  0.4091  0.3176
  713TMC3    C410593   2.408   0.496  13.968  1.1332 -0.1923 -0.7630
  713TMC3    C510594   2.381   0.574  13.857  0.0506 -0.2682 -0.2009
  713TMC3    C610595   2.477   0.599  13.770 -0.9635  0.2961 -0.0616
  713TMC3     C10596   2.519   0.299  14.043  0.3667 -0.6090 -0.5468
  713TMC3     O10597   2.405   0.255  14.065  0.5383  0.0267  0.5413
  713TMC3     H10598   2.722   0.402  13.883  0.9981  1.2286  0.0690
  713TMC3    H110599   2.328   0.483  14.039  0.1277 -0.5387 -1.9487
  713TMC3    H210600   2.458   0.662  13.684  1.4821  1.1167  0.0018
  713TMC3    C710601   2.248   0.628  13.825  0.1988  0.2817  0.0748
  713TMC3    C810602   2.716   0.633  13.742 -0.2995  0.0254  0.4622
  713TMC3    O110603   2.229   0.676  13.714 -0.1948 -0.3788 -0.4574
  713TMC3    O210604   2.698   0.702  13.646  0.3646  0.2735  0.3900
  714MPD2     C10605   4.526   3.278   1.240  0.1667 -0.3434 -0.0338
  714MPD2    C110606   4.518   3.233   1.113  0.0923 -0.2572 -0.2431
  714MPD2    C210607   4.409   3.272   1.040  0.1148 -0.3699  0.5932
  714MPD2    C310608   4.316   3.369   1.084  0.2975 -0.2874  0.0668
  714MPD2    C410609   4.324   3.408   1.215 -0.0709  0.1669 -0.2142
  714MPD2    C510610   4.422   3.353   1.292 -0.5668 -0.7377 -0.6612
  714MPD2     H10611   4.394   3.233   0.940  0.2666 -0.9234  0.7875
  714MPD2    H110612   4.258   3.477   1.268  0.2388  0.7923 -0.6528
  714MPD2    H210613   4.598   3.240   1.311 -1.9967 -2.5868  0.9867
  714MPD2    H310614   4.422   3.377   1.398  2.1807 -0.7241 -0.6671
  714MPD2     N10615   4.211   3.416   1.001  0.1972  0.4173  0.1074
  714MPD2    H510616   4.213   3.389   0.903  0.6280  1.2389 -0.1151
  714MPD2    N110617   4.619   3.147   1.062  0.1352  0.3093 -0.2045
  714MPD2    H710618   4.697   3.129   1.125 -1.0389  0.1914  1.2106
  715TMC3    C110619   0.013   3.032   0.917  0.6374 -0.4355  0.5038
  715TMC3    C210620   0.024   2.906   0.880 -0.0949  1.1545 -0.0465
  715TMC3    C310621   0.141   2.838   0.885  1.2501  0.2288 -0.0201
  715TMC3    C410622   0.116   3.096   0.978 -0.0281 -0.1878 -0.2884
  715TMC3    C510623   0.242   3.032   0.972 -0.0040 -0.1136  0.1288
  715TMC3    C610624   0.257   2.900   0.930 -0.0060  0.0411 -0.4305
  715TMC3     C10625   4.623   3.094   0.935  0.0308  0.5703  0.1875
  715TMC3     O10626   4.529   3.063   0.861 -0.7534  0.5824  0.0119
  715TMC3     H10627   4.678   2.852   0.843 -0.8487  2.0852  0.3444
  715TMC3    H110628   0.111   3.202   1.002 -3.1937 -1.1277  3.2051
  715TMC3    H210629   0.356   2.856   0.929  0.2888  0.7029 -0.2366
  715TMC3    C710630   0.344   3.084   1.063  0.0878  0.2212 -0.2384
  715TMC3    C810631   0.148   2.697   0.861  0.3742  0.0813 -0.2634
  715TMC3    O110632   0.463   3.091   1.040 -0.0312  0.2512  0.2843
  715TMC3    O210633   0.060   2.644   0.795  0.0951  0.1701 -0.5735
  716MPD2     C10634   3.807   1.428   9.463 -0.2049 -0.5568  1.1927
  716MPD2    C110635   3.738   1.314   9.503  0.1114 -0.3248  0.2655
  716MPD2    C210636   3.767   1.189   9.447 -0.2844 -0.4403 -0.4022
  716MPD2    C310637   3.875   1.170   9.359 -0.5578 -0.4559  0.5507
  716MPD2    C410638   3.948   1.281   9.321  0.2931  0.8214  0.4650
  716MPD2    C510639   3.911   1.405   9.375  0.1772  0.5327 -0.3711
  716MPD2     H10640   3.720   1.098   9.484  0.8358 -0.2182  1.5918
  716MPD2    H110641   4.030   1.268   9.251  0.2728  0.8806  0.4303
  716MPD2    H210642   3.792   1.530   9.497 -0.3763 -0.7134  1.5836
  716MPD2    H310643   3.974   1.488   9.345 -0.1798  1.6892  2.1131
  716MPD2     N10644   3.897   1.038   9.332 -0.6053  0.5162 -0.5562
  716MPD2    H510645   3.827   0.978   9.373 -0.1588 -0.0435 -0.6085
  716MPD2    N110646   3.633   1.332   9.598 -0.5443 -0.1305  0.1321
  716MPD2    H710647   3.631   1.427   9.633  0.2175 -0.5181  1.2182
  717TMC3    C110648   3.974   0.851   9.223  0.0757  0.2094 -0.2275
  717TMC3    C210649   3.871   0.781   9.270 -1.0206  0.5252  0.9993
  717TMC3    C310650   3.872   0.651   9.242  0.1048 -0.4753 -0.5868
  717TMC3    C410651   4.076   0.791   9.154  0.0452 -0.5067  0.3418
  717TMC3    C510652   4.077   0.654   9.133  0.1575 -0.3752 -0.2877
  717TMC3    C610653   3.964   0.579   9.169  0.0834 -1.2478  0.0846
  717TMC3     C10654   3.999   0.992   9.261 -0.3186 -0.6183 -0.0052
  717TMC3     O10655   4.102   1.042   9.219  0.6306  0.6884  0.1167
  717TMC3     H10656   3.785   0.825   9.319 -1.2206  1.7111 -0.4102
  717TMC3    H110657   4.150   0.855   9.106 -0.7307  1.3396  1.5768
  717TMC3    H210658   3.967   0.471   9.172 -0.4483 -1.2967 -1.3134
  717TMC3    C710659   4.198   0.595   9.080  0.5700  0.4279  0.1219
  717TMC3    C810660   3.756   0.583   9.293 -0.4461  0.2925 -0.1455
  717TMC3    O110661   4.295   0.664   9.054 -0.3532  0.1861 -0.2420
  717TMC3    O210662   3.680   0.638   9.369  0.1250  0.0538  0.9363
  718MPD2     C10663   3.839   4.493  13.317 -0.1831  0.5052  1.2824
  718MPD2    C110664   3.764   4.500  13.201  0.7615 -0.5716 -1.1424
  718MPD2    C210665   3.634   4.449  13.207  0.2418  0.1624  0.1017
  718MPD2    C310666   3.587   4.382  13.318 -0.2538 -0.1617  0.3056
  718MPD2    C410667   3.662   4.370  13.429  0.7607 -0.3288  0.4503
  718MPD2    C510668   3.785   4.432  13.427 -1.0716 -0.2926  0.3426
  718MPD2     H10669   3.582   4.433  13.113  2.4882  0.5914 -1.2164
  718MPD2    H110670   3.638   4.317  13.520 -0.5805 -1.3442 -0.4906
  718MPD2    H210671   3.942   4.527  13.328  0.1472 -0.5695  1.5152
  718MPD2    H310672   3.845   4.437  13.517 -0.9447 -1.4499  0.3235
  718MPD2     N10673   3.460   4.319  13.299 -0.3947  0.5184  0.6948
  718MPD2    H510674   3.410   4.334  13.213  1.5375  1.8935 -0.1980
  718MPD2    N110675   3.836   4.529  13.082  0.6735 -0.6744 -0.1602
  718MPD2    H710676   3.938   4.532  13.082  0.5985  1.5249 -1.2409
  719TMC3    C110677   3.868   4.556  12.843  0.4509  0.6747  0.0009
  719TMC3    C210678   3.826   4.469  12.751  0.4211  0.3168 -0.1700
  719TMC3    C310679   3.830   4.503  12.618 -0.8120 -0.0972 -0.5425
  719TMC3    C410680   3.890   4.685  12.796 -0.3344 -0.0301 -0.4248
  719TMC3    C510681   3.901   4.715  12.661 -0.0841 -0.7984  0.4891
  719TMC3    C610682   3.875   4.618  12.570 -0.1888 -0.5736  0.6196
  719TMC3     C10683   3.773   4.548  12.962 -0.6057  0.3647 -0.1111
  719TMC3     O10684   3.655   4.531  12.931 -0.2119 -0.0587 -0.0852
  719TMC3     H10685   3.809   4.365  12.779 -0.4361  0.7860  1.0488
  719TMC3    H110686   3.901   0.023  12.871 -0.2685 -0.7263  0.2893
  719TMC3    H210687   3.880   4.624  12.462  1.0762 -1.5235  0.6289
  719TMC3    C710688   3.999   0.071  12.629 -0.1698 -0.2429 -0.3206
  719TMC3    C810689   3.708   4.460  12.557  0.1549  0.9917  0.1509
  719TMC3    O110690   4.072   0.041  12.531 -0.7168  0.6749  0.7723
  719TMC3    O210691   3.688   4.463  12.437 -0.3712 -0.2057  0.2485
  720MPD2     C10692   1.862   2.041  14.481 -0.0483  0.3079  0.6784
  720MPD2    C110693   1.974   2.057  14.410  0.2921 -0.0371  0.1949
  720MPD2    C210694   2.089   1.998  14.454 -0.1444 -0.7455 -0.4860
  720MPD2    C310695   2.096   1.939  14.580 -0.5083 -0.2680 -0.6273
  720MPD2    C410696   1.989   1.933  14.663 -1.1049 -0.1540  0.1661
  720MPD2    C510697   1.879   1.990  14.609 -0.1100  0.4071 -0.0890
  720MPD2     H10698   2.181   2.005  14.396  0.0022  1.9381  0.0573
  720MPD2    H110699   1.995   1.926  14.771  0.8960 -1.0254 -0.0004
  720MPD2    H210700   1.766   2.087  14.460  0.1007 -0.2043 -1.0748
  720MPD2    H310701   1.793   1.991  14.675 -1.6724  1.1900 -2.1460
  720MPD2     N10702   2.231   1.907  14.629 -0.0736 -0.3639 -0.1569
  720MPD2    H510703   2.303   1.919  14.558  0.3681  4.4511  1.1259
  720MPD2    N110704   1.986   2.127  14.282 -0.1835 -0.7179  0.4818
  720MPD2    H710705   2.080   2.129  14.243 -0.9875 -0.6324 -1.4235
  721TMC3    C110706   2.407   1.887  14.793 -0.1579  0.6751  0.7028
  721TMC3    C210707   2.433   1.980  14.886  0.0087 -0.0541  0.2477
  721TMC3    C310708   2.562   2.027  14.895 -0.2132  0.8218  0.1348
  721TMC3    C410709   2.498   1.845  14.698 -0.7676  0.1519  0.1899
  721TMC3    C510710   2.626   1.903  14.705 -0.5826  0.0297  0.4918
  721TMC3    C610711   2.656   1.990  14.803  0.3704  0.4362  0.1497
  721TMC3     C10712   2.268   1.874  14.760  0.6201 -0.2345  0.8488
  721TMC3     O10713   2.198   1.857  14.860  0.3892 -0.1486 -0.1317
  721TMC3     H10714   2.356   2.015  14.954 -1.0446  1.0649 -1.5328
  721TMC3    H110715   2.468   1.775  14.620 -1.4035  1.0456 -0.3671
  721TMC3    H210716   2.759   2.021  14.816 -0.4710  3.1420  0.2637
  721TMC3    C710717   2.734   1.818  14.658  0.0635 -0.1455 -0.4195
  721TMC3    C810718   2.607   2.117  15.004 -0.1097 -0.3212  0.3844
  721TMC3    O110719   2.755   1.807  14.540  0.0811 -0.0954  0.0423
  721TMC3    O210720   2.728   2.149  14.991 -0.4683 -0.2372  0.6041
  722MPD2     C10721   1.233   0.477  13.209 -0.3154 -0.3397  0.4689
  722MPD2    C110722   1.198   0.599  13.256  0.4415 -0.0202  0.7859
  722MPD2    C210723   1.066   0.636  13.273  0.9075 -0.5511  0.1576
  722MPD2    C310724   0.963   0.548  13.242 -0.0077 -0.7607 -0.1939
  722MPD2    C410725   0.999   0.432  13.178  0.3680 -0.3872  0.2771
  722MPD2    C510726   1.133   0.397  13.160 -0.0034 -0.6460  0.1828
  722MPD2     H10727   1.033   0.725  13.325 -0.4689 -1.2777  0.5145
  722MPD2    H110728   0.927   0.361  13.140  0.8150 -0.0661 -1.1495
  722MPD2    H210729   1.337   0.448  13.210 -0.2728 -0.0895  3.0208
  722MPD2    H310730   1.150   0.301  13.111  0.8692  1.0446 -2.7847
  722MPD2     N10731   0.829   0.594  13.253  0.2486  0.1510  0.4849
  722MPD2    H510732   0.813   0.689  13.284  2.0857  0.8144 -0.6375
  722MPD2    N110733   1.293   0.695  13.300  0.6490  0.1375 -0.7149
  722MPD2    H710734   1.259   0.778  13.347  2.1343  0.6097 -0.4671
  723TMC3    C110735   0.595   0.583  13.234 -0.3926 -0.2196  0.4317
  723TMC3    C210736   0.483   0.530  13.295 -0.2577 -0.4825 -0.3405
  723TMC3    C310737   0.370   0.606  13.330  0.5376  0.3117 -0.4089
  723TMC3    C410738   0.600   0.724  13.207  0.4872 -0.3898  0.1422
  723TMC3    C510739   0.481   0.796  13.249 -0.2762  0.3419 -0.1423
  723TMC3    C610740   0.374   0.739  13.305  0.7143 -0.7328  0.3802
  723TMC3     C10741   0.717   0.505  13.241 -0.4523 -0.8643 -0.6785
  723TMC3     O10742   0.715   0.381  13.247 -0.1079 -0.7629 -0.3827
  723TMC3     H10743   0.491   0.429  13.333 -0.3480  0.4667  2.2031
  723TMC3    H110744   0.678   0.775  13.151 -0.1137  0.4841  0.0885
  723TMC3    H210745   0.290   0.803  13.326  0.7175 -0.0985 -1.6448
  723TMC3    C710746   0.479   0.939  13.239 -0.1066 -1.2683 -0.4180
  723TMC3    C810747   0.244   0.543  13.309  0.7229  0.1582  0.6765
  723TMC3    O110748   0.440   1.001  13.335  0.0686 -0.1179  0.3369
  723TMC3    O210749   0.153   0.619  13.277  0.4985  0.2287 -0.7251
  724TMC3    C110750   1.269   2.981  10.495 -0.2226 -0.6310 -0.8694
  724TMC3    C210751   1.222   3.101  10.448 -0.3599 -0.0474  0.0771
  724TMC3    C310752   1.307   3.212  10.457 -0.0514 -0.0716 -0.2028
  724TMC3    C410753   1.405   2.959  10.529 -0.7690 -0.1948 -0.2070
  724TMC3    C510754   1.484   3.075  10.532  0.4042  0.1386 -0.5181
  724TMC3    C610755   1.433   3.201  10.509  0.4080  0.1477 -0.5243
  724TMC3     C10756   1.186   2.873  10.535 -0.5827  0.1203  0.2524
  724TMC3     O10757   1.231   2.791  10.612  0.3296 -0.2821  0.7986
  724TMC3     H10758   1.120   3.120  10.417 -0.4164  2.5006  1.7771
  724TMC3    H110759   1.445   2.865  10.567  0.3072 -1.3476 -4.1009
  724TMC3    H210760   1.507   3.279  10.517 -1.1907  1.3679  2.2593
  724TMC3    C710761   1.627   3.066  10.552 -0.1349 -0.3771  0.2066
  724TMC3    C810762   1.269   3.335  10.393 -0.4574  0.2266  0.3673
  724TMC3    O110763   1.696   3.163  10.528  0.4033  0.0903 -0.2409
  724TMC3    O210764   1.171   3.328  10.326 -0.4597 -0.6804 -0.0884
  725TMC3    C110765   2.859   2.132  12.760  0.2689  0.2888 -0.0479
  725TMC3    C210766   2.849   2.136  12.628 -0.2033  1.2607  0.2882
  725TMC3    C310767   2.826   2.020  12.566  0.7011 -0.3038 -0.1421
  725TMC3    C410768   2.837   2.023  12.837  0.1566  1.0071 -0.4536
  725TMC3    C510769   2.794   1.913  12.777 -0.1344  0.0769 -0.1052
  725TMC3    C610770   2.793   1.907  12.641 -0.1835 -0.1287 -0.1616
  725TMC3     C10771   2.950   2.230  12.818 -0.4313  0.8440  0.5562
  725TMC3     O10772   2.905   2.343  12.833  0.4846  0.1320 -0.0905
  725TMC3     H10773   2.883   2.223  12.572 -2.3497  1.7209 -0.3042
  725TMC3    H110774   2.852   2.032  12.944 -1.4198 -1.9167  0.0093
  725TMC3    H210775   2.746   1.818  12.601 -0.0516  0.2207 -1.1001
  725TMC3    C710776   2.767   1.790  12.858 -0.2017  0.2109  0.4191
  725TMC3    C810777   2.847   1.998  12.419  0.0231 -0.1462 -0.1696
  725TMC3    O110778   2.719   1.804  12.973 -0.4502  0.4401  0.0264
  725TMC3    O210779   2.850   1.882  12.388 -0.1465  0.2862  0.2808
  726MPD2     C10780   0.628   3.477  10.636  0.1686  0.3967 -0.0361
  726MPD2    C110781   0.507   3.527  10.595  0.3464 -0.4973  0.1682
  726MPD2    C210782   0.387   3.455  10.612 -0.1661 -0.5213 -0.1664
  726MPD2    C310783   0.390   3.332  10.660  0.5943 -0.6130  0.8345
  726MPD2    C410784   0.522   3.276  10.698 -0.2907 -0.7791 -0.6919
  726MPD2    C510785   0.636   3.352  10.682 -0.1672 -0.6413  1.0142
  726MPD2     H10786   0.294   3.507  10.590 -1.0937 -2.0637  0.0912
  726MPD2    H110787   0.545   3.176  10.732 -2.3241 -0.5550  1.3803
  726MPD2    H210788   0.721   3.533  10.625 -0.4680  1.0943 -1.7856
  726MPD2    H310789   0.736   3.323  10.711  0.4065 -0.2351 -0.5777
  726MPD2     N10790   0.279   3.254  10.687 -0.1135 -0.4086  0.1387
  726MPD2    H510791   0.291   3.168  10.740 -1.9352 -0.5623  0.2879
  726MPD2    N110792   0.497   3.655  10.532  0.0867  0.1794 -0.3705
  726MPD2    H710793   0.411   3.666  10.478  0.6157 -1.2033 -1.4892
  727TMC3    C110794   0.547   3.881  10.484  0.4731 -0.0393  0.5187
  727TMC3    C210795   0.636   3.981  10.495  0.2953  0.4525  0.2240
  727TMC3    C310796   0.608   4.103  10.430 -0.0994 -0.4331  0.1498
  727TMC3    C410797   0.428   3.897  10.420 -0.1273  0.3061  0.2279
  727TMC3    C510798   0.396   4.018  10.368 -0.3286  0.4968  0.1904
  727TMC3    C610799   0.483   4.124  10.370  0.9841  0.3345 -0.1719
  727TMC3     C10800   0.582   3.762  10.559 -0.0283 -0.6199  0.0957
  727TMC3     O10801   0.676   3.761  10.632  0.2037 -0.5123  0.0415
  727TMC3     H10802   0.736   3.972  10.536  0.0411  0.3566  0.8220
  727TMC3    H110803   0.349   3.824  10.434 -1.1638  1.1826 -1.1410
  727TMC3    H210804   0.455   4.217  10.323  1.1032  0.5297  0.1474
  727TMC3    C710805   0.277   4.014  10.284  0.1397  0.5583  0.8922
  727TMC3    C810806   0.697   4.213  10.459 -0.3711  0.6358  0.1591
  727TMC3    O110807   0.219   3.904  10.280  0.6322 -0.1575 -0.4945
  727TMC3    O210808   0.814   4.180  10.464 -0.1958  0.1431 -0.5407
  728TMC3    C110809   0.160   2.740  15.464  0.0097 -0.1159  0.7183
  728TMC3    C210810   0.286   2.745  15.418 -0.4952 -0.4446 -0.0089
  728TMC3    C310811   0.310   2.808  15.305  0.5054  0.5951  0.4360
  728TMC3    C410812   0.050   2.780  15.389  0.3974  0.2476  0.0286
  728TMC3    C510813   0.078   2.846  15.275 -0.4137 -0.6379  0.0295
  728TMC3    C610814   0.209   2.875  15.236 -0.4155  0.8015  0.4860
  728TMC3     C10815   0.146   2.664  15.581  0.0269  0.3452 -0.2385
  728TMC3     O10816   0.244   2.673  15.651  0.0646 -0.1622  0.2602
  728TMC3     H10817   0.360   2.683  15.469  0.5723  2.5690  2.0970
  728TMC3    H110818   4.693   2.781  15.437 -0.2047  0.7179 -1.1987
  728TMC3    H210819   0.230   2.942  15.154 -0.3006  0.4169  0.2009
  728TMC3    C710820   4.707   2.872  15.189  0.3517  0.1434  0.3295
  728TMC3    C810821   0.446   2.859  15.285  0.7136 -0.0489 -0.7384
  728TMC3    O110822   4.610   2.796  15.212  0.4243  0.0697 -0.1241
  728TMC3    O210823   0.465   2.942  15.199  0.4431  0.0774 -0.1652
  729MPD2     C10824   2.553   3.269  16.809 -0.1955 -0.6315 -0.3714
  729MPD2    C110825   2.643   3.356  16.866 -1.1424  0.1861  0.2724
  729MPD2    C210826   2.623   3.400  16.998  0.3261  0.5346  0.1463
  729MPD2    C310827   2.520   3.351  17.070  0.1825  1.4279 -0.1796
  729MPD2    C410828   2.435   3.265  17.009  0.2034 -0.3558 -0.6454
  729MPD2    C510829   2.440   3.229  16.883  0.0800  0.1035 -1.2663
  729MPD2     H10830   2.684   3.475  17.046 -2.3236  2.6260  0.2577
  729MPD2    H110831   2.347   3.225  17.059  0.1641  0.7296  0.1642
  729MPD2    H210832   2.571   3.249  16.704 -1.1821 -3.4569 -0.0144
  729MPD2    H310833   2.365   3.166  16.835 -0.4865 -1.2246  1.3868
  729MPD2     N10834   2.488   3.402  17.194  0.7803 -0.8438  0.7188
  729MPD2    H510835   2.396   3.368  17.222  1.7220 -2.7735  1.4885
  729MPD2    N110836   2.752   3.396  16.780  0.2389 -0.0814 -0.2466
  729MPD2    H710837   2.748   3.375  16.681 -0.4728  0.1165 -0.2639
  730TMC3    C110838   2.484   3.500  17.396 -0.8855 -0.2020  0.0120
  730TMC3    C210839   2.562   3.561  17.494 -0.7251 -0.9405 -0.1149
  730TMC3    C310840   2.521   3.674  17.558  0.0257 -0.8710 -0.5808
  730TMC3    C410841   2.358   3.544  17.375 -0.0034  0.2091  0.4381
  730TMC3    C510842   2.304   3.643  17.449 -0.7556 -0.4116 -0.5033
  730TMC3    C610843   2.392   3.714  17.536  0.0565  0.2099 -0.6132
  730TMC3     C10844   2.569   3.454  17.283  0.0515  0.4436 -0.0973
  730TMC3     O10845   2.689   3.473  17.279 -0.6993 -0.4979  0.4065
  730TMC3     H10846   2.663   3.526  17.513  0.7374  2.2612 -1.9819
  730TMC3    H110847   2.295   3.510  17.293 -0.6046  0.7272  0.6837
  730TMC3    H210848   2.364   3.806  17.587  0.2711  0.4055 -0.8528
  730TMC3    C710849   2.199   3.718  17.385  0.6015 -0.3769 -0.4026
  730TMC3    C810850   2.621   3.774  17.528 -0.3394  0.1440  0.6034
  730TMC3    O110851   2.194   3.706  17.260  0.6927 -0.1387 -0.8629
  730TMC3    O210852   2.690   3.745  17.433 -0.9307 -0.2362 -0.3707
  731MPD2     C10853   1.603   1.219  12.493  0.1650  0.3462  0.0195
  731MPD2    C110854   1.741   1.186  12.474  0.0462 -0.0577 -0.7562
  731MPD2    C210855   1.808   1.147  12.591 -0.5352  0.2596  0.3220
  731MPD2    C310856   1.741   1.139  12.711  0.0689 -0.0019  0.7489
  731MPD2    C410857   1.608   1.163  12.724 -0.2771  0.3531  0.0107
  731MPD2    C510858   1.542   1.206  12.613 -0.4209 -0.0930  0.4908
  731MPD2     H10859   1.913   1.128  12.575 -0.3098  0.6150  1.4179
  731MPD2    H110860   1.551   1.163  12.816 -0.2242  1.2554  0.0480
  731MPD2    H210861   1.532   1.248  12.417 -0.4303 -2.0360 -0.3177
  731MPD2    H310862   1.436   1.225  12.619 -0.0588  1.8941  0.3929
  731MPD2     N10863   1.821   1.105  12.817 -0.4856 -0.3417  0.1747
  731MPD2    H510864   1.921   1.092  12.806 -0.4850  0.7176 -1.1065
  731MPD2    N110865   1.787   1.185  12.343 -0.7673 -0.2786 -0.3318
  731MPD2    H710866   1.717   1.210  12.273 -0.4120  0.9596 -0.2392
  732TMC3    C110867   1.923   1.184  12.156  0.2795  0.3931  0.1797
  732TMC3    C210868   1.834   1.256  12.083  0.1353  0.7241  0.0337
  732TMC3    C310869   1.834   1.253  11.944 -0.2140  0.2293 -0.2079
  732TMC3    C410870   2.018   1.109  12.106  0.8328  0.2712  0.0001
  732TMC3    C510871   2.017   1.100  11.964  1.4982 -0.4225 -0.6806
  732TMC3    C610872   1.931   1.174  11.890  0.4631  1.0120  0.2238
  732TMC3     C10873   1.917   1.178  12.301 -0.8712  0.0593  0.3290
  732TMC3     O10874   2.021   1.151  12.363  0.1714 -0.2697 -0.2575
  732TMC3     H10875   1.777   1.330  12.138 -0.0573  1.1208 -0.6909
  732TMC3    H110876   2.094   1.056  12.163 -0.7369 -0.3954  1.4917
  732TMC3    H210877   1.950   1.174  11.783  1.5617 -0.4183  0.4164
  732TMC3    C710878   2.116   1.015  11.897 -0.7428 -0.2501 -0.6863
  732TMC3    C810879   1.794   1.373  11.873 -0.0141 -0.1065  0.3448
  732TMC3    O110880   2.095   0.979  11.781  0.1323  0.2109 -0.7954
  732TMC3    O210881   1.812   1.376  11.752 -0.2961  0.0773  0.1395
  733TMC3    C110882   3.104   4.025  13.279  0.0757 -0.0604  0.3652
  733TMC3    C210883   3.201   4.085  13.357 -0.6420  0.2647 -0.1407
  733TMC3    C310884   3.301   4.150  13.289  0.5154 -0.3137  0.1960
  733TMC3    C410885   3.101   4.019  13.145 -0.0341  0.1934 -0.0899
  733TMC3    C510886   3.205   4.089  13.080 -0.3179 -0.3765 -0.3415
  733TMC3    C610887   3.302   4.158  13.152  0.0970 -0.0842  0.5285
  733TMC3     C10888   2.981   4.004  13.350  0.2303  0.5182  0.5965
  733TMC3     O10889   2.967   4.082  13.444  0.7846 -0.4672  0.4904
  733TMC3     H10890   3.199   4.096  13.465 -1.9172  0.2566 -0.1688
  733TMC3    H110891   3.015   3.980  13.092 -0.1173  1.7444 -1.0899
  733TMC3    H210892   3.393   4.198  13.108 -0.6228  1.8526  0.8139
  733TMC3    C710893   3.194   4.115  12.937  0.0883  0.4540 -0.4914
  733TMC3    C810894   3.401   4.219  13.374 -0.9309  0.5127  0.3075
  733TMC3    O110895   3.139   4.027  12.868 -0.1493  0.5262 -0.1352
  733TMC3    O210896   3.430   4.178  13.485 -0.0770  0.1792 -0.2306
  734MPD2     C10897   4.428   2.115  12.352  0.2128  0.2091  0.0721
  734MPD2    C110898   4.427   2.002  12.267  0.6794 -0.1074 -0.4766
  734MPD2    C210899   4.512   1.994  12.158 -0.2194 -0.4369  0.0947
  734MPD2    C310900   4.599   2.096  12.141  0.0236  0.4898 -0.4043
  734MPD2    C410901   4.617   2.201  12.228  0.3636 -0.0612 -0.1496
  734MPD2    C510902   4.525   2.211  12.326  0.0777  0.3635 -0.2175
  734MPD2     H10903   4.531   1.901  12.106 -0.1042 -1.8697  2.7020
  734MPD2    H110904   4.688   2.282  12.218  0.2704  0.5126  3.6628
  734MPD2    H210905   4.363   2.133  12.437 -1.0086  0.2248 -0.8703
  734MPD2    H310906   4.524   2.295  12.395  0.4955  0.6070 -0.5103
  734MPD2     N10907   4.675   2.090  12.023  0.6501 -0.2914 -0.0808
  734MPD2    H510908   4.654   2.011  11.962  0.4422 -0.7689  0.6042
  734MPD2    N110909   4.333   1.895  12.290 -0.1518  0.0311 -0.2595
  734MPD2    H710910   4.267   1.901  12.366 -0.3944 -4.1585 -0.1324
  735TMC3    C110911   4.253   1.669  12.260 -0.0506  0.0154 -0.1431
  735TMC3    C210912   4.229   1.577  12.159  0.6564 -0.2028 -0.1154
  735TMC3    C310913   4.285   1.451  12.179  0.6094  0.1386 -0.1351
  735TMC3    C410914   4.320   1.637  12.375  0.5535 -0.3775 -0.2603
  735TMC3    C510915   4.381   1.512  12.389 -0.2423 -0.2835  0.6956
  735TMC3    C610916   4.355   1.418  12.293 -0.0620 -0.1559  0.2832
  735TMC3     C10917   4.318   1.787  12.200  0.7667 -0.0169 -0.3869
  735TMC3     O10918   4.365   1.769  12.087 -0.2171  0.3594 -0.2441
  735TMC3     H10919   4.187   1.612  12.066 -1.6150 -0.3223  0.8710
  735TMC3    H110920   4.352   1.714  12.444  2.7940 -0.4612 -1.2011
  735TMC3    H210921   4.408   1.324  12.295 -0.3215 -0.3102 -0.0626
  735TMC3    C710922   4.512   1.507  12.444 -0.3985 -0.8244 -0.0929
  735TMC3    C810923   4.351   1.401  12.058 -1.0812 -0.2723 -0.4886
  735TMC3    O110924   4.591   1.421  12.407  0.2728  0.4965  0.1531
  735TMC3    O210925   4.383   1.284  12.056  0.7650  0.2288 -0.0743
  736MPD2     C10926   4.659   1.734  12.690  0.0463  0.5209  0.2018
  736MPD2    C110927   4.664   1.637  12.590  0.2268 -0.3234  0.1397
  736MPD2    C210928   0.046   1.591  12.537 -0.7178  0.3126 -0.6522
  736MPD2    C310929   0.166   1.635  12.594  0.7271  1.7161  0.4230
  736MPD2    C410930   0.157   1.722  12.697 -0.5645 -0.1660  0.1418
  736MPD2    C510931   0.037   1.763  12.750 -0.0571 -0.8692 -0.2086
  736MPD2     H10932   0.052   1.530  12.447  0.6215  0.8616 -0.9316
  736MPD2    H110933   0.242   1.755  12.755  0.6529 -0.6202 -1.3909
  736MPD2    H210934   4.564   1.769  12.727 -0.7134 -0.3003 -0.9384
  736MPD2    H310935   0.048   1.819  12.842 -1.3615  1.6120 -1.5676
  736MPD2     N10936   0.294   1.605  12.559  0.3297 -0.0535  0.3996
  736MPD2    H510937   0.375   1.631  12.615  1.0796  1.0017 -1.1851
  736MPD2    N110938   4.541   1.605  12.532  0.4685  0.1431  0.0343
  736MPD2    H710939   4.460   1.660  12.560 -1.0820 -1.4303 -1.3170
  737TMC3    C110940   0.463   1.548  12.421  0.5152 -0.8250  0.7913
  737TMC3    C210941   0.506   1.672  12.393 -0.7889 -0.4627  0.3972
  737TMC3    C310942   0.622   1.678  12.318 -0.6101  0.2685 -0.4842
  737TMC3    C410943   0.522   1.443  12.372 -0.2351 -0.1864  0.0926
  737TMC3    C510944   0.620   1.453  12.275 -0.4133 -0.6639  0.1544
  737TMC3    C610945   0.678   1.572  12.254  0.5331  0.4215  0.2526
  737TMC3     C10946   0.323   1.528  12.451  0.5592  0.3834  0.5301
  737TMC3     O10947   0.256   1.451  12.381 -0.2168 -0.0905 -0.3975
  737TMC3     H10948   0.465   1.762  12.437  1.4289 -0.1037  1.7824
  737TMC3    H110949   0.474   1.346  12.381  1.1688 -1.0626 -2.0949
  737TMC3    H210950   0.761   1.594  12.187 -0.1616 -1.3639 -1.1859
  737TMC3    C710951   0.655   1.340  12.191  0.4642 -0.6790 -0.5263
  737TMC3    C810952   0.669   1.814  12.284 -0.0704  1.2043 -0.2159
  737TMC3    O110953   0.618   1.226  12.223 -0.4562 -0.1856 -0.2248
  737TMC3    O210954   0.670   1.901  12.369  0.0456 -0.1433 -0.3166
  738MPD2     C10955   1.715   0.731  15.400  0.0667 -0.1125  0.4136
  738MPD2    C110956   1.633   0.761  15.291 -0.6114 -0.2622  0.1415
  738MPD2    C210957   1.671   0.862  15.199  0.2757 -0.6616  0.1656
  738MPD2    C310958   1.791   0.932  15.214 -0.5916 -0.0293  0.0387
  738MPD2    C410959   1.877   0.898  15.322 -0.0620 -0.7610  0.8134
  738MPD2    C510960   1.835   0.799  15.413  0.0854  0.0944 -0.2238
  738MPD2     H10961   1.609   0.882  15.113 -0.8655  1.9967  1.6180
  738MPD2    H110962   1.974   0.945  15.330 -0.2122 -0.4748  0.9713
  738MPD2    H210963   1.679   0.659  15.473  1.3590  0.2991  1.4634
  738MPD2    H310964   1.893   0.768  15.499 -0.5505  0.1817  0.2356
  738MPD2     N10965   1.836   1.031  15.119 -0.3488  0.4640  0.0112
  738MPD2    H510966   1.926   1.075  15.130  1.3363 -2.9081 -0.2474
  738MPD2    N110967   1.512   0.690  15.249  0.4657  0.2987 -0.1145
  738MPD2    H710968   1.464   0.714  15.163 -1.3603  1.0582  1.1157
  739TMC3    C110969   1.827   1.112  14.896  0.2798  0.9047 -0.0033
  739TMC3    C210970   1.767   1.172  14.797  0.3289 -0.6538  0.3341
  739TMC3    C310971   1.829   1.196  14.679  0.0254  0.4626  0.7577
  739TMC3    C410972   1.960   1.077  14.889 -0.2134 -0.4404 -0.2145
  739TMC3    C510973   2.020   1.098  14.770  0.4365  0.4427 -0.3486
  739TMC3    C610974   1.959   1.156  14.664 -1.1419 -0.0592 -0.4318
  739TMC3     C10975   1.757   1.082  15.020 -0.1107  0.7515 -0.5111
  739TMC3     O10976   1.637   1.094  15.015 -0.1985  0.3718  0.3386
  739TMC3     H10977   1.666   1.208  14.815  2.0006  2.3097  3.7398
  739TMC3    H110978   2.015   1.024  14.967 -1.2333 -1.8137 -0.4368
  739TMC3    H210979   2.018   1.171  14.574  0.9724  1.0285  1.1543
  739TMC3    C710980   2.160   1.055  14.766  0.8629  0.2364 -0.4174
  739TMC3    C810981   1.750   1.255  14.572  0.7626  0.4470 -0.2281
  739TMC3    O110982   2.179   0.957  14.839 -0.2075 -0.3023  0.4421
  739TMC3    O210983   1.629   1.251  14.587 -0.0649 -0.0520  0.0202
  740TMC3    C110984   1.822   2.196  14.893  0.0656 -1.2075 -0.1636
  740TMC3    C210985   1.829   2.094  14.988 -0.1523 -0.3963 -0.0995
  740TMC3    C310986   1.956   2.066  15.031 -0.0015 -0.0833 -0.2131
  740TMC3    C410987   1.932   2.249  14.832 -0.4885 -0.1339 -0.9072
  740TMC3    C510988   2.057   2.206  14.878  0.3358  0.5165 -1.4921
  740TMC3    C610989   2.074   2.121  14.985  0.4117 -0.5222  0.5918
  740TMC3     C10990   1.700   2.216  14.825  0.5798  0.5123 -0.3947
  740TMC3     O10991   1.707   2.252  14.708  0.3313 -0.1635 -0.3597
  740TMC3     H10992   1.747   2.052  15.046  0.0890  1.7244  1.7554
  740TMC3    H110993   1.919   2.316  14.749 -0.5239 -1.7545 -2.2090
  740TMC3    H210994   2.172   2.093  15.023  0.8860  2.2081  1.3971
  740TMC3    C710995   2.182   2.245  14.807  0.1082 -0.0657  1.4411
  740TMC3    C810996   1.964   1.989  15.162 -0.1607 -0.6731 -0.4165
  740TMC3    O110997   2.280   2.239  14.877 -0.4786 -0.3373  0.1671
  740TMC3    O210998   2.059   1.909  15.171 -0.7745  0.1741  0.0786
  741TMC3    C110999   1.724   1.765  14.287  0.3451 -0.2741  0.2679
  741TMC3    C211000   1.594   1.717  14.272  0.3912  0.1292  0.4536
  741TMC3    C311001   1.553   1.625  14.374  0.1701  0.7318  0.2312
  741TMC3    C411002   1.809   1.735  14.387  0.3281 -0.3055 -0.3481
  741TMC3    C511003   1.758   1.650  14.482  0.4281 -0.6006 -0.5586
  741TMC3    C611004   1.634   1.596  14.485  0.3439  0.0907  0.4935
  741TMC3     C11005   1.787   1.829  14.175 -1.1075 -0.0171 -0.5713
  741TMC3     O11006   1.907   1.818  14.179 -0.3515  0.1664  0.3994
  741TMC3     H11007   1.529   1.736  14.188 -0.3960 -0.7230  0.8652
  741TMC3    H111008   1.911   1.773  14.390  0.8508 -1.8643  1.5454
  741TMC3    H211009   1.617   1.520  14.561  1.1303 -0.4659  0.1078
  741TMC3    C711010   1.835   1.603  14.598  0.1724  0.5714 -0.5185
  741TMC3    C811011   1.423   1.560  14.363 -0.2430 -0.2035 -0.2174
  741TMC3    O111012   1.770   1.562  14.696  0.2184  0.7885  0.0563
  741TMC3    O211013   1.353   1.607  14.276  0.3413  0.0757 -0.2109
  742TMC3    C111014   2.139   0.090  15.687  0.1699 -0.0546 -0.2391
  742TMC3    C211015   2.096   0.139  15.565  0.2649  0.2406 -0.5979
  742TMC3    C311016   2.088   0.042  15.470  0.4292  0.2043 -0.2113
  742TMC3    C411017   2.202   4.705  15.708 -0.1387 -0.5105 -0.5162
  742TMC3    C511018   2.207   4.622  15.594 -0.0167  0.4653 -0.2663
  742TMC3    C611019   2.150   4.658  15.476 -0.7300 -0.3061 -0.3085
  742TMC3     C11020   2.081   0.147  15.799 -0.5229 -0.3329  0.5617
  742TMC3     O11021   2.044   0.265  15.794 -0.2441 -0.9341  0.4042
  742TMC3     H11022   2.035   0.229  15.563  0.1607  0.2323  1.7240
  742TMC3    H111023   2.244   4.667  15.800 -1.3330  0.5044  0.4356
  742TMC3    H211024   2.167   4.596  15.388 -2.0205 -1.3273  0.1749
  742TMC3    C711025   2.277   4.496  15.586  0.4551 -0.1774 -0.0721
  742TMC3    C811026   2.005   0.076  15.357 -0.3340 -0.0177  0.7204
  742TMC3    O111027   2.270   4.423  15.489  0.1855  0.0961 -0.2724
  742TMC3    O211028   1.930   4.730  15.312 -0.6101 -0.4082  0.4188
  743MPD2     C11029   4.518   1.405   1.879  0.1881  0.4876  0.2516
  743MPD2    C111030   4.527   1.303   1.783 -0.6507  0.1784  0.4935
  743MPD2    C211031   4.644   1.228   1.780  0.0583 -0.4125 -0.2957
  743MPD2    C311032   0.011   1.266   1.855  0.2492  0.0860 -0.5007
  743MPD2    C411033   0.007   1.369   1.944  0.0058  0.5340 -0.2699
  743MPD2    C511034   4.633   1.437   1.948  0.4528 -0.9236 -0.5772
  743MPD2     H11035   4.653   1.150   1.706 -1.7600 -1.9557  1.0907
  743MPD2    H111036   0.091   1.394   2.008  1.0379 -0.2412 -1.2982
  743MPD2    H211037   4.433   1.468   1.899 -0.1939  0.7802 -2.2149
  743MPD2    H311038   4.616   1.496   2.037  1.4434 -0.7626 -0.4944
  743MPD2     N11039   0.125   1.186   1.830 -0.2837  0.7945  0.4297
  743MPD2    H511040   0.107   1.119   1.756 -0.5471 -1.0875  2.1821
  743MPD2    N111041   4.419   1.290   1.695  0.1841  0.0744 -0.2386
  743MPD2    H711042   4.348   1.362   1.684  0.4924  0.2475 -1.0507
  744TMC3    C111043   4.296   1.207   1.506 -0.1240 -0.0191 -0.3849
  744TMC3    C211044   4.193   1.287   1.534 -0.5948  0.5895 -0.1276
  744TMC3    C311045   4.089   1.283   1.450 -0.0938 -0.3225  0.7314
  744TMC3    C411046   4.296   1.123   1.395 -0.2180  0.5286  0.7085
  744TMC3    C511047   4.199   1.135   1.308  0.1427  0.0660  0.9029
  744TMC3    C611048   4.089   1.217   1.328  0.5145 -0.4591 -0.4845
  744TMC3     C11049   4.406   1.188   1.604 -0.3457  0.1971  0.0180
  744TMC3     O11050   4.464   1.082   1.592  0.7229 -0.6666 -0.0063
  744TMC3     H11051   4.186   1.336   1.631 -0.0475 -2.0480  1.2466
  744TMC3    H111052   4.377   1.052   1.385  0.7877  1.5909  1.3655
  744TMC3    H211053   4.001   1.212   1.265  1.5479  0.8517 -2.0176
  744TMC3    C711054   4.209   1.067   1.178 -0.2713  0.2859 -0.3177
  744TMC3    C811055   3.976   1.381   1.465 -0.6556  0.0730 -0.0694
  744TMC3    O111056   4.120   1.099   1.101  0.2371  0.4865 -0.0298
  744TMC3    O211057   4.007   1.499   1.485 -0.5482 -0.4729 -0.2752
  745TMC3    C111058   2.333   4.491  14.443  0.2615  0.6184  0.1204
  745TMC3    C211059   2.293   4.498  14.576  0.1165 -0.4457  0.6019
  745TMC3    C311060   2.168   4.488  14.608 -0.2791 -0.3035  0.2059
  745TMC3    C411061   2.243   4.480  14.344  0.9193  0.5671  0.2850
  745TMC3    C511062   2.107   4.478  14.372 -0.0084 -0.0595 -0.5931
  745TMC3    C611063   2.074   4.481  14.509  0.0954 -0.2657 -0.1395
  745TMC3     C11064   2.474   4.520  14.408  0.0204 -0.3277  0.9414
  745TMC3     O11065   2.558   4.497  14.489 -0.0352 -0.2800  0.7045
  745TMC3     H11066   2.367   4.527  14.650  0.8639 -1.7829  0.3756
  745TMC3    H111067   2.281   4.470  14.243 -0.3653 -0.2297 -0.1133
  745TMC3    H211068   1.968   4.479  14.530  0.1381  2.5150  0.2732
  745TMC3    C711069   2.028   4.549  14.273  0.3095 -0.5485  0.7866
  745TMC3    C811070   2.121   4.590  14.707  0.2136 -0.1218 -0.0555
  745TMC3    O111071   1.933   4.614  14.315  0.7004  0.1865 -0.0587
  745TMC3    O211072   2.013   4.563  14.760  0.2170  0.3428 -0.4620
  746TMC3    C111073   4.115   1.021  11.497  0.1852  0.7519  0.1495
  746TMC3    C211074   4.238   0.982  11.442 -0.6057 -0.0768 -0.0507
  746TMC3    C311075   4.239   0.901  11.328 -1.1145 -0.3296  0.6131
  746TMC3    C411076   4.001   0.961  11.458  0.7983  0.2074  0.1512
  746TMC3    C511077   4.005   0.885  11.348  0.0562 -0.2788 -0.8023
  746TMC3    C611078   4.120   0.862  11.272 -0.8495 -0.1114  0.3195
  746TMC3     C11079   4.096   1.164  11.530  0.3020 -0.0731 -0.6906
  746TMC3     O11080   3.987   1.203  11.573  0.4424 -0.3052 -0.4480
  746TMC3     H11081   4.332   1.025  11.475 -0.2137  0.2114 -1.5373
  746TMC3    H111082   3.906   0.992  11.502  1.9095  1.7460  1.4472
  746TMC3    H211083   4.109   0.799  11.185  1.1230 -0.1211  0.0890
  746TMC3    C711084   3.881   0.853  11.289  0.0291 -0.5155 -0.4420
  746TMC3    C811085   4.358   0.893  11.256 -0.1986  0.4272 -0.1303
  746TMC3    O111086   3.864   0.862  11.167 -0.2620 -0.3085  0.4868
  746TMC3    O211087   4.464   0.904  11.317  0.1757 -0.1478  0.7774
  747TMC3    C111088   1.123   1.523  11.280 -0.4546  0.5542  0.2350
  747TMC3    C211089   1.072   1.420  11.349  0.5320  0.3469 -0.0389
  747TMC3    C311090   1.089   1.427  11.488  0.1763 -0.0929  0.4892
  747TMC3    C411091   1.195   1.626  11.335 -0.0584 -0.2706 -0.0977
  747TMC3    C511092   1.215   1.621  11.470 -0.3174  0.0639  0.1742
  747TMC3    C611093   1.161   1.523  11.552 -0.5161 -0.5083 -0.3349
  747TMC3     C11094   1.073   1.556  11.143 -0.5537 -1.2365  0.2657
  747TMC3     O11095   1.018   1.666  11.126  0.5866 -0.1049 -0.8575
  747TMC3     H11096   1.005   1.346  11.305  4.0011 -2.5473 -0.5085
  747TMC3    H111097   1.218   1.714  11.277 -0.9704  0.7887  1.1808
  747TMC3    H211098   1.204   1.513  11.651  1.2410  1.4118 -0.9257
  747TMC3    C711099   1.286   1.728  11.538  0.6643 -0.0920  0.1777
  747TMC3    C811100   1.025   1.322  11.563  0.3820 -0.8523  0.5472
  747TMC3    O111101   1.247   1.750  11.653  0.7061 -0.5866  0.1582
  747TMC3    O211102   1.028   1.213  11.505  0.2923 -0.0295  0.3359
  748MPD2     C11103   3.909   1.936   1.118  0.0255 -0.2241  0.0724
  748MPD2    C111104   3.914   2.031   1.219 -0.1352  0.1099  0.8885
  748MPD2    C211105   3.891   2.163   1.178  0.2980 -1.0119 -0.4349
  748MPD2    C311106   3.841   2.193   1.056  0.0886 -0.7434  0.4075
  748MPD2    C411107   3.825   2.091   0.963 -0.0413  0.0642 -0.0276
  748MPD2    C511108   3.862   1.967   0.993  0.4014 -0.1521 -0.2246
  748MPD2     H11109   3.892   2.242   1.251 -0.1100 -1.2269 -0.1952
  748MPD2    H111110   3.791   2.110   0.862 -4.0052 -0.5795  1.2131
  748MPD2    H211111   3.931   1.831   1.135 -1.1209 -0.2268  1.6293
  748MPD2    H311112   3.850   1.890   0.917 -1.0302  0.0859 -0.2505
  748MPD2     N11113   3.818   2.331   1.028  0.0445  0.0500 -0.8484
  748MPD2    H511114   3.848   2.399   1.096  0.5362  1.5477 -2.5553
  748MPD2    N111115   3.958   2.003   1.352  0.7294  0.5407  0.1657
  748MPD2    H711116   3.989   1.907   1.366 -0.3249  0.2205  0.3592
  749TMC3    C111117   3.799   2.533   0.899  0.3366  0.6162  1.1507
  749TMC3    C211118   3.809   2.591   1.022  0.3044  0.1592  0.4006
  749TMC3    C311119   3.875   2.710   1.021 -0.0813  0.1020  0.6427
  749TMC3    C411120   3.841   2.586   0.781  0.1080 -0.1677  0.5379
  749TMC3    C511121   3.906   2.702   0.787 -0.2914 -0.1664 -0.3532
  749TMC3    C611122   3.931   2.757   0.909 -0.4787 -0.7566 -0.5156
  749TMC3     C11123   3.785   2.390   0.909  0.1711  0.4689  0.2535
  749TMC3     O11124   3.767   2.329   0.808 -0.2572  0.0502  0.6397
  749TMC3     H11125   3.754   2.566   1.112  1.1724  0.2991  0.9718
  749TMC3    H111126   3.828   2.528   0.691 -1.4846  2.7222 -1.1171
  749TMC3    H211127   3.987   2.849   0.917 -0.9362 -0.2744 -2.8341
  749TMC3    C711128   3.940   2.783   0.678 -0.3611 -0.0531  0.6097
  749TMC3    C811129   3.960   2.724   1.133  0.2764  0.3560 -0.0190
  749TMC3    O111130   4.026   2.867   0.694 -0.0310  0.6095 -0.4213
  749TMC3    O211131   3.920   2.781   1.233  0.2842 -0.1865 -0.2122
  750MPD2     C11132   4.044   3.133  11.767  0.2616  0.2100 -0.4416
  750MPD2    C111133   3.945   3.039  11.750 -0.1369  0.9458 -0.0476
  750MPD2    C211134   3.979   2.928  11.672 -0.1606  0.3634 -0.0119
  750MPD2    C311135   4.097   2.907  11.616 -0.2195  0.7765  0.9162
  750MPD2    C411136   4.197   3.001  11.631 -0.4151  0.0725 -0.7884
  750MPD2    C511137   4.172   3.111  11.710  0.1706  0.4779  0.3163
  750MPD2     H11138   3.902   2.856  11.648  0.8725 -0.4331 -0.8954
  750MPD2    H111139   4.297   2.983  11.593 -0.3270  0.6442 -0.8209
  750MPD2    H211140   4.023   3.230  11.812  2.3464 -0.5957  2.2932
  750MPD2    H311141   4.243   3.193  11.708 -0.0219  0.6615  1.1415
  750MPD2     N11142   4.112   2.792  11.541 -0.0468  0.8325 -0.3738
  750MPD2    H511143   4.039   2.722  11.533 -1.2795  2.4440 -3.3581
  750MPD2    N111144   3.815   3.066  11.800 -0.0061 -0.9346  0.1872
  750MPD2    H711145   3.803   3.158  11.842 -2.4503 -0.7501 -0.9307
  751TMC3    C111146   4.182   2.663  11.357 -0.1471 -0.1130 -0.4665
  751TMC3    C211147   4.095   2.570  11.399 -0.1915 -0.4393 -0.0009
  751TMC3    C311148   4.045   2.475  11.311  0.2933 -0.4627 -0.3144
  751TMC3    C411149   4.232   2.659  11.232 -0.2028 -0.0367  0.1686
  751TMC3    C511150   4.192   2.564  11.148  0.1149  0.0291 -0.0477
  751TMC3    C611151   4.093   2.473  11.184  0.4749  0.3524 -0.1600
  751TMC3     C11152   4.208   2.777  11.445 -0.5034  0.0915  0.7040
  751TMC3     O11153   4.283   2.857  11.404 -0.6015  0.5112  0.0054
  751TMC3     H11154   4.068   2.555  11.503  1.0155  1.5898  0.6108
  751TMC3    H111155   4.309   2.728  11.199  0.0868 -1.5260 -2.2321
  751TMC3    H211156   4.038   2.409  11.115  2.0575 -0.9182 -0.2306
  751TMC3    C711157   4.236   2.569  11.006 -0.3416  0.1931 -0.1146
  751TMC3    C811158   3.947   2.372  11.342 -0.2885 -0.4402 -0.0840
  751TMC3    O111159   4.292   2.672  10.967  0.8399 -0.2933 -0.3704
  751TMC3    O211160   3.956   2.273  11.269 -0.3366 -0.3945  0.1495
  752TMC3    C111161   3.062   4.042  17.600 -0.4605 -1.2535  0.5154
  752TMC3    C211162   3.055   3.911  17.629  0.1807  0.2413 -0.0945
  752TMC3    C311163   2.961   3.878  17.725  0.0136  0.2205 -0.3286
  752TMC3    C411164   3.001   4.141  17.673 -0.3535  0.5835 -0.2124
  752TMC3    C511165   2.922   4.107   0.016  0.0124  0.0108 -0.0547
  752TMC3    C611166   2.892   3.975   0.038 -0.1750  0.2140 -0.7008
  752TMC3     C11167   3.124   4.085  17.474 -0.2384 -0.3409  0.5235
  752TMC3     O11168   3.190   4.190  17.480  0.4967  0.6501  0.0553
  752TMC3     H11169   3.112   3.835  17.576 -0.4302 -0.5139  0.3220
  752TMC3    H111170   3.017   4.247  17.658 -0.0840  0.6861  0.8002
  752TMC3    H211171   2.818   3.946   0.111 -0.0637  0.1305 -0.6197
  752TMC3    C711172   2.861   4.211   0.101 -0.3696  0.1736  0.8129
  752TMC3    C811173   2.949   3.746   0.017  0.4374  0.1867  0.3602
  752TMC3    O111174   2.939   4.299   0.130 -0.3885  0.3102 -0.2391
  752TMC3    O211175   2.896   3.750   0.130 -0.0358  0.0199 -0.1495
  753TMC3    C111176   0.263   4.431  13.649  0.3003  0.1140  0.8591
  753TMC3    C211177   0.355   4.439  13.755  0.2225  0.0586 -0.1487
  753TMC3    C311178   0.428   4.329  13.781  0.1061  0.2921 -0.6265
  753TMC3    C411179   0.244   4.309  13.584 -0.7181 -0.8983 -0.5585
  753TMC3    C511180   0.319   4.203  13.620 -0.3615  0.2600  0.2295
  753TMC3    C611181   0.415   4.211  13.718 -0.2875  0.2052 -0.0581
  753TMC3     C11182   0.185   4.539  13.604  0.2747  0.5909  0.3811
  753TMC3     O11183   0.090   4.514  13.530 -0.1087  0.1876 -0.7280
  753TMC3     H11184   0.359   4.526  13.819  2.7970  0.3839 -0.7673
  753TMC3    H111185   0.173   4.300  13.503  0.0303 -1.2462 -1.1754
  753TMC3    H211186   0.472   4.123  13.745 -0.5002  0.3338  0.8038
  753TMC3    C711187   0.243   4.078  13.615  0.0457  0.4055  0.0836
  753TMC3    C811188   0.544   4.337  13.872  0.1028 -0.2455  0.2012
  753TMC3    O111189   0.149   4.052  13.537  0.3347 -1.4853  0.2650
  753TMC3    O211190   0.607   4.237  13.894  0.2325  0.1846 -0.4704
  754MPD2     C11191   3.804   3.082  13.776 -0.3863  0.3840 -0.0062
  754MPD2    C111192   3.731   2.969  13.791  0.5482  0.6844 -0.3620
  754MPD2    C211193   3.655   2.918  13.686  0.0099  0.3235 -0.1501
  754MPD2    C311194   3.617   3.008  13.585  0.3802  0.0085 -0.3870
  754MPD2    C411195   3.679   3.134  13.580  0.7285  0.0453 -0.4410
  754MPD2    C511196   3.777   3.165  13.672 -0.1042 -0.3108  0.3226
  754MPD2     H11197   3.620   2.815  13.683 -0.7216  0.5931 -0.8816
  754MPD2    H111198   3.654   3.201  13.499 -0.1925 -1.8727 -1.7221
  754MPD2    H211199   3.879   3.104  13.852 -2.7411 -1.2627  2.7502
  754MPD2    H311200   3.826   3.262  13.668  1.2047 -0.9350  1.3961
  754MPD2     N11201   3.527   2.971  13.484  0.6649 -0.0875 -0.2125
  754MPD2    H511202   3.506   3.049  13.423  2.3072  1.8789  1.7034
  754MPD2    N111203   3.725   2.906  13.922 -0.6095 -0.0364  0.5336
  754MPD2    H711204   3.807   2.931  13.976 -0.2941  1.1523 -0.4828
  755MPD2     C11205   2.858   3.500  13.360  0.6879 -0.0423 -0.9131
  755MPD2    C111206   2.795   3.382  13.336  0.5883 -0.8086  0.3887
  755MPD2    C211207   2.865   3.273  13.326 -0.6170  0.0882 -0.3171
  755MPD2    C311208   2.999   3.263  13.357  0.6715  0.1262  0.3152
  755MPD2    C411209   3.064   3.387  13.383 -0.2067  0.4604  0.8183
  755MPD2    C511210   2.992   3.506  13.378  0.0771  0.9291 -0.2706
  755MPD2     H11211   2.812   3.183  13.299 -1.2848  0.3675  0.0766
  755MPD2    H111212   3.172   3.392  13.392 -0.0039 -1.9114 -0.3175
  755MPD2    H211213   2.816   3.596  13.334 -0.4172  0.0239  1.1167
  755MPD2    H311214   3.045   3.600  13.389  0.6857  0.3908  1.4837
  755MPD2     N11215   3.079   3.148  13.352  0.2351  0.1288 -0.3709
  755MPD2    H511216   3.180   3.154  13.353  0.1982  0.7827 -0.4409
  755MPD2    N111217   2.654   3.369  13.325 -0.5363  0.0661 -0.0558
  755MPD2    H711218   2.608   3.284  13.295  1.2875 -0.2318 -1.9836
  756MPD2     C11219   4.011   3.771  10.205 -0.0090  0.0443 -0.0245
  756MPD2    C111220   3.927   3.672  10.234 -0.2469  0.2108 -0.5002
  756MPD2    C211221   3.793   3.692  10.212 -0.8378 -0.8235  0.8631
  756MPD2    C311222   3.741   3.811  10.147  0.3775  0.0430 -0.9082
  756MPD2    C411223   3.832   3.903  10.105  0.8068 -0.7201  0.3279
  756MPD2    C511224   3.959   3.886  10.150 -0.1573  0.3311 -0.1659
  756MPD2     H11225   3.727   3.609  10.232 -1.3951 -0.1850  1.6922
  756MPD2    H111226   3.801   3.988  10.046  1.4628 -0.5342  0.2496
  756MPD2    H211227   4.117   3.770  10.228  0.0577 -0.0283 -0.3387
  756MPD2    H311228   4.022   3.974  10.138  0.1015 -0.1100 -2.0162
  756MPD2     N11229   3.605   3.814  10.116  0.7159  0.0225 -0.3797
  756MPD2    H511230   3.547   3.734  10.140  0.0575  0.1540 -1.5039
  756MPD2    N111231   3.967   3.556  10.302 -0.4310  0.0774 -0.4868
  756MPD2    H711232   3.895   3.503  10.350 -0.1481 -0.3863 -0.5773
  757MPD2     C11233   2.918   3.282  10.297  0.0552  0.3342 -0.4104
  757MPD2    C111234   3.049   3.278  10.272 -0.2093  0.6123 -0.0351
  757MPD2    C211235   3.119   3.393  10.231  0.5591  0.7354  0.2724
  757MPD2    C311236   3.053   3.514  10.228  0.7419 -0.1526 -0.5062
  757MPD2    C411237   2.918   3.514  10.233  0.2985  0.2879  0.1441
  757MPD2    C511238   2.848   3.406  10.273 -0.0841 -0.0902 -0.2719
  757MPD2     H11239   3.226   3.393  10.214  0.9001 -1.1650  2.4738
  757MPD2    H111240   2.856   3.598  10.206 -3.2660 -1.7141  2.0092
  757MPD2    H211241   2.868   3.198  10.344  0.7432 -0.0703 -0.4121
  757MPD2    H311242   2.744   3.419  10.299  0.0748  0.1157  0.2748
  757MPD2     N11243   3.133   3.618  10.184  0.3973 -0.2815  0.2088
  757MPD2    H511244   3.230   3.593  10.171  0.6071 -0.6329  2.4439
  757MPD2    N111245   3.113   3.153  10.295 -0.4491  0.1979 -0.0955
  757MPD2    H711246   3.052   3.074  10.312  0.9562 -1.0625 -0.9113
  758MPD2     C11247   3.771   2.732  15.878 -0.1541  0.7505  0.2107
  758MPD2    C111248   3.847   2.701  15.988  0.2465 -0.0186  0.1749
  758MPD2    C211249   3.782   2.687  16.108  0.6776 -0.2387  1.0323
  758MPD2    C311250   3.645   2.679  16.113 -0.3466  0.4292 -0.4607
  758MPD2    C411251   3.570   2.718  16.003  0.1060  0.0076 -0.5312
  758MPD2    C511252   3.639   2.743  15.881 -0.0093  0.2484  0.7138
  758MPD2     H11253   3.842   2.680  16.198 -0.4652  0.7544  1.8786
  758MPD2    H111254   3.463   2.734  16.014  0.6073  2.0352  1.4300
  758MPD2    H211255   3.821   2.755  15.785  1.2975 -3.1131  0.0467
  758MPD2    H311256   3.588   2.757  15.786  0.2535 -2.1460  0.2246
  758MPD2     N11257   3.580   2.671  16.242  0.1803 -0.2200 -0.3258
  758MPD2    H511258   3.488   2.714  16.240 -0.1116 -0.8372 -0.0762
  758MPD2    N111259   3.984   2.683  15.966 -0.2626  0.5259 -0.1534
  758MPD2    H711260   4.026   2.686  15.874  2.3626 -0.7249  1.0020
  759MPD2     C11261   2.395   0.933  10.951 -0.2070  0.0044 -0.6060
  759MPD2    C111262   2.324   1.004  10.858  0.0240  0.6035  0.4373
  759MPD2    C211263   2.400   1.054  10.743 -0.1224 -0.2473 -0.4116
  759MPD2    C311264   2.534   1.027  10.740  0.1638  0.0442 -0.2242
  759MPD2    C411265   2.594   0.940  10.829  0.0624 -0.8238  0.2796
  759MPD2    C511266   2.525   0.896  10.943  0.5209  0.5312  0.5115
  759MPD2     H11267   2.354   1.117  10.668 -0.1759 -1.1180 -1.1181
  759MPD2    H111268   2.699   0.916  10.821  0.4453  1.5919 -1.8729
  759MPD2    H211269   2.339   0.893  11.035  1.3398  0.7646  0.7936
  759MPD2    H311270   2.577   0.829  11.011 -0.5951 -1.5014 -0.6234
  759MPD2     N11271   2.606   1.086  10.636 -0.1860 -0.2980  0.0040
  759MPD2    H511272   2.562   1.152  10.573  1.0083 -1.7352 -2.3444
  759MPD2    N111273   2.186   1.025  10.879 -0.2833  0.2567  0.7295
  759MPD2    H711274   2.142   0.996  10.965 -0.4720  0.3766  0.6719
  760MPD2     C11275   2.306   2.817  11.986 -0.3340 -0.5603  0.0693
  760MPD2    C111276   2.399   2.904  11.926  0.2455  0.8627 -0.0678
  760MPD2    C211277   2.498   2.847  11.850 -0.4715  0.0224 -0.0580
  760MPD2    C311278   2.510   2.711  11.834 -0.0679 -0.1354  0.0192
  760MPD2    C411279   2.422   2.625  11.904  0.5743  0.7302 -0.2053
  760MPD2    C511280   2.324   2.679  11.977 -0.4517  0.2374 -0.4244
  760MPD2     H11281   2.571   2.911  11.801 -0.2163  0.3380  0.7444
  760MPD2    H111282   2.434   2.517  11.906  0.1999  0.6874 -0.2761
  760MPD2    H211283   2.222   2.851  12.045  0.3960  0.0983  0.7255
  760MPD2    H311284   2.255   2.621  12.038  0.8401 -0.7511  0.0925
  760MPD2     N11285   2.613   2.655  11.753 -0.1387  0.7999 -0.6971
  760MPD2    H511286   2.620   2.554  11.751  2.7406  0.9475  1.7024
  760MPD2    N111287   2.390   3.047  11.937  0.5230  0.1900  0.1430
  760MPD2    H711288   2.464   3.103  11.896  0.3669  2.8276  3.5315
  761MPD2     C11289   3.502   2.214  11.524 -0.1150 -0.0483  0.1097
  761MPD2    C111290   3.583   2.152  11.431  0.0237  0.2851  0.0679
  761MPD2    C211291   3.703   2.222  11.401  0.6806 -0.2873 -0.3557
  761MPD2    C311292   3.731   2.344  11.457 -0.4656 -0.6736 -0.6910
  761MPD2    C411293   3.641   2.399  11.550 -0.0102  0.9984  0.3307
  761MPD2    C511294   3.531   2.331  11.587 -1.0193 -0.0796 -0.0002
  761MPD2     H11295   3.776   2.169  11.342  0.1545 -0.2127 -1.0789
  761MPD2    H111296   3.670   2.495  11.591 -0.1867 -0.0602  2.9364
  761MPD2    H211297   3.411   2.162  11.553 -0.7176  0.2912 -1.1828
  761MPD2    H311298   3.471   2.379  11.665  0.6334  1.1336  0.5313
  761MPD2     N11299   3.856   2.405  11.437  0.2201  0.3907  0.0855
  761MPD2    H511300   3.868   2.496  11.479 -0.1726  1.1471 -1.4435
  761MPD2    N111301   3.548   2.025  11.378 -0.1285  0.2064  0.1508
  761MPD2    H711302   3.456   1.988  11.396 -0.3331  0.8045  0.3359
  762MPD2     C11303   3.532   1.340  10.708  0.3477 -0.5950  0.1335
  762MPD2    C111304   3.612   1.442  10.763 -0.5236  0.0647  0.0726
  762MPD2    C211305   3.739   1.456  10.717 -0.1480  0.6438 -0.2659
  762MPD2    C311306   3.776   1.375  10.611  0.5953 -0.1685 -0.2694
  762MPD2    C411307   3.696   1.268  10.562  0.2136 -0.2027 -0.3109
  762MPD2    C511308   3.571   1.249  10.611  0.3237  0.5731  0.3705
  762MPD2     H11309   3.813   1.524  10.757  0.0547  0.8126 -0.9217
  762MPD2    H111310   3.738   1.198  10.491  0.2769 -1.0716  0.5905
  762MPD2    H211311   3.430   1.324  10.742  0.8080 -1.8875  0.9082
  762MPD2    H311312   3.513   1.167  10.571  0.7544  0.8860 -0.8710
  762MPD2     N11313   3.904   1.407  10.559  0.1112  0.5435 -0.0452
  762MPD2    H511314   3.946   1.492  10.596  2.5784  0.0456 -1.6593
  762MPD2    N111315   3.562   1.523  10.874 -0.1211 -0.1357 -0.0621
  762MPD2    H711316   3.465   1.512  10.903 -0.2939  0.0012 -0.5970
  763MPD2     C11317   1.068   2.465  16.809  0.4638 -0.4055 -0.1057
  763MPD2    C111318   0.964   2.542  16.757  0.2815  0.1036  0.2082
  763MPD2    C211319   0.937   2.667  16.815  0.2012 -0.2305  0.4613
  763MPD2    C311320   1.016   2.712  16.921 -0.3787  0.4413  0.2380
  763MPD2    C411321   1.116   2.630  16.973 -0.7293  0.3253 -0.1136
  763MPD2    C511322   1.142   2.510  16.918 -0.0460 -1.1214  0.5875
  763MPD2     H11323   0.858   2.726  16.771  0.3698  1.4732  2.4706
  763MPD2    H111324   1.178   2.665  17.055 -0.3111 -0.8671  0.0755
  763MPD2    H211325   1.093   2.372  16.759 -0.7194 -1.1491  0.6996
  763MPD2    H311326   1.232   2.461  16.953  0.5112 -0.6247 -0.1399
  763MPD2     N11327   1.000   2.844  16.971  0.0706 -0.0496  0.1936
  763MPD2    H511328   1.071   2.876  17.037 -0.1543  0.5822  0.1293
  763MPD2    N111329   0.912   2.508  16.634  0.2294 -0.4545  0.5652
  763MPD2    H711330   0.856   2.583  16.596  1.0097  0.1900  0.6894
  764MPD2     C11331   3.736   3.952  17.420 -0.0918  0.3921 -0.0471
  764MPD2    C111332   3.645   4.058  17.420  0.3197  0.7264 -0.4012
  764MPD2    C211333   3.614   4.113  17.537  0.3194 -1.2235 -0.5882
  764MPD2    C311334   3.675   4.069  17.655  0.8568  0.3142  0.0950
  764MPD2    C411335   3.762   3.959  17.652  0.5625  0.3948 -0.4454
  764MPD2    C511336   3.795   3.898  17.533 -0.7480  0.3368 -0.2959
  764MPD2     H11337   3.546   4.197  17.538  0.4347 -1.1137 -1.4535
  764MPD2    H111338   3.813   3.917  17.738  0.1307 -0.0581 -0.4163
  764MPD2    H211339   3.765   3.903  17.327 -3.5114  0.5531 -1.1827
  764MPD2    H311340   3.852   3.805  17.530 -1.9983 -0.4592  0.6827
  764MPD2     N11341   3.657   4.133   0.029 -0.0675  0.0265 -0.2902
  764MPD2    H511342   3.674   4.080   0.114 -3.0681  0.6073  0.6778
  764MPD2    N111343   3.591   4.100  17.295  0.0841 -0.3762 -0.2025
  764MPD2    H711344   3.593   4.033  17.219 -1.0771 -0.9650  0.2801
  765MPD2     C11345   3.871   2.288  15.154 -0.3045 -0.3737 -0.5973
  765MPD2    C111346   3.911   2.374  15.252  0.4405 -0.1230 -0.2110
  765MPD2    C211347   4.013   2.331  15.345  0.3460  0.6016  0.8355
  765MPD2    C311348   4.060   2.198  15.337  0.5832  0.1005 -0.9001
  765MPD2    C411349   4.024   2.118  15.236  0.1361 -0.7441 -0.6265
  765MPD2    C511350   3.931   2.166  15.149  0.0468  0.5860  0.2658
  765MPD2     H11351   4.047   2.396  15.425  0.1894  1.6969  0.0182
  765MPD2    H111352   4.051   2.014  15.221  0.7605 -0.3142 -2.5636
  765MPD2    H211353   3.797   2.304  15.075  0.8967  1.2351 -1.4036
  765MPD2    H311354   3.899   2.103  15.068 -1.3086 -0.2486  1.4510
  765MPD2     N11355   4.141   2.155  15.446  0.1187 -0.2115  0.4684
  765MPD2    H511356   4.176   2.230  15.505  1.6786  1.4041 -2.5177
  765MPD2    N111357   3.840   2.495  15.272  0.4570  0.0916 -0.2717
  765MPD2    H711358   3.750   2.503  15.225  0.5542  0.6634 -0.3617
  766MPD2     C11359   3.151   2.613  15.368 -0.0916  0.4314 -0.2089
  766MPD2    C111360   3.259   2.595  15.287 -0.4617 -1.0980  1.0426
  766MPD2    C211361   3.239   2.556  15.157 -0.2977 -0.0768  0.1992
  766MPD2    C311362   3.114   2.527  15.101  0.0726  0.1279  0.5143
  766MPD2    C411363   3.010   2.542  15.184  0.3220 -0.8101 -0.0061
  766MPD2    C511364   3.029   2.580  15.322 -0.1767 -0.1476 -0.2674
  766MPD2     H11365   3.321   2.538  15.089 -2.0523 -1.3130 -1.5809
  766MPD2    H111366   2.907   2.541  15.151  0.3194 -1.4534  0.0121
  766MPD2    H211367   3.160   2.645  15.471 -0.0195 -1.1844  0.2867
  766MPD2    H311368   2.936   2.582  15.378  1.1871  0.0632  1.9611
  766MPD2     N11369   3.096   2.503  14.966  0.2477 -0.3382 -0.2266
  766MPD2    H511370   3.004   2.521  14.927  0.8422  0.7842 -1.1148
  766MPD2    N111371   3.389   2.632  15.321  0.6346  0.5644 -0.5478
  766MPD2    H711372   3.460   2.586  15.266  0.9009 -0.2273  0.4429
  767MPD2     C11373   2.826   2.864  15.348 -0.0728  1.2815  0.3058
  767MPD2    C111374   2.869   2.871  15.220 -0.5634  0.8453  0.2818
  767MPD2    C211375   2.804   2.798  15.121  0.1279 -0.1457  0.0370
  767MPD2    C311376   2.699   2.714  15.158  0.2833  0.1998  0.4791
  767MPD2    C411377   2.666   2.699  15.292  0.2649  0.8024  0.2006
  767MPD2    C511378   2.732   2.773  15.380  0.4377  0.6517  0.0013
  767MPD2     H11379   2.825   2.800  15.014  0.4828 -0.2901  0.1053
  767MPD2    H111380   2.596   2.623  15.325  0.2348  1.0565  0.7306
  767MPD2    H211381   2.880   2.926  15.419  0.5484  2.7055 -1.4202
  767MPD2    H311382   2.686   2.765  15.478 -3.3738 -2.7615 -2.0718
  767MPD2     N11383   2.642   2.643  15.053 -0.3054  0.5958 -0.1969
  767MPD2    H511384   2.685   2.649  14.962  1.9854 -0.1930  0.8276
  767MPD2    N111385   2.991   2.935  15.199  0.0731  0.3923 -0.2258
  767MPD2    H711386   3.034   2.978  15.281  0.9138 -0.2370 -0.3398
  768MPD2     C11387   3.906   0.692  10.853  0.3360  0.6405  0.0629
  768MPD2    C111388   3.833   0.592  10.912  1.0042  0.3940 -0.4660
  768MPD2    C211389   3.887   0.527  11.022 -0.0086 -0.0756 -0.0860
  768MPD2    C311390   4.015   0.553  11.063  1.0502  0.3439 -0.0758
  768MPD2    C411391   4.089   0.647  11.002  0.4150 -0.3644 -0.0531
  768MPD2    C511392   4.033   0.722  10.901 -0.6266 -0.5007 -0.0444
  768MPD2     H11393   3.829   0.451  11.074  0.3695  1.1299  2.0810
  768MPD2    H111394   4.191   0.655  11.037  0.6001  0.0930 -0.6928
  768MPD2    H211395   3.868   0.747  10.768 -1.4631 -0.0757  0.3983
  768MPD2    H311396   4.101   0.797  10.860  0.1280 -1.2936 -0.2284
  768MPD2     N11397   4.081   0.489  11.168  0.5841 -0.0369 -0.1519
  768MPD2    H511398   4.177   0.519  11.183  0.0628  0.7837  1.5162
  768MPD2    N111399   3.705   0.552  10.872  0.1571  0.2208  0.4925
  768MPD2    H711400   3.665   0.480  10.932  0.8364 -0.0119  0.6642
  769MPD2     C11401   4.572   3.784  14.993 -0.5331  0.4814  0.2431
  769MPD2    C111402   4.562   3.919  14.994 -0.6925  0.3136 -0.1208
  769MPD2    C211403   4.655   3.991  15.075  0.7097  0.6755 -0.5772
  769MPD2    C311404   0.004   3.928  15.160 -0.3128 -0.3940 -0.6356
  769MPD2    C411405   0.003   3.787  15.160 -0.2194 -0.3424 -0.0291
  769MPD2    C511406   4.665   3.714  15.069  0.1914  0.2877  0.8964
  769MPD2     H11407   4.665   4.099  15.075 -0.2943  0.7705 -0.9236
  769MPD2    H111408   0.079   3.732  15.216 -0.8437 -1.2705 -0.0937
  769MPD2    H211409   4.504   3.727  14.932  0.2091 -1.1228  0.9224
  769MPD2    H311410   4.679   3.607  15.056 -2.1683  0.0517  0.3595
  769MPD2     N11411   0.098   4.006  15.240 -0.2080 -0.0097  0.5495
  769MPD2    H511412   0.095   4.107  15.235  0.8371  0.1076  2.2082
  769MPD2    N111413   4.469   3.986  14.908 -0.2495  0.0276  0.2229
  769MPD2    H711414   4.418   3.930  14.841 -0.5357 -1.6870  1.8649
  770MPD2     C11415   3.918   3.758  15.151 -0.6288 -0.1182 -0.5065
  770MPD2    C111416   4.059   3.756  15.132  0.4877  0.5968 -0.5653
  770MPD2    C211417   4.126   3.867  15.086 -1.1786 -0.6177  0.0729
  770MPD2    C311418   4.053   3.985  15.069 -0.6464  0.5475 -0.4680
  770MPD2    C411419   3.922   3.984  15.102  0.0570  0.5953  0.8254
  770MPD2    C511420   3.855   3.874  15.137  0.6427 -0.4221  0.1828
  770MPD2     H11421   4.230   3.850  15.061 -0.6077  1.4715  1.0916
  770MPD2    H111422   3.866   4.077  15.099  0.3919  0.8330  1.7913
  770MPD2    H211423   3.862   3.674  15.190 -2.0482  1.3891  0.6842
  770MPD2    H311424   3.749   3.878  15.160  1.0727  0.2442  2.0373
  770MPD2     N11425   4.116   4.091  15.002  0.0571 -0.1954 -0.3630
  770MPD2    H511426   4.217   4.083  15.001  0.0406 -0.3652 -1.5240
  770MPD2    N111427   4.125   3.637  15.160 -0.1300  0.7992  0.7168
  770MPD2    H711428   4.062   3.558  15.170  1.5401 -0.1764  3.5695
  771MPD2     C11429   0.714   2.053  13.830  0.2229 -0.4539 -0.4433
  771MPD2    C111430   0.631   2.142  13.765  0.6314 -0.3739 -0.3893
  771MPD2    C211431   0.535   2.089  13.676  1.1274  0.2283  0.2256
  771MPD2    C311432   0.534   1.956  13.643  0.0282  0.4481 -0.0384
  771MPD2    C411433   0.623   1.870  13.707  0.3162 -0.2147  0.4958
  771MPD2    C511434   0.714   1.922  13.798  0.0435  0.4644 -0.0695
  771MPD2     H11435   0.474   2.157  13.618  3.1318  0.8504 -1.1569
  771MPD2    H111436   0.624   1.764  13.685  1.1748 -0.3531  1.2398
  771MPD2    H211437   0.794   2.087  13.895 -2.2176 -2.0951  3.3926
  771MPD2    H311438   0.792   1.857  13.838 -0.5096  0.3803  0.8906
  771MPD2     N11439   0.459   1.917  13.528  0.2017  0.1760  0.6443
  771MPD2    H511440   0.412   1.995  13.485 -1.5233 -0.8857  0.5965
  771MPD2    N111441   0.640   2.280  13.791  0.5505 -0.2401 -0.3420
  771MPD2    H711442   0.565   2.337  13.753  1.8117  1.2517 -0.6262
  772MPD2     C11443   0.187   2.697  13.683 -0.0531  0.1972  0.4552
  772MPD2    C111444   0.234   2.668  13.813  0.2642  0.3360  0.8297
  772MPD2    C211445   0.142   2.635  13.911  0.3959  0.0482  0.2599
  772MPD2    C311446   0.007   2.628  13.883  0.9705 -0.2194  0.4292
  772MPD2    C411447   4.703   2.643  13.753  0.2893 -0.0720  0.1208
  772MPD2    C511448   0.054   2.682  13.660 -0.4198 -0.4067 -0.7446
  772MPD2     H11449   0.181   2.610  14.009 -0.8898  0.4490  0.8765
  772MPD2    H111450   4.598   2.628  13.732  1.4533 -2.7311 -3.8488
  772MPD2    H211451   0.252   2.713  13.598 -2.9530  2.3088 -1.3843
  772MPD2    H311452   0.015   2.704  13.562 -3.0110 -2.9277 -0.2639
  772MPD2     N11453   4.654   2.578  13.979 -0.6941  0.3644 -0.5137
  772MPD2    H511454   4.556   2.580  13.951 -1.0119  0.2538  0.5974
  772MPD2    N111455   0.374   2.668  13.844  0.4601  0.3913  0.1874
  772MPD2    H711456   0.408   2.635  13.934 -0.9586 -0.9079  0.2424
  773MPD2     C11457   4.527   3.206   0.043 -0.0820  0.1468  0.3294
  773MPD2    C111458   4.490   3.070   0.012 -0.2990 -0.2000 -0.0519
  773MPD2    C211459   4.533   2.976   0.100 -0.0596  0.0181 -0.6638
  773MPD2    C311460   4.610   3.003   0.214 -0.2156 -0.4988  0.5768
  773MPD2    C411461   4.651   3.138   0.234  0.2066 -0.0665  0.5874
  773MPD2    C511462   4.603   3.237   0.153  0.6122 -0.7800 -0.1256
  773MPD2     H11463   4.508   2.873   0.075  0.2400 -0.0607 -0.6394
  773MPD2    H111464   4.710   3.161   0.322 -1.1570  2.9641  0.7185
  773MPD2    H211465   4.500   3.287  17.734 -0.6769  0.7587  1.2936
  773MPD2    H311466   4.617   3.343   0.171 -0.1518 -0.9049  1.2176
  773MPD2     N11467   4.656   2.893   0.303 -0.1055  0.2669  0.7823
  773MPD2    H511468   4.657   2.800   0.262  4.9316 -0.0891  1.7579
  773MPD2    N111469   4.402   3.039  17.657  0.2434  0.2237 -0.2966
  773MPD2    H711470   4.363   2.946  17.651 -1.1253  0.6759  1.4283
  774MPD2     C11471   3.077   2.117  13.906  1.0621 -0.7238 -0.0513
  774MPD2    C111472   3.201   2.155  13.961  0.8446 -0.0934 -0.4911
  774MPD2    C211473   3.248   2.283  13.948 -0.1913  0.2329 -0.1956
  774MPD2    C311474   3.183   2.374  13.870 -0.4106  0.0571 -0.0662
  774MPD2    C411475   3.070   2.338  13.803 -0.8086 -0.0265  0.5609
  774MPD2    C511476   3.020   2.207  13.822 -0.4112 -0.6439 -0.4135
  774MPD2     H11477   3.346   2.313  13.984 -0.1480  0.0675 -0.1747
  774MPD2    H111478   3.012   2.407  13.744  0.7138 -1.0276 -2.0925
  774MPD2    H211479   3.036   2.017  13.904  1.5355 -0.9264  0.3185
  774MPD2    H311480   2.939   2.174  13.758 -0.6272  0.5464 -0.7652
  774MPD2     N11481   3.249   2.493  13.865 -0.0195 -0.4625  0.1293
  774MPD2    H511482   3.331   2.498  13.925 -0.0596 -1.7058  0.2846
  774MPD2    N111483   3.287   2.065  14.024 -0.7916 -0.3626 -0.0835
  774MPD2    H711484   3.371   2.103  14.065 -0.3382 -0.9415 -0.4722
  775MPD2     C11485   0.393   3.752  15.748 -0.5197 -0.4304 -0.1151
  775MPD2    C111486   0.386   3.870  15.817  0.2084 -0.7936  0.0365
  775MPD2    C211487   0.463   3.979  15.780 -0.5854 -0.4049 -0.6625
  775MPD2    C311488   0.537   3.975  15.664  0.2681 -0.2367 -0.2081
  775MPD2    C411489   0.546   3.855  15.594  0.5990  0.4702  0.0435
  775MPD2    C511490   0.461   3.748  15.629  0.0914  0.1543  0.4350
  775MPD2     H11491   0.464   4.066  15.844  0.0944 -1.2749  0.5201
  775MPD2    H111492   0.597   3.840  15.499  1.2785 -1.8015  0.7637
  775MPD2    H211493   0.329   3.670  15.778 -0.7688 -0.5650 -1.0079
  775MPD2    H311494   0.458   3.662  15.562  1.0825 -0.2695  0.9417
  775MPD2     N11495   0.622   4.086  15.620 -0.1207  0.0391  0.0062
  775MPD2    H511496   0.693   4.062  15.552 -1.1506 -0.0421 -1.0550
  775MPD2    N111497   0.305   3.860  15.933 -0.8061 -0.3540 -0.2576
  775MPD2    H711498   0.247   3.777  15.942  0.1978 -1.0550 -0.2685
  776MPD2     C11499   3.640   3.692  11.679  0.0573 -0.3554  0.4006
  776MPD2    C111500   3.711   3.577  11.705 -0.1580  0.1812  0.8117
  776MPD2    C211501   3.845   3.581  11.708 -0.2725 -0.0341  0.2735
  776MPD2    C311502   3.919   3.695  11.698  0.0011 -0.3625 -0.1001
  776MPD2    C411503   3.845   3.811  11.673 -0.4184 -0.3633  0.6120
  776MPD2    C511504   3.711   3.808  11.661  0.6364 -0.2608  0.3251
  776MPD2     H11505   3.892   3.484  11.718 -2.2401 -0.7650  2.3746
  776MPD2    H111506   3.891   3.907  11.652  2.1662 -1.0023  3.2163
  776MPD2    H211507   3.533   3.696  11.662  0.7242  3.4075 -2.8522
  776MPD2    H311508   3.669   3.899  11.620  0.8093 -0.0001  0.7279
  776MPD2     N11509   4.059   3.697  11.705  0.0902  0.0269 -0.4672
  776MPD2    H511510   4.110   3.784  11.707  2.9532 -1.7547  3.4644
  776MPD2    N111511   3.649   3.453  11.723  0.4368  0.6388  0.4187
  776MPD2    H711512   3.716   3.377  11.732  1.4683  1.2922 -1.6052
  777MPD2     C11513   3.965   1.835   0.690 -0.0856 -0.0454 -0.0529
  777MPD2    C111514   4.048   1.748   0.759 -0.2230 -0.7947 -0.6041
  777MPD2    C211515   4.052   1.608   0.722 -0.8973 -0.1109 -0.5261
  777MPD2    C311516   3.958   1.560   0.626  0.1729 -0.0604  0.8554
  777MPD2    C411517   3.868   1.643   0.572  0.1810 -0.4339 -0.1257
  777MPD2    C511518   3.874   1.778   0.603 -0.4747 -0.3582  0.3193
  777MPD2     H11519   4.121   1.538   0.766 -0.8822 -1.3330 -2.4795
  777MPD2    H111520   3.803   1.611   0.492 -0.0809  1.8763 -0.8402
  777MPD2    H211521   3.962   1.943   0.696 -1.5367  0.0055 -1.8262
  777MPD2    H311522   3.803   1.844   0.554 -1.1603 -1.9565 -0.8584
  777MPD2     N11523   3.960   1.419   0.598 -0.0383  0.2034 -0.0740
  777MPD2    H511524   4.032   1.374   0.652 -0.8462 -0.4416  0.4707
  777MPD2    N111525   4.141   1.803   0.850  0.3818 -0.0680  0.4293
  777MPD2    H711526   4.147   1.904   0.854  0.2482 -0.0786  0.9713
  778MPD2     C11527   0.747   2.205  15.153  0.6702  0.1127  0.1104
  778MPD2    C111528   0.710   2.124  15.044 -0.3834  0.4708  0.0778
  778MPD2    C211529   0.753   2.168  14.918 -0.8173 -0.2040 -0.1335
  778MPD2    C311530   0.825   2.280  14.893 -0.3896 -0.5390 -0.3988
  778MPD2    C411531   0.865   2.359  15.000  0.2067  0.6106 -0.0586
  778MPD2    C511532   0.830   2.316  15.125 -0.3260  0.7715 -0.5060
  778MPD2     H11533   0.714   2.116  14.831 -0.4236 -1.8583  0.6677
  778MPD2    H111534   0.937   2.439  14.989  0.2985  0.3496 -1.4706
  778MPD2    H211535   0.705   2.189  15.252  0.6663 -1.5367 -0.1493
  778MPD2    H311536   0.855   2.380  15.209  1.7701 -0.4857 -0.1776
  778MPD2     N11537   0.849   2.295  14.754  0.0883  0.3313 -0.6930
  778MPD2    H511538   0.820   2.217  14.696 -3.2297  0.5342  0.6774
  778MPD2    N111539   0.637   2.002  15.056  0.5651  0.3253 -0.9046
  778MPD2    H711540   0.595   1.962  14.973 -3.7359 -0.2105  1.5082
  779MPD2     C11541   0.439   0.855  14.016  0.7946  0.2289 -0.4419
  779MPD2    C111542   0.497   0.853  14.138 -0.0172 -0.4563  0.2917
  779MPD2    C211543   0.519   0.979  14.197  0.9172  0.7381  0.3727
  779MPD2    C311544   0.498   1.095  14.122 -0.4231  0.1171  0.1944
  779MPD2    C411545   0.451   1.093  13.998 -0.6041  0.0086  0.1484
  779MPD2    C511546   0.419   0.969  13.945 -0.7737  0.0577  0.0993
  779MPD2     H11547   0.572   0.991  14.290 -1.2304 -1.1148  1.8199
  779MPD2    H111548   0.437   1.180  13.935 -1.8030 -0.0896  0.2698
  779MPD2    H211549   0.408   0.760  13.975  4.5738 -0.0155 -2.7078
  779MPD2    H311550   0.377   0.964  13.845 -1.8418  0.6969  0.5237
  779MPD2     N11551   0.543   1.222  14.172  0.1064 -0.5877 -0.0695
  779MPD2    H511552   0.614   1.219  14.244 -1.3330 -1.6515  1.2818
  779MPD2    N111553   0.543   0.734  14.213 -0.2939 -0.3397 -0.9778
  779MPD2    H711554   0.569   0.740  14.311  0.0677 -0.7779 -1.0477
  780MPD2     C11555   0.255   0.138   1.270  0.0301  0.8965  0.3580
  780MPD2    C111556   0.136   0.129   1.217 -0.5975  0.6294  0.4112
  780MPD2    C211557   0.135   0.152   1.079  0.0306  0.6091 -0.2977
  780MPD2    C311558   0.242   0.185   0.999  0.2701  0.0094 -0.1322
  780MPD2    C411559   0.364   0.197   1.063 -0.7630  0.2894  0.6083
  780MPD2    C511560   0.362   0.176   1.201 -0.4285 -0.1964  0.0905
  780MPD2     H11561   0.036   0.153   1.034 -0.1414 -0.1158  0.0641
  780MPD2    H111562   0.457   0.230   1.020 -1.2730  0.8653 -0.0502
  780MPD2    H211563   0.270   0.110   1.373 -0.8826  0.8482  0.4701
  780MPD2    H311564   0.458   0.180   1.250 -0.6169  1.9442  0.2662
  780MPD2     N11565   0.215   0.207   0.866  0.2685 -0.4455 -0.4935
  780MPD2    H511566   0.119   0.193   0.836 -0.1096  1.2336 -0.0929
  780MPD2    N111567   0.026   0.101   1.302  0.3983 -0.0081  0.1900
  780MPD2    H711568   0.047   0.055   1.391 -0.5532 -1.6102 -0.4058
  781MPD2     C11569   1.980   2.661  12.381  0.0544  0.2016  0.5587
  781MPD2    C111570   1.869   2.588  12.429 -0.5051 -0.2014  0.0793
  781MPD2    C211571   1.765   2.553  12.352  0.1114  0.1159  0.3344
  781MPD2    C311572   1.759   2.597  12.220 -0.2298 -0.2633 -0.1644
  781MPD2    C411573   1.865   2.669  12.173  0.0553  0.7874 -0.2422
  781MPD2    C511574   1.979   2.691  12.248  0.4399 -0.1707  0.3277
  781MPD2     H11575   1.687   2.489  12.392 -0.0048  0.1586  0.1763
  781MPD2    H111576   1.861   2.714  12.075 -1.9493  2.0023  0.3877
  781MPD2    H211577   2.062   2.690  12.445  1.0487  1.2526 -1.1792
  781MPD2    H311578   2.065   2.743  12.207  0.6127 -1.6004 -1.1025
  781MPD2     N11579   1.650   2.587  12.139  0.0961 -0.5892 -0.1186
  781MPD2    H511580   1.660   2.630  12.048 -0.4478  2.0901  1.1036
  781MPD2    N111581   1.859   2.553  12.563  0.0219  0.9677  0.2776
  781MPD2    H711582   1.791   2.481  12.586 -1.9865  2.6264 -0.4984
  782MPD2     C11583   4.208   2.861  10.261 -0.4555  0.0134  0.2170
  782MPD2    C111584   4.343   2.871  10.235 -0.0112  0.1718  0.1703
  782MPD2    C211585   4.430   2.941  10.322  0.2802 -0.0490 -0.1781
  782MPD2    C311586   4.390   3.005  10.434  0.6173  0.2006  0.5873
  782MPD2    C411587   4.250   2.997  10.461  0.9770 -0.5976 -0.0868
  782MPD2    C511588   4.168   2.925  10.373  0.5616  0.3843  0.9269
  782MPD2     H11589   4.536   2.944  10.299  0.0869  1.8975 -0.8083
  782MPD2    H111590   4.213   3.052  10.547  0.8552 -2.0134  0.7626
  782MPD2    H211591   4.131   2.814  10.202 -1.5200  1.6966  0.2534
  782MPD2    H311592   4.063   2.927  10.398  0.4327 -0.1305  0.4222
  782MPD2     N11593   4.486   3.068  10.521  0.3809 -0.0749 -0.5773
  782MPD2    H511594   4.583   3.073  10.492  0.5077 -3.5849 -0.7115
  782MPD2    N111595   4.392   2.807  10.119  0.2516  0.2370  0.7498
  782MPD2    H711596   4.333   2.736  10.077  2.3060 -0.8065 -0.3745
  783MPD2     C11597   4.196   2.292  10.778  0.2347 -0.7280 -0.3629
  783MPD2    C111598   4.250   2.410  10.817  0.4370  0.6321 -0.1309
  783MPD2    C211599   4.321   2.487  10.726 -0.4627  0.5947 -0.7030
  783MPD2    C311600   4.333   2.454  10.589  0.5011  0.8796 -0.0498
  783MPD2    C411601   4.265   2.338  10.558 -0.2569  0.0442  0.1918
  783MPD2    C511602   4.194   2.267  10.649  0.4548  0.8008  0.0621
  783MPD2     H11603   4.368   2.579  10.759  0.2522  0.8767 -2.5417
  783MPD2    H111604   4.277   2.292  10.461 -0.4612 -0.5869  0.4665
  783MPD2    H211605   4.132   2.240  10.849  0.8687 -0.1892  0.6121
  783MPD2    H311606   4.160   2.171  10.613 -0.5682  0.9539  0.6287
  783MPD2     N11607   4.409   2.520  10.490 -0.1026  0.6139  0.0048
  783MPD2    H511608   4.459   2.602  10.522  2.3666 -0.1370 -1.9710
  783MPD2    N111609   4.218   2.449  10.949  0.1639 -0.4339  0.0517
  783MPD2    H711610   4.176   2.374  11.003  1.1883  0.5883  2.2801
  784MPD2     C11611   2.356   3.459   0.599  0.4221 -0.2677  0.2171
  784MPD2    C111612   2.351   3.564   0.677  0.0410 -0.0670  0.3583
  784MPD2    C211613   2.248   3.655   0.653 -0.5284  0.1100 -0.1124
  784MPD2    C311614   2.152   3.631   0.558  0.5014 -0.0819  0.3821
  784MPD2    C411615   2.173   3.517   0.475  0.3312 -0.1422  0.3233
  784MPD2    C511616   2.279   3.431   0.491 -0.0088  0.1178 -0.3907
  784MPD2     H11617   2.229   3.743   0.713 -4.1271 -1.9194  1.6985
  784MPD2    H111618   2.114   3.498   0.386  1.5440 -1.4765 -0.2028
  784MPD2    H211619   2.443   3.395   0.606  1.0851  0.4547 -1.5009
  784MPD2    H311620   2.290   3.340   0.434 -1.8697 -0.5899  0.3794
  784MPD2     N11621   2.035   3.710   0.552 -0.1255  0.3341 -0.5101
  784MPD2    H511622   2.026   3.766   0.636  1.4049 -0.3956  0.1413
  784MPD2    N111623   2.442   3.590   0.779  0.4202  0.2800  0.5461
  784MPD2    H711624   2.415   3.660   0.847 -1.1203 -2.2338  2.5181
  785MPD2     C11625   2.278   1.355  10.065  0.3431  0.0695  0.4529
  785MPD2    C111626   2.212   1.377  10.181 -0.3587  0.2137 -0.6924
  785MPD2    C211627   2.077   1.401  10.168  1.0333 -0.2860  0.0903
  785MPD2    C311628   2.008   1.422  10.054  0.3092  0.5861  0.2579
  785MPD2    C411629   2.073   1.402   9.937 -1.0914  0.0866  0.4530
  785MPD2    C511630   2.207   1.368   9.948  0.4386 -0.0255 -0.5173
  785MPD2     H11631   2.033   1.425  10.264 -2.0770  0.4083 -1.5153
  785MPD2    H111632   2.027   1.421   9.841 -1.0876 -0.6314  0.3131
  785MPD2    H211633   2.382   1.326  10.068  0.8201  1.6344 -1.8667
  785MPD2    H311634   2.264   1.352   9.857  1.2232 -0.9580  0.1364
  785MPD2     N11635   1.873   1.468  10.069  0.0031 -0.7030  0.6946
  785MPD2    H511636   1.831   1.474  10.162  0.4227  1.0680  0.7602
  785MPD2    N111637   2.259   1.378  10.315 -0.0010  0.3868 -0.2318
  785MPD2    H711638   2.195   1.370  10.393  1.6834  1.1060  1.2145
  786MPD2     C11639   1.725   0.436  15.141  0.2037  0.0126 -0.5523
  786MPD2    C111640   1.691   0.303  15.161 -0.4008  0.6608 -0.5354
  786MPD2    C211641   1.784   0.223  15.221 -0.4002 -0.7489  0.1677
  786MPD2    C311642   1.909   0.271  15.258  0.3058  0.4979 -0.9856
  786MPD2    C411643   1.931   0.404  15.248  0.4150  0.3579 -0.2826
  786MPD2    C511644   1.843   0.486  15.192 -1.0885 -0.2596 -0.4810
  786MPD2     H11645   1.762   0.120  15.245 -2.0603  0.3007  3.1169
  786MPD2    H111646   2.028   0.440  15.282  1.0496 -1.4759 -0.1555
  786MPD2    H211647   1.646   0.497  15.099 -0.0636  1.2585  1.7696
  786MPD2    H311648   1.855   0.592  15.175 -0.9124 -0.2863 -0.5225
  786MPD2     N11649   2.010   0.210  15.328 -0.1413 -0.3086 -0.3943
  786MPD2    H511650   2.087   0.266  15.361 -0.4260 -0.9893  1.4126
  786MPD2    N111651   1.568   0.247  15.128  0.3344  0.2995  0.2542
  786MPD2    H711652   1.569   0.150  15.158  1.0256  0.3652  0.4595
  787MPD2     C11653   1.175   4.674  15.510 -0.0551 -0.3643 -0.8314
  787MPD2    C111654   1.228   4.592  15.406  0.4771 -0.3859  1.0344
  787MPD2    C211655   1.272   4.465  15.441 -0.2139  0.4048  0.1535
  787MPD2    C311656   1.278   4.418  15.565 -1.0759  0.3714 -0.5755
  787MPD2    C411657   1.233   4.500  15.669 -0.4740  0.1302 -0.4203
  787MPD2    C511658   1.184   4.626  15.639  0.8743 -0.8805  0.3394
  787MPD2     H11659   1.321   4.397  15.372  0.4787  0.2243  0.8223
  787MPD2    H111660   1.226   4.472  15.774 -3.1393 -1.7311 -1.0990
  787MPD2    H211661   1.135   0.031  15.480 -0.4507 -0.1032  0.5310
  787MPD2    H311662   1.133   4.680  15.718  0.4575 -2.0520  0.8642
  787MPD2     N11663   1.324   4.291  15.583 -0.9786 -0.1315 -0.1411
  787MPD2    H511664   1.308   4.231  15.503 -1.0714  1.4624 -1.3205
  787MPD2    N111665   1.230   4.654  15.274 -0.3246 -0.1929  0.1109
  787MPD2    H711666   1.180   0.003  15.270 -2.6939 -1.6994 -3.3610
  788MPD2     C11667   3.319   3.413   0.987  0.0149 -0.2528  0.2863
  788MPD2    C111668   3.252   3.358   0.884  0.0109  0.1099 -0.2401
  788MPD2    C211669   3.177   3.441   0.806  0.3589 -0.4509  0.3054
  788MPD2    C311670   3.168   3.578   0.831  0.0866 -0.1229 -0.3765
  788MPD2    C411671   3.249   3.626   0.931  0.2878  0.7741  0.2217
  788MPD2    C511672   3.321   3.545   1.014  0.0587 -0.1267  0.0505
  788MPD2     H11673   3.132   3.400   0.716  0.8419  0.9826 -0.5972
  788MPD2    H111674   3.260   3.731   0.957 -1.9639  0.7204  1.3989
  788MPD2    H211675   3.367   3.357   1.066  0.4360  2.5549  2.0129
  788MPD2    H311676   3.377   3.582   1.099 -0.0548 -1.4987  0.7289
  788MPD2     N11677   3.083   3.666   0.754 -0.1287  0.7470 -0.5148
  788MPD2    H511678   3.098   3.765   0.772  0.1517  0.6539 -0.2379
  788MPD2    N111679   3.244   3.218   0.862 -0.4119  0.5156 -0.1898
  788MPD2    H711680   3.210   3.185   0.772 -0.8025  0.1122  0.1024
  789MPD2     C11681   3.297   2.470  16.593 -0.2827 -0.4438 -0.1035
  789MPD2    C111682   3.208   2.541  16.510  0.6459 -0.4431 -0.1832
  789MPD2    C211683   3.127   2.639  16.560  0.1129  0.4212 -0.3622
  789MPD2    C311684   3.121   2.666  16.697 -0.9796 -0.4027 -0.5388
  789MPD2    C411685   3.211   2.600  16.779  0.7064 -0.0823  0.2283
  789MPD2    C511686   3.293   2.503  16.724 -0.8630 -0.1959 -0.2319
  789MPD2     H11687   3.064   2.677  16.480 -0.3157  1.9933  0.7230
  789MPD2    H111688   3.210   2.619  16.886 -2.6907 -1.8010  0.4962
  789MPD2    H211689   3.369   2.395  16.562 -1.4664 -1.6658  0.0876
  789MPD2    H311690   3.366   2.455  16.789  0.2129  1.0814 -0.4757
  789MPD2     N11691   3.028   2.759  16.750 -0.2776  0.2070 -0.1587
  789MPD2    H511692   3.001   2.746  16.847  1.1919  1.1577  0.3781
  789MPD2    N111693   3.208   2.519  16.368  0.9158  0.1288  0.0777
  789MPD2    H711694   3.142   2.571  16.312  0.1596 -0.1174  0.7325
  790MPD2     C11695   4.043   4.435  13.753  0.3512 -0.0474  0.4256
  790MPD2    C111696   4.159   4.429  13.683 -0.0558 -0.3707 -0.2881
  790MPD2    C211697   4.177   4.329  13.586  0.4276  0.8660  0.6476
  790MPD2    C311698   4.075   4.241  13.564 -0.2295 -0.0647  0.5041
  790MPD2    C411699   3.957   4.252  13.638 -0.2829 -0.0953 -0.9992
  790MPD2    C511700   3.943   4.350  13.731 -0.5438 -0.2133  1.0416
  790MPD2     H11701   4.265   4.320  13.523  0.1809 -2.3112  0.7274
  790MPD2    H111702   3.869   4.189  13.633 -0.3562 -0.1988  1.3830
  790MPD2    H211703   4.024   4.510  13.828 -1.4041 -0.7379  0.6689
  790MPD2    H311704   3.844   4.364  13.771 -2.0622  0.8278 -3.0912
  790MPD2     N11705   4.087   4.154  13.456 -0.1800 -0.2914 -0.2987
  790MPD2    H511706   4.175   4.150  13.405 -0.0618  0.9741 -0.1954
  790MPD2    N111707   4.260   4.530  13.720 -0.8437 -0.1484  0.2428
  790MPD2    H711708   4.225   4.608  13.775 -0.7635  0.1156 -0.0759
  791MPD2     C11709   3.853   3.671  12.706 -0.1259 -0.1062 -0.1111
  791MPD2    C111710   3.807   3.692  12.831 -0.1599 -0.0331 -0.6392
  791MPD2    C211711   3.683   3.643  12.871  0.3785  0.6544 -0.0627
  791MPD2    C311712   3.607   3.572  12.779  0.8405 -0.3119  0.0903
  791MPD2    C411713   3.650   3.550  12.653  0.1011  0.8346 -0.4477
  791MPD2    C511714   3.767   3.601  12.620  0.0832 -0.6071  0.2833
  791MPD2     H11715   3.651   3.661  12.973 -2.3501  2.0448 -1.1690
  791MPD2    H111716   3.588   3.515  12.572  0.1193  0.2988 -0.2300
  791MPD2    H211717   3.946   3.713  12.671 -1.8361  3.5306 -0.2209
  791MPD2    H311718   3.809   3.587  12.521 -1.6587  0.1621 -0.5719
  791MPD2     N11719   3.480   3.512  12.819  0.0891  0.8836  0.0008
  791MPD2    H511720   3.447   3.546  12.909 -0.9569 -2.2762  0.8047
  791MPD2    N111721   3.884   3.771  12.915  0.2933 -0.3313  0.0752
  791MPD2    H711722   3.956   3.821  12.865  0.4693  0.6837  1.3424
  792MPD2     C11723   4.610   3.529  11.482 -0.1630  0.2475  0.0891
  792MPD2    C111724   4.528   3.613  11.412 -0.3124 -0.6011  0.1479
  792MPD2    C211725   4.395   3.590  11.399 -0.3263 -0.8311  0.0510
  792MPD2    C311726   4.347   3.467  11.445  0.4132 -0.5141  0.5407
  792MPD2    C411727   4.437   3.374  11.500  0.5511 -0.1377 -0.4611
  792MPD2    C511728   4.570   3.406  11.518 -0.2434  0.9992 -0.0214
  792MPD2     H11729   4.331   3.644  11.331  0.5689  1.2798  0.8803
  792MPD2    H111730   4.405   3.276  11.531  2.2613  0.3496  2.8690
  792MPD2    H211731   4.715   3.556  11.486 -0.1909  0.7207 -2.3333
  792MPD2    H311732   4.636   3.328  11.554  0.1758  0.8147 -1.2194
  792MPD2     N11733   4.216   3.416  11.417 -0.1483  0.2160 -0.3206
  792MPD2    H511734   4.191   3.324  11.450  1.7212  0.4858  1.8266
  792MPD2    N111735   4.586   3.728  11.366 -0.2473 -0.1887 -0.1973
  792MPD2    H711736   4.687   3.737  11.372 -0.3736  2.8845 -2.7392
  793MPD2     C11737   3.738   3.147  10.869 -0.2289 -0.4018 -0.1053
  793MPD2    C111738   3.806   3.267  10.856  0.2722 -0.2081 -0.4753
  793MPD2    C211739   3.783   3.370  10.949  0.3026 -0.1766  0.6174
  793MPD2    C311740   3.712   3.353  11.061  0.2642 -0.1199 -0.3597
  793MPD2    C411741   3.650   3.230  11.076  0.4863  0.0098 -1.4440
  793MPD2    C511742   3.664   3.136  10.981  0.5432 -0.0778 -0.2735
  793MPD2     H11743   3.843   3.460  10.943  0.7773 -0.5081  0.4129
  793MPD2    H111744   3.578   3.215  11.156  0.6339  1.8416 -0.9631
  793MPD2    H211745   3.734   3.066  10.797 -1.8604  2.4011 -3.2001
  793MPD2    H311746   3.623   3.038  11.003  0.2757 -0.4240 -2.3289
  793MPD2     N11747   3.721   3.454  11.156  0.7084 -0.1722  0.5726
  793MPD2    H511748   3.794   3.523  11.148 -0.8456  1.4094  0.0586
  793MPD2    N111749   3.902   3.294  10.760 -0.4039 -0.3860 -0.1700
  793MPD2    H711750   3.964   3.374  10.773  1.3760 -1.4291 -2.3903
  794MPD2     C11751   4.128   2.936  16.836 -0.1667  0.5949  0.3453
  794MPD2    C111752   4.040   3.007  16.919 -0.5342 -0.5569 -0.4875
  794MPD2    C211753   3.919   3.044  16.863  0.0318 -0.2297 -0.2132
  794MPD2    C311754   3.892   3.030  16.728 -0.4926  0.0532  0.0526
  794MPD2    C411755   3.990   2.981  16.640 -0.4808  0.0677  0.7788
  794MPD2    C511756   4.102   2.928  16.700 -0.0846 -0.3583 -1.0818
  794MPD2     H11757   3.843   3.070  16.935 -0.1017  1.7726 -1.0936
  794MPD2    H111758   3.970   2.974  16.534 -0.3795 -0.4580  0.7961
  794MPD2    H211759   4.221   2.896  16.875 -0.4151  2.0992  2.4843
  794MPD2    H311760   4.177   2.877  16.640 -0.9574 -0.1544 -2.3517
  794MPD2     N11761   3.777   3.086  16.663  0.3287  0.0471  0.1170
  794MPD2    H511762   3.770   3.077  16.562 -0.6623  0.0397  0.1916
  794MPD2    N111763   4.060   3.038  17.056  0.2518 -0.1644  0.7199
  794MPD2    H711764   3.981   3.066  17.114  1.3551  0.3294  2.0054
  795MPD2     C11765   1.752   0.762  13.930 -0.7488 -0.7915  0.7582
  795MPD2    C111766   1.822   0.752  13.808 -0.0628  0.3269  0.3263
  795MPD2    C211767   1.945   0.692  13.802 -0.8376  0.1652  0.5332
  795MPD2    C311768   2.020   0.663  13.920  0.3439  0.8454 -0.4669
  795MPD2    C411769   1.947   0.669  14.037 -0.3055 -0.3893  0.2398
  795MPD2    C511770   1.817   0.711  14.044  0.0037  0.0881 -0.0132
  795MPD2     H11771   1.999   0.676  13.709 -3.0679  0.3558 -0.7805
  795MPD2    H111772   1.997   0.637  14.128  1.6734 -1.4508 -1.2441
  795MPD2    H211773   1.654   0.805  13.948  0.4328  2.5071 -0.7174
  795MPD2    H311774   1.766   0.730  14.138  0.9040  0.9221  0.2964
  795MPD2     N11775   2.161   0.629  13.928 -0.2391  0.4901  0.0602
  795MPD2    H511776   2.194   0.618  14.023  0.8642  1.8405 -0.1599
  795MPD2    N111777   1.764   0.783  13.681 -0.1317 -0.1472  0.0412
  795MPD2    H711778   1.816   0.774  13.595 -0.0675  0.0998  0.0518
  796MPD2     C11779   1.225   2.219  16.125  0.1130  1.0063 -0.3414
  796MPD2    C111780   1.282   2.220  16.254 -0.3301  0.2062  0.8324
  796MPD2    C211781   1.254   2.331  16.338 -0.0755  0.2836 -0.2454
  796MPD2    C311782   1.173   2.433  16.294 -0.3685  0.5862 -0.2972
  796MPD2    C411783   1.123   2.435  16.163 -0.4625 -0.7113  0.3126
  796MPD2    C511784   1.144   2.326  16.083  0.4708 -0.0355 -0.0133
  796MPD2     H11785   1.284   2.324  16.442 -0.6676 -0.1502 -0.1012
  796MPD2    H111786   1.072   2.522  16.123  0.0920 -1.1995 -1.4706
  796MPD2    H211787   1.241   2.133  16.061  1.8055  1.4026 -0.4395
  796MPD2    H311788   1.104   2.326  15.982 -1.1299 -1.6507  0.6056
  796MPD2     N11789   1.169   2.552  16.375 -0.3762  0.8512  0.1206
  796MPD2    H511790   1.235   2.552  16.452  0.9346 -0.2668 -0.9982
  796MPD2    N111791   1.380   2.120  16.273  0.2504  0.8149 -0.0865
  796MPD2    H711792   1.384   2.047  16.203  1.9135 -0.2742  1.1483
  797MPD2     C11793   2.275   1.957  17.725  0.2459 -0.2558  0.0793
  797MPD2    C111794   2.361   2.058  17.684 -0.9849 -0.3384  0.4713
  797MPD2    C211795   2.406   2.060  17.557  0.4102 -0.5003 -0.1002
  797MPD2    C311796   2.367   1.963  17.462  0.3487  0.1044  0.3579
  797MPD2    C411797   2.282   1.862  17.501  0.0706 -1.1276 -0.0307
  797MPD2    C511798   2.224   1.871  17.628  0.1673  0.7492  0.2945
  797MPD2     H11799   2.483   2.126  17.519  0.0829  0.3418  0.6938
  797MPD2    H111800   2.241   1.784  17.438  1.5502 -1.1975 -0.9160
  797MPD2    H211801   2.248   1.944   0.071  0.8236 -0.6088  0.1906
  797MPD2    H311802   2.162   1.789  17.661  1.3089 -0.6020 -0.9090
  797MPD2     N11803   2.442   1.965  17.338  0.1676 -0.6513  0.1551
  797MPD2    H511804   2.512   2.037  17.326 -0.1601 -0.7154 -2.1763
  797MPD2    N111805   2.412   2.165   0.006  0.1887 -0.2521 -0.2467
  797MPD2    H711806   2.482   2.229  17.725 -0.9771  1.3804  0.3334
  798MPD2     C11807   2.832   2.531  17.325 -0.0741 -0.0721 -0.2593
  798MPD2    C111808   2.793   2.403  17.359  0.1995 -0.9610  0.5037
  798MPD2    C211809   2.758   2.385  17.491 -0.1686  0.3806  0.0297
  798MPD2    C311810   2.765   2.484  17.586  0.1920 -0.2138  0.0706
  798MPD2    C411811   2.804   2.610  17.554 -0.6530  0.4777 -0.3129
  798MPD2    C511812   2.850   2.625  17.428  0.7458 -0.1257  0.2572
  798MPD2     H11813   2.698   2.301  17.523 -0.4388  1.0581  1.2931
  798MPD2    H111814   2.799   2.693  17.624 -2.1181  1.9212 -2.1194
  798MPD2    H211815   2.872   2.555  17.228 -2.4576  4.4005 -0.1294
  798MPD2    H311816   2.889   2.723  17.405 -1.3623  1.1576  2.1164
  798MPD2     N11817   2.714   2.448  17.713 -0.2108 -0.0308 -0.2568
  798MPD2    H511818   2.674   2.356  17.730  0.8886 -0.6101 -0.7602
  798MPD2    N111819   2.771   2.314  17.259  0.4179 -0.4430  0.0823
  798MPD2    H711820   2.807   2.340  17.168  0.7036  0.4486  0.4439
  799MPD2     C11821   1.278   3.915  14.909 -0.2573 -0.8514  0.3148
  799MPD2    C111822   1.173   3.814  14.895 -0.8033 -0.4910 -0.4417
  799MPD2    C211823   1.106   3.808  14.772  0.2136  0.1075 -0.2737
  799MPD2    C311824   1.131   3.914  14.684  0.2858 -0.4515 -0.3064
  799MPD2    C411825   1.232   4.006  14.690 -0.1524  0.0666 -0.4626
  799MPD2    C511826   1.303   4.001  14.804  0.3815 -0.0325  0.1375
  799MPD2     H11827   1.023   3.738  14.769  0.6110 -0.3468 -0.7057
  799MPD2    H111828   1.263   4.069  14.608  0.8895 -0.5744 -0.5549
  799MPD2    H211829   1.346   3.923  14.994 -2.0511 -1.1254  1.7811
  799MPD2    H311830   1.391   4.062  14.821  0.4299 -0.3166  0.9176
  799MPD2     N11831   1.058   3.933  14.567  0.2130 -0.2283 -0.4500
  799MPD2    H511832   1.072   4.025  14.527 -2.0154 -0.0889 -0.9199
  799MPD2    N111833   1.155   3.715  14.990  0.3250  0.8153  0.0894
  799MPD2    H711834   1.072   3.658  14.978  0.8045  0.1605 -0.0976
  800MPD2     C11835   2.068   0.338  14.889  0.1064  0.1500  0.8953
  800MPD2    C111836   2.186   0.328  14.820 -0.2625  0.9819  0.0612
  800MPD2    C211837   2.228   0.206  14.760 -0.7347 -0.8640 -0.9062
  800MPD2    C311838   2.154   0.086  14.779  0.5912  0.7412  0.2259
  800MPD2    C411839   2.042   0.100  14.854  0.5189  0.1457 -0.3802
  800MPD2    C511840   1.997   0.225  14.913  0.0496 -0.4560 -0.9436
  800MPD2     H11841   2.319   0.199  14.703 -0.0462  0.2352  0.0564
  800MPD2    H111842   1.976   0.016  14.870  0.1227  0.4422 -0.4686
  800MPD2    H211843   2.033   0.435  14.923  0.8271  1.5876 -2.4847
  800MPD2    H311844   1.898   0.236  14.956  0.5922 -2.0197  0.7079
  800MPD2     N11845   2.194   4.708  14.709 -0.1199  0.7236  0.2173
  800MPD2    H511846   2.273   4.716  14.646 -1.4606 -1.6909 -1.7966
  800MPD2    N111847   2.256   0.445  14.813 -0.0343  0.3757 -0.1074
  800MPD2    H711848   2.206   0.525  14.852 -1.7950 -1.4202  1.3306
  801MPD2     C11849   2.137   0.939  14.285 -0.3413  0.2861  0.2551
  801MPD2    C111850   2.111   0.878  14.409 -0.4953  0.8637 -0.0680
  801MPD2    C211851   1.973   0.870  14.444  0.5918  0.3906 -0.0462
  801MPD2    C311852   1.874   0.917  14.351  0.1229 -0.3646 -0.0450
  801MPD2    C411853   1.907   0.982  14.235 -0.8918 -0.3422 -0.5268
  801MPD2    C511854   2.040   0.998  14.202 -0.9973  0.4796 -0.5296
  801MPD2     H11855   1.938   0.809  14.526  0.3575 -0.6495 -0.9277
  801MPD2    H111856   1.827   1.026  14.177 -0.6267 -1.1880 -1.5454
  801MPD2    H211857   2.241   0.965  14.268 -0.1138 -0.0511  1.1310
  801MPD2    H311858   2.063   1.052  14.111 -0.6535 -0.6580 -1.1158
  801MPD2     N11859   1.737   0.922  14.385 -0.3857 -0.0467 -0.1948
  801MPD2    H511860   1.669   0.951  14.315 -0.0221 -0.4275 -0.7063
  801MPD2    N111861   2.212   0.841  14.499  0.6926 -0.4379 -0.1018
  801MPD2    H711862   2.185   0.820  14.595  2.8556 -0.4224  0.5108
  802MPD2     C11863   1.276   0.974   0.054  0.1828  0.1618  0.7602
  802MPD2    C111864   1.155   0.915   0.069  0.5456 -0.3570 -0.7827
  802MPD2    C211865   1.140   0.783   0.025 -0.4709 -0.4917  0.5052
  802MPD2    C311866   1.249   0.703  17.731 -0.0897 -0.3640  0.4765
  802MPD2    C411867   1.368   0.770  17.704  0.0809  0.3071 -0.1518
  802MPD2    C511868   1.382   0.901  17.755  0.3556 -0.2715 -0.1926
  802MPD2     H11869   1.050   0.728   0.050 -1.1619  0.4897  0.1577
  802MPD2    H111870   1.453   0.717  17.661  1.0116  3.0835 -1.7382
  802MPD2    H211871   1.298   1.072   0.096 -0.5551  0.2159  1.0114
  802MPD2    H311872   1.474   0.956  17.740 -0.0495 -0.9222 -5.1658
  802MPD2     N11873   1.225   0.566  17.710 -0.6475 -0.1825  0.2693
  802MPD2    H511874   1.144   0.528   0.000 -0.5909  0.9375  1.2407
  802MPD2    N111875   1.051   0.973   0.147  0.1943 -0.1015  0.2410
  802MPD2    H711876   0.965   0.925   0.169 -0.2086  0.5170 -0.0090
  803MPD2     C11877   2.256   3.860  11.901 -0.3605  0.4233 -0.1246
  803MPD2    C111878   2.360   3.931  11.960 -0.3084  0.0002 -0.1399
  803MPD2    C211879   2.386   3.907  12.098 -0.7218  0.0091 -0.3153
  803MPD2    C311880   2.302   3.826  12.170 -0.2897  0.3604  1.1495
  803MPD2    C411881   2.195   3.762  12.107 -0.3952  0.7875  0.2579
  803MPD2    C511882   2.175   3.782  11.974 -0.3774  0.5973  0.6031
  803MPD2     H11883   2.479   3.943  12.141 -2.1964  2.2643  0.9560
  803MPD2    H111884   2.128   3.703  12.168  2.9262 -2.7536  0.4922
  803MPD2    H211885   2.236   3.863  11.795  1.8662  1.3586 -0.5152
  803MPD2    H311886   2.088   3.739  11.925  0.1397  1.2061 -0.8643
  803MPD2     N11887   2.325   3.805  12.309 -0.3334 -0.1771  0.3042
  803MPD2    H511888   2.270   3.733  12.355 -1.6008 -0.1602 -1.1801
  803MPD2    N111889   2.459   4.003  11.878 -0.2583 -0.1044  0.2422
  803MPD2    H711890   2.529   4.046  11.938 -0.5087 -0.2800  0.6618
  804MPD2     C11891   2.026   0.734  16.955 -0.4086  0.0304  0.0776
  804MPD2    C111892   2.000   0.665  17.067  0.4851 -0.0579 -0.5406
  804MPD2    C211893   2.053   0.707  17.187  0.6878  0.2562 -0.3053
  804MPD2    C311894   2.120   0.831  17.200  0.4757 -0.1267  0.1435
  804MPD2    C411895   2.152   0.897  17.085 -0.2692 -0.0195 -0.4042
  804MPD2    C511896   2.097   0.853  16.966  0.1792  0.3322 -0.2929
  804MPD2     H11897   2.027   0.647  17.273 -0.7697  0.6072 -0.5047
  804MPD2    H111898   2.207   0.990  17.093  0.3995 -0.5649  1.4040
  804MPD2    H211899   1.982   0.707  16.860  0.2276  1.2400 -0.5570
  804MPD2    H311900   2.123   0.897  16.870 -0.3790 -0.0846 -0.6335
  804MPD2     N11901   2.168   0.888  17.318  0.1917 -0.2256 -0.0096
  804MPD2    H511902   2.224   0.971  17.304 -1.1839  0.8039  0.6186
  804MPD2    N111903   1.909   0.558  17.070  0.0546  0.8230 -0.3655
  804MPD2    H711904   1.882   0.526  17.162  1.2131 -1.9555 -0.9707
  805MPD2     C11905   0.992   3.994  15.656 -0.1253  0.1572 -0.0002
  805MPD2    C111906   1.013   3.868  15.611  0.2014 -0.1030 -0.2599
  805MPD2    C211907   1.091   3.787  15.691  0.0188  0.4856 -0.0702
  805MPD2    C311908   1.129   3.825  15.817  0.2680 -0.2322  1.0120
  805MPD2    C411909   1.095   3.951  15.858  0.0164  0.1261 -0.0548
  805MPD2    C511910   1.033   4.034  15.778 -0.3394 -0.0388  0.3677
  805MPD2     H11911   1.115   3.685  15.662  2.7828  1.5723 -1.6615
  805MPD2    H111912   1.111   3.987  15.959  2.0142 -1.1976  0.1187
  805MPD2    H211913   0.941   4.071  15.598 -1.5430 -1.7676 -1.3256
  805MPD2    H311914   1.017   4.140  15.799  1.3401  0.2981 -0.0324
  805MPD2     N11915   1.201   3.733  15.892  0.1853 -0.4140 -0.3118
  805MPD2    H511916   1.225   3.640  15.857  0.2686 -0.7146  0.5387
  805MPD2    N111917   0.969   3.822  15.486  0.0415  0.2790 -0.5281
  805MPD2    H711918   0.997   3.729  15.458 -0.5864  0.4198 -1.6180
  806MPD2     C11919   1.346   3.217   0.547  0.0163 -0.3537  0.2879
  806MPD2    C111920   1.341   3.349   0.535 -0.5545 -0.1386 -0.4532
  806MPD2    C211921   1.382   3.409   0.419 -0.9165 -0.1674  0.0085
  806MPD2    C311922   1.414   3.338   0.308 -0.2321  0.3116  0.6659
  806MPD2    C411923   1.419   3.204   0.320  0.6268  0.3581  0.4339
  806MPD2    C511924   1.383   3.146   0.437 -0.3310 -0.0564  0.4686
  806MPD2     H11925   1.391   3.517   0.418 -1.0534 -0.1540  0.4338
  806MPD2    H111926   1.458   3.148   0.236 -0.0793  1.6559 -0.7607
  806MPD2    H211927   1.318   3.161   0.635  0.6361 -0.6476  0.2960
  806MPD2    H311928   1.387   3.038   0.447  1.3414 -0.0630 -0.1810
  806MPD2     N11929   1.433   3.405   0.190 -0.1004 -0.7962  0.1489
  806MPD2    H511930   1.464   3.501   0.196 -0.7400 -0.5879  0.1092
  806MPD2    N111931   1.293   3.419   0.650  0.8092 -0.1962  0.3244
  806MPD2    H711932   1.257   3.366   0.729  0.3733  1.2040  1.0782
  807MPD2     C11933   1.045   3.221   1.316  0.1819 -0.1804  1.1276
  807MPD2    C111934   1.168   3.201   1.259  0.2834 -0.1570  0.5243
  807MPD2    C211935   1.237   3.085   1.292 -0.5008  1.2638 -0.5475
  807MPD2    C311936   1.189   2.998   1.385 -0.1777 -0.1199 -0.2093
  807MPD2    C411937   1.068   3.010   1.440 -1.0442  0.4452 -0.4026
  807MPD2    C511938   0.999   3.123   1.402 -0.0009 -0.7539 -0.2709
  807MPD2     H11939   1.331   3.062   1.245  0.4731 -0.5847  2.2913
  807MPD2    H111940   1.026   2.941   1.512  0.1403  2.4853  2.2705
  807MPD2    H211941   0.987   3.307   1.284  0.0519 -1.0963 -1.0623
  807MPD2    H311942   0.904   3.153   1.445 -1.7153 -2.5092 -2.8437
  807MPD2     N11943   1.271   2.888   1.404 -0.5625 -0.4063 -0.2613
  807MPD2    H511944   1.354   2.886   1.346  1.1540  0.7123  2.1410
  807MPD2    N111945   1.224   3.279   1.163 -0.2304 -0.1084 -0.1937
  807MPD2    H711946   1.321   3.264   1.140 -0.3282 -0.6072 -0.2859
  808MPD2     C11947   1.384   4.607  10.507  0.2687 -0.3087  0.5126
  808MPD2    C111948   1.510   4.594  10.441  0.4275 -0.0945  0.5451
  808MPD2    C211949   1.558   4.701  10.371 -0.4269 -0.0257 -0.1049
  808MPD2    C311950   1.482   0.073  10.355  0.4294  0.1557 -0.1235
  808MPD2    C411951   1.354   0.081  10.412 -0.1433  0.2898  0.5112
  808MPD2    C511952   1.304   4.715  10.478 -0.2172  0.0946 -0.1575
  808MPD2     H11953   1.655   4.690  10.323 -0.0325  0.8824  0.4822
  808MPD2    H111954   1.284   0.159  10.384 -1.4435 -1.1523 -0.2047
  808MPD2    H211955   1.335   4.530  10.566 -1.4033  1.3197  1.2585
  808MPD2    H311956   1.198   4.707  10.499  0.3646  0.3020  2.8714
  808MPD2     N11957   1.505   0.181  10.270 -0.2882  0.3369  0.5811
  808MPD2    H511958   1.437   0.255  10.255  0.2257 -0.2239 -4.4952
  808MPD2    N111959   1.580   4.479  10.458  0.5034 -0.0187  0.7476
  808MPD2    H711960   1.668   4.481  10.408  1.5229  1.4707  2.6395
  809MPD2     C11961   1.997   0.109   9.429  0.1465 -0.4784 -0.4574
  809MPD2    C111962   2.052   0.183   9.524  0.6993 -0.0367  0.3029
  809MPD2    C211963   1.977   0.249   9.624  0.4087  0.4829 -0.4721
  809MPD2    C311964   1.844   0.236   9.618  0.0510 -0.4393  0.6025
  809MPD2    C411965   1.787   0.160   9.516 -0.1548  0.3181  0.5260
  809MPD2    C511966   1.862   0.102   9.420  0.3644  0.0308 -0.0600
  809MPD2     H11967   2.027   0.304   9.703 -0.8590  0.1835  0.5424
  809MPD2    H111968   1.681   0.140   9.515 -0.1332  0.2392 -0.2884
  809MPD2    H211969   2.060   0.059   9.356  0.1045  1.6161 -1.9550
  809MPD2    H311970   1.808   0.051   9.340  0.2535  2.1312 -1.3208
  809MPD2     N11971   1.761   0.289   9.725 -0.2951  0.3831  0.0180
  809MPD2    H511972   1.670   0.248   9.743 -0.3271  1.1517  1.6218
  809MPD2    N111973   2.194   0.192   9.535 -0.2333 -0.2378  0.1600
  809MPD2    H711974   2.228   0.246   9.614  1.2891  1.7920 -1.8925
  810MPD2     C11975   1.608   3.820  10.793 -0.3320 -0.8283  0.5431
  810MPD2    C111976   1.480   3.863  10.801 -0.7135  0.2249 -0.3939
  810MPD2    C211977   1.446   3.991  10.841  0.2515 -0.3569 -0.2096
  810MPD2    C311978   1.541   4.097  10.838 -0.3864 -0.1786 -0.0063
  810MPD2    C411979   1.669   4.056  10.808  0.2440  0.0892  0.0239
  810MPD2    C511980   1.702   3.920  10.786 -0.3385  0.2237  0.0097
  810MPD2     H11981   1.341   4.014  10.853  0.1019 -1.7545  1.0496
  810MPD2    H111982   1.750   4.128  10.801 -1.2149  1.9040  1.7743
  810MPD2    H211983   1.642   3.720  10.768 -1.1721 -0.8840 -0.3868
  810MPD2    H311984   1.803   3.907  10.751 -0.1037  1.2422  0.2995
  810MPD2     N11985   1.512   4.234  10.863 -0.2237 -0.0480  0.2158
  810MPD2    H511986   1.583   4.303  10.844  2.7592 -2.8634  1.1234
  810MPD2    N111987   1.379   3.767  10.780  0.5200  0.3144 -0.4758
  810MPD2    H711988   1.416   3.674  10.765 -0.6178 -0.2854  0.5158
  811MPD2     C11989   0.678   3.622  10.194 -0.5834  0.2325 -0.0485
  811MPD2    C111990   0.781   3.703  10.235 -0.1898 -0.2882  0.2436
  811MPD2    C211991   0.785   3.829  10.187 -0.0390  0.1350  0.3000
  811MPD2    C311992   0.689   3.880  10.106 -0.4417  0.4483  0.4641
  811MPD2    C411993   0.587   3.800  10.063 -0.5165  0.1886 -0.3163
  811MPD2    C511994   0.580   3.675  10.116  0.0323 -0.4015  0.0890
  811MPD2     H11995   0.852   3.907  10.219  0.7862 -1.1082  1.5974
  811MPD2    H111996   0.499   3.828  10.007  1.7459  0.6323 -3.6412
  811MPD2    H211997   0.652   3.522  10.228 -0.5940 -0.2578 -1.4997
  811MPD2    H311998   0.492   3.618  10.089 -0.2750  0.6259 -1.0459
  811MPD2     N11999   0.689   4.018  10.064 -0.0002  0.0875 -0.0708
  811MPD2    H512000   0.763   4.075  10.104 -0.8202 -0.5907  2.3993
  811MPD2    N112001   0.863   3.661  10.345  0.0337  0.7144 -0.3524
  811MPD2    H712002   0.864   3.561  10.361  1.6683  0.6768 -0.7482
  812MPD2     C12003   0.864   3.590  12.846  0.4894  0.6996  0.3614
  812MPD2    C112004   0.736   3.644  12.826  0.1333  0.1060  0.4367
  812MPD2    C212005   0.656   3.657  12.936  0.3343  0.0027 -0.0302
  812MPD2    C312006   0.686   3.604  13.054 -0.2277  0.0639 -0.3398
  812MPD2    C412007   0.799   3.531  13.065  0.3176 -0.2620  0.3740
  812MPD2    C512008   0.893   3.526  12.967  0.5795 -0.3602 -0.1921
  812MPD2     H12009   0.562   3.710  12.946  0.6439  0.3618  0.9313
  812MPD2    H112010   0.824   3.499  13.166 -0.5722  3.0865  1.6374
  812MPD2    H212011   0.942   3.600  12.771  0.6451 -2.3411  0.1141
  812MPD2    H312012   0.993   3.485  12.977  0.3238 -1.1627 -0.9174
  812MPD2     N12013   0.604   3.643  13.161 -0.4984  0.1504 -0.3880
  812MPD2    H512014   0.543   3.722  13.145 -2.1148 -0.4636  2.6540
  812MPD2    N112015   0.702   3.684  12.690  0.1307 -0.1410  0.0001
  812MPD2    H712016   0.773   3.700  12.618 -1.4005 -0.9571 -1.6778
  813MPD2     C12017   4.361   1.173  13.028  0.4355  0.5292 -0.4132
  813MPD2    C112018   4.418   1.239  13.134  0.1995  0.4895 -0.6889
  813MPD2    C212019   4.339   1.304  13.221 -0.0752 -0.5004  0.8621
  813MPD2    C312020   4.208   1.264  13.241  0.6235  1.1439  0.4427
  813MPD2    C412021   4.156   1.178  13.147 -0.4896 -0.2325  0.1723
  813MPD2    C512022   4.230   1.136  13.034 -0.1238 -0.7143  0.4189
  813MPD2     H12023   4.388   1.359  13.301 -0.0413  0.5858  0.0928
  813MPD2    H112024   4.055   1.141  13.163 -0.4031 -0.5142  0.0763
  813MPD2    H212025   4.421   1.123  12.952 -1.2309 -1.7869 -0.1864
  813MPD2    H312026   4.193   1.061  12.966  2.1870 -1.0183 -0.5026
  813MPD2     N12027   4.146   1.296  13.369  0.0106  0.1627 -0.4998
  813MPD2    H512028   4.202   1.352  13.432 -0.4569  0.0537  0.0064
  813MPD2    N112029   4.559   1.264  13.136  0.5444 -0.0615 -0.4492
  813MPD2    H712030   4.599   1.335  13.196 -0.1078  0.0082 -0.0990
  814MPD2     C12031   4.227   2.467  12.379 -0.5976 -0.1674  0.4329
  814MPD2    C112032   4.311   2.486  12.272  0.3607  0.0517 -0.2116
  814MPD2    C212033   4.419   2.569  12.281  0.3396 -0.1009 -0.6160
  814MPD2    C312034   4.445   2.626  12.404 -0.1784 -1.0661  0.6336
  814MPD2    C412035   4.357   2.609  12.507  0.2104  0.2840  0.2206
  814MPD2    C512036   4.245   2.529  12.504  0.2242  0.7133 -0.5051
  814MPD2     H12037   4.481   2.587  12.194  0.7005  1.1369 -0.0996
  814MPD2    H112038   4.380   2.642  12.608  2.2928  1.1301 -0.5361
  814MPD2    H212039   4.154   2.388  12.366 -1.6658  1.3879 -2.9590
  814MPD2    H312040   4.192   2.496  12.593 -0.4599 -0.4846 -1.3608
  814MPD2     N12041   4.568   2.687  12.437  0.9123 -0.3276  0.3365
  814MPD2    H512042   4.562   2.725  12.532 -0.5569  1.1949 -0.3576
  814MPD2    N112043   4.303   2.408  12.151  0.4580 -0.7095  0.2044
  814MPD2    H712044   4.392   2.398  12.103  0.7663 -0.3376  0.6974
  815MPD2     C12045   0.434   0.951  12.028 -0.2953  0.3833  0.6678
  815MPD2    C112046   0.462   0.819  12.027  0.1849  0.1502  0.2235
  815MPD2    C212047   0.402   0.737  12.125 -0.3220 -0.7232 -0.0165
  815MPD2    C312048   0.300   0.776  12.203 -0.5940 -0.0176  0.1136
  815MPD2    C412049   0.266   0.914  12.196  0.3878 -1.4888 -0.4434
  815MPD2    C512050   0.338   1.001  12.112  0.1515  0.7238  0.3636
  815MPD2     H12051   0.427   0.633  12.143  1.5214 -0.4663 -1.1425
  815MPD2    H112052   0.176   0.953  12.242  0.5313  0.2463 -1.6212
  815MPD2    H212053   0.488   1.023  11.967 -1.0538  1.1933  0.9304
  815MPD2    H312054   0.302   1.103  12.122  0.5710  1.0466 -1.5543
  815MPD2     N12055   0.230   0.685  12.280 -0.2056  0.3184 -0.0191
  815MPD2    H512056   0.265   0.590  12.287 -0.5253  0.1294 -1.0146
  815MPD2    N112057   0.548   0.764  11.928  0.1240 -0.6940  0.0579
  815MPD2    H712058   0.548   0.814  11.839  1.6573 -1.9570 -0.6424
  816MPD2     C12059   4.736   4.451  17.075  0.2771  0.4024 -0.2251
  816MPD2    C112060   4.735   4.581  17.029  0.8628  0.5639 -0.1123
  816MPD2    C212061   0.083   4.619  16.929  0.5088 -0.3104 -0.4970
  816MPD2    C312062   0.164   4.523  16.870  0.3770  0.1729 -0.5899
  816MPD2    C412063   0.159   4.394  16.914 -0.1047  0.1240 -0.1162
  816MPD2    C512064   0.067   4.352  17.013  0.2040 -0.2126  0.7449
  816MPD2     H12065   0.089   4.726  16.911  0.0618  0.0232  1.3565
  816MPD2    H112066   0.220   4.322  16.861 -2.5983  0.6945 -3.7143
  816MPD2    H212067   4.669   4.418  17.153  0.5854 -2.1630 -1.0299
  816MPD2    H312068   0.058   4.253  17.055 -1.9111 -0.0932  0.5570
  816MPD2     N12069   0.248   4.557  16.757  0.1989 -0.4175  0.0190
  816MPD2    H512070   0.238   4.649  16.718  0.2795 -1.4051 -2.3314
  816MPD2    N112071   4.664   4.676  17.107 -0.0711 -0.2574  0.3782
  816MPD2    H712072   4.626   4.646  17.196  0.4479 -0.3325  0.5750
  817MPD2     C12073   4.215   1.648  10.008  0.0562 -0.0120 -0.7471
  817MPD2    C112074   4.313   1.744  10.035 -0.0286 -0.3001  0.3360
  817MPD2    C212075   4.295   1.867   9.973 -0.6805 -0.1163 -1.0918
  817MPD2    C312076   4.176   1.902   9.906 -0.3241  0.6135  0.2763
  817MPD2    C412077   4.083   1.800   9.894 -0.5341 -0.5207 -1.0035
  817MPD2    C512078   4.103   1.676   9.943  0.4135  0.0513 -0.8766
  817MPD2     H12079   4.372   1.942   9.990 -1.3631  0.1801  0.7458
  817MPD2    H112080   3.985   1.820   9.851 -0.8170  0.1744 -0.0334
  817MPD2    H212081   4.216   1.550  10.055  0.4424  1.2174  1.7741
  817MPD2    H312082   4.028   1.598   9.934 -2.9183  3.0585  0.7697
  817MPD2     N12083   4.152   2.036   9.871 -0.1394  0.5653  0.5331
  817MPD2    H512084   4.227   2.105   9.876  1.0502 -0.8757  2.4835
  817MPD2    N112085   4.434   1.719  10.109 -0.0506 -0.0504  0.7809
  817MPD2    H712086   4.506   1.790  10.102 -1.2833  1.0181 -1.0299
  818MPD2     C12087   3.652   1.100  10.006  0.2098  0.8488  0.5162
  818MPD2    C112088   3.562   1.104  10.108  0.5517 -0.3275  0.5689
  818MPD2    C212089   3.509   0.984  10.150  0.1967 -0.6002 -0.2187
  818MPD2    C312090   3.545   0.861  10.092  0.4313 -0.4476  0.2044
  818MPD2    C412091   3.634   0.860   9.992 -0.9595 -0.9025 -0.1958
  818MPD2    C512092   3.698   0.978   9.964  0.3835  0.7750  0.0972
  818MPD2     H12093   3.441   0.997  10.233  0.3569 -0.7610 -0.0614
  818MPD2    H112094   3.666   0.770   9.941 -1.1746 -1.4013  0.5367
  818MPD2    H212095   3.689   1.187   9.955  0.7002  1.1779  1.4239
  818MPD2    H312096   3.770   0.972   9.883  0.8919  0.3072  0.5776
  818MPD2     N12097   3.476   0.736  10.119  0.3732  0.3558  0.8247
  818MPD2    H512098   3.501   0.666  10.049  0.5965  0.7517  0.5064
  818MPD2    N112099   3.497   1.214  10.161 -0.0458  0.0441 -0.2150
  818MPD2    H712100   3.424   1.197  10.229 -0.8476 -1.6545 -1.5146
  819MPD2     C12101   1.318   3.018  15.639  0.1346  0.7572  0.4463
  819MPD2    C112102   1.319   2.997  15.773 -0.3229  0.7667 -0.6514
  819MPD2    C212103   1.439   2.991  15.843 -0.1256 -0.5466 -0.1789
  819MPD2    C312104   1.557   3.006  15.774  0.1208 -0.3034  1.0348
  819MPD2    C412105   1.555   3.024  15.637 -0.0467  0.1236 -0.2811
  819MPD2    C512106   1.432   3.027  15.574  0.5780  1.0867  0.7631
  819MPD2     H12107   1.439   2.991  15.952 -1.7984  0.3225 -0.1833
  819MPD2    H112108   1.645   3.044  15.579 -0.0973  0.0279 -0.3910
  819MPD2    H212109   1.231   3.026  15.574 -0.3390  0.0528  0.9948
  819MPD2    H312110   1.425   3.042  15.467 -3.1984 -0.6752  0.7561
  819MPD2     N12111   1.689   2.997  15.829  0.5792 -0.3268 -0.1482
  819MPD2    H512112   1.764   3.010  15.762  0.2717 -0.1500 -0.4577
  819MPD2    N112113   1.191   3.004  15.826 -0.0075 -0.0111 -0.6977
  819MPD2    H712114   1.113   2.992  15.762 -0.0531 -2.4077 -0.1928
  820MPD2     C12115   0.399   3.226  15.426 -0.3497 -0.0766  0.4558
  820MPD2    C112116   0.528   3.265  15.450 -0.0535  0.2479  0.4288
  820MPD2    C212117   0.611   3.200  15.536  0.4822  0.2293  0.3308
  820MPD2    C312118   0.560   3.091  15.607  0.4505  0.0845 -0.5423
  820MPD2    C412119   0.443   3.036  15.565 -0.1407  0.3510  0.6361
  820MPD2    C512120   0.366   3.105  15.476 -0.0135 -0.0262  0.9933
  820MPD2     H12121   0.716   3.226  15.547  0.9742 -1.0569 -1.4443
  820MPD2    H112122   0.410   2.939  15.599 -3.8799  1.4087  0.0357
  820MPD2    H212123   0.347   3.276  15.345 -2.2231  0.3648  1.9443
  820MPD2    H312124   0.266   3.066  15.463  0.6702 -1.0303 -1.2227
  820MPD2     N12125   0.641   3.030  15.708  0.1581  0.2018 -0.0665
  820MPD2    H512126   0.610   2.938  15.737  0.6633 -0.1853 -0.7633
  820MPD2    N112127   0.566   3.387  15.390  0.0245  0.1337 -0.4024
  820MPD2    H712128   0.488   3.431  15.341  0.3879  0.2958 -0.8312
  821MPD2     C12129   1.910   4.683  14.020 -0.5876  1.0712 -0.6666
  821MPD2    C112130   2.019   4.590  14.024  0.6798 -0.4323 -0.4928
  821MPD2    C212131   2.087   4.563  13.909  0.2435  0.0491 -0.0613
  821MPD2    C312132   2.067   4.639  13.795 -0.0843  0.9270  0.2949
  821MPD2    C412133   1.962   4.727  13.792  0.0304  0.0180  0.6740
  821MPD2    C512134   1.891   0.016  13.911  0.1479 -0.4071  0.6895
  821MPD2     H12135   2.157   4.480  13.915  1.2816  0.9309 -0.0227
  821MPD2    H112136   1.932   0.041  13.703 -2.0950 -2.8368 -0.3529
  821MPD2    H212137   1.847   4.707  14.104 -0.6515  2.1635 -1.0209
  821MPD2    H312138   1.812   0.088  13.926  0.5322 -0.1156  1.2878
  821MPD2     N12139   2.124   4.609  13.674 -0.0757  1.1057 -0.4656
  821MPD2    H512140   2.092   4.669  13.599 -0.8297  1.8896  0.4871
  821MPD2    N112141   2.068   4.525  14.141 -0.2054 -0.4588  0.3716
  821MPD2    H712142   2.129   4.445  14.125 -0.0160 -0.6003  1.8330
  822MPD2     C12143   2.583   0.002  15.734 -0.3676  0.3561  0.2681
  822MPD2    C112144   2.568   4.697  15.863  0.0886 -0.4897 -0.0645
  822MPD2    C212145   2.485   0.035  15.942  0.1713  0.0303 -0.5952
  822MPD2    C312146   2.447   0.163  15.914 -0.6780 -0.0961 -0.0055
  822MPD2    C412147   2.470   0.213  15.783  0.3356  0.0170 -0.8106
  822MPD2    C512148   2.531   0.118  15.698 -0.1202  0.0625 -0.6403
  822MPD2     H12149   2.468   4.730  16.039  3.5873 -0.8845 -0.3864
  822MPD2    H112150   2.442   0.309  15.741 -1.5999 -0.8831 -1.6051
  822MPD2    H212151   2.618   4.678  15.655 -1.0711  0.1106  0.1517
  822MPD2    H312152   2.538   0.148  15.594 -0.7594  0.1523 -0.6567
  822MPD2     N12153   2.377   0.228  16.019 -0.9346  0.1385 -0.5062
  822MPD2    H512154   2.376   0.192  16.114  2.5211 -0.4914 -0.7264
  822MPD2    N112155   2.621   4.573  15.909  0.0281  0.1514 -0.0321
  822MPD2    H712156   2.615   4.560  16.009 -2.6184  0.7435 -0.1098
  823MPD2     C12157   2.146   0.348  16.807 -0.9654 -0.1500 -0.0151
  823MPD2    C112158   2.151   0.276  16.692 -1.0944 -0.1007 -1.0380
  823MPD2    C212159   2.139   0.138  16.708  0.4198  0.3384  0.4707
  823MPD2    C312160   2.111   0.079  16.829 -0.3245 -1.1347  0.6116
  823MPD2    C412161   2.087   0.159  16.941 -0.1980  0.4510 -0.0341
  823MPD2    C512162   2.106   0.294  16.929 -0.4878 -0.1361  0.7214
  823MPD2     H12163   2.155   0.073  16.623  1.5999  0.5744  0.5020
  823MPD2    H112164   2.077   0.112  17.038 -0.1763 -2.6360 -1.5065
  823MPD2    H212165   2.149   0.456  16.807  0.3503 -0.1877 -1.0878
  823MPD2    H312166   2.078   0.363  17.007 -0.9359 -0.2980  0.7014
  823MPD2     N12167   2.098   4.679  16.844  0.1537  0.4624  0.2824
  823MPD2    H512168   2.085   4.637  16.935 -1.0795  1.3641  0.5196
  823MPD2    N112169   2.170   0.338  16.573 -0.6853  0.0450  0.3069
  823MPD2    H712170   2.173   0.440  16.573  1.0712 -0.0082  1.0840
  824MPD2     C12171   3.010   3.878  15.707  0.4300 -0.0755 -0.0071
  824MPD2    C112172   3.086   3.986  15.751  0.5200 -0.3214  0.0568
  824MPD2    C212173   3.220   4.005  15.722 -0.2980 -0.2910  0.2743
  824MPD2    C312174   3.288   3.897  15.663 -0.3872 -0.0010  0.1288
  824MPD2    C412175   3.213   3.783  15.634  0.0851 -0.3055 -0.4192
  824MPD2    C512176   3.075   3.779  15.641 -0.3255 -0.2839 -0.2739
  824MPD2     H12177   3.274   4.095  15.750 -0.5284 -0.6934  1.9529
  824MPD2    H112178   3.256   3.692  15.593 -1.8415  0.0517 -3.2596
  824MPD2    H212179   2.904   3.880  15.730 -0.1087 -2.3201 -2.3854
  824MPD2    H312180   3.022   3.694  15.602 -1.2445  0.4131 -0.5496
  824MPD2     N12181   3.428   3.914  15.646 -0.7974 -0.0994 -0.9521
  824MPD2    H512182   3.474   3.999  15.676  0.8706 -1.4844  0.4240
  824MPD2    N112183   3.019   4.087  15.826  0.0832 -0.5814  0.3444
  824MPD2    H712184   3.064   4.178  15.838  0.9403 -1.3036  2.5387
  825MPD2     C12185   4.201   4.233  15.410  0.4357  0.5147  0.3226
  825MPD2    C112186   4.069   4.255  15.403 -0.5131 -0.2536  0.4859
  825MPD2    C212187   4.029   4.382  15.370 -0.4076 -0.4986  0.2838
  825MPD2    C312188   4.117   4.476  15.318  0.1404  0.0930  0.4614
  825MPD2    C412189   4.254   4.448  15.333  0.0682 -0.6658 -0.3473
  825MPD2    C512190   4.293   4.328  15.376  0.3914 -0.4651  0.2024
  825MPD2     H12191   3.922   4.397  15.363 -0.6243 -1.2320  2.1514
  825MPD2    H112192   4.330   4.518  15.299 -0.7096  0.1821 -0.3553
  825MPD2    H212193   4.241   4.140  15.449  0.3666  0.5954  0.5853
  825MPD2    H312194   4.399   4.306  15.388  0.5422  0.8221  1.2901
  825MPD2     N12195   4.081   4.597  15.260  0.7306 -0.1498 -0.1176
  825MPD2    H512196   4.159   4.651  15.225 -1.7320  3.0924 -0.5829
  825MPD2    N112197   3.994   4.144  15.440 -0.1529  0.3530 -0.1130
  825MPD2    H712198   4.050   4.060  15.450 -2.4771 -1.1621  0.1823
  826MPD2     C12199   2.057   3.614  14.024 -0.5796  0.5240  0.0517
  826MPD2    C112200   2.169   3.632  13.940  0.0864  0.1895 -0.6804
  826MPD2    C212201   2.236   3.746  13.948  0.8717  0.2999  0.6230
  826MPD2    C312202   2.221   3.839  14.054 -0.7008  0.0372  0.3269
  826MPD2    C412203   2.120   3.809  14.142 -0.4678 -0.3342 -0.4641
  826MPD2    C512204   2.030   3.703  14.124  0.5865  0.3142 -0.0682
  826MPD2     H12205   2.303   3.775  13.867  2.1616  0.1558  1.6400
  826MPD2    H112206   2.093   3.880  14.219  1.6224  0.3182 -0.3258
  826MPD2    H212207   1.994   3.527  14.015  2.4363 -1.8622  2.1989
  826MPD2    H312208   1.953   3.677  14.196 -0.1723  0.5296 -0.8100
  826MPD2     N12209   2.304   3.953  14.073 -0.7051 -0.1461  0.1993
  826MPD2    H512210   2.301   4.006  14.159 -1.5117  1.0188 -0.5424
  826MPD2    N112211   2.202   3.531  13.858 -1.2309  0.1048 -0.5693
  826MPD2    H712212   2.141   3.450  13.869  1.3824 -1.6735  0.7172
  827MPD2     C12213   4.161   0.247  10.410  0.2554 -0.2029  0.7457
  827MPD2    C112214   4.101   0.147  10.482 -0.1263 -0.0606 -0.3313
  827MPD2    C212215   3.981   0.093  10.437  0.3687 -0.0126  0.0693
  827MPD2    C312216   3.923   0.138  10.315 -0.2167  0.4710 -0.6745
  827MPD2    C412217   3.989   0.237  10.247  0.1456  0.3099 -0.6900
  827MPD2    C512218   4.100   0.296  10.294 -0.4128  0.1900  0.8030
  827MPD2     H12219   3.935   0.011  10.492 -1.3148  0.7038 -0.2717
  827MPD2    H112220   3.949   0.271  10.152 -1.7405  0.2027  0.0814
  827MPD2    H212221   4.255   0.295  10.433 -0.1458 -0.1920  2.3467
  827MPD2    H312222   4.139   0.377  10.234  0.1051 -1.0780 -0.5681
  827MPD2     N12223   3.806   0.075  10.276 -0.2835  0.2559 -0.4528
  827MPD2    H512224   3.765   4.739  10.329  2.9003 -0.4095  1.0770
  827MPD2    N112225   4.177   0.094  10.590 -0.4914  0.4275  0.8312
  827MPD2    H712226   4.254   0.151  10.625  1.5845 -0.8532 -1.5869
  828MPD2     C12227   3.156   0.214  12.272  0.1169  0.7030 -0.4832
  828MPD2    C112228   3.060   0.207  12.174  0.2813 -0.0497 -0.2326
  828MPD2    C212229   3.090   0.151  12.048 -0.3140 -0.4588  0.0279
  828MPD2    C312230   3.217   0.108  12.017 -0.1090  0.5235 -0.2663
  828MPD2    C412231   3.318   0.123  12.109 -0.5687  0.5373 -0.1694
  828MPD2    C512232   3.283   0.168  12.236  0.2075  0.0211 -0.1421
  828MPD2     H12233   3.016   0.157  11.970 -1.5967 -0.8167  1.2072
  828MPD2    H112234   3.423   0.106  12.087 -0.4805  1.0417 -0.1399
  828MPD2    H212235   3.138   0.242  12.375 -3.4265 -0.4923 -0.7589
  828MPD2    H312236   3.368   0.179  12.302 -0.2670  1.1752  0.2698
  828MPD2     N12237   3.261   0.078  11.885 -0.6348  0.1726  0.3201
  828MPD2    H512238   3.360   0.072  11.868 -0.4134  3.1401  0.4973
  828MPD2    N112239   2.927   0.246  12.190 -0.1479  0.9431 -0.1535
  828MPD2    H712240   2.864   0.240  12.110 -3.5559 -0.4004  2.6053
  829MPD2     C12241   2.594   0.071  11.543  0.0057  0.4976 -0.2755
  829MPD2    C112242   2.472   0.091  11.602  0.3424 -0.2214 -0.0808
  829MPD2    C212243   2.471   0.131  11.736  0.3345  0.1288  0.4505
  829MPD2    C312244   2.589   0.132  11.815 -0.1196  0.0927  0.1195
  829MPD2    C412245   2.710   0.102  11.753  0.6379 -0.1855 -0.1102
  829MPD2    C512246   2.713   0.075  11.614  0.0235 -0.6803 -0.2077
  829MPD2     H12247   2.373   0.149  11.778 -0.6490 -2.0503 -0.8950
  829MPD2    H112248   2.804   0.103  11.808  2.1888 -0.1993 -2.7404
  829MPD2    H212249   2.605   0.042  11.439  0.1224 -1.8781  0.4135
  829MPD2    H312250   2.802   0.038  11.565  1.6634  1.0142  1.5068
  829MPD2     N12251   2.591   0.163  11.953  0.4181  0.3750 -0.7484
  829MPD2    H512252   2.682   0.157  11.998  0.3427  0.2389 -0.6137
  829MPD2    N112253   2.366   0.081  11.513 -0.5540  0.4168 -0.2659
  829MPD2    H712254   2.393   0.053  11.419  2.5583 -0.3996  0.8652
  830MPD2     C12255   2.504   3.067  15.744 -0.4891  0.6396  0.4962
  830MPD2    C112256   2.392   3.002  15.697  0.7456 -0.3698  0.1029
  830MPD2    C212257   2.383   2.952  15.571  0.6610  0.0894 -0.3746
  830MPD2    C312258   2.484   2.983  15.480  0.4141  0.3471 -0.7871
  830MPD2    C412259   2.602   3.039  15.532  0.1187 -0.5262 -0.4538
  830MPD2    C512260   2.611   3.082  15.662  0.1047  0.0327  0.2522
  830MPD2     H12261   2.293   2.899  15.541  1.4839 -2.5975  1.9150
  830MPD2    H112262   2.678   3.062  15.458 -0.1632  2.2374  0.1222
  830MPD2    H212263   2.513   3.110  15.843  0.2940  1.6321 -0.0043
  830MPD2    H312264   2.694   3.143  15.694  0.1418  0.3668 -0.4971
  830MPD2     N12265   2.468   2.969  15.338 -0.0538  0.1710  0.1982
  830MPD2    H512266   2.547   3.006  15.285 -0.1695  0.6490  0.3541
  830MPD2    N112267   2.292   2.979  15.792 -1.1891 -0.5129 -0.2531
  830MPD2    H712268   2.317   2.991  15.890 -0.0703  0.0161 -0.6042
  831MPD2     C12269   2.591   0.302  16.280  0.5644 -0.7050 -0.0962
  831MPD2    C112270   2.651   0.193  16.217 -0.0142 -0.1832 -0.3353
  831MPD2    C212271   2.611   0.071  16.246 -0.2258 -0.0152 -0.3184
  831MPD2    C312272   2.508   0.057  16.333 -0.0392  0.9201  0.5811
  831MPD2    C412273   2.468   0.158  16.414 -0.9586  0.1533 -0.1816
  831MPD2    C512274   2.505   0.285  16.388  0.3456  0.1540  0.4223
  831MPD2     H12275   2.650   4.721  16.198 -2.0991 -0.9456 -0.0961
  831MPD2    H112276   2.395   0.142  16.492  0.7110  0.6100  1.4702
  831MPD2    H212277   2.620   0.404  16.261  2.8943 -1.2501  0.5160
  831MPD2    H312278   2.487   0.374  16.447  0.3206 -0.5591  1.4902
  831MPD2     N12279   2.426   4.685  16.341  0.4184 -0.4568  0.3251
  831MPD2    H512280   2.347   4.699  16.404 -0.3493 -1.8610 -0.3105
  831MPD2    N112281   2.744   0.222  16.110 -0.2233  0.4405 -0.4953
  831MPD2    H712282   2.753   0.317  16.075  1.2690  1.0158  1.4688
  832MPD2     C12283   0.818   0.673  17.189  0.5549 -0.0446 -0.4212
  832MPD2    C112284   0.779   0.799  17.202  0.2134 -0.3093 -0.1640
  832MPD2    C212285   0.680   0.854  17.124  0.4449 -0.1203 -0.7546
  832MPD2    C312286   0.610   0.779  17.030  0.0944 -0.6550 -0.6857
  832MPD2    C412287   0.654   0.647  17.011  0.3300  0.3341 -0.4444
  832MPD2    C512288   0.760   0.600  17.086 -0.1750  0.0178 -0.5789
  832MPD2     H12289   0.633   0.948  17.151  1.0530  0.1181 -0.5215
  832MPD2    H112290   0.608   0.576  16.944 -0.0324 -1.1854  1.4335
  832MPD2    H212291   0.903   0.629  17.240  0.7319  0.1595 -0.5368
  832MPD2    H312292   0.785   0.494  17.082  0.5324  0.2972 -3.3057
  832MPD2     N12293   0.497   0.823  16.966  0.2430  0.2452 -0.0869
  832MPD2    H512294   0.445   0.749  16.921  0.2696  0.4575 -0.4608
  832MPD2    N112295   0.850   0.870  17.298  0.1087  0.0895 -0.0825
  832MPD2    H712296   0.920   0.821  17.353 -1.0463 -1.0124  0.3959
  833MPD2     C12297   3.285   2.615  12.804 -0.0093  0.5661 -1.2809
  833MPD2    C112298   3.214   2.656  12.702  0.0440  0.0119  0.5718
  833MPD2    C212299   3.260   2.627  12.576  0.1113  0.1198  0.9932
  833MPD2    C312300   3.387   2.563  12.553  0.2984  0.4341 -0.2309
  833MPD2    C412301   3.452   2.523  12.668  0.5365 -0.3001  0.4192
  833MPD2    C512302   3.402   2.549  12.794  0.3607 -0.1308 -0.0166
  833MPD2     H12303   3.204   2.652  12.487 -0.5092  1.8454  1.8518
  833MPD2    H112304   3.549   2.475  12.659  0.2114 -1.3079  2.1388
  833MPD2    H212305   3.237   2.624  12.901  0.4843 -1.4058 -0.8503
  833MPD2    H312306   3.462   2.515  12.877  0.3848  1.4220  0.5991
  833MPD2     N12307   3.447   2.545  12.425  0.7832 -0.4002 -0.6775
  833MPD2    H512308   3.540   2.506  12.421  0.6642 -0.8106  0.4261
  833MPD2    N112309   3.099   2.735  12.728  0.0938 -0.5641 -0.0853
  833MPD2    H712310   3.085   2.773  12.822 -0.6193 -1.5971  0.2219
  834MPD2     C12311   3.254   1.783  11.791  0.6470 -0.3763  0.8782
  834MPD2    C112312   3.243   1.876  11.694  0.0377  0.4016  0.0230
  834MPD2    C212313   3.279   2.008  11.724 -0.2843  0.4405 -0.6342
  834MPD2    C312314   3.334   2.040  11.848 -0.6906 -0.8457 -0.0153
  834MPD2    C412315   3.364   1.933  11.937 -0.5505  0.1885  0.6140
  834MPD2    C512316   3.310   1.809  11.911  0.2267  0.4231  0.2230
  834MPD2     H12317   3.250   2.089  11.658 -1.3337  0.8025  0.2676
  834MPD2    H112318   3.394   1.946  12.040  0.0824  1.1506  0.3147
  834MPD2    H212319   3.218   1.682  11.777  0.8239 -0.4614  1.0255
  834MPD2    H312320   3.325   1.725  11.978 -0.4490  1.6810  1.9299
  834MPD2     N12321   3.358   2.172  11.888  0.7916  0.0041  0.0718
  834MPD2    H512322   3.316   2.239  11.825 -0.1502 -0.6659 -0.0108
  834MPD2    N112323   3.190   1.843  11.567 -0.3882  0.0863 -0.3450
  834MPD2    H712324   3.150   1.750  11.559 -0.5168  0.1387 -0.3097
  835MPD2     C12325   3.154   0.186  11.258  0.7202 -0.4031 -0.1648
  835MPD2    C112326   3.052   0.241  11.336  0.9319 -0.2266  0.6876
  835MPD2    C212327   3.087   0.290  11.461 -0.9380  0.0718 -0.0637
  835MPD2    C312328   3.211   0.286  11.516  0.4625  0.3777 -0.2579
  835MPD2    C412329   3.314   0.244  11.436  0.8776 -0.4490 -0.2259
  835MPD2    C512330   3.285   0.195  11.310  0.0788 -0.0912  0.5536
  835MPD2     H12331   3.001   0.322  11.518 -0.9172  0.4426 -0.2371
  835MPD2    H112332   3.416   0.247  11.471  0.7729  2.3847 -0.1840
  835MPD2    H212333   3.130   0.138  11.164 -0.5066 -2.9024  1.4054
  835MPD2    H312334   3.373   0.172  11.252  1.3675  0.7619  2.1284
  835MPD2     N12335   3.236   0.349  11.646 -0.6708  0.7031  0.0930
  835MPD2    H512336   3.335   0.351  11.667 -1.0713 -1.7887  2.1317
  835MPD2    N112337   2.918   0.240  11.307 -0.1300  0.0312 -0.9250
  835MPD2    H712338   2.860   0.287  11.376  0.8539 -1.7293  1.1067
  836MPD2     C12339   2.670   0.594  12.081 -0.3233 -0.2656  0.3079
  836MPD2    C112340   2.772   0.601  12.167 -0.4547  0.1969  0.2246
  836MPD2    C212341   2.755   0.602  12.302  0.0491 -0.3996 -0.0648
  836MPD2    C312342   2.624   0.622  12.354 -0.0710 -1.2477 -0.5649
  836MPD2    C412343   2.520   0.624  12.266 -1.2214 -0.6344  0.2093
  836MPD2    C512344   2.541   0.602  12.126 -0.4424 -0.6366  0.1699
  836MPD2     H12345   2.845   0.599  12.362  0.3234  1.0373 -0.4063
  836MPD2    H112346   2.420   0.637  12.304 -0.7188 -0.3420  1.4273
  836MPD2    H212347   2.679   0.578  11.974 -0.6609 -1.6358  0.4806
  836MPD2    H312348   2.450   0.605  12.068 -0.5277 -1.7054  0.2484
  836MPD2     N12349   2.585   0.639  12.491 -0.1287  0.2459 -0.4512
  836MPD2    H512350   2.487   0.651  12.515  0.3892  1.4440  0.9990
  836MPD2    N112351   2.894   0.588  12.096  0.4225 -0.0147 -0.0267
  836MPD2    H712352   2.882   0.565  11.998  2.1736  4.8530 -1.3890
  837MPD2     C12353   1.169   4.604   9.896 -0.6174 -0.6591  0.2984
  837MPD2    C112354   1.039   4.653   9.911  0.8140 -0.4236 -0.9284
  837MPD2    C212355   1.015   0.029   9.978 -0.4308 -0.1405 -0.0995
  837MPD2    C312356   1.125   0.103  10.026  0.0870  0.4316  0.4406
  837MPD2    C412357   1.256   0.066  10.002  0.2678 -0.1915 -0.3269
  837MPD2    C512358   1.270   4.687   9.936  0.1058 -0.1046  0.0591
  837MPD2     H12359   0.914   0.067   9.981 -0.0725  0.8578 -0.5157
  837MPD2    H112360   1.344   0.120  10.036  1.2757 -3.1733  1.7920
  837MPD2    H212361   1.191   4.503   9.864 -1.5680 -0.6791 -0.2964
  837MPD2    H312362   1.375   4.662   9.928 -0.2756 -2.1951  1.7140
  837MPD2     N12363   1.093   0.225  10.095  0.7004  0.2559 -0.1133
  837MPD2    H512364   0.997   0.258  10.090  0.3081 -1.4014 -3.4504
  837MPD2    N112365   0.921   4.577   9.891 -0.0769 -0.6954  0.7544
  837MPD2    H712366   0.840   4.635   9.872  0.2247 -1.0077 -1.4513
  838MPD2     C12367   4.526   3.054  12.304 -0.8494  0.7716 -0.5325
  838MPD2    C112368   4.433   2.966  12.245 -0.2697  0.6039 -0.3537
  838MPD2    C212369   4.327   2.922  12.323 -0.1232 -0.0657 -0.2035
  838MPD2    C312370   4.314   2.953  12.452 -0.4318 -0.0184 -0.1610
  838MPD2    C412371   4.394   3.052  12.508  0.1534  0.0585  0.3406
  838MPD2    C512372   4.500   3.100  12.431 -0.0530  0.0615 -0.2727
  838MPD2     H12373   4.255   2.853  12.281 -1.2162  0.4809  0.7616
  838MPD2    H112374   4.379   3.077  12.612  1.1105 -2.1708  1.0221
  838MPD2    H212375   4.618   3.080  12.254 -0.9051 -1.3312 -1.7717
  838MPD2    H312376   4.570   3.172  12.473 -0.7909 -0.4152  1.7464
  838MPD2     N12377   4.197   2.900  12.511  0.1257  0.3344 -0.3131
  838MPD2    H512378   4.135   2.849  12.448  1.2320 -0.0199 -1.1204
  838MPD2    N112379   4.437   2.924  12.110  0.5656  0.5204 -0.1393
  838MPD2    H712380   4.358   2.869  12.081  2.5777 -1.3847 -1.9372
  839MPD2     C12381   3.851   2.407  11.861  0.5432  0.6434 -0.3030
  839MPD2    C112382   3.951   2.348  11.793  0.2751  0.6283  0.0516
  839MPD2    C212383   4.077   2.413  11.787 -0.0585 -0.4687 -0.3536
  839MPD2    C312384   4.093   2.538  11.839  0.2215 -0.1708  0.0033
  839MPD2    C412385   3.979   2.593  11.899 -0.4780  0.1294  0.0196
  839MPD2    C512386   3.865   2.529  11.912  0.0535 -0.0518  0.0073
  839MPD2     H12387   4.164   2.362  11.748 -0.9919 -1.2860 -1.3683
  839MPD2    H112388   3.987   2.693  11.939 -0.3149 -0.1540  0.6951
  839MPD2    H212389   3.752   2.364  11.872  0.1096  1.5853 -0.5063
  839MPD2    H312390   3.786   2.585  11.960 -1.3005 -1.6975 -0.3406
  839MPD2     N12391   4.217   2.618  11.838 -0.3720 -0.7740  0.5396
  839MPD2    H512392   4.214   2.706  11.889 -0.6887  0.4621 -1.5982
  839MPD2    N112393   3.941   2.222  11.734  0.5375  0.0645 -0.4889
  839MPD2    H712394   4.019   2.192  11.678  1.3941  2.0040 -0.3518
  840MPD2     C12395   4.373   0.560  10.804  0.1783 -0.1767  0.3809
  840MPD2    C112396   4.401   0.493  10.917  0.3135 -0.2733 -0.1314
  840MPD2    C212397   4.495   0.537  11.011  0.3608  0.3715  0.8776
  840MPD2    C312398   4.544   0.666  11.002  0.4938 -0.6451  0.1743
  840MPD2    C412399   4.514   0.733  10.885 -0.5657  0.1969  0.1745
  840MPD2    C512400   4.434   0.684  10.783  0.6412 -0.0412 -0.1703
  840MPD2     H12401   4.515   0.470  11.094 -2.4231 -3.3842 -1.4287
  840MPD2    H112402   4.557   0.831  10.870 -0.8811  0.3802  0.4811
  840MPD2    H212403   4.301   0.524  10.732  1.5584 -0.4184 -0.8755
  840MPD2    H312404   4.415   0.727  10.685 -0.5975  0.4821  0.2910
  840MPD2     N12405   4.634   0.728  11.092 -0.2110 -0.3697  0.1874
  840MPD2    H512406   4.675   0.818  11.070  0.6337 -0.9024 -0.4129
  840MPD2    N112407   4.336   0.370  10.927 -0.6301  0.3896  0.1261
  840MPD2    H712408   4.272   0.353  10.849 -0.3604  1.0228 -0.2291
  841MPD2     C12409   4.380   0.451  14.176 -0.5288  0.2229  0.4825
  841MPD2    C112410   4.381   0.376  14.291  0.7746  0.4339  0.1052
  841MPD2    C212411   4.436   0.432  14.405  0.4089  0.3854 -0.3010
  841MPD2    C312412   4.496   0.558  14.400 -0.1065  0.0301  0.1467
  841MPD2    C412413   4.517   0.617  14.274  0.0232  0.2975  0.0868
  841MPD2    C512414   4.456   0.558  14.164  0.0369  0.6574 -0.8325
  841MPD2     H12415   4.444   0.381  14.500  1.8298 -1.0083 -1.1503
  841MPD2    H112416   4.573   0.708  14.256  0.0814  0.5655  1.6775
  841MPD2    H212417   4.332   0.407  14.089  2.2155  0.0499 -0.9378
  841MPD2    H312418   4.476   0.601  14.067 -1.2001  0.7301 -1.0482
  841MPD2     N12419   4.543   0.610  14.517  0.3829  0.3405  0.0867
  841MPD2    H512420   4.517   0.559  14.601 -1.3395 -0.3836 -0.8887
  841MPD2    N112421   4.309   0.254  14.290 -0.3749 -0.4196 -0.5811
  841MPD2    H712422   4.248   0.241  14.210  0.9022  2.3920 -2.0032
  842MPD2     C12423   0.125   1.228  16.988 -0.0876  0.7927 -0.1235
  842MPD2    C112424   4.737   1.200  16.952  0.2160  1.0645  0.3141
  842MPD2    C212425   4.671   1.109  17.034 -0.4765  0.1800 -0.7528
  842MPD2    C312426   0.004   1.058  17.153 -0.7796 -0.4559  0.3684
  842MPD2    C412427   0.133   1.088  17.173  0.3005  0.4767  0.2142
  842MPD2    C512428   0.195   1.170  17.088 -0.2024 -0.1799 -0.1298
  842MPD2     H12429   4.566   1.086  17.016 -0.2588 -1.3546 -0.0430
  842MPD2    H112430   0.178   1.057  17.266  0.3697  1.1062  0.3950
  842MPD2    H212431   0.192   1.290  16.929  2.0199 -0.3615  1.0363
  842MPD2    H312432   0.296   1.207  17.103 -0.2784 -0.7829  1.9212
  842MPD2     N12433   4.681   0.969  17.246 -0.4232 -0.1286  0.4326
  842MPD2    H512434   0.007   0.932  17.314 -0.7765 -2.7031 -0.6324
  842MPD2    N112435   4.690   1.264  16.832 -0.3332  0.1032  0.4907
  842MPD2    H712436   0.020   1.319  16.783 -0.7989  0.8533  0.6717
  843MPD2     C12437   2.374   2.487  17.225 -0.9430  0.3121 -0.2258
  843MPD2    C112438   2.310   2.440  17.338 -0.1772 -0.6866  0.7163
  843MPD2    C212439   2.328   2.501  17.459 -0.3675  0.3751  0.0983
  843MPD2    C312440   2.414   2.607  17.475 -0.0875 -0.2538  0.1571
  843MPD2    C412441   2.486   2.651  17.364 -0.6540 -0.3407 -0.4473
  843MPD2    C512442   2.463   2.593  17.239  0.6498 -0.2446  0.4204
  843MPD2     H12443   2.283   2.452  17.544  0.5013 -1.1617 -0.3393
  843MPD2    H112444   2.560   2.730  17.367 -1.6162  0.4153  2.6347
  843MPD2    H212445   2.341   2.450  17.128 -0.2455 -0.7255 -0.0684
  843MPD2    H312446   2.531   2.630  17.163 -0.4676 -1.5020 -1.1780
  843MPD2     N12447   2.427   2.673  17.597 -0.8158 -0.1731  0.2885
  843MPD2    H512448   2.501   2.742  17.610 -1.7825  1.1059 -1.0470
  843MPD2    N112449   2.214   2.343  17.312  0.9803 -0.7259  0.1518
  843MPD2    H712450   2.211   2.317  17.214 -1.4737 -0.9581  0.2916
  844MPD2     C12451   0.461   1.057  16.260  0.8604  0.4990 -0.2952
  844MPD2    C112452   0.490   0.925  16.290 -0.3284  0.3013 -1.0191
  844MPD2    C212453   0.548   0.895  16.415  0.1907  0.1640 -0.1459
  844MPD2    C312454   0.575   0.993  16.503 -0.2685  0.0753  0.4811
  844MPD2    C412455   0.535   1.124  16.474 -0.0430 -0.1234  0.7513
  844MPD2    C512456   0.467   1.155  16.359 -0.4169 -0.0940 -0.2341
  844MPD2     H12457   0.594   0.798  16.433 -0.3650  0.1577  1.2275
  844MPD2    H112458   0.558   1.208  16.538  1.5959 -0.2786  0.3490
  844MPD2    H212459   0.422   1.082  16.161  1.3088  1.2370 -0.2838
  844MPD2    H312460   0.447   1.258  16.332  0.5524  0.5558  1.5613
  844MPD2     N12461   0.665   0.962  16.611  0.1448 -0.5303  0.0693
  844MPD2    H512462   0.688   0.863  16.620 -0.3971 -0.5757  0.9717
  844MPD2    N112463   0.475   0.817  16.195 -0.0089  0.0819 -0.2378
  844MPD2    H712464   0.483   0.723  16.233 -0.5229  0.6157  1.1716
  845MPD2     C12465   1.172   1.516  17.287  0.1866  0.9012 -0.4728
  845MPD2    C112466   1.046   1.484  17.310  0.1133  0.2589  0.2184
  845MPD2    C212467   0.994   1.376  17.240 -0.1079 -0.8822 -0.6784
  845MPD2    C312468   1.072   1.312  17.149 -0.3001 -0.3193 -0.4048
  845MPD2    C412469   1.206   1.331  17.147 -0.1293 -0.8998 -0.0184
  845MPD2    C512470   1.256   1.442  17.208 -0.1714  0.4233  0.0880
  845MPD2     H12471   0.896   1.340  17.270 -0.3712 -1.8564 -2.7110
  845MPD2    H112472   1.270   1.291  17.069  1.0524 -1.4234  1.2113
  845MPD2    H212473   1.213   1.605  17.334  1.3995  0.2990 -0.3957
  845MPD2    H312474   1.359   1.470  17.190 -0.6999  1.8021 -0.7921
  845MPD2     N12475   1.016   1.212  17.068 -0.5542  0.0154 -0.7804
  845MPD2    H512476   0.915   1.214  17.062 -0.4691  0.2969 -1.9994
  845MPD2    N112477   0.960   1.558  17.389 -0.4616 -0.0560  0.0790
  845MPD2    H712478   0.871   1.517  17.416  0.2324 -0.8193  1.1868
  846MPD2     C12479   2.475   2.304  14.392  0.0547 -0.0876 -1.0107
  846MPD2    C112480   2.353   2.356  14.362  0.0956 -0.1929  0.4975
  846MPD2    C212481   2.251   2.331  14.453 -0.1794 -0.4223 -0.1567
  846MPD2    C312482   2.272   2.286  14.579  0.2473 -0.4685  0.1557
  846MPD2    C412483   2.394   2.226  14.601 -0.5429  0.3906  0.2161
  846MPD2    C512484   2.491   2.230  14.511  0.4081 -0.4753  0.0644
  846MPD2     H12485   2.159   2.381  14.423 -0.0291  0.7483  1.3695
  846MPD2    H112486   2.407   2.178  14.697  0.1714 -0.1360 -0.1403
  846MPD2    H212487   2.562   2.308  14.326  0.5939 -0.9315 -0.3530
  846MPD2    H312488   2.585   2.180  14.531 -0.0170 -0.0906  3.0862
  846MPD2     N12489   2.166   2.272  14.670 -0.0880  0.5794 -0.3799
  846MPD2    H512490   2.073   2.264  14.630 -0.4060 -2.0470  0.9002
  846MPD2    N112491   2.323   2.431  14.243 -0.1525 -0.3864  0.3312
  846MPD2    H712492   2.229   2.467  14.233  0.0283 -0.1241 -0.3690
  847MPD2     C12493   1.295   3.144  14.862  0.2968 -0.5057  0.7399
  847MPD2    C112494   1.390   3.164  14.767 -0.8119 -0.0362  0.5921
  847MPD2    C212495   1.451   3.060  14.711  0.6367  0.0128 -0.0325
  847MPD2    C312496   1.420   2.929  14.760 -0.5195 -0.6152  1.1625
  847MPD2    C412497   1.326   2.905  14.858  0.7715 -0.3722 -0.8639
  847MPD2    C512498   1.256   3.017  14.898  0.7288  0.2587 -0.1806
  847MPD2     H12499   1.531   3.080  14.639 -1.9212  0.3482 -2.7997
  847MPD2    H112500   1.290   2.810  14.896  0.7748 -0.3447 -0.7915
  847MPD2    H212501   1.247   3.225  14.915  0.5469  0.5616 -0.6855
  847MPD2    H312502   1.184   3.010  14.979  1.8328  0.7902  0.8416
  847MPD2     N12503   1.502   2.831  14.701  0.7793 -0.3578 -0.1312
  847MPD2    H512504   1.551   2.859  14.616  1.9115  2.4648  1.4612
  847MPD2    N112505   1.419   3.292  14.708 -0.5025  0.0654  0.8506
  847MPD2    H712506   1.476   3.297  14.624 -1.4821 -1.1115  0.1065
  848MPD2     C12507   0.183   1.402  16.398  0.0381 -0.1715  0.0130
  848MPD2    C112508   0.273   1.401  16.504  0.2872 -0.2683 -0.0953
  848MPD2    C212509   0.366   1.508  16.509  0.2586 -0.4015 -0.3410
  848MPD2    C312510   0.360   1.615  16.422  0.2190 -0.0169  0.1461
  848MPD2    C412511   0.259   1.616  16.329  0.6255 -0.0928 -0.6227
  848MPD2    C512512   0.173   1.512  16.320  0.0311  0.8882  0.2509
  848MPD2     H12513   0.432   1.503  16.595  0.0308  0.6030 -0.1132
  848MPD2    H112514   0.255   1.689  16.248 -2.5343 -0.9650 -1.2282
  848MPD2    H212515   0.109   1.325  16.380  0.5709 -0.8514  0.7411
  848MPD2    H312516   0.091   1.521  16.250 -1.8538 -0.9383  2.2209
  848MPD2     N12517   0.438   1.728  16.436  0.1362 -0.0133  0.1642
  848MPD2    H512518   0.439   1.785  16.351 -0.0152 -1.4318 -0.7877
  848MPD2    N112519   0.286   1.295  16.599  0.1995  0.1833 -0.3295
  848MPD2    H712520   0.366   1.296  16.661 -0.9917 -1.2811  1.2188
  849MPD2     C12521   3.907   1.306  14.336  0.0696  0.2579 -0.4334
  849MPD2    C112522   4.029   1.355  14.364  0.0601  0.1377 -0.0117
  849MPD2    C212523   4.067   1.379  14.496 -0.1376  0.2050 -0.0353
  849MPD2    C312524   3.975   1.350  14.598  0.4466  0.8929  0.4281
  849MPD2    C412525   3.852   1.293  14.562  0.4667  0.1730  0.5307
  849MPD2    C512526   3.813   1.280  14.434  0.3888 -0.4334 -0.1749
  849MPD2     H12527   4.171   1.399  14.519 -0.3267 -0.3143  1.2890
  849MPD2    H112528   3.782   1.255  14.635  0.8284 -0.8761  0.3322
  849MPD2    H212529   3.877   1.285  14.234 -2.0925  0.4197  0.1621
  849MPD2    H312530   3.714   1.246  14.408 -1.0482  3.4760  0.3103
  849MPD2     N12531   4.011   1.348  14.736  0.1480  0.3673  0.4071
  849MPD2    H512532   3.947   1.306  14.803 -0.7519  1.7366  0.3998
  849MPD2    N112533   4.122   1.361  14.260 -0.0872  0.1973 -0.5702
  849MPD2    H712534   4.096   1.312  14.175 -3.0524 -1.7929  1.4611
  850MPD2     C12535   3.088   3.986  14.860  0.4652 -0.2074  0.2465
  850MPD2    C112536   3.094   4.008  14.992 -0.3214  0.2796 -0.5926
  850MPD2    C212537   3.210   4.064  15.039  0.4932  1.3057  0.5170
  850MPD2    C312538   3.309   4.104  14.952  0.0186  0.1931  0.7048
  850MPD2    C412539   3.303   4.090  14.819 -0.5047  0.0312  0.3531
  850MPD2    C512540   3.189   4.026  14.773 -0.6616 -0.0162 -0.3174
  850MPD2     H12541   3.209   4.087  15.145 -1.1765 -0.3894  0.8675
  850MPD2    H112542   3.384   4.116  14.751 -2.5757 -1.5949 -2.7765
  850MPD2    H212543   2.998   3.939  14.821  0.8433 -0.8218  0.1076
  850MPD2    H312544   3.186   4.021  14.665  1.2189 -1.1226 -0.3135
  850MPD2     N12545   3.435   4.163  14.999 -0.4881 -0.8180 -0.5284
  850MPD2    H512546   3.487   4.206  14.922 -4.0933 -0.8065 -2.9820
  850MPD2    N112547   2.981   3.963  15.072 -0.0013 -0.1574 -0.6505
  850MPD2    H712548   2.902   3.922  15.023  1.4812  0.5574 -3.5997
  851MPD2     C12549   2.723   3.529  14.829 -0.0458  0.8069 -0.1844
  851MPD2    C112550   2.683   3.501  14.958  0.9229  0.1694  0.4154
  851MPD2    C212551   2.629   3.379  14.989 -0.4689  1.1950 -0.2319
  851MPD2    C312552   2.617   3.282  14.894 -0.4055  0.4055 -0.2409
  851MPD2    C412553   2.650   3.311  14.769  0.2614  0.2081 -0.2824
  851MPD2    C512554   2.701   3.432  14.736  0.4660  0.4874 -0.3724
  851MPD2     H12555   2.584   3.358  15.086  0.6794 -1.8264 -0.3579
  851MPD2    H112556   2.645   3.236  14.690  2.2949  1.5831 -1.7077
  851MPD2    H212557   2.787   3.615  14.808  0.0594  0.8033  0.1178
  851MPD2    H312558   2.725   3.452  14.632 -1.8153 -1.7201 -1.3233
  851MPD2     N12559   2.580   3.157  14.942 -0.1521  0.0730 -0.3984
  851MPD2    H512560   2.567   3.139  15.041  2.9397 -0.3550 -0.0685
  851MPD2    N112561   2.698   3.605  15.052  0.3710 -0.0722 -0.0730
  851MPD2    H712562   2.739   3.695  15.030  0.2538  0.0505  0.2128
  852MPD2     C12563   1.598   2.162  10.092 -0.7200 -0.1748 -0.3484
  852MPD2    C112564   1.685   2.076  10.157  0.1348 -0.1724 -0.3956
  852MPD2    C212565   1.793   2.134  10.218 -0.5481 -0.5143  0.0264
  852MPD2    C312566   1.812   2.265  10.226  0.0383  0.3551  0.1493
  852MPD2    C412567   1.718   2.350  10.170 -0.3360 -0.5289 -0.4950
  852MPD2    C512568   1.616   2.298  10.097 -0.2006 -0.1939  0.5142
  852MPD2     H12569   1.862   2.069  10.271  0.2717  0.2290 -0.1222
  852MPD2    H112570   1.734   2.457  10.169  2.6604 -0.9466  0.8699
  852MPD2    H212571   1.517   2.134  10.025 -0.5928 -3.3783  0.7939
  852MPD2    H312572   1.546   2.356  10.039  0.6675  0.0154 -0.3142
  852MPD2     N12573   1.923   2.314  10.301 -0.2732 -0.5071 -0.5186
  852MPD2    H512574   1.988   2.242  10.331 -0.0062 -0.1660 -0.2681
  852MPD2    N112575   1.670   1.936  10.155 -0.6815 -1.4439 -0.2441
  852MPD2    H712576   1.743   1.882  10.201  0.9536  1.5883  0.7110
  853MPD2     C12577   4.124   1.467  12.624  0.0212 -0.1208 -0.0586
  853MPD2    C112578   4.027   1.551  12.574  0.1400  0.0171  0.0800
  853MPD2    C212579   3.949   1.496  12.474 -0.4112 -0.2077  0.2715
  853MPD2    C312580   3.978   1.376  12.416  0.9110  1.3913  0.0596
  853MPD2    C412581   4.074   1.295  12.471  0.1443 -0.0408  0.1970
  853MPD2    C512582   4.149   1.345  12.572  0.1824  0.0054  0.6362
  853MPD2     H12583   3.869   1.554  12.429 -1.6167  0.2639  3.0172
  853MPD2    H112584   4.094   1.195  12.435 -1.2865 -0.0779 -0.4961
  853MPD2    H212585   4.194   1.503  12.698 -0.3957  1.1124 -0.2613
  853MPD2    H312586   4.221   1.277  12.617  0.3719  0.3200  0.8035
  853MPD2     N12587   3.910   1.326  12.304 -0.2349 -0.8011  0.1765
  853MPD2    H512588   3.961   1.257  12.249  1.2594 -0.1201  0.6932
  853MPD2    N112589   4.000   1.670  12.639  0.4434 -0.3033 -0.2731
  853MPD2    H712590   4.051   1.696  12.723  1.6834  3.3621 -2.1664
  854MPD2     C12591   0.412   2.280  13.251  0.0428  0.1173 -0.3047
  854MPD2    C112592   0.417   2.177  13.150 -0.3085 -0.9254 -1.0427
  854MPD2    C212593   0.514   2.082  13.161 -0.4367 -0.2921 -0.4323
  854MPD2    C312594   0.602   2.085  13.270  0.0028 -0.3224 -0.8869
  854MPD2    C412595   0.595   2.184  13.367 -0.3903  0.1647  0.4832
  854MPD2    C512596   0.500   2.284  13.354  0.3543 -0.4609 -0.0087
  854MPD2     H12597   0.527   2.007  13.084  1.6002  0.1087 -0.4587
  854MPD2    H112598   0.683   2.210  13.424  1.8813  1.3450 -3.5416
  854MPD2    H212599   0.342   2.363  13.246 -0.6950 -0.5212 -0.4348
  854MPD2    H312600   0.514   2.374  13.412 -1.9038 -1.3387  1.8959
  854MPD2     N12601   0.699   1.981  13.301  0.3301 -0.3910  0.1883
  854MPD2    H512602   0.758   2.000  13.381  0.5982 -0.8352  0.0893
  854MPD2    N112603   0.336   2.192  13.031 -0.2683  1.2756  0.0302
  854MPD2    H712604   0.256   2.251  13.048 -1.0196 -0.4255  2.3245
  855MPD2     C12605   0.764   1.319  13.891  0.1182 -0.1914  0.0122
  855MPD2    C112606   0.899   1.345  13.861 -0.2156 -0.6922 -0.2223
  855MPD2    C212607   0.935   1.455  13.785 -0.2007  0.8545  0.0822
  855MPD2    C312608   0.835   1.519  13.718 -0.1602  0.0267 -0.2101
  855MPD2    C412609   0.705   1.483  13.734  0.1017 -1.2947  0.3144
  855MPD2    C512610   0.669   1.379  13.820 -0.1835  0.0759  0.6641
  855MPD2     H12611   1.040   1.469  13.765  0.1336 -0.8626  0.6147
  855MPD2    H112612   0.622   1.535  13.686  0.0846 -0.8144  0.8610
  855MPD2    H212613   0.732   1.243  13.961 -2.5364 -0.7283 -1.7653
  855MPD2    H312614   0.565   1.350  13.823  0.4424 -2.0614  1.1579
  855MPD2     N12615   0.853   1.626  13.629  0.9542  0.1120 -0.0649
  855MPD2    H512616   0.764   1.649  13.587  0.4182 -1.7033  0.0463
  855MPD2    N112617   1.010   1.265  13.907 -0.7232 -0.3134  1.0513
  855MPD2    H712618   1.099   1.291  13.867 -1.2214 -1.1036 -0.5613
  856MPD2     C12619   3.286   2.435  14.231 -0.2184  0.4663  0.7757
  856MPD2    C112620   3.373   2.538  14.196  0.1125  0.0499  0.4657
  856MPD2    C212621   3.330   2.671  14.193  0.4922  0.2192  0.4464
  856MPD2    C312622   3.203   2.707  14.224  0.6046 -0.2582 -0.3141
  856MPD2    C412623   3.115   2.608  14.264 -0.3598  0.2822  0.4797
  856MPD2    C512624   3.154   2.473  14.262 -0.1564 -0.4748 -0.6890
  856MPD2     H12625   3.402   2.749  14.172  0.6474  0.2782  1.1881
  856MPD2    H112626   3.014   2.634  14.294 -0.4038  2.8074 -1.8506
  856MPD2    H212627   3.314   2.330  14.235  1.0454  0.8384  1.3984
  856MPD2    H312628   3.088   2.401  14.310  0.2251 -0.6531 -0.4233
  856MPD2     N12629   3.153   2.844  14.215 -0.1251 -0.3147 -0.4275
  856MPD2    H512630   3.055   2.857  14.238 -0.0920  1.6876 -1.4185
  856MPD2    N112631   3.507   2.510  14.149 -0.0290 -0.4074  0.2292
  856MPD2    H712632   3.567   2.588  14.125 -0.8251  0.2609  0.4441
  857MPD2     C12633   4.721   0.127  13.179 -0.4093  0.1159  0.4730
  857MPD2    C112634   0.100   0.091  13.229  0.2205 -0.2504  0.1247
  857MPD2    C212635   0.173   0.188  13.296 -0.6345 -0.0373  0.4279
  857MPD2    C312636   0.152   0.319  13.272  0.4113  0.7242 -0.2912
  857MPD2    C412637   0.039   0.360  13.203 -0.1159 -0.2254  0.8563
  857MPD2    C512638   4.689   0.267  13.168  0.2435  0.4568 -0.6913
  857MPD2     H12639   0.265   0.169  13.350  0.7969  0.1294 -1.9531
  857MPD2    H112640   0.015   0.465  13.191 -0.5458 -0.5554 -1.1953
  857MPD2    H212641   4.653   0.053  13.138  0.2324 -0.3750  0.2990
  857MPD2    H312642   4.600   0.296  13.113 -0.6710  0.5848  0.8573
  857MPD2     N12643   0.260   0.408  13.314 -0.2067  0.6038 -0.5379
  857MPD2    H512644   0.346   0.379  13.361 -1.6692  1.5112  2.6761
  857MPD2    N112645   0.128   4.689  13.230  0.1654 -0.5210 -0.7935
  857MPD2    H712646   0.051   4.629  13.203  0.0830  0.1303 -2.0187
  858MPD2     C12647   0.457   3.494  16.875 -0.0060 -0.5170  0.6317
  858MPD2    C112648   0.592   3.499  16.881 -0.1175  0.5177 -0.5147
  858MPD2    C212649   0.652   3.614  16.843 -0.4768 -0.1184 -0.2129
  858MPD2    C312650   0.580   3.724  16.803 -0.2188  0.2496  0.0392
  858MPD2    C412651   0.446   3.710  16.791 -0.6896  0.0759  0.4214
  858MPD2    C512652   0.383   3.595  16.818  0.3784 -1.1062  0.7991
  858MPD2     H12653   0.758   3.636  16.846 -0.9262  2.1203 -0.5787
  858MPD2    H112654   0.393   3.796  16.752  2.5665  0.3234 -3.4601
  858MPD2    H212655   0.396   3.411  16.908 -2.5595  0.9188 -0.5353
  858MPD2    H312656   0.275   3.594  16.808  0.5716 -0.8415 -1.3578
  858MPD2     N12657   0.653   3.846  16.784  0.1935  0.0120  0.3242
  858MPD2    H512658   0.754   3.838  16.789  0.3117  2.3660  1.4321
  858MPD2    N112659   0.657   3.389  16.938  0.0144 -0.2379  0.0346
  858MPD2    H712660   0.608   3.307  16.970 -1.0892 -0.4157 -2.1240
  859MPD2     C12661   4.208   1.486  15.882  0.2732  0.1062  0.5567
  859MPD2    C112662   4.201   1.427  15.752  0.0362 -0.4225  0.4768
  859MPD2    C212663   4.139   1.302  15.738 -0.7208  0.0083  0.1014
  859MPD2    C312664   4.108   1.225  15.847 -0.3774 -0.0051 -0.4102
  859MPD2    C412665   4.122   1.282  15.972  0.1519  0.6011 -0.1605
  859MPD2    C512666   4.168   1.410  15.986 -0.5468  0.6374 -0.5730
  859MPD2     H12667   4.142   1.260  15.638  3.4276  0.3354  0.0672
  859MPD2    H112668   4.106   1.230  16.066  0.4846 -0.0770 -0.4730
  859MPD2    H212669   4.247   1.583  15.913 -1.6326  0.6561  1.2665
  859MPD2    H312670   4.175   1.453  16.085 -0.5865  2.6397 -1.4513
  859MPD2     N12671   4.085   1.087  15.848  0.6545  0.1077  0.3336
  859MPD2    H512672   4.053   1.033  15.928  0.9679 -2.4250 -1.2495
  859MPD2    N112673   4.248   1.497  15.642 -0.4577  0.0178 -0.0370
  859MPD2    H712674   4.226   1.448  15.555 -0.6032  0.9090 -0.5020
  860MPD2     C12675   1.701   1.637  11.801  0.5035  1.0591 -0.0826
  860MPD2    C112676   1.647   1.567  11.908 -0.0115 -0.1523 -0.5739
  860MPD2    C212677   1.547   1.619  11.988  0.6049  0.2592  0.2165
  860MPD2    C312678   1.492   1.743  11.957 -0.2733 -0.9862 -0.0472
  860MPD2    C412679   1.549   1.822  11.858 -0.8596  0.0221  0.3558
  860MPD2    C512680   1.649   1.763  11.781 -0.4237  0.0213  0.6704
  860MPD2     H12681   1.519   1.577  12.084 -1.7061 -2.0956 -1.4570
  860MPD2    H112682   1.522   1.924  11.833 -2.7860 -0.1442  1.7642
  860MPD2    H212683   1.782   1.598  11.740 -0.7508 -0.1399 -0.9869
  860MPD2    H312684   1.688   1.827  11.702  0.6896 -0.1231  1.0931
  860MPD2     N12685   1.389   1.786  12.051  0.3339 -0.1417 -0.8919
  860MPD2    H512686   1.363   1.713  12.117 -1.4072  1.6788  0.4160
  860MPD2    N112687   1.690   1.436  11.940  0.4393  0.5231  0.1382
  860MPD2    H712688   1.653   1.394  12.025  0.4518 -1.3358 -0.7619
  861MPD2     C12689   0.993   4.248  11.139  0.0525  0.1454 -0.6367
  861MPD2    C112690   0.900   4.321  11.213  0.5767  0.6693 -0.2260
  861MPD2    C212691   0.792   4.370  11.143 -0.6946 -0.2644 -0.2593
  861MPD2    C312692   0.780   4.366  11.007 -0.0265  0.2703  0.2317
  861MPD2    C412693   0.872   4.288  10.939  0.0419  0.7022  0.3405
  861MPD2    C512694   0.974   4.232  11.002  0.2349 -0.1891  0.1118
  861MPD2     H12695   0.714   4.419  11.201 -0.4370 -4.2825  3.4707
  861MPD2    H112696   0.870   4.267  10.833 -0.6880  1.1497  0.2632
  861MPD2    H212697   1.083   4.200  11.176 -2.2050 -1.0820  3.2052
  861MPD2    H312698   1.046   4.172  10.947  2.0024  2.3303 -0.3193
  861MPD2     N12699   0.679   4.424  10.929  0.0720 -0.0668  0.0593
  861MPD2    H512700   0.666   4.395  10.832 -0.9587  0.0404  0.1632
  861MPD2    N112701   0.910   4.334  11.350 -0.0361  0.3052  0.0535
  861MPD2    H712702   0.836   4.381  11.401  1.1392  0.4348  1.6720
  862MPD2     C12703   0.115   4.277  10.536 -1.5193 -0.4248  0.3384
  862MPD2    C112704   0.204   4.272  10.636  0.1113  0.1191  0.1607
  862MPD2    C212705   0.219   4.150  10.705  0.1231 -0.3097  0.4980
  862MPD2    C312706   0.151   4.037  10.672  0.1835  0.9310  0.3074
  862MPD2    C412707   0.051   4.045  10.577 -0.0831 -0.1063  0.0739
  862MPD2    C512708   0.039   4.167  10.508  0.0703  0.0967  0.4773
  862MPD2     H12709   0.285   4.154  10.791  2.0110  0.9660 -0.9930
  862MPD2    H112710   4.728   3.962  10.547 -0.6183  0.5756 -0.6987
  862MPD2    H212711   0.100   4.365  10.475 -0.1651  0.3665  1.1582
  862MPD2    H312712   4.703   4.167  10.431  0.4360  0.1860  0.1180
  862MPD2     N12713   0.186   3.913  10.736  0.3336  0.6165 -0.2755
  862MPD2    H512714   0.122   3.835  10.726 -1.1634  1.4426  2.7945
  862MPD2    N112715   0.275   4.383  10.678  0.6468  0.2959 -0.4168
  862MPD2    H712716   0.320   4.377  10.768 -1.3887  1.0094  0.6427
  863MPD2     C12717   3.793   2.704  17.148  0.1689 -0.1375 -0.9200
  863MPD2    C112718   3.827   2.675  17.016  0.1234 -0.0032 -0.0735
  863MPD2    C212719   3.956   2.627  16.991  0.1697  0.9126 -0.8534
  863MPD2    C312720   4.056   2.617  17.087 -0.2818 -0.9945 -0.0879
  863MPD2    C412721   4.028   2.666  17.214  0.1048 -0.3485 -0.1119
  863MPD2    C512722   3.895   2.705  17.245  0.2985 -0.1215  0.1699
  863MPD2     H12723   3.987   2.606  16.889  0.1598 -0.9611 -0.4867
  863MPD2    H112724   4.102   2.654  17.292  0.4506 -0.7892 -0.5071
  863MPD2    H212725   3.692   2.733  17.171 -0.1489 -1.5744 -0.4514
  863MPD2    H312726   3.870   2.724  17.349  1.6467 -2.5983  0.9332
  863MPD2     N12727   4.184   2.561  17.068  0.3101 -0.0521  0.6778
  863MPD2    H512728   4.256   2.579  17.138  1.5304  0.6999 -0.7662
  863MPD2    N112729   3.727   2.681  16.921 -0.4239 -0.2756  0.6670
  863MPD2    H712730   3.633   2.686  16.958 -1.7190 -0.4122 -2.6355
  864MPD2     C12731   4.231   4.355  17.129 -0.6201  0.3506 -0.5783
  864MPD2    C112732   4.298   4.261  17.057 -0.3011 -0.2184 -0.2027
  864MPD2    C212733   4.384   4.290  16.947 -0.5759 -0.8488 -0.0703
  864MPD2    C312734   4.411   4.419  16.919  0.4378  0.5116 -0.6252
  864MPD2    C412735   4.353   4.520  16.998 -0.0098  0.4110  0.7577
  864MPD2    C512736   4.263   4.487  17.097 -0.6779 -0.0008 -0.4583
  864MPD2     H12737   4.431   4.206  16.896  0.5837 -1.0320  1.2937
  864MPD2    H112738   4.357   4.625  16.970  0.1281  0.7097  1.8678
  864MPD2    H212739   4.166   4.334  17.213 -0.7173  1.9626 -0.2568
  864MPD2    H312740   4.221   4.568  17.156 -1.6779 -0.7926 -0.0926
  864MPD2     N12741   4.504   4.452  16.812 -0.2922 -0.0613  0.5870
  864MPD2    H512742   4.498   4.545  16.772  2.3479 -0.3101 -0.3803
  864MPD2    N112743   4.283   4.126  17.095  0.1949  0.0617 -0.7119
  864MPD2    H712744   4.248   4.112  17.189 -2.8610 -1.7325 -2.1006
  865MPD2     C12745   4.264   4.171  16.251 -0.2180 -0.3241 -0.4164
  865MPD2    C112746   4.397   4.208  16.258 -0.7685  0.6147 -1.3730
  865MPD2    C212747   4.426   4.337  16.294 -0.0057  0.5662 -0.2119
  865MPD2    C312748   4.332   4.429  16.324 -0.9887 -0.6075 -0.3347
  865MPD2    C412749   4.199   4.397  16.316  0.1508 -0.0998 -0.5916
  865MPD2    C512750   4.165   4.262  16.288 -0.0060 -0.0758 -0.7914
  865MPD2     H12751   4.530   4.367  16.301 -0.1626  0.9868  0.3076
  865MPD2    H112752   4.123   4.462  16.357 -0.8456 -0.0758 -2.4842
  865MPD2    H212753   4.238   4.067  16.242  0.9992 -0.7718  1.3656
  865MPD2    H312754   4.061   4.233  16.292  0.2862 -0.9793  0.4006
  865MPD2     N12755   4.369   4.568  16.353 -0.1100 -0.2828 -0.0614
  865MPD2    H512756   4.298   4.638  16.338  0.5484  0.2786 -0.5589
  865MPD2    N112757   4.503   4.109  16.230 -0.0595  0.3738  0.4639
  865MPD2    H712758   4.467   4.019  16.201  0.6508  0.4956 -0.7963
  866MPD2     C12759   1.558   4.585  11.612 -0.6109  0.3985 -0.2657
  866MPD2    C112760   1.540   4.582  11.473 -0.9021  0.0888  0.0906
  866MPD2    C212761   1.423   4.625  11.414  0.3536  0.8751  0.0833
  866MPD2    C312762   1.318   4.662  11.492 -0.3404 -0.3730  0.2194
  866MPD2    C412763   1.334   4.661  11.633  0.1998 -0.8734  0.5694
  866MPD2    C512764   1.454   4.623  11.686 -0.3452  0.1334  0.1524
  866MPD2     H12765   1.426   4.617  11.306 -1.1569  0.0488  0.1130
  866MPD2    H112766   1.260   4.681  11.709  1.6170  0.7058  1.5428
  866MPD2    H212767   1.649   4.558  11.664 -0.1076  2.9008  0.1891
  866MPD2    H312768   1.477   4.622  11.791 -0.1813 -1.6724  0.1009
  866MPD2     N12769   1.188   4.688  11.442  0.4366 -0.2483  0.4261
  866MPD2    H512770   1.116   4.709  11.511 -0.0998  3.0063 -1.1221
  866MPD2    N112771   1.637   4.511  11.407  0.0395 -1.0308 -0.4972
  866MPD2    H712772   1.717   4.468  11.454  0.5980 -0.0952 -0.5853
  867MPD2     C12773   3.224   3.768  16.425 -0.0117  0.3592 -0.2031
  867MPD2    C112774   3.273   3.714  16.542 -0.3649 -0.6485  0.3938
  867MPD2    C212775   3.314   3.802  16.642 -1.1352 -0.5891 -0.7027
  867MPD2    C312776   3.290   3.937  16.633  0.0243 -0.1967 -0.1864
  867MPD2    C412777   3.233   3.983  16.515  0.3648 -0.3368 -0.3395
  867MPD2    C512778   3.205   3.902  16.410  0.1137 -0.2618  0.4150
  867MPD2     H12779   3.351   3.770  16.739  0.7213  1.5047 -0.6995
  867MPD2    H112780   3.207   4.087  16.504 -1.8497 -0.7514  1.0307
  867MPD2    H212781   3.196   3.707  16.340 -0.2955 -0.7301  0.6697
  867MPD2    H312782   3.160   3.943  16.321 -1.1084 -1.3766  0.5249
  867MPD2     N12783   3.323   4.031  16.734 -0.9221 -0.3962  0.2954
  867MPD2    H512784   3.284   4.125  16.723 -0.7991 -0.2519  1.0797
  867MPD2    N112785   3.295   3.576  16.549  0.6862  0.7141  0.1003
  867MPD2    H712786   3.260   3.528  16.467 -0.3364 -1.3564  1.7403
  868MPD2     C12787   0.253   3.723  12.896  0.6541 -0.5710 -0.8535
  868MPD2    C112788   0.259   3.618  12.975  0.2424  0.0360  0.0685
  868MPD2    C212789   0.180   3.608  13.090 -0.6496 -0.4552  0.2987
  868MPD2    C312790   0.105   3.719  13.133  0.2834  0.4441  0.2989
  868MPD2    C412791   0.098   3.831  13.047  0.3084  0.0963  0.8667
  868MPD2    C512792   0.172   3.823  12.929  0.0049 -0.1569 -0.6665
  868MPD2     H12793   0.187   3.526  13.160 -0.6968 -1.5714 -0.9928
  868MPD2    H112794   0.044   3.923  13.067  0.0710  0.3245 -0.7813
  868MPD2    H212795   0.303   3.735  12.801 -0.3254  0.0214 -1.2975
  868MPD2    H312796   0.170   3.904  12.856 -1.3886  1.8839  1.6219
  868MPD2     N12797   0.055   3.715  13.265  0.5535 -0.1240 -0.6325
  868MPD2    H512798   0.056   3.624  13.309 -1.9221 -0.3553 -1.0429
  868MPD2    N112799   0.351   3.512  12.933 -0.0933  0.0669 -0.2802
  868MPD2    H712800   0.400   3.532  12.847 -2.2341 -2.9717 -2.2220
  869MPD2     C12801   1.223   1.130   0.823  0.1958  0.3373 -0.1124
  869MPD2    C112802   1.210   1.109   0.685  0.2158  0.5109 -0.5111
  869MPD2    C212803   1.254   1.210   0.599  0.2939  0.2105  0.1896
  869MPD2    C312804   1.300   1.331   0.645  0.1164  0.4425 -0.0551
  869MPD2    C412805   1.324   1.343   0.782  0.6082  0.1158  0.3595
  869MPD2    C512806   1.285   1.243   0.869  0.0591  0.3294 -0.1465
  869MPD2     H12807   1.247   1.199   0.491  2.4527 -0.4477  0.1068
  869MPD2    H112808   1.363   1.438   0.818 -1.1841  0.0941  2.3634
  869MPD2    H212809   1.220   1.046   0.891 -2.2050 -0.9816 -1.8554
  869MPD2    H312810   1.312   1.246   0.974 -0.3836 -2.2591  0.0334
  869MPD2     N12811   1.325   1.449   0.570 -0.4143  0.1267  0.7164
  869MPD2    H512812   1.359   1.534   0.614 -1.1412  0.4629  0.6205
  869MPD2    N112813   1.168   0.989   0.639 -0.0449  0.2904  0.8382
  869MPD2    H712814   1.115   0.939   0.711 -0.1627 -0.1064  0.4777
  870MPD2     C12815   1.885   0.209   1.279 -0.1888 -0.1757 -0.0901
  870MPD2    C112816   1.805   0.133   1.200 -0.4492  0.5399 -0.2431
  870MPD2    C212817   1.680   0.177   1.166 -0.2290 -0.4204 -0.2294
  870MPD2    C312818   1.641   0.305   1.203  0.4291  0.0602 -0.3571
  870MPD2    C412819   1.726   0.378   1.280  0.6632 -0.6359  0.5430
  870MPD2    C512820   1.852   0.329   1.321 -0.0466 -0.6433 -0.2377
  870MPD2     H12821   1.605   0.113   1.120 -0.6752 -1.0645  1.4011
  870MPD2    H112822   1.702   0.476   1.320  0.9237  0.1155 -1.1170
  870MPD2    H212823   1.982   0.176   1.316 -0.2000  2.5405  2.3198
  870MPD2    H312824   1.915   0.385   1.389  2.9210 -1.0075 -2.7230
  870MPD2     N12825   1.517   0.356   1.153  0.0615  0.6411  0.1709
  870MPD2    H512826   1.472   0.303   1.079  0.6379 -0.0970  0.3426
  870MPD2    N112827   1.844   4.734   1.173  0.1211 -0.1994  0.4105
  870MPD2    H712828   1.927   4.698   1.220  1.1193  1.2652 -0.2500
  871MPD2     C12829   2.146   3.906  16.490  1.0775  0.0292 -0.0533
  871MPD2    C112830   2.193   3.924  16.618  0.2860 -0.1829  0.0381
  871MPD2    C212831   2.313   3.868  16.657  0.2202 -0.4479  0.1783
  871MPD2    C312832   2.401   3.817  16.558  0.8306  0.4351  0.1407
  871MPD2    C412833   2.356   3.808  16.430  0.2589 -0.6806  0.2189
  871MPD2    C512834   2.229   3.848  16.395 -0.1259  0.1607 -0.6291
  871MPD2     H12835   2.350   3.883  16.758 -0.9059  0.9969  0.3653
  871MPD2    H112836   2.414   3.768  16.347  1.0705  1.3948 -0.2107
  871MPD2    H212837   2.049   3.941  16.456  1.6293  1.6092 -0.0357
  871MPD2    H312838   2.191   3.831  16.294 -1.1868 -0.4167 -0.1366
  871MPD2     N12839   2.526   3.772  16.598 -0.4843  0.2139  1.3356
  871MPD2    H512840   2.544   3.777  16.698  0.7590  1.4159  1.0619
  871MPD2    N112841   2.128   4.015  16.712 -0.0808  0.0682  0.1930
  871MPD2    H712842   2.169   4.017  16.805 -0.6357  0.9059  0.4166
  872MPD2     C12843   3.215   1.653  14.724  0.3358 -0.6989  0.1530
  872MPD2    C112844   3.151   1.716  14.616 -0.1968  0.3001  0.6218
  872MPD2    C212845   3.019   1.750  14.625  0.3612  0.1404 -0.3562
  872MPD2    C312846   2.940   1.729  14.739  0.0237  0.2858 -0.3747
  872MPD2    C412847   3.014   1.678  14.849  0.3974 -0.4734  0.3673
  872MPD2    C512848   3.142   1.635  14.840 -0.2042 -0.1308 -0.4337
  872MPD2     H12849   2.979   1.805  14.540 -0.5763 -0.0300 -0.0225
  872MPD2    H112850   2.961   1.662  14.942 -0.1746  0.1046  0.1472
  872MPD2    H212851   3.319   1.626  14.738  1.3972  2.8804 -0.8582
  872MPD2    H312852   3.190   1.591  14.927  0.1344 -0.7245 -0.9242
  872MPD2     N12853   2.814   1.786  14.761  0.1694 -0.4420  0.7213
  872MPD2    H512854   2.758   1.788  14.846  0.2773 -1.4586  0.8189
  872MPD2    N112855   3.224   1.763  14.502  0.7082 -0.0188  0.1543
  872MPD2    H712856   3.170   1.817  14.436  0.4323  1.6600  1.7455
  873MPD2     C12857   0.588   1.573   0.944  0.6143  0.4675 -0.3671
  873MPD2    C112858   0.464   1.595   0.908  0.1029  1.1213 -0.5840
  873MPD2    C212859   0.398   1.488   0.849  0.2952  0.9772 -0.1956
  873MPD2    C312860   0.461   1.366   0.842 -0.4058  0.0314 -0.0927
  873MPD2    C412861   0.582   1.349   0.904 -0.2420 -1.0815  0.4060
  873MPD2    C512862   0.649   1.451   0.949  0.2342 -0.1175  0.8632
  873MPD2     H12863   0.300   1.492   0.804  0.8905  5.3411 -1.1175
  873MPD2    H112864   0.631   1.252   0.899 -0.1168 -0.9294 -1.0774
  873MPD2    H212865   0.644   1.661   0.974 -2.2741  1.4381  2.0954
  873MPD2    H312866   0.753   1.441   0.978  0.8461 -2.0985 -2.0387
  873MPD2     N12867   0.394   1.246   0.802 -0.4050  0.0248  0.0273
  873MPD2    H512868   0.452   1.166   0.823  1.1659  1.2187  0.2372
  873MPD2    N112869   0.415   1.724   0.915  0.3920 -0.0325  0.2256
  873MPD2    H712870   0.478   1.785   0.967 -0.5796  2.1516 -1.1459
  874MPD2     C12871   4.622   1.930  16.283  0.1298 -0.3069  0.1799
  874MPD2    C112872   4.687   1.846  16.367  0.3688 -0.0292  0.0791
  874MPD2    C212873   0.083   1.869  16.389  0.1311  0.3184  0.3570
  874MPD2    C312874   0.146   1.979  16.330 -0.3600 -0.0764 -0.9265
  874MPD2    C412875   0.075   2.062  16.246  0.0035  0.1774  0.1386
  874MPD2    C512876   4.680   2.042  16.237  0.3174 -0.0202  0.5553
  874MPD2     H12877   0.135   1.809  16.463  0.5964 -3.8054 -3.2959
  874MPD2    H112878   0.109   2.158  16.210 -0.0235 -0.3969 -1.4208
  874MPD2    H212879   4.516   1.918  16.262  0.5732 -2.6123 -0.7206
  874MPD2    H312880   4.625   2.118  16.182 -1.4722 -1.7283 -0.0062
  874MPD2     N12881   0.274   2.004  16.376 -0.0564 -0.5553 -0.3962
  874MPD2    H512882   0.318   1.936  16.436 -0.9465  0.4487  1.3927
  874MPD2    N112883   4.612   1.734  16.416  0.4523 -0.3517  0.1648
  874MPD2    H712884   4.512   1.732  16.402  0.8690 -1.6042 -2.4970
  875MPD2     C12885   1.256   0.398  14.485  0.4129 -0.5256  0.1663
  875MPD2    C112886   1.141   0.452  14.531  0.6784  0.0514 -0.7946
  875MPD2    C212887   1.127   0.509  14.660 -0.3904  0.1271  0.2574
  875MPD2    C312888   1.240   0.516  14.734  1.0516 -0.0012  0.2689
  875MPD2    C412889   1.365   0.463  14.685  0.2273  0.5335 -0.7183
  875MPD2    C512890   1.372   0.410  14.560  0.1190  0.4257  0.7468
  875MPD2     H12891   1.030   0.528  14.706 -0.4559 -2.0771  1.0456
  875MPD2    H112892   1.457   0.452  14.742 -0.4902  0.2086  0.3854
  875MPD2    H212893   1.260   0.356  14.385 -0.5905 -0.7312  0.2161
  875MPD2    H312894   1.462   0.364  14.520  0.1700 -0.7981  2.2499
  875MPD2     N12895   1.245   0.549  14.866 -0.0656  0.4028  0.1116
  875MPD2    H512896   1.337   0.539  14.908 -0.9912 -0.4858  1.9515
  875MPD2    N112897   1.027   0.421  14.452  0.4701 -0.4202 -0.1995
  875MPD2    H712898   1.039   0.362  14.371  1.7385  0.5993 -0.7454
  876MPD2     C12899   4.451   1.796  16.031 -0.1824 -0.0947 -0.9012
  876MPD2    C112900   4.573   1.779  15.979 -0.5280  0.1268 -0.0893
  876MPD2    C212901   4.636   1.656  16.001 -0.0549 -0.0569  0.0748
  876MPD2    C312902   4.571   1.556  16.066 -0.5323  0.3065 -0.4774
  876MPD2    C412903   4.441   1.574  16.104 -0.4035 -0.1667 -0.1286
  876MPD2    C512904   4.384   1.694  16.093  0.3655 -0.1146 -0.0856
  876MPD2     H12905   4.739   1.645  15.968 -0.1740  2.8790 -1.3429
  876MPD2    H112906   4.382   1.503  16.161 -0.1576  1.1372  1.7292
  876MPD2    H212907   4.402   1.893  16.026 -1.4200 -0.6989 -0.4893
  876MPD2    H312908   4.287   1.715  16.137  0.0861  0.7252 -1.1111
  876MPD2     N12909   4.641   1.434  16.085  0.1123 -0.5860  0.1659
  876MPD2    H512910   4.735   1.434  16.046  0.3000  1.6276  0.6196
  876MPD2    N112911   4.625   1.879  15.899 -0.0975 -0.0692 -0.0008
  876MPD2    H712912   4.572   1.965  15.890 -3.0407 -1.8550  0.3030
  877MPD2     C12913   4.483   2.173  15.229  0.0803  0.1262  0.3903
  877MPD2    C112914   4.616   2.206  15.244 -0.3930  0.0840 -0.1912
  877MPD2    C212915   4.689   2.223  15.131  0.2602 -0.5246 -0.7515
  877MPD2    C312916   4.636   2.192  15.008  0.1338  0.1396  0.4770
  877MPD2    C412917   4.499   2.170  14.988  0.9193  0.1196 -0.2993
  877MPD2    C512918   4.425   2.165  15.106  0.1259  0.4928  0.1481
  877MPD2     H12919   0.055   2.237  15.150  0.1773 -0.6480 -0.1886
  877MPD2    H112920   4.453   2.160  14.890 -0.1677  0.0757  0.2157
  877MPD2    H212921   4.417   2.155  15.314 -0.1839 -0.9293 -0.0371
  877MPD2    H312922   4.323   2.129  15.109 -0.0196  1.0631  2.3095
  877MPD2     N12923   4.704   2.184  14.881  0.0185  0.5593  0.0630
  877MPD2    H512924   4.652   2.139  14.806 -0.4117  0.5310  0.3803
  877MPD2    N112925   4.676   2.223  15.374 -0.6601 -0.7027 -0.2200
  877MPD2    H712926   0.033   2.254  15.368 -1.3474  1.6236  0.8764
  878MPD2     C12927   4.426   1.026  13.396 -0.2511  0.4425 -0.5105
  878MPD2    C112928   4.532   1.063  13.469 -0.5821 -0.4245 -0.0444
  878MPD2    C212929   4.520   1.105  13.596  0.1219 -0.0142 -0.1373
  878MPD2    C312930   4.397   1.112  13.657  0.2725 -0.2975 -0.9442
  878MPD2    C412931   4.286   1.072  13.586 -0.5078 -0.1502  0.2768
  878MPD2    C512932   4.303   1.032  13.461 -0.0978  0.5864 -0.6310
  878MPD2     H12933   4.604   1.128  13.661 -0.5257 -0.6801  0.9250
  878MPD2    H112934   4.187   1.086  13.627 -0.8246 -1.0311 -0.1884
  878MPD2    H212935   4.432   0.984  13.296 -0.8259 -2.1512  0.5400
  878MPD2    H312936   4.214   0.998  13.409 -0.1845 -1.3639  0.8129
  878MPD2     N12937   4.402   1.154  13.793 -0.6833  0.2784  0.1928
  878MPD2    H512938   4.496   1.184  13.817 -0.6537  0.6526 -0.3778
  878MPD2    N112939   4.660   1.056  13.404 -0.1484 -0.5980 -0.2222
  878MPD2    H712940   4.659   1.004  13.317 -0.1747 -1.3416  0.2196
  879MPD2     C12941   0.043   1.910  17.526  0.6736  0.2540  0.1365
  879MPD2    C112942   0.020   2.032  17.464 -0.7393 -0.2225  0.3273
  879MPD2    C212943   0.033   2.046  17.323 -0.6891  0.4804  0.4412
  879MPD2    C312944   0.065   1.939  17.244  0.2707  0.1358 -1.0185
  879MPD2    C412945   0.093   1.818  17.306  0.5959 -0.0075 -0.1817
  879MPD2    C512946   0.085   1.808  17.441  0.3197  0.2577 -0.7777
  879MPD2     H12947   0.014   2.138  17.269  1.3612  0.0129 -1.0649
  879MPD2    H112948   0.127   1.734  17.246  1.2186  0.2435 -0.1773
  879MPD2    H212949   0.024   1.894  17.631  1.7710 -0.4707  0.2322
  879MPD2    H312950   0.099   1.711  17.488  2.0556 -0.3400 -2.5411
  879MPD2     N12951   0.066   1.936  17.103 -0.0543 -0.2718  0.9410
  879MPD2    H512952   0.075   1.842  17.066 -3.1649 -0.1500 -0.0810
  879MPD2    N112953   4.723   2.138  17.546  0.3212 -0.1978 -0.0132
  879MPD2    H712954   4.731   2.123  17.646  2.7953 -1.3867 -0.3961
  880MPD2     C12955   1.246   4.001  17.723  0.6008  0.2609 -0.1342
  880MPD2    C112956   1.242   4.077   0.077  0.6969 -0.3177 -0.4134
  880MPD2    C212957   1.280   4.018   0.202  0.1355  0.2880  0.0639
  880MPD2    C312958   1.343   3.892   0.201 -0.5421 -0.4340 -0.0126
  880MPD2    C412959   1.342   3.817   0.087  0.7270 -0.0537 -0.3144
  880MPD2    C512960   1.292   3.869  17.727 -0.1904  0.0306  0.0777
  880MPD2     H12961   1.270   4.070   0.297 -2.4856 -3.0835  1.6494
  880MPD2    H112962   1.386   3.718   0.090 -0.5904 -0.6642 -1.2733
  880MPD2    H212963   1.224   4.038  17.624 -1.1213  0.3567  0.2873
  880MPD2    H312964   1.298   3.811  17.635 -1.4299 -1.9001  1.1880
  880MPD2     N12965   1.402   3.856   0.324  0.0828 -0.6606 -0.1513
  880MPD2    H512966   1.388   3.924   0.398 -0.5874  1.9506 -2.6941
  880MPD2    N112967   1.215   4.219   0.072  0.0875  0.2716  0.3809
  880MPD2    H712968   1.200   4.251  17.734  0.0680  0.2990  0.3932
  881MPD2     C12969   1.677   0.380  17.592  0.5013 -0.3334 -0.0172
  881MPD2    C112970   1.634   0.277  17.516  0.5260 -0.5333 -0.6020
  881MPD2    C212971   1.554   0.175  17.572 -0.4443  0.3763  0.3801
  881MPD2    C312972   1.529   0.175  17.705 -0.0639 -0.2141  0.5367
  881MPD2    C412973   1.589   0.272   0.029 -0.1443 -0.0663 -0.3273
  881MPD2    C512974   1.644   0.383  17.727 -0.0895 -0.7186 -0.7877
  881MPD2     H12975   1.520   0.096  17.505  0.6398 -0.4947  0.8525
  881MPD2    H112976   1.581   0.262   0.137  0.3977  1.6320 -0.1309
  881MPD2    H212977   1.719   0.465  17.539  0.3113 -0.4598 -0.3690
  881MPD2    H312978   1.670   0.466   0.035  2.1640 -1.2055 -1.0561
  881MPD2     N12979   1.446   0.084   0.017 -0.8097 -0.1100  0.2219
  881MPD2    H512980   1.447   0.085   0.118  1.8729  0.7113  0.2010
  881MPD2    N112981   1.648   0.300  17.374  0.1508 -0.4147 -0.0230
  881MPD2    H712982   1.686   0.389  17.346 -1.7198 -0.8057 -3.7601
  882MPD2     C12983   4.712   2.066  14.172 -0.8651  0.1806 -0.2348
  882MPD2    C112984   4.672   2.064  14.303 -0.0943 -0.3937 -0.0036
  882MPD2    C212985   4.547   2.029  14.340  0.4595 -0.3631  0.4282
  882MPD2    C312986   4.454   2.001  14.244  0.1265 -0.0587  0.6366
  882MPD2    C412987   4.483   2.023  14.114 -0.5159  0.6317  0.0613
  882MPD2    C512988   4.613   2.050  14.075 -0.0664 -0.1383  0.0155
  882MPD2     H12989   4.531   2.027  14.447  0.1681  0.9845  0.4048
  882MPD2    H112990   4.410   1.994  14.040 -1.6650  2.1836  0.6000
  882MPD2    H212991   0.073   2.094  14.145 -0.8320  0.8853  0.6048
  882MPD2    H312992   4.640   2.060  13.970  0.7470  2.7161  0.4747
  882MPD2     N12993   4.323   1.965  14.286  0.6646 -0.5160 -0.1886
  882MPD2    H512994   4.261   1.926  14.215  0.4245  0.4970 -0.5385
  882MPD2    N112995   0.017   2.097  14.416 -0.1029  0.0449  0.0248
  882MPD2    H712996   4.715   2.094  14.508  0.1905 -1.0445  0.1266
  883MPD2     C12997   1.897   1.441  15.946  0.5915 -0.1888 -0.2094
  883MPD2    C112998   1.831   1.557  15.978  0.1349 -0.1847 -0.6301
  883MPD2    C212999   1.880   1.636  16.080 -0.0757  0.5378 -0.8450
  883MPD2    C313000   1.993   1.599  16.146  0.6006  0.1644  0.3970
  883MPD2    C413001   2.058   1.483  16.117 -0.2762 -0.4736 -0.5497
  883MPD2    C513002   2.009   1.402  16.018  0.9379 -0.2407 -0.0791
  883MPD2     H13003   1.837   1.734  16.096 -1.2475 -0.1583  0.2750
  883MPD2    H113004   2.148   1.458  16.172 -1.1932 -1.6548  0.4012
  883MPD2    H213005   1.864   1.376  15.865 -2.0324  0.4014  0.3671
  883MPD2    H313006   2.036   1.297  16.012 -0.9426 -0.7311  0.0505
  883MPD2     N13007   2.054   1.699  16.234  0.4403 -0.0826  0.3099
  883MPD2    H513008   2.023   1.795  16.223  2.0837  0.3043 -0.9193
  883MPD2    N113009   1.720   1.603  15.914  0.4490 -0.1446 -0.0562
  883MPD2    H713010   1.670   1.683  15.953 -0.6399  0.2467 -2.2371
  884MPD2     C13011   4.055   2.816  15.060  0.1044  0.0105  0.0866
  884MPD2    C113012   4.019   2.954  15.072 -0.7342 -0.3981  0.6462
  884MPD2    C213013   3.889   2.988  15.085  0.9496 -0.0534 -0.9341
  884MPD2    C313014   3.786   2.897  15.060  0.5096 -0.2732  0.1402
  884MPD2    C413015   3.817   2.766  15.031  0.9259 -0.6847  1.1469
  884MPD2    C513016   3.950   2.728  15.034  0.7387  0.6943  0.0991
  884MPD2     H13017   3.872   3.095  15.092  2.5381 -0.0638  2.9536
  884MPD2    H113018   3.745   2.691  14.998 -0.2748  0.2843  1.5777
  884MPD2    H213019   4.158   2.781  15.058  0.6777  1.6687  0.4181
  884MPD2    H313020   3.979   2.626  15.012 -1.7670 -0.1462  0.7166
  884MPD2     N13021   3.654   2.950  15.064  0.1991 -0.4169  0.1254
  884MPD2    H513022   3.647   3.051  15.066  1.8502 -0.2395 -2.8620
  884MPD2    N113023   4.128   3.050  15.091 -0.7284  0.2551  0.6451
  884MPD2    H713024   4.217   3.021  15.131  0.5501  1.8841 -1.0165
  885MPD2     C13025   1.835   3.274   0.487 -1.0162 -0.4345  0.3452
  885MPD2    C113026   1.957   3.218   0.449 -0.2332 -0.1645 -0.2271
  885MPD2    C213027   1.994   3.223   0.317 -0.4884  0.2858 -0.3377
  885MPD2    C313028   1.911   3.280   0.221  0.3655 -0.5671  0.1004
  885MPD2    C413029   1.800   3.345   0.268 -0.2900 -0.0869  0.0499
  885MPD2    C513030   1.760   3.340   0.395 -0.4454 -0.8918 -0.1944
  885MPD2     H13031   2.079   3.165   0.282  0.4412  1.5607 -0.2328
  885MPD2    H113032   1.742   3.411   0.204 -1.3785 -0.3466  0.7515
  885MPD2    H213033   1.807   3.278   0.592  0.4788 -0.1225  0.7242
  885MPD2    H313034   1.673   3.398   0.426 -0.1945 -0.2637 -0.6605
  885MPD2     N13035   1.959   3.292   0.089 -0.3350  0.2989 -0.4300
  885MPD2    H513036   2.018   3.213   0.063 -2.1711 -1.0457 -0.5202
  885MPD2    N113037   2.034   3.169   0.555 -0.4827 -0.7200 -0.1059
  885MPD2    H713038   1.993   3.189   0.646  2.6348  0.3504  1.0785
  886MPD2     C13039   3.379   1.189  15.174 -0.3387  0.0423  0.3611
  886MPD2    C113040   3.437   1.243  15.282 -0.2403 -0.1032 -0.0994
  886MPD2    C213041   3.392   1.368  15.316 -0.5474  0.3583 -0.1699
  886MPD2    C313042   3.300   1.434  15.244 -0.4124 -0.1307 -0.4902
  886MPD2    C413043   3.250   1.378  15.124 -0.4408 -0.0691 -0.1521
  886MPD2    C513044   3.289   1.252  15.096 -0.0470  0.7289 -0.5383
  886MPD2     H13045   3.432   1.412  15.406 -3.6369 -0.4595  1.5941
  886MPD2    H113046   3.175   1.422  15.059 -1.3228  0.1416  0.9863
  886MPD2    H213047   3.406   1.089  15.141 -0.5372  0.1726 -0.2039
  886MPD2    H313048   3.244   1.216  15.004 -0.1335  1.2353 -0.6979
  886MPD2     N13049   3.272   1.567  15.274 -0.1062  0.3138 -0.4641
  886MPD2    H513050   3.212   1.606  15.201 -0.4031  0.4511 -0.1457
  886MPD2    N113051   3.539   1.186  15.357  0.6226 -0.5081  0.1814
  886MPD2    H713052   3.567   1.239  15.439 -0.8822  2.0578 -0.9313
  887MPD2     C13053   3.730   1.454  15.983 -0.4378 -0.7355 -0.1618
  887MPD2    C113054   3.800   1.447  15.868 -0.0827  0.3970  0.2611
  887MPD2    C213055   3.888   1.545  15.828  0.2179  0.5034 -0.3980
  887MPD2    C313056   3.911   1.655  15.910 -0.5158  0.9350  1.0389
  887MPD2    C413057   3.844   1.661  16.030 -0.6022 -0.0274 -0.0549
  887MPD2    C513058   3.757   1.564  16.067 -0.2092  0.0587  0.3536
  887MPD2     H13059   3.948   1.540  15.738  1.9961 -3.1565  1.0101
  887MPD2    H113060   3.863   1.744  16.097  0.0014  0.1747 -0.4821
  887MPD2    H213061   3.653   1.381  16.009 -0.0660 -0.8250  0.6853
  887MPD2    H313062   3.695   1.585  16.153  1.0007  1.7873  0.7872
  887MPD2     N13063   4.005   1.754  15.863  0.4677 -0.1535  0.5730
  887MPD2    H513064   4.051   1.738  15.775 -1.4208 -0.3677 -0.3791
  887MPD2    N113065   3.788   1.326  15.799 -0.4300 -0.2065  0.0426
  887MPD2    H713066   3.728   1.258  15.846  0.9871 -1.6942 -0.2959
  888MPD2     C13067   0.699   1.181  14.979  0.4292 -0.1452  0.1956
  888MPD2    C113068   0.725   1.174  15.112 -0.2054 -0.7887  0.5390
  888MPD2    C213069   0.774   1.287  15.173 -0.7254  0.0555 -0.3382
  888MPD2    C313070   0.781   1.411  15.103 -0.2636  0.1917  0.0592
  888MPD2    C413071   0.733   1.408  14.977  0.0621 -0.3078  0.2847
  888MPD2    C513072   0.699   1.297  14.916 -0.1194  0.0293 -0.1162
  888MPD2     H13073   0.790   1.295  15.280  1.1889 -0.9212 -0.5647
  888MPD2    H113074   0.710   1.501  14.925 -1.3616 -1.3753 -1.0104
  888MPD2    H213075   0.665   1.093  14.924 -1.0871  0.2030  0.5870
  888MPD2    H313076   0.677   1.293  14.810 -1.9713  2.0811  0.1890
  888MPD2     N13077   0.833   1.531  15.164  0.0267  0.6222 -0.0842
  888MPD2    H513078   0.856   1.509  15.261 -0.5303 -0.6007 -0.2336
  888MPD2    N113079   0.711   1.050  15.182 -0.6999  0.0181  0.2125
  888MPD2    H713080   0.668   0.978  15.125  0.4602 -0.8012  0.3657
  889MPD2     C13081   0.492   1.096  12.909  0.1819 -0.7188 -1.2149
  889MPD2    C113082   0.489   1.099  13.048  0.2713  0.0412 -0.3251
  889MPD2    C213083   0.432   1.205  13.115  0.0095  0.3272  0.6369
  889MPD2    C313084   0.412   1.321  13.044 -0.0667  0.2361 -0.1050
  889MPD2    C413085   0.407   1.324  12.908  0.4976 -0.3933 -0.1766
  889MPD2    C513086   0.457   1.213  12.844 -0.2658  0.3222  0.1181
  889MPD2     H13087   0.432   1.216  13.223 -0.1865  1.0390  0.5629
  889MPD2    H113088   0.380   1.416  12.857 -1.1366 -0.4612  0.5659
  889MPD2    H213089   0.548   1.018  12.858  1.8809  0.9925 -1.9409
  889MPD2    H313090   0.477   1.211  12.737  0.6571 -0.7718  0.3156
  889MPD2     N13091   0.390   1.436  13.126  0.2940  0.8525 -0.3436
  889MPD2    H513092   0.418   1.429  13.223  2.4029 -0.6365 -1.0527
  889MPD2    N113093   0.507   0.973  13.110 -0.0582 -0.9101  0.1565
  889MPD2    H713094   0.522   0.896  13.045  1.8198 -0.6362  0.2682
  890MPD2     C13095   4.437   3.112  14.822  0.2513 -0.6273  0.1472
  890MPD2    C113096   4.546   3.197  14.848  0.3244 -0.5348  0.1783
  890MPD2    C213097   4.638   3.144  14.942  0.4169 -0.3493  0.1682
  890MPD2    C313098   4.630   3.018  14.998 -0.5780 -0.2437 -0.1095
  890MPD2    C413099   4.521   2.941  14.970 -0.4940  0.0370  0.9947
  890MPD2    C513100   4.428   2.988  14.883  0.1824 -0.6000  0.0431
  890MPD2     H13101   4.725   3.203  14.968  0.0125  0.1236  0.4401
  890MPD2    H113102   4.518   2.837  15.002 -3.1553 -0.6548 -1.4427
  890MPD2    H213103   4.357   3.135  14.752 -0.1711 -0.1739  0.7754
  890MPD2    H313104   4.348   2.920  14.857 -0.5555 -0.6024  2.3174
  890MPD2     N13105   4.718   2.975  15.096 -0.1645 -0.3918  0.3157
  890MPD2    H513106   0.051   3.038  15.128 -0.5503 -0.3516  1.1274
  890MPD2    N113107   4.553   3.321  14.781 -0.4766  0.4452 -0.7578
  890MPD2    H713108   4.467   3.353  14.737 -1.7762 -0.5327  1.0794
  891MPD2     C13109   2.639   0.862  16.885 -0.1404  0.7436 -0.1648
  891MPD2    C113110   2.596   0.986  16.917 -0.1211  0.6524  0.3099
  891MPD2    C213111   2.689   1.072  16.990 -0.1512 -0.3876 -0.1156
  891MPD2    C313112   2.809   1.025  17.033  0.4066  0.2474  0.4754
  891MPD2    C413113   2.853   0.904  16.992  0.6139  0.1404  0.4387
  891MPD2    C513114   2.771   0.824  16.916 -0.5211 -0.9706 -0.0041
  891MPD2     H13115   2.665   1.173  17.023 -1.9118 -0.6577 -0.5502
  891MPD2    H113116   2.943   0.856  17.027  1.0570 -0.2458 -1.2446
  891MPD2    H213117   2.576   0.790  16.833 -0.5388  0.7665  0.2908
  891MPD2    H313118   2.804   0.725  16.889  0.3991 -0.4676 -0.7240
  891MPD2     N13119   2.886   1.118  17.102 -0.4698 -0.5279  0.4783
  891MPD2    H513120   2.841   1.205  17.127  0.4089  0.7974 -2.4572
  891MPD2    N113121   2.478   1.032  16.858 -0.4826  0.5069  0.3353
  891MPD2    H713122   2.439   0.974  16.785 -1.4123  0.9495  0.4825
  892MPD2     C13123   3.751   2.564  14.671  0.7586  0.1935  0.5268
  892MPD2    C113124   3.672   2.460  14.629  0.3420 -0.2162 -0.2068
  892MPD2    C213125   3.723   2.334  14.634  0.0895 -0.3008  0.2405
  892MPD2    C313126   3.851   2.310  14.681 -0.3024 -0.1823  0.1811
  892MPD2    C413127   3.930   2.412  14.719  0.4262 -0.5805 -0.0008
  892MPD2    C513128   3.877   2.541  14.709 -0.0306 -0.4674 -0.1216
  892MPD2     H13129   3.658   2.251  14.611 -1.3250  0.4699  1.4172
  892MPD2    H113130   4.031   2.402  14.755  0.7990 -1.1877 -1.2147
  892MPD2    H213131   3.723   2.668  14.670 -0.8089 -0.2194  1.0131
  892MPD2    H313132   3.945   2.624  14.727 -1.0529  0.7284 -1.7653
  892MPD2     N13133   3.909   2.185  14.673  0.0198 -0.3113 -0.7968
  892MPD2    H513134   4.010   2.186  14.686  0.2346  0.0063 -2.4499
  892MPD2    N113135   3.535   2.467  14.577  0.0815  0.6223 -0.5621
  892MPD2    H713136   3.491   2.377  14.562 -0.0457  1.1145 -3.1950
  893MPD2     C13137   0.756   1.387   1.873 -0.3370 -0.2511  0.0722
  893MPD2    C113138   0.701   1.312   1.767  0.2611 -0.0195 -0.0893
  893MPD2    C213139   0.577   1.346   1.727 -0.7425  0.0514  0.2019
  893MPD2    C313140   0.496   1.446   1.791 -0.1392 -0.1814 -0.5797
  893MPD2    C413141   0.550   1.496   1.899 -0.3416 -0.2902  0.1501
  893MPD2    C513142   0.681   1.476   1.944 -0.6820 -0.0058  0.0867
  893MPD2     H13143   0.532   1.289   1.647  0.9909 -1.4813  0.3068
  893MPD2    H113144   0.492   1.567   1.959 -0.9409  0.5323 -1.3971
  893MPD2    H213145   0.860   1.379   1.903 -0.6022 -0.1168  1.0456
  893MPD2    H313146   0.727   1.534   2.023  0.6717  1.7035 -1.9404
  893MPD2     N13147   0.371   1.491   1.734 -0.1281  0.2832 -0.0401
  893MPD2    H513148   0.310   1.546   1.794 -0.9230 -0.0544 -0.5506
  893MPD2    N113149   0.787   1.209   1.713 -0.0357  0.1491 -0.6356
  893MPD2    H713150   0.875   1.200   1.762 -1.0977  1.5611  1.5562
  894MPD2     C13151   3.623   2.877   0.872  0.0739  0.0748 -0.8529
  894MPD2    C113152   3.635   2.953   0.983  0.3244  0.2357  1.0262
  894MPD2    C213153   3.691   3.078   0.969  0.1143 -0.0099 -0.2210
  894MPD2    C313154   3.709   3.130   0.846  1.5040 -0.5212  0.8675
  894MPD2    C413155   3.679   3.061   0.734  1.3686 -0.0367 -0.2399
  894MPD2    C513156   3.632   2.934   0.747 -0.1574 -0.2790 -0.8635
  894MPD2     H13157   3.732   3.121   1.060  1.0557  0.7703 -1.0138
  894MPD2    H113158   3.706   3.099   0.637  1.1834 -0.7061 -0.5502
  894MPD2    H213159   3.579   2.779   0.887  1.0715 -0.7511 -3.2790
  894MPD2    H313160   3.605   2.875   0.660 -3.0300  0.5583 -0.5094
  894MPD2     N13161   3.768   3.258   0.843 -0.3026 -0.1674  0.5099
  894MPD2    H513162   3.805   3.289   0.933 -1.2113  0.7500  0.5609
  894MPD2    N113163   3.598   2.910   1.114 -0.1044  0.5366 -0.3243
  894MPD2    H713164   3.601   2.977   1.191  0.6373  0.7881 -0.5815
  895MPD2     C13165   2.701   1.833  13.899 -0.7158 -0.0303 -0.1517
  895MPD2    C113166   2.648   1.759  13.801 -0.7338  0.5293  0.3831
  895MPD2    C213167   2.723   1.667  13.745 -0.4591 -0.1459 -0.8402
  895MPD2    C313168   2.853   1.654  13.780 -0.3306  0.0316  0.3594
  895MPD2    C413169   2.908   1.737  13.866 -0.1469  0.1425 -0.6915
  895MPD2    C513170   2.834   1.825  13.932 -0.7869  0.0137 -0.4693
  895MPD2     H13171   2.678   1.602  13.671 -1.7318 -2.0896  1.6553
  895MPD2    H113172   3.013   1.737  13.896 -0.6562 -1.6515  1.1064
  895MPD2    H213173   2.642   1.892  13.969  1.2480  1.2983  0.3776
  895MPD2    H313174   2.869   1.884  14.016 -1.5615  0.0133 -0.1504
  895MPD2     N13175   2.922   1.551  13.715 -0.5692 -0.3343  0.6142
  895MPD2    H513176   2.874   1.502  13.640  0.5423  1.7795 -1.4625
  895MPD2    N113177   2.507   1.758  13.772  0.4809 -0.2512 -0.2422
  895MPD2    H713178   2.469   1.699  13.699 -1.0241  1.5112 -0.8809
  896MPD2     C13179   0.638   3.898   1.414  0.3069 -0.0810  0.5166
  896MPD2    C113180   0.582   3.895   1.289  0.7739  0.2235  0.2809
  896MPD2    C213181   0.458   3.840   1.272 -0.0634  0.1758  0.2047
  896MPD2    C313182   0.390   3.777   1.370  0.2721  0.4388  1.0374
  896MPD2    C413183   0.444   3.779   1.498 -0.4189 -0.1579  0.1251
  896MPD2    C513184   0.570   3.831   1.511  0.5325 -0.1238 -0.6070
  896MPD2     H13185   0.398   3.853   1.183  2.8505  2.0130 -1.4783
  896MPD2    H113186   0.402   3.737   1.588  0.1269 -0.2183  0.3550
  896MPD2    H213187   0.737   3.941   1.428  0.2377  0.7503 -1.4796
  896MPD2    H313188   0.614   3.824   1.610  0.0930 -0.7220 -0.4496
  896MPD2     N13189   0.269   3.708   1.330 -0.4502  0.2228 -0.0216
  896MPD2    H513190   0.257   3.699   1.230 -0.1587  1.3587 -0.1491
  896MPD2    N113191   0.659   3.965   1.191  0.0947  0.1067 -0.0157
  896MPD2    H713192   0.735   4.019   1.229 -1.3248  2.7348 -0.8850
  897MPD2     C13193   1.410   0.507  10.522  0.2415  0.3171  0.3330
  897MPD2    C113194   1.344   0.614  10.575  0.0756  0.2287  0.7592
  897MPD2    C213195   1.269   0.594  10.691 -0.2156  0.0322  0.5078
  897MPD2    C313196   1.263   0.477  10.754  0.0646 -0.3826 -0.5296
  897MPD2    C413197   1.335   0.372  10.695 -0.0875 -0.1063  0.2083
  897MPD2    C513198   1.407   0.384  10.581  0.1939  0.2884  0.4652
  897MPD2     H13199   1.226   0.681  10.739  2.7611  1.4747  0.5584
  897MPD2    H113200   1.332   0.271  10.736 -0.9085 -1.3302 -2.8563
  897MPD2    H213201   1.482   0.512  10.441 -0.4402 -0.0721 -0.2931
  897MPD2    H313202   1.461   0.299  10.541  0.1960  0.1963  0.6641
  897MPD2     N13203   1.183   0.459  10.868 -0.1322  0.3782 -0.3024
  897MPD2    H513204   1.130   0.541  10.896 -1.8625 -0.5417 -0.8516
  897MPD2    N113205   1.382   0.731  10.516 -0.1275 -0.8563  0.0607
  897MPD2    H713206   1.452   0.725  10.443 -0.1565  2.8653 -0.2387
  898MPD2     C13207   2.575   1.717   0.247 -0.5233  0.5144  0.2428
  898MPD2    C113208   2.657   1.688   0.355  0.1402 -0.3629 -0.2369
  898MPD2    C213209   2.752   1.784   0.399  0.6566  0.4272 -0.6399
  898MPD2    C313210   2.752   1.911   0.346  0.0533 -0.2067  0.2809
  898MPD2    C413211   2.657   1.938   0.247 -0.5711 -0.4722  0.0141
  898MPD2    C513212   2.570   1.844   0.197 -0.0188  0.0886 -0.2192
  898MPD2     H13213   2.815   1.758   0.483  0.3140 -0.6210 -0.7101
  898MPD2    H113214   2.659   2.028   0.187 -3.8711  0.4627  1.3006
  898MPD2    H213215   2.514   1.641   0.200 -1.0885  0.6029  0.8413
  898MPD2    H313216   2.522   1.876   0.106 -0.2580 -0.1506 -0.1755
  898MPD2     N13217   2.860   1.999   0.375 -0.3304 -0.2681  0.2142
  898MPD2    H513218   2.931   1.977   0.444 -0.1274 -0.4637 -0.0575
  898MPD2    N113219   2.679   1.554   0.399 -0.2136  0.0281 -0.2292
  898MPD2    H713220   2.761   1.534   0.457  0.4967  1.2681 -0.7989
  899MPD2     C13221   4.377   1.852  17.235 -0.0970 -0.2477  0.4214
  899MPD2    C113222   4.400   1.973  17.295 -0.1180 -0.1567  0.2523
  899MPD2    C213223   4.362   2.001  17.422  0.2931 -0.1804 -0.3760
  899MPD2    C313224   4.294   1.907  17.496 -0.3695  0.0725  0.2253
  899MPD2    C413225   4.293   1.779  17.446  0.7077 -0.3566 -0.2842
  899MPD2    C513226   4.333   1.754  17.313  0.6620 -0.6247 -0.0239
  899MPD2     H13227   4.370   2.098  17.470 -1.4048  0.0903 -0.6392
  899MPD2    H113228   4.246   1.697  17.499  1.2633  0.3202  1.2536
  899MPD2    H213229   4.404   1.830  17.132  1.8144  1.7374  0.4944
  899MPD2    H313230   4.314   1.656  17.270 -1.8000 -1.1743  2.2375
  899MPD2     N13231   4.227   1.931  17.617 -0.4533  0.3440  0.3708
  899MPD2    H513232   4.184   1.852  17.664  0.7861 -0.8179 -0.4595
  899MPD2    N113233   4.426   2.093  17.226 -0.2881 -0.7610  0.3369
  899MPD2    H713234   4.445   2.183  17.269 -4.5884  0.2880  0.0613
  900MPD2     C13235   4.021   3.236  12.512 -0.0016 -0.0084  0.4797
  900MPD2    C113236   3.921   3.215  12.605  0.4690  0.8996 -0.8237
  900MPD2    C213237   3.787   3.231  12.565  0.2736 -0.1126  0.7702
  900MPD2    C313238   3.758   3.263  12.431 -0.1334  0.3560  0.8220
  900MPD2    C413239   3.858   3.288  12.342 -0.5754  0.1544 -0.3114
  900MPD2    C513240   3.984   3.273  12.384 -0.1737 -0.0303  0.2018
  900MPD2     H13241   3.710   3.224  12.640 -0.3071 -0.1568  0.1753
  900MPD2    H113242   3.841   3.308  12.237 -1.8156  2.2264  0.2752
  900MPD2    H213243   4.122   3.217  12.547  1.1270  1.5209 -1.9572
  900MPD2    H313244   4.071   3.292  12.322  1.9987 -0.4040  3.0981
  900MPD2     N13245   3.622   3.292  12.403 -0.8768 -0.0403 -0.5014
  900MPD2    H513246   3.555   3.285  12.479 -0.1646 -1.9775 -0.0588
  900MPD2    N113247   3.969   3.188  12.738  0.0475  0.5834  0.2069
  900MPD2    H713248   4.066   3.215  12.749  0.3893  0.8814 -3.6416
  901MPD2     C13249   3.944   2.573  13.620  0.0983  0.2616 -0.0644
  901MPD2    C113250   4.023   2.522  13.515 -0.0606  0.0560  0.3380
  901MPD2    C213251   4.059   2.618  13.418  0.1037 -0.0920 -0.0098
  901MPD2    C313252   4.009   2.749  13.421 -0.0337  0.3417  0.0417
  901MPD2    C413253   3.922   2.791  13.520 -0.0803 -0.2601 -0.7641
  901MPD2    C513254   3.896   2.701  13.619 -0.4930  0.2352  0.2916
  901MPD2     H13255   4.113   2.585  13.330  2.5509 -2.3538  2.3498
  901MPD2    H113256   3.875   2.888  13.516  3.7749  1.5724 -1.1263
  901MPD2    H213257   3.919   2.501  13.697 -2.2322 -0.5378 -1.5706
  901MPD2    H313258   3.843   2.732  13.708 -0.1020 -0.6843  0.8411
  901MPD2     N13259   4.043   2.830  13.311 -0.1038 -0.2860  0.3200
  901MPD2    H513260   4.135   2.816  13.270  0.7722  0.7849  1.9458
  901MPD2    N113261   4.059   2.376  13.509 -0.8591 -0.5250 -0.5727
  901MPD2    H713262   4.029   2.330  13.595 -0.7932  0.1248 -0.2066
  902MPD2     C13263   2.710   1.501  12.936  0.3185 -0.3975 -0.5445
  902MPD2    C113264   2.787   1.537  12.831  0.6965  0.2348  0.6279
  902MPD2    C213265   2.830   1.445  12.740  0.0192  0.4672 -0.4451
  902MPD2    C313266   2.794   1.313  12.750  0.2341 -0.1511  0.3366
  902MPD2    C413267   2.722   1.274  12.867 -0.8332 -0.5342 -0.1456
  902MPD2    C513268   2.679   1.369  12.951 -0.4365 -0.1587  0.2800
  902MPD2     H13269   2.907   1.475  12.670 -0.5171  0.9329 -0.8387
  902MPD2    H113270   2.697   1.171  12.889 -0.5135 -0.6645 -0.3996
  902MPD2    H213271   2.666   1.569  13.008  1.1131  0.0678 -0.4987
  902MPD2    H313272   2.615   1.346  13.036  0.3740 -1.2488  0.5877
  902MPD2     N13273   2.824   1.216  12.650 -0.0422  0.1865 -0.2790
  902MPD2    H513274   2.781   1.125  12.661 -0.7209  0.7390  1.6280
  902MPD2    N113275   2.813   1.674  12.800  0.4219 -1.1134  0.0864
  902MPD2    H713276   2.862   1.694  12.713 -0.8384 -0.9966 -0.6015
  903MPD2     C13277   2.612   0.874  11.888  0.1605  0.2871 -0.6603
  903MPD2    C113278   2.586   0.914  12.012 -0.1431  0.5548  0.4412
  903MPD2    C213279   2.451   0.953  12.044  0.4412  0.3170  0.1821
  903MPD2    C313280   2.355   0.954  11.944  0.0868 -0.4879  0.1814
  903MPD2    C413281   2.385   0.906  11.818 -0.2107 -0.0295  0.0765
  903MPD2    C513282   2.516   0.855  11.801 -0.3913  1.1567  0.5765
  903MPD2     H13283   2.423   0.995  12.140  0.4107 -2.5936  1.4656
  903MPD2    H113284   2.307   0.894  11.743 -0.4035  1.2031  0.0762
  903MPD2    H213285   2.709   0.835  11.860  0.2976  0.5193 -0.5038
  903MPD2    H313286   2.541   0.813  11.704  0.5118  0.1075  1.2746
  903MPD2     N13287   2.231   1.006  11.974  0.0274 -0.4800 -0.3162
  903MPD2    H513288   2.218   1.055  12.063  0.7447 -0.8725  0.0026
  903MPD2    N113289   2.690   0.934  12.102  0.5154  0.7022 -0.3513
  903MPD2    H713290   2.784   0.916  12.068  0.3078 -0.5621 -0.2435
  904MPD2     C13291   2.855   1.136  13.887 -0.0437  0.2432  0.1116
  904MPD2    C113292   2.818   1.029  13.961 -0.7112  0.0314  0.9471
  904MPD2    C213293   2.887   0.995  14.070 -0.3704 -0.4700  0.1605
  904MPD2    C313294   3.003   1.071  14.108 -0.2752  0.1503 -0.5579
  904MPD2    C413295   3.043   1.180  14.028 -0.4079  0.6691  0.1239
  904MPD2    C513296   2.962   1.213  13.917 -0.5286  0.6955  0.0702
  904MPD2     H13297   2.850   0.913  14.132 -0.7951  1.0055  1.8592
  904MPD2    H113298   3.122   1.248  14.059  0.1878  0.4841 -0.9878
  904MPD2    H213299   2.800   1.184  13.807 -0.7349  0.1986  0.5625
  904MPD2    H313300   2.985   1.297  13.852 -0.6109 -1.5452 -2.8389
  904MPD2     N13301   3.074   1.039  14.224  0.2036  0.2333  0.4400
  904MPD2    H513302   3.035   0.958  14.270 -1.6088  0.9557  0.2071
  904MPD2    N113303   2.691   0.964  13.933  0.4609  0.4134 -0.2500
  904MPD2    H713304   2.649   0.901  13.999 -0.8312  2.8293  1.2213
  905MPD2     C13305   2.453   1.013  13.282  0.1554  0.0516 -0.6772
  905MPD2    C113306   2.462   1.109  13.377 -0.4158  0.4351  0.3781
  905MPD2    C213307   2.568   1.198  13.387 -0.3736 -0.0979 -0.6649
  905MPD2    C313308   2.672   1.188  13.294  0.3931 -0.2031  0.7823
  905MPD2    C413309   2.664   1.088  13.196 -0.4122 -0.8316  0.2533
  905MPD2    C513310   2.554   1.000  13.192  0.6020  0.3278 -0.0418
  905MPD2     H13311   2.579   1.253  13.480  2.4722 -1.6716 -0.0521
  905MPD2    H113312   2.745   1.066  13.127 -2.5340  0.4147 -2.6145
  905MPD2    H213313   2.382   0.932  13.277 -0.3266  0.5212 -1.3717
  905MPD2    H313314   2.564   0.916  13.125 -1.1172  1.2329 -1.4322
  905MPD2     N13315   2.800   1.255  13.300  0.1081  0.1888 -0.0190
  905MPD2    H513316   2.878   1.215  13.249 -0.5166 -0.0578 -0.7726
  905MPD2    N113317   2.371   1.091  13.481 -0.0816  0.3839  0.2146
  905MPD2    H713318   2.311   1.011  13.463 -0.0120  0.3686  0.0483
  906MPD2     C13319   0.215   0.564  11.853 -0.3861 -0.0716 -0.5183
  906MPD2    C113320   0.203   0.504  11.730  0.4675 -0.4406 -0.4259
  906MPD2    C213321   0.239   0.373  11.718  0.4671 -0.2317  0.4450
  906MPD2    C313322   0.274   0.297  11.828 -0.7190 -0.0337  0.5192
  906MPD2    C413323   0.268   0.355  11.954  0.0741 -0.2055 -0.2885
  906MPD2    C513324   0.251   0.489  11.964 -0.1318 -0.8759 -0.0396
  906MPD2     H13325   0.231   0.329  11.619 -1.8815  2.7156 -0.7116
  906MPD2    H113326   0.279   0.297  12.045 -0.9684  2.8621  1.8011
  906MPD2    H213327   0.196   0.670  11.866 -0.0543 -0.2332  1.3193
  906MPD2    H313328   0.253   0.531  12.064  2.0357  1.2594 -0.9718
  906MPD2     N13329   0.303   0.159  11.821  0.2943 -0.3592 -0.3858
  906MPD2    H513330   0.302   0.114  11.912 -1.9744  1.1039  0.3189
  906MPD2    N113331   0.171   0.585  11.616  0.3490  0.4439 -0.1672
  906MPD2    H713332   0.155   0.536  11.529  0.5016 -2.2463  1.3095
  907MPD2     C13333   3.608   0.479  15.530  0.1351  0.2220  0.5858
  907MPD2    C113334   3.702   0.384  15.554  0.3249 -0.6350 -0.0002
  907MPD2    C213335   3.723   0.338  15.679 -0.5111  0.4876 -0.1777
  907MPD2    C313336   3.647   0.373  15.784 -0.4067  0.9878  0.3386
  907MPD2    C413337   3.554   0.472  15.763 -0.0893  0.1632 -0.3330
  907MPD2    C513338   3.537   0.525  15.640 -0.2421 -0.1110 -0.0775
  907MPD2     H13339   3.790   0.254  15.696 -1.1124  0.4298  1.8832
  907MPD2    H113340   3.495   0.504  15.848 -0.5868  2.0295 -1.3829
  907MPD2    H213341   3.588   0.527  15.435  0.8231  0.1286  0.3989
  907MPD2    H313342   3.462   0.600  15.615 -0.6864 -0.5156  0.0266
  907MPD2     N13343   3.669   0.303  15.906 -0.5262 -0.2296  0.0939
  907MPD2    H513344   3.744   0.236  15.892 -1.0402 -0.5931 -0.8754
  907MPD2    N113345   3.779   0.319  15.454  0.2243 -0.2818 -0.7555
  907MPD2    H713346   3.838   0.243  15.484  3.1347  1.3439 -2.4134
  908MPD2     C13347   1.515   0.741   9.722 -0.3420  1.0695  0.8464
  908MPD2    C113348   1.406   0.702   9.803  0.1438  0.5052  0.5259
  908MPD2    C213349   1.382   0.767   9.923 -0.4394 -0.1089 -0.3135
  908MPD2    C313350   1.456   0.875   9.961 -0.8554 -0.0624 -0.0230
  908MPD2    C413351   1.569   0.907   9.881  0.4754 -0.0652 -0.0047
  908MPD2    C513352   1.596   0.843   9.763  0.3192  0.4827 -1.1565
  908MPD2     H13353   1.319   0.717   9.996  0.1160  0.7142  0.7150
  908MPD2    H113354   1.649   0.973   9.913  0.2957  1.2609 -2.3051
  908MPD2    H213355   1.539   0.688   9.630 -0.2283  1.7314  0.4979
  908MPD2    H313356   1.672   0.879   9.694  0.2163 -0.5876 -1.8360
  908MPD2     N13357   1.417   0.935  10.084  0.0690 -0.1154 -0.2794
  908MPD2    H513358   1.358   0.889  10.152 -0.2719  0.1798 -0.3770
  908MPD2    N113359   1.340   0.583   9.763 -0.3565 -0.2730 -0.7053
  908MPD2    H713360   1.373   0.520   9.691  2.3664 -0.3105  0.6007
  909MPD2     C13361   2.220   3.098  11.567  0.4803 -0.0838  0.5017
  909MPD2    C113362   2.223   3.232  11.527  0.5589 -0.2188 -0.7312
  909MPD2    C213363   2.137   3.320  11.594  0.2279 -0.6256  0.6828
  909MPD2    C313364   2.061   3.284  11.699 -0.1827  0.3953  0.0614
  909MPD2    C413365   2.052   3.155  11.729 -0.2467  0.2991  0.4069
  909MPD2    C513366   2.140   3.064  11.675  0.4796 -0.1613 -0.5722
  909MPD2     H13367   2.126   3.423  11.561 -1.7682 -1.8374 -2.4777
  909MPD2    H113368   1.987   3.112  11.804  2.0300  0.0625  2.2339
  909MPD2    H213369   2.280   3.017  11.526 -0.2416 -1.0634  1.3827
  909MPD2    H313370   2.145   2.960  11.708 -0.7974 -0.5029 -1.4881
  909MPD2     N13371   1.995   3.386  11.773 -0.5720  0.1119  0.5934
  909MPD2    H513372   2.026   3.479  11.748  1.9844 -1.5532 -2.3338
  909MPD2    N113373   2.296   3.275  11.418  0.3868 -0.0243  0.3110
  909MPD2    H713374   2.281   3.372  11.392  0.7181  0.0255  0.3097
  910MPD2     C13375   3.068   1.028  16.258 -0.0721  0.2192  0.6030
  910MPD2    C113376   3.095   0.913  16.182  0.1227  0.1994  0.4616
  910MPD2    C213377   3.053   0.912  16.051  0.3450 -0.0721  0.2427
  910MPD2    C313378   2.967   1.012  16.001  0.1968  0.5375 -0.1201
  910MPD2    C413379   2.944   1.122  16.078 -0.6687 -0.6833 -0.5202
  910MPD2    C513380   2.986   1.124  16.207 -0.0297 -0.5114  0.1803
  910MPD2     H13381   3.089   0.834  15.985 -2.1672 -0.1874 -1.0168
  910MPD2    H113382   2.886   1.205  16.038 -1.2678 -0.0915  1.6002
  910MPD2    H213383   3.107   1.045  16.357 -1.6232  1.3294  1.0167
  910MPD2    H313384   2.956   1.210  16.266  0.8147  1.8300 -2.7531
  910MPD2     N13385   2.907   0.999  15.874  0.3308  0.1156  0.4137
  910MPD2    H513386   2.841   1.072  15.847 -0.9431 -1.1186  0.1597
  910MPD2    N113387   3.173   0.805  16.230  0.6338  0.2788  0.4085
  910MPD2    H713388   3.208   0.734  16.167 -1.1328  0.0153 -0.2530
  911MPD2     C13389   0.884   0.887  16.265 -0.0541 -0.5586 -0.4395
  911MPD2    C113390   0.966   0.986  16.324 -0.5786  0.2086  0.1036
  911MPD2    C213391   0.938   1.122  16.298  0.5037 -0.3634  0.1293
  911MPD2    C313392   0.837   1.160  16.212  0.2999  0.5051 -0.0020
  911MPD2    C413393   0.769   1.059  16.151  1.0646  0.1005 -0.1152
  911MPD2    C513394   0.789   0.924  16.166 -0.2137  0.1478  0.3484
  911MPD2     H13395   0.982   1.204  16.352  1.6131 -0.7948 -0.1217
  911MPD2    H113396   0.689   1.085  16.082  1.3374 -2.1215 -1.2885
  911MPD2    H213397   0.912   0.783  16.262 -1.4970 -0.9552  0.1375
  911MPD2    H313398   0.736   0.844  16.116  0.3102 -1.8584  3.0087
  911MPD2     N13399   0.823   1.291  16.158 -0.2667  0.5055  0.7567
  911MPD2    H513400   0.760   1.302  16.079 -1.7824 -4.8198  1.2251
  911MPD2    N113401   1.066   0.938  16.413 -0.4864 -0.2908  0.6342
  911MPD2    H713402   1.070   0.838  16.430  0.8018  0.2471  3.4491
  912MPD2     C13403   0.522   1.316  15.529 -0.1472  0.6394  0.0183
  912MPD2    C113404   0.553   1.290  15.661  0.5007 -0.5272  0.0255
  912MPD2    C213405   0.544   1.163  15.711 -0.2806 -0.1650  0.4335
  912MPD2    C313406   0.472   1.068  15.636  0.3977  0.2485  0.1329
  912MPD2    C413407   0.442   1.094  15.506  0.2688  0.4615 -0.1158
  912MPD2    C513408   0.466   1.217  15.455  0.2470  0.0160  0.5375
  912MPD2     H13409   0.577   1.135  15.811  1.5939 -0.2861 -0.2313
  912MPD2    H113410   0.382   1.026  15.446  1.9972  0.9149 -2.3922
  912MPD2    H213411   0.540   1.415  15.487 -2.2906  0.9171 -0.2160
  912MPD2    H313412   0.417   1.240  15.360 -0.2693 -0.6437  0.6459
  912MPD2     N13413   0.460   0.943  15.702 -0.2170  0.0985 -0.1211
  912MPD2    H513414   0.465   0.945  15.803  1.4303  2.5027 -0.2696
  912MPD2    N113415   0.624   1.391  15.728  0.0089  0.5839  0.1266
  912MPD2    H713416   0.652   1.472  15.674  1.2491  0.0721  0.0088
  913MPD2     C13417   0.896   1.873  10.652 -0.0306  0.4021  0.1930
  913MPD2    C113418   0.941   1.999  10.694  0.8574  0.4232  0.5720
  913MPD2    C213419   0.954   2.094  10.597  0.1559 -0.0769 -0.0712
  913MPD2    C313420   0.913   2.081  10.464  0.2443 -0.2719 -0.6554
  913MPD2    C413421   0.871   1.960  10.425 -0.5671  0.3255  0.7961
  913MPD2    C513422   0.859   1.860  10.517  0.3153 -1.1141 -0.7985
  913MPD2     H13423   0.999   2.186  10.634  0.2966  0.0483 -0.5630
  913MPD2    H113424   0.841   1.951  10.321  2.7074  0.4991 -0.1814
  913MPD2    H213425   0.888   1.787  10.717 -0.7498 -1.4437 -2.3147
  913MPD2    H313426   0.815   1.763  10.497  0.5159 -1.0919 -1.3296
  913MPD2     N13427   0.924   2.185  10.370 -0.3758 -0.4083 -0.1776
  913MPD2    H513428   0.886   2.168  10.278 -0.0587  1.9210 -0.7526
  913MPD2    N113429   0.993   2.020  10.828  0.0254 -0.5202  0.4084
  913MPD2    H713430   0.986   1.940  10.890  0.2840 -0.8710 -0.0158
  914MPD2     C13431   4.032   2.279  12.697 -0.1946 -0.3543  0.5195
  914MPD2    C113432   4.008   2.354  12.809 -0.2843 -0.4534  0.0633
  914MPD2    C213433   4.057   2.314  12.934 -0.1833 -0.2004 -0.1107
  914MPD2    C313434   4.124   2.191  12.941 -0.0343 -0.2124 -0.4386
  914MPD2    C413435   4.149   2.120  12.826 -0.0711 -0.1890  0.2097
  914MPD2    C513436   4.101   2.161  12.705 -0.6984 -0.2483  0.2961
  914MPD2     H13437   4.026   2.378  13.015 -3.0616 -0.9160 -0.6549
  914MPD2    H113438   4.208   2.030  12.820  1.1962  0.8360 -2.9502
  914MPD2    H213439   3.992   2.310  12.600  1.1970 -0.6975 -0.1613
  914MPD2    H313440   4.119   2.099  12.619 -0.0214  1.2061 -0.6141
  914MPD2     N13441   4.160   2.144  13.071 -0.0408 -0.0543 -0.2473
  914MPD2    H513442   4.141   2.215  13.141  2.3909 -0.8927  1.2710
  914MPD2    N113443   3.951   2.483  12.778 -0.5114 -0.1102 -0.6242
  914MPD2    H713444   3.929   2.511  12.683 -0.6912  1.4538 -0.1250
  915MPD2     C13445   2.167   2.608  15.873  0.0830 -0.4301 -0.8265
  915MPD2    C113446   2.031   2.617  15.892  0.3209  0.1010  0.5543
  915MPD2    C213447   1.977   2.633  16.019 -0.8250 -0.3412 -0.0238
  915MPD2    C313448   2.059   2.632  16.131  0.1553  0.5612  0.4082
  915MPD2    C413449   2.192   2.624  16.110 -0.3065 -0.4537 -0.2144
  915MPD2    C513450   2.246   2.618  15.985  0.6249  0.0475 -0.2493
  915MPD2     H13451   1.870   2.644  16.030 -0.6996  2.7090 -1.9585
  915MPD2    H113452   2.261   2.633  16.193 -1.3422 -2.7478  0.9046
  915MPD2    H213453   2.219   2.606  15.778  1.1984  1.3580 -0.2718
  915MPD2    H313454   2.353   2.614  15.968  0.7900 -0.2259  0.8175
  915MPD2     N13455   1.999   2.645  16.258  0.1478  0.0304 -0.1313
  915MPD2    H513456   1.898   2.633  16.265  0.7988 -4.8038  1.2573
  915MPD2    N113457   1.951   2.602  15.776  0.0216 -0.0223  0.1027
  915MPD2    H713458   1.998   2.576  15.690 -1.6737 -0.5998 -0.6671
  916MPD2     C13459   0.130   1.166  15.602 -0.5679 -0.2288  0.2478
  916MPD2    C113460   0.115   1.062  15.692 -0.3784  0.1482  0.1534
  916MPD2    C213461   0.102   0.932  15.641 -0.2140  0.3009 -0.1665
  916MPD2    C313462   0.090   0.912  15.502  0.3462 -0.1675  0.1200
  916MPD2    C413463   0.091   1.021  15.415 -0.6095 -0.5408 -0.6355
  916MPD2    C513464   0.114   1.144  15.466  0.3995 -0.0847 -0.0648
  916MPD2     H13465   0.093   0.854  15.716  2.0400  0.8381  0.6830
  916MPD2    H113466   0.074   1.008  15.309  0.6000 -0.7882 -0.7988
  916MPD2    H213467   0.156   1.268  15.629 -0.8437  0.9497 -3.8834
  916MPD2    H313468   0.144   1.221  15.395 -2.5136 -0.3938 -1.6390
  916MPD2     N13469   0.067   0.777  15.470 -0.5158  0.1297  0.2712
  916MPD2    H513470   0.058   0.704  15.540  0.3228 -0.8731 -0.6535
  916MPD2    N113471   0.129   1.089  15.831 -0.3759 -0.0940 -0.2130
  916MPD2    H713472   0.137   1.186  15.861 -0.9623  0.1415 -0.8167
  917MPD2     C13473   0.514   2.851  11.308 -0.1223 -0.1080 -0.5171
  917MPD2    C113474   0.591   2.843  11.419  0.1062 -0.5803 -0.6379
  917MPD2    C213475   0.725   2.887  11.415  0.4233 -0.8937  0.4249
  917MPD2    C313476   0.782   2.927  11.297  0.0723  0.1696  1.2851
  917MPD2    C413477   0.701   2.937  11.190  0.1149 -0.5214 -0.5302
  917MPD2    C513478   0.570   2.889  11.188  0.5685 -0.9481  0.5421
  917MPD2     H13479   0.781   2.901  11.507 -0.6971 -0.2089  1.0057
  917MPD2    H113480   0.731   2.988  11.100 -0.1691 -2.2381 -1.5847
  917MPD2    H213481   0.413   2.813  11.302 -0.2792  0.3279 -0.6554
  917MPD2    H313482   0.506   2.885  11.100 -1.0071 -0.9607  1.6888
  917MPD2     N13483   0.908   2.981  11.279 -0.3552  0.9953  0.3844
  917MPD2    H513484   0.918   3.015  11.184 -0.9528 -0.3405 -0.1612
  917MPD2    N113485   0.526   2.810  11.541  0.3081 -0.6036  0.6227
  917MPD2    H713486   0.427   2.791  11.529 -0.2544  3.1180 -0.6395
  918MPD2     C13487   0.389   3.492  11.719  0.0588  0.1365 -0.2354
  918MPD2    C113488   0.479   3.446  11.817 -0.1221 -0.6360 -0.1073
  918MPD2    C213489   0.472   3.321  11.864 -0.5674  0.1980  0.2212
  918MPD2    C313490   0.361   3.243  11.839 -0.2566 -0.4333 -0.1177
  918MPD2    C413491   0.269   3.288  11.745 -0.1067  0.4413  0.6375
  918MPD2    C513492   0.279   3.412  11.693 -0.8528 -0.1562 -0.1747
  918MPD2     H13493   0.530   3.292  11.951  1.7802  0.8925 -1.1037
  918MPD2    H113494   0.173   3.237  11.738  0.7508 -1.3490  2.2119
  918MPD2    H213495   0.383   3.593  11.680  2.0747  0.1294 -0.5781
  918MPD2    H313496   0.194   3.448  11.636  1.1563  1.4461 -2.1687
  918MPD2     N13497   0.362   3.118  11.904  0.4494 -0.6357 -0.0711
  918MPD2    H513498   0.435   3.099  11.972 -0.2624 -1.5079  0.4427
  918MPD2    N113499   0.572   3.532  11.889  0.1721  0.0459  0.1621
  918MPD2    H713500   0.625   3.492  11.966  0.1375 -1.0567 -0.3807
  919MPD2     C13501   0.741   2.055  12.118  0.6597 -0.0918 -0.3606
  919MPD2    C113502   0.694   1.938  12.071  0.3201 -0.0496  0.1701
  919MPD2    C213503   0.675   1.928  11.933 -0.2736 -0.2190  0.8389
  919MPD2    C313504   0.702   2.035  11.845  0.3442  0.2661 -0.6086
  919MPD2    C413505   0.759   2.150  11.893 -0.4551  0.6720  0.3165
  919MPD2    C513506   0.778   2.156  12.032  0.8094 -0.8748  0.2964
  919MPD2     H13507   0.645   1.833  11.889  1.0837  1.2170 -3.2376
  919MPD2    H113508   0.793   2.229  11.828 -0.7650 -1.4589 -2.4131
  919MPD2    H213509   0.767   2.057  12.223  1.6998  0.4145 -0.6223
  919MPD2    H313510   0.820   2.247  12.074 -0.6750 -1.6479  3.4186
  919MPD2     N13511   0.665   2.030  11.709 -0.4933  0.6651  0.7201
  919MPD2    H513512   0.724   2.085  11.648 -2.8364  2.5004  0.1003
  919MPD2    N113513   0.676   1.821  12.146  0.5777 -0.5778  0.7820
  919MPD2    H713514   0.643   1.738  12.098  2.6029 -2.3077  2.3721
  920MPD2     C13515   0.620   2.313  10.734  0.4144  0.0376  0.1278
  920MPD2    C113516   0.495   2.256  10.768 -0.2139 -0.1325 -0.9822
  920MPD2    C213517   0.488   2.187  10.880 -0.0361  0.4935 -0.5514
  920MPD2    C313518   0.591   2.175  10.973 -0.7113  0.3569  0.6300
  920MPD2    C413519   0.714   2.221  10.933 -0.0715  0.5172  0.1151
  920MPD2    C513520   0.733   2.294  10.812 -0.7721  1.5339  0.2193
  920MPD2     H13521   0.389   2.147  10.902  0.2974  0.4198  0.7825
  920MPD2    H113522   0.796   2.206  11.001 -0.4442 -0.9066  0.2420
  920MPD2    H213523   0.637   2.367  10.641  0.3929  1.2798  0.8318
  920MPD2    H313524   0.827   2.332  10.774 -1.3786  1.3966 -1.4430
  920MPD2     N13525   0.567   2.099  11.090  0.6878 -0.1694  0.4733
  920MPD2    H513526   0.471   2.066  11.100  0.7220 -0.7493 -1.0696
  920MPD2    N113527   0.379   2.268  10.685 -0.2236  0.1414  0.5382
  920MPD2    H713528   0.297   2.226  10.728  0.2666 -1.2595  0.0795
  921MPD2     C13529   1.753   1.295  17.074 -0.1235  0.1876 -0.2145
  921MPD2    C113530   1.774   1.237  16.953  0.4678 -0.6174  0.4854
  921MPD2    C213531   1.674   1.158  16.905  0.0816  0.5490  0.8158
  921MPD2    C313532   1.558   1.131  16.964 -0.5242  0.4817 -0.5337
  921MPD2    C413533   1.539   1.193  17.085 -0.0756  0.1639 -0.1529
  921MPD2    C513534   1.634   1.271  17.140  0.2726  0.0282  0.0907
  921MPD2     H13535   1.694   1.109  16.811 -0.4818  0.7309  0.6017
  921MPD2    H113536   1.443   1.176  17.132 -0.8397  1.3389 -1.2981
  921MPD2    H213537   1.819   1.364  17.124 -0.9541 -0.2180  1.4290
  921MPD2    H313538   1.603   1.332  17.224  0.7269 -2.1598  1.8368
  921MPD2     N13539   1.456   1.063  16.898 -0.5828 -0.5964 -0.0771
  921MPD2    H513540   1.360   1.080  16.928 -0.7441 -0.9891 -0.3657
  921MPD2    N113541   1.903   1.253  16.890  0.2064 -0.4575  0.2946
  921MPD2    H713542   1.965   1.319  16.936  0.1938 -0.6866  0.6397
  922MPD2     C13543   2.768   4.265  17.425 -0.4098 -0.6017  0.1194
  922MPD2    C113544   2.676   4.268  17.523 -0.1397 -0.3552  0.7730
  922MPD2    C213545   2.619   4.152  17.571  0.5691 -0.6818  0.1174
  922MPD2    C313546   2.661   4.031  17.519  0.9983  0.3224  0.9080
  922MPD2    C413547   2.753   4.037  17.416  0.6124  0.2725 -0.1766
  922MPD2    C513548   2.811   4.148  17.365  0.1835  0.9523 -0.4911
  922MPD2     H13549   2.552   4.155  17.656  0.4773  1.5313 -0.0370
  922MPD2    H113550   2.776   3.942  17.369 -0.6398 -0.3878  0.5076
  922MPD2    H213551   2.812   4.357  17.385 -1.1080  0.0672  0.8893
  922MPD2    H313552   2.867   4.157  17.273  1.5001  1.9205  0.4015
  922MPD2     N13553   2.601   3.910  17.574  0.2767  0.1069 -0.5554
  922MPD2    H513554   2.528   3.930  17.641  2.6103  2.0293  1.3876
  922MPD2    N113555   2.627   4.393  17.569  0.7820  0.2048 -0.2512
  922MPD2    H713556   2.568   4.385  17.651  0.4984  1.4785 -0.3285
  923MPD2     C13557   3.359   0.272   9.186  0.0719  0.1491  0.0740
  923MPD2    C113558   3.372   0.371   9.275  0.7722 -0.2048 -0.3104
  923MPD2    C213559   3.499   0.427   9.294 -0.4089 -0.3075 -0.5482
  923MPD2    C313560   3.605   0.409   9.207  0.2693 -0.1626 -0.4004
  923MPD2    C413561   3.583   0.309   9.108  0.1833  0.4301 -0.3337
  923MPD2    C513562   3.466   0.234   9.104  0.0617 -0.2785 -0.6362
  923MPD2     H13563   3.511   0.485   9.385  3.3557  0.2252 -1.3657
  923MPD2    H113564   3.663   0.282   9.041  0.5865  1.0208 -0.0907
  923MPD2    H213565   3.267   0.215   9.183 -0.7984  1.5073  0.7047
  923MPD2    H313566   3.461   0.154   9.031  0.2484 -0.6768 -0.2183
  923MPD2     N13567   3.724   0.479   9.209  0.7532  0.1273  0.0796
  923MPD2    H513568   3.786   0.451   9.134  2.9200  1.3958  1.3823
  923MPD2    N113569   3.260   0.380   9.357  0.6876 -0.6821  0.0669
  923MPD2    H713570   3.179   0.332   9.318  0.1141  1.3389 -1.2066
  924MPD2     C13571   3.619   4.194  16.026 -0.3156 -0.5477 -0.0113
  924MPD2    C113572   3.702   4.224  16.134  0.0610  0.3760  0.3228
  924MPD2    C213573   3.737   4.357  16.141 -0.0644  0.2319 -0.4203
  924MPD2    C313574   3.692   4.458  16.056 -0.2634 -0.5679  0.3802
  924MPD2    C413575   3.595   4.421  15.960  0.1889 -0.1158 -0.2029
  924MPD2    C513576   3.563   4.291  15.937 -0.4183 -0.6810  0.2451
  924MPD2     H13577   3.811   4.378  16.217  0.6561 -1.6381 -0.5973
  924MPD2    H113578   3.557   4.498  15.893  1.4191  0.2434 -0.4816
  924MPD2    H213579   3.587   4.096  15.994  1.2886 -1.6520  1.7914
  924MPD2    H313580   3.497   4.258  15.857 -0.6452  1.9710 -0.6631
  924MPD2     N13581   3.722   4.592  16.077  0.0328 -0.8179  0.3758
  924MPD2    H513582   3.649   4.653  16.042  0.6370  0.0111  0.5628
  924MPD2    N113583   3.755   4.122  16.205  0.2381  0.1437  0.1910
  924MPD2    H713584   3.757   4.027  16.168  1.2621 -0.5297  2.0132
  925MPD2     C13585   2.691   2.255  15.250 -0.4387  0.6817  0.2664
  925MPD2    C113586   2.569   2.194  15.235  0.2777  0.0958  0.3296
  925MPD2    C213587   2.482   2.195  15.340 -0.5369  0.0090  0.4164
  925MPD2    C313588   2.519   2.251  15.463 -0.0653 -0.2261  1.0433
  925MPD2    C413589   2.636   2.312  15.481  0.4974  0.4224  0.2075
  925MPD2    C513590   2.723   2.315  15.377 -0.3833 -0.1981 -0.4128
  925MPD2     H13591   2.377   2.166  15.333 -0.5936  0.0280  1.1152
  925MPD2    H113592   2.655   2.367  15.573 -0.2104 -0.4067  0.8514
  925MPD2    H213593   2.773   2.260  15.179 -2.4788  0.3170 -2.1248
  925MPD2    H313594   2.825   2.347  15.397 -0.7159  1.0371 -0.7456
  925MPD2     N13595   2.446   2.240  15.582  0.2739  0.1487 -0.1086
  925MPD2    H513596   2.504   2.245  15.666  0.1470  1.8807 -0.1323
  925MPD2    N113597   2.528   2.129  15.116  0.4755 -0.5039 -0.4023
  925MPD2    H713598   2.440   2.078  15.117  0.0421  0.2215 -0.8992
  926MPD2     C13599   1.942   0.492  13.276  0.2051 -0.2233 -0.6680
  926MPD2    C113600   1.806   0.514  13.286 -0.6852  0.1941  0.7382
  926MPD2    C213601   1.751   0.571  13.175 -0.4665  0.3557 -0.2003
  926MPD2    C313602   1.827   0.628  13.076 -0.5995  0.8251 -1.3028
  926MPD2    C413603   1.961   0.605  13.075  0.3368 -0.9750 -0.0989
  926MPD2    C513604   2.016   0.535  13.173 -0.2465  0.1579 -0.3556
  926MPD2     H13605   1.643   0.581  13.168 -0.3932  1.0178 -0.3888
  926MPD2    H113606   2.032   0.642  13.002  1.9532 -0.9530  1.4907
  926MPD2    H213607   1.999   0.425  13.339  0.6567 -0.5269 -1.3931
  926MPD2    H313608   2.122   0.510  13.176  0.0938  1.6135  0.0610
  926MPD2     N13609   1.766   0.698  12.967 -0.4529  0.7101 -0.1973
  926MPD2    H513610   1.826   0.723  12.889 -0.3449  1.5540  0.1667
  926MPD2    N113611   1.723   0.462  13.388  0.5240  0.3037  0.1115
  926MPD2    H713612   1.623   0.481  13.378  0.5210  1.4344  2.2913
  927MPD2     C13613   0.648   2.449  17.625  0.4598  0.3170  0.3864
  927MPD2    C113614   0.743   2.471  17.725  0.8501 -0.1573  0.6831
  927MPD2    C213615   0.868   2.421  17.701 -0.3316  0.2307  0.5408
  927MPD2    C313616   0.898   2.349  17.591 -0.0927 -0.2286  0.1678
  927MPD2    C413617   0.805   2.330  17.494 -0.3552  0.2824 -0.0166
  927MPD2    C513618   0.679   2.379  17.513  0.6350 -0.4034  0.3441
  927MPD2     H13619   0.948   2.451   0.010 -0.2489  2.9959 -0.8172
  927MPD2    H113620   0.836   2.283  17.401  1.6021  1.5706 -0.0086
  927MPD2    H213621   0.547   2.480  17.647 -1.0649 -3.6065 -1.1943
  927MPD2    H313622   0.597   2.354  17.447  0.9907  0.2882 -0.3622
  927MPD2     N13623   1.023   2.279  17.597 -0.0373 -0.3099  0.3381
  927MPD2    H513624   1.068   2.285  17.688  1.6226 -0.2019 -0.4921
  927MPD2    N113625   0.702   2.544   0.080 -0.2275 -0.2974  0.3261
  927MPD2    H713626   0.605   2.575   0.078 -0.3398 -0.6241  0.7263
  928MPD2     C13627   4.459   0.817   1.056  0.3139 -0.3261 -0.5458
  928MPD2    C113628   4.358   0.913   1.049 -0.1471 -0.3891  0.0241
  928MPD2    C213629   4.299   0.941   0.930 -0.0386 -1.0396  0.1061
  928MPD2    C313630   4.317   0.875   0.812 -0.1278 -0.6420  0.7869
  928MPD2    C413631   4.410   0.770   0.819 -0.1851 -0.1978  0.0884
  928MPD2    C513632   4.476   0.745   0.934 -0.1771  0.1265 -0.2183
  928MPD2     H13633   4.230   1.024   0.933  1.1548 -0.1226  2.1756
  928MPD2    H113634   4.429   0.705   0.734  1.7093 -2.1118  1.9835
  928MPD2    H213635   4.511   0.791   1.147 -0.2313 -0.5652 -0.3041
  928MPD2    H313636   4.545   0.662   0.928  0.2015  0.5188 -1.2684
  928MPD2     N13637   4.265   0.920   0.689 -0.8821 -0.4307 -0.2911
  928MPD2    H513638   4.278   0.861   0.608 -2.3412 -0.9327 -0.1471
  928MPD2    N113639   4.324   0.983   1.165 -0.0441  0.8737 -0.1000
  928MPD2    H713640   4.394   0.983   1.238 -0.2442  2.6473  0.1050
  929MPD2     C13641   3.811   0.554   9.923  0.1773  0.4380 -0.0738
  929MPD2    C113642   3.756   0.508  10.036 -0.0803  0.1703 -0.6409
  929MPD2    C213643   3.638   0.440  10.033  0.4511 -0.1091  0.1697
  929MPD2    C313644   3.578   0.404   9.908 -0.5894  0.4274 -0.5258
  929MPD2    C413645   3.642   0.444   9.797  0.1645 -0.1692 -0.3836
  929MPD2    C513646   3.757   0.517   9.797  0.4685  1.2240  0.0446
  929MPD2     H13647   3.602   0.396  10.125 -0.7573 -0.7762 -0.6139
  929MPD2    H113648   3.597   0.424   9.700  1.2408 -0.9857 -0.7103
  929MPD2    H213649   3.904   0.608   9.928 -0.2279  1.0560  0.8761
  929MPD2    H313650   3.803   0.555   9.706  1.0341  1.4195  0.4110
  929MPD2     N13651   3.465   0.331   9.892  0.3240  0.3409 -0.4959
  929MPD2    H513652   3.468   0.282   9.803 -0.4738  0.7253 -0.7353
  929MPD2    N113653   3.820   0.561  10.153 -0.1617  0.2191  0.5008
  929MPD2    H713654   3.906   0.612  10.139 -0.4445  0.7861  0.8622
  930MPD2     C13655   0.601   3.092  14.036 -0.5578 -0.2918  0.7713
  930MPD2    C113656   0.730   3.130  14.037  0.5925 -0.1759 -0.2563
  930MPD2    C213657   0.785   3.179  13.918  0.3825  0.0031 -0.1915
  930MPD2    C313658   0.720   3.178  13.796 -0.2495  0.5805 -0.4699
  930MPD2    C413659   0.591   3.144  13.802 -0.3185 -0.1109  0.4899
  930MPD2    C513660   0.528   3.110  13.917  0.4846  0.0399 -0.2008
  930MPD2     H13661   0.891   3.199  13.909  0.3574  0.6609  1.0497
  930MPD2    H113662   0.535   3.141  13.709  2.5107  0.3090 -1.1984
  930MPD2    H213663   0.545   3.066  14.126 -1.1778 -1.9217 -0.0850
  930MPD2    H313664   0.424   3.081  13.922  0.6084 -0.3836 -0.0784
  930MPD2     N13665   0.785   3.202  13.668  0.5796  0.2781  0.4018
  930MPD2    H513666   0.731   3.210  13.582  0.2698 -0.3853  0.5304
  930MPD2    N113667   0.805   3.139  14.150 -0.0560 -1.0761  1.4813
  930MPD2    H713668   0.895   3.186  14.142  0.3723 -2.0081  0.7837
  931MPD2     C13669   0.762   3.018   0.892  0.3500  0.3464  0.1002
  931MPD2    C113670   0.826   2.929   0.809 -0.7971 -0.4404  0.2668
  931MPD2    C213671   0.923   2.852   0.860  0.6563 -0.1554  0.7864
  931MPD2    C313672   0.957   2.859   0.994 -0.3056  0.8903  0.0635
  931MPD2    C413673   0.893   2.954   1.076 -0.6150  0.4623  0.8347
  931MPD2    C513674   0.789   3.039   1.031  0.2564  0.1622  0.7214
  931MPD2     H13675   0.963   2.770   0.801 -0.7575 -1.1639  1.2267
  931MPD2    H113676   0.919   2.958   1.182  0.0490  0.6833  0.6609
  931MPD2    H213677   0.683   3.078   0.850 -1.1869 -1.4937  0.3494
  931MPD2    H313678   0.741   3.113   1.094 -2.2766  0.0659 -1.0789
  931MPD2     N13679   1.046   2.772   1.052 -0.0077 -0.7302 -0.3144
  931MPD2    H513680   1.066   2.773   1.151 -0.9311 -0.7901 -0.1258
  931MPD2    N113681   0.785   2.916   0.676 -0.9125 -0.5055  0.4023
  931MPD2    H713682   0.701   2.959   0.639 -0.1474  0.7048  0.0634
  932MPD2     C13683   2.763   1.329  11.196 -0.2090  0.5461  0.1366
  932MPD2    C113684   2.900   1.352  11.195 -0.4817  0.1941 -0.3657
  932MPD2    C213685   2.985   1.241  11.183 -0.8055  0.9950 -0.1331
  932MPD2    C313686   2.928   1.114  11.172  0.3663  0.4964 -0.6998
  932MPD2    C413687   2.795   1.100  11.153 -0.2092  0.0953  0.5153
  932MPD2    C513688   2.711   1.203  11.161  0.5882  0.2478 -0.1053
  932MPD2     H13689   3.091   1.260  11.190 -0.1509 -2.5633 -0.6432
  932MPD2    H113690   2.766   0.997  11.137 -1.2187  0.7432 -1.9239
  932MPD2    H213691   2.695   1.413  11.210 -2.3900 -0.7551 -2.6306
  932MPD2    H313692   2.604   1.191  11.155  0.5771  0.2456  0.0883
  932MPD2     N13693   3.004   0.996  11.190 -0.4935  0.5140 -0.1033
  932MPD2    H513694   2.953   0.909  11.174  2.6818 -1.3081 -0.3975
  932MPD2    N113695   2.963   1.472  11.228  0.1662 -0.2286 -0.3577
  932MPD2    H713696   3.064   1.469  11.230  0.1449 -1.2119 -1.2280
  933MPD2     C13697   3.614   1.315   1.433 -0.1129 -0.1704 -0.6487
  933MPD2    C113698   3.724   1.393   1.452  0.6067  0.0538 -0.1418
  933MPD2    C213699   3.714   1.531   1.462 -0.2512  0.9235 -0.1033
  933MPD2    C313700   3.583   1.591   1.455 -0.2643 -0.3538 -0.2259
  933MPD2    C413701   3.476   1.500   1.460  0.2389 -0.1504 -0.2777
  933MPD2    C513702   3.488   1.359   1.448  0.1377 -0.4961  0.3089
  933MPD2     H13703   3.798   1.596   1.484  1.3337 -1.2069  0.1285
  933MPD2    H113704   3.375   1.538   1.460  0.2456 -0.1308 -0.7312
  933MPD2    H213705   3.634   1.210   1.418  0.7413  0.0124 -0.7956
  933MPD2    H313706   3.402   1.294   1.450 -1.2050  1.4139  3.6491
  933MPD2     N13707   3.565   1.726   1.447  0.5257 -0.0071  0.0191
  933MPD2    H513708   3.470   1.763   1.439  1.0965  1.6871  1.0778
  933MPD2    N113709   3.853   1.326   1.454  0.1804  0.2221 -0.4385
  933MPD2    H713710   3.854   1.225   1.445 -0.9634  0.2511 -0.9212
  934MPD2     C13711   0.385   3.390   1.482  0.0166 -0.1473 -0.0587
  934MPD2    C113712   0.476   3.350   1.393  0.0494  0.1989 -0.3012
  934MPD2    C213713   0.446   3.272   1.288  0.0064 -0.5725  0.0695
  934MPD2    C313714   0.317   3.228   1.267 -0.5880  0.7811 -0.0157
  934MPD2    C413715   0.223   3.274   1.350  0.4400  0.6403  0.3940
  934MPD2    C513716   0.256   3.366   1.448 -0.5277 -0.1798  0.1029
  934MPD2     H13717   0.531   3.232   1.234  1.3604  1.1017  0.9727
  934MPD2    H113718   0.116   3.263   1.341  0.5181  0.5104 -0.4450
  934MPD2    H213719   0.414   3.470   1.550  0.4648  0.7457 -1.2889
  934MPD2    H313720   0.174   3.397   1.511 -1.2889  0.6037 -1.2657
  934MPD2     N13721   0.278   3.145   1.166  0.0332  0.2950 -0.0140
  934MPD2    H513722   0.180   3.119   1.155  0.1440  0.9059 -2.5601
  934MPD2    N113723   0.610   3.386   1.408 -0.2636  0.4331  0.0279
  934MPD2    H713724   0.669   3.373   1.326  0.1689 -1.1095  0.5906
  935MPD2     C13725   0.397   2.251   0.913 -0.3455 -1.0188  0.3112
  935MPD2    C113726   0.305   2.296   0.819  0.0162 -0.0206 -0.0648
  935MPD2    C213727   0.253   2.425   0.832  0.0550 -0.7329 -0.0169
  935MPD2    C313728   0.294   2.515   0.930 -0.0127 -0.4054 -0.0625
  935MPD2    C413729   0.383   2.465   1.019 -0.0696  0.1786  0.3473
  935MPD2    C513730   0.427   2.338   1.009  0.2322 -0.3355 -0.4169
  935MPD2     H13731   0.171   2.456   0.768  0.4957  1.2500  0.3669
  935MPD2    H113732   0.417   2.529   1.100  1.7341  0.5757 -0.7078
  935MPD2    H213733   0.451   2.158   0.923  1.9268  0.3513  1.0231
  935MPD2    H313734   0.494   2.311   1.090  2.7273  1.9041 -1.7308
  935MPD2     N13735   0.243   2.645   0.943  0.2288 -0.9994 -0.3309
  935MPD2    H513736   0.280   2.704   1.018 -0.6490  0.8483 -1.3363
  935MPD2    N113737   0.263   2.218   0.709  0.3671 -0.1739  0.8833
  935MPD2    H713738   0.212   2.261   0.632  1.5194 -0.6359 -0.1266
  936MPD2     C13739   3.278   4.192  12.659 -0.7661  0.2156 -0.3289
  936MPD2    C113740   3.331   4.247  12.777 -0.2080  0.3062  0.4949
  936MPD2    C213741   3.433   4.339  12.768 -0.0441  0.6522 -0.4489
  936MPD2    C313742   3.497   4.367  12.651  0.9394  0.6285  0.3042
  936MPD2    C413743   3.449   4.308  12.539  0.0109  0.8595 -0.0539
  936MPD2    C513744   3.335   4.227  12.540  0.0928  0.5835  0.3300
  936MPD2     H13745   3.471   4.384  12.859  1.0411 -2.5119  0.6435
  936MPD2    H113746   3.500   4.339  12.448  0.0025 -1.9955 -1.0376
  936MPD2    H213747   3.199   4.118  12.658 -1.0273  0.4731  0.9092
  936MPD2    H313748   3.294   4.179  12.452 -1.1782  0.3094  1.0628
  936MPD2     N13749   3.621   4.431  12.657 -0.1445  0.2155  0.0074
  936MPD2    H513750   3.644   4.464  12.750  0.9823 -2.5214  0.7013
  936MPD2    N113751   3.282   4.215  12.900  0.1704  0.2333  0.3212
  936MPD2    H713752   3.322   4.266  12.978 -0.8147  1.9130 -0.2774
  937MPD2     C13753   0.725   1.168  11.935 -0.1644  0.2867 -0.8035
  937MPD2    C113754   0.774   1.296  11.976  0.0571 -0.0623 -0.7848
  937MPD2    C213755   0.852   1.356  11.876  0.1483  0.6963 -0.5266
  937MPD2    C313756   0.891   1.293  11.760 -0.2187  0.1300  0.7238
  937MPD2    C413757   0.843   1.167  11.730  0.0606 -0.4391 -0.3320
  937MPD2    C513758   0.756   1.112  11.815 -0.0557 -0.1776 -0.1444
  937MPD2     H13759   0.884   1.458  11.892  0.7086  0.5620 -0.7945
  937MPD2    H113760   0.864   1.117  11.636 -2.0675 -1.1499 -0.4216
  937MPD2    H213761   0.665   1.105  11.999 -0.2425 -1.2024 -2.3350
  937MPD2    H313762   0.715   1.012  11.802 -0.3200  0.0538 -1.0481
  937MPD2     N13763   0.968   1.365  11.675 -0.1142 -0.7974  0.0139
  937MPD2    H513764   0.995   1.461  11.696 -0.0773 -0.8023 -0.0102
  937MPD2    N113765   0.736   1.376  12.088 -0.3713 -0.5443  0.3534
  937MPD2    H713766   0.782   1.465  12.103 -1.9924  0.2533  0.5820
  938MPD2     C13767   3.793   3.048   0.275  0.1310  0.2068 -0.3869
  938MPD2    C113768   3.871   3.092   0.380 -0.4316  0.1975  0.2282
  938MPD2    C213769   3.899   2.995   0.469 -0.3000  0.6723  0.0495
  938MPD2    C313770   3.835   2.871   0.468 -0.3590 -0.0154 -0.2742
  938MPD2    C413771   3.746   2.843   0.367  0.1507  0.0773 -0.1238
  938MPD2    C513772   3.736   2.931   0.267  0.5466  0.6384 -0.6304
  938MPD2     H13773   3.973   3.020   0.545  0.9343 -1.3594 -0.4771
  938MPD2    H113774   3.690   2.750   0.365 -1.4817  1.0187  1.4143
  938MPD2    H213775   3.779   3.115   0.191  2.5637  1.6542  0.3565
  938MPD2    H313776   3.675   2.901   0.183 -0.3918 -1.6202  0.8519
  938MPD2     N13777   3.844   2.774   0.573  0.0679 -0.2000  0.6791
  938MPD2    H513778   3.769   2.707   0.589  0.6123 -0.8064  0.6646
  938MPD2    N113779   3.923   3.218   0.394  0.3740 -0.2345  0.5437
  938MPD2    H713780   3.990   3.230   0.469 -0.3457  0.1023  1.1301
  939MPD2     C13781   4.533   3.808   0.567 -0.3908 -0.0297 -0.0821
  939MPD2    C113782   4.510   3.920   0.494 -0.2975  0.2898  0.0099
  939MPD2    C213783   4.596   3.962   0.398 -0.8682  0.0918  0.5141
  939MPD2    C313784   4.709   3.891   0.372  0.5620  0.5870  0.3974
  939MPD2    C413785   4.740   3.778   0.452  0.1777  0.0649 -0.3561
  939MPD2    C513786   4.650   3.736   0.546  0.2967  0.0638 -0.4931
  939MPD2     H13787   4.567   4.044   0.334 -0.6450 -2.5951 -3.0370
  939MPD2    H113788   0.090   3.720   0.436 -1.5809 -2.5235 -0.8155
  939MPD2    H213789   4.461   3.779   0.643  1.7375 -1.2505  1.4477
  939MPD2    H313790   4.672   3.646   0.603 -2.0100 -0.3319 -0.2283
  939MPD2     N13791   0.039   3.922   0.256  0.1783  0.5570 -0.0060
  939MPD2    H513792   0.011   4.012   0.218 -1.5144 -0.0022 -0.1028
  939MPD2    N113793   4.391   3.994   0.527 -0.4326 -0.2257 -0.1847
  939MPD2    H713794   4.338   3.978   0.612  0.7502 -0.4418  0.4992
  940MPD2     C13795   4.007   0.290  13.182 -0.3306 -0.1792 -0.1859
  940MPD2    C113796   3.968   0.159  13.215 -0.2111 -0.1649 -0.6468
  940MPD2    C213797   4.059   0.062  13.181 -0.0024  0.0317 -0.0469
  940MPD2    C313798   4.164   0.093  13.085  0.0542  0.4045  0.2195
  940MPD2    C413799   4.194   0.229  13.055  0.3724 -0.5705 -0.5806
  940MPD2    C513800   4.118   0.324  13.103  0.1652 -0.0411  0.5734
  940MPD2     H13801   4.052   4.701  13.217 -1.7701  0.0850 -0.2348
  940MPD2    H113802   4.279   0.257  12.993 -0.0170  2.8135  0.3985
  940MPD2    H213803   3.942   0.373  13.206  0.9084  1.5267 -2.7716
  940MPD2    H313804   4.132   0.429  13.079 -0.6228  0.2509  1.3683
  940MPD2     N13805   4.235   4.723  13.015  0.0683  0.4740  0.1919
  940MPD2    H513806   4.304   0.006  12.944  1.6508  0.0455  1.5907
  940MPD2    N113807   3.851   0.131  13.296  0.3209 -0.2379 -0.1086
  940MPD2    H713808   3.835   0.033  13.318 -1.2324  0.3182  1.1897
  941MPD2     C13809   3.342   3.895  10.471 -0.1256  0.2147 -0.3156
  941MPD2    C113810   3.416   3.789  10.525  0.4964 -0.0445  0.4617
  941MPD2    C213811   3.348   3.675  10.570 -0.3468  0.4716 -0.3066
  941MPD2    C313812   3.211   3.674  10.562  0.7898 -0.2025  0.3128
  941MPD2    C413813   3.142   3.787  10.529 -0.2053  1.1095  0.7933
  941MPD2    C513814   3.204   3.896  10.477  0.5877 -0.0071  0.1499
  941MPD2     H13815   3.409   3.592  10.603 -0.3478  0.7776  0.4690
  941MPD2    H113816   3.036   3.807  10.537 -0.5306 -0.3666  0.1007
  941MPD2    H213817   3.384   3.983  10.423  0.5484  0.8678  1.4835
  941MPD2    H313818   3.144   3.979  10.442  1.2685  0.5265  0.2576
  941MPD2     N13819   3.133   3.564  10.602  0.2331  0.2440  1.1589
  941MPD2    H513820   3.032   3.578  10.603  0.1693  0.0506 -2.3423
  941MPD2    N113821   3.562   3.796  10.535  0.2147  0.0111 -0.1792
  941MPD2    H713822   3.606   3.709  10.563 -1.0007  0.2754  2.5780
  942MPD2     C13823   3.000   0.100   9.593 -0.3660  0.2868  0.7821
  942MPD2    C113824   3.094   0.119   9.691  0.3230  0.1824 -0.0788
  942MPD2    C213825   3.223   0.098   9.657  0.2458  0.0446 -0.3920
  942MPD2    C313826   3.264   0.080   9.530 -0.3736 -0.2667  0.6265
  942MPD2    C413827   3.171   0.068   9.430  0.7172 -0.0078 -0.9022
  942MPD2    C513828   3.042   0.084   9.461 -0.2225  0.2355  0.6661
  942MPD2     H13829   3.298   0.090   9.735  1.0050 -2.7834 -1.3933
  942MPD2    H113830   3.198   0.041   9.328  0.2441 -1.0095 -0.7627
  942MPD2    H213831   2.894   0.113   9.607 -0.7785 -1.3797 -0.7557
  942MPD2    H313832   2.962   0.075   9.389  0.8003 -0.9548 -0.3176
  942MPD2     N13833   3.400   0.067   9.497  0.2765 -0.0405 -0.5160
  942MPD2    H513834   3.412   0.037   9.401  0.1038  2.2075 -1.2428
  942MPD2    N113835   3.056   0.142   9.824  0.3391 -0.0980  0.2238
  942MPD2    H713836   3.133   0.154   9.889 -1.4527 -2.4430  2.7714
  943MPD2     C13837   1.981   3.759  10.243 -0.5143  0.1222 -0.1642
  943MPD2    C113838   1.950   3.631  10.273  0.0076  0.5160  0.9274
  943MPD2    C213839   2.041   3.551  10.337 -0.5575 -0.1372 -0.0852
  943MPD2    C313840   2.171   3.586  10.364 -0.2276  0.0594 -0.3099
  943MPD2    C413841   2.210   3.712  10.332 -0.2147  0.2020  0.1003
  943MPD2    C513842   2.115   3.792  10.263 -0.4086  0.0521  0.4653
  943MPD2     H13843   1.999   3.452  10.348  0.8050 -0.8487 -1.1651
  943MPD2    H113844   2.312   3.746  10.342  0.4568 -2.0212  0.6882
  943MPD2    H213845   1.913   3.826  10.192  0.3960  1.3288  0.2082
  943MPD2    H313846   2.141   3.893  10.233  0.8141 -1.0747 -2.2820
  943MPD2     N13847   2.264   3.488  10.420  0.1609  0.1241  1.0252
  943MPD2    H513848   2.363   3.511  10.417 -0.4823  2.5436 -1.6461
  943MPD2    N113849   1.814   3.595  10.234 -0.8284  0.2544 -0.3993
  943MPD2    H713850   1.776   3.665  10.171 -0.8386  1.5032  0.9755
  944MPD2     C13851   1.897   2.956  11.273 -0.4905  0.2259 -0.8247
  944MPD2    C113852   1.771   2.998  11.306 -0.1661  0.4117 -0.6349
  944MPD2    C213853   1.741   3.132  11.321  0.0013 -0.2410 -0.6383
  944MPD2    C313854   1.844   3.225  11.320 -0.6582  0.4630 -0.0603
  944MPD2    C413855   1.974   3.189  11.296  0.1913 -0.3614 -0.5192
  944MPD2    C513856   2.000   3.051  11.277 -0.1818 -0.2129  0.7159
  944MPD2     H13857   1.644   3.170  11.349 -0.6999 -2.3621 -0.1831
  944MPD2    H113858   2.056   3.259  11.283  0.4275 -0.2447  1.7258
  944MPD2    H213859   1.928   2.853  11.257 -0.7961 -0.0139  0.0685
  944MPD2    H313860   2.103   3.019  11.275  0.4346  1.9146 -2.3092
  944MPD2     N13861   1.813   3.358  11.349 -0.1078 -0.7608  0.3217
  944MPD2    H513862   1.715   3.377  11.370  0.1929  1.5139 -0.3342
  944MPD2    N113863   1.665   2.898  11.301  0.8127  0.0916  0.1480
  944MPD2    H713864   1.700   2.806  11.274 -1.8587 -0.8807  0.0247
    1TMC1    C113865   0.578   3.935  14.583 -0.2258 -0.4863  0.3898
    1TMC1    C213866   0.531   3.932  14.457 -0.9545 -0.0943  0.7542
    1TMC1    C313867   0.489   3.819  14.404  1.1388 -0.1927 -0.0602
    1TMC1    C413868   0.602   3.821  14.657  0.4280  0.4469 -0.5437
    1TMC1    C513869   0.563   3.706  14.593  0.1666  0.1214  0.5868
    1TMC1    C613870   0.508   3.701  14.471  0.8020 -0.4258 -0.3860
    1TMC1     C13871   0.605   4.061  14.638 -0.6188 -0.7705 -0.2319
    1TMC1     O13872   0.699   4.063  14.711  0.3735  0.2237  0.4100
    1TMC1     H13873   0.516   4.026  14.404  1.5456 -0.3581 -0.3905
    1TMC1    H113874   0.631   3.824  14.761  0.9440  2.0531 -0.7285
    1TMC1    H213875   0.476   3.605  14.434 -0.7891 -0.0834  0.0962
    1TMC1    C713876   0.612   3.576  14.645  0.5042  0.5925 -0.9118
    1TMC1    C813877   0.464   3.812  14.258  0.0523 -0.3707 -0.2700
    1TMC1    O113878   0.536   3.482  14.659 -0.4701 -0.4883 -0.3298
    1TMC1    O213879   0.514   3.720  14.194  0.6583 -0.2546 -0.0039
    1TMC1    O313880   0.736   3.564  14.598 -0.1620  0.6911  0.2051
    1TMC1    H313881   0.795   3.643  14.592  0.2324  0.2088 -2.2277
    1TMC1    O513882   0.404   3.921  14.215  0.0366  0.3614  0.0349
    1TMC1    H513883   0.368   3.971  14.291 -2.4098 -0.6553 -0.4445
    2MPD2     C13884   0.427   4.507  14.802  0.1835  0.3689  0.0862
    2MPD2    C113885   0.364   4.477  14.686  0.3321 -0.1053  0.1979
    2MPD2    C213886   0.390   4.358  14.634 -0.1537 -0.1999 -0.2950
    2MPD2    C313887   0.488   4.269  14.679  0.4159 -0.0254  0.2586
    2MPD2    C413888   0.554   4.299  14.796  0.0717 -0.7250 -0.6343
    2MPD2    C513889   0.522   4.422  14.855  0.4491 -0.0283 -0.9074
    2MPD2     H13890   0.337   4.330  14.544  1.4226 -2.1325 -0.6212
    2MPD2    H113891   0.628   4.241  14.849  0.5979 -0.8846 -1.5331
    2MPD2    H213892   0.427   4.602  14.854 -0.2009  1.0863 -1.2135
    2MPD2    H313893   0.563   4.441  14.953 -0.4135 -1.4820 -0.2583
    2MPD2     N13894   0.504   4.152  14.613 -0.2245 -0.1149 -1.1062
    2MPD2    H513895   0.431   4.124  14.547  0.6753 -0.5567 -1.9176
    2MPD2    N113896   0.271   4.571  14.635  0.6288  0.4640  0.1309
    2MPD2    H713897   0.252   4.646  14.701  0.7693  0.1748  0.4979
    3TMC2    C113898   0.090   4.646  14.501  0.7374 -0.3085 -0.4676
    3TMC2    C213899   4.729   4.619  14.414  0.6113  0.4399  0.2386
    3TMC2    C313900   4.649   4.723  14.383  0.5397 -0.1717  0.4190
    3TMC2    C413901   0.120   0.034  14.548  0.6589  0.3196 -0.0348
    3TMC2    C513902   0.036   0.133  14.504  0.4050  0.1599 -0.4669
    3TMC2    C613903   4.667   0.114  14.421  0.0273  0.7529  0.1285
    3TMC2     C13904   0.187   4.545  14.525  0.1577  0.4689  0.2973
    3TMC2     O13905   0.183   4.458  14.438 -0.6041 -0.1982 -0.4117
    3TMC2     H13906   4.734   4.522  14.366  0.1780  0.9384 -0.8077
    3TMC2    H113907   0.211   0.064  14.598  0.4537 -0.7164  0.9462
    3TMC2    H213908   4.614   0.188  14.361 -1.0562  0.7260  1.0451
    3TMC2    C713909   0.076   0.263  14.534 -0.4687  0.4570  0.2683
    3TMC2    C813910   4.566   4.715  14.264  0.1029  0.0504 -0.1012
    3TMC2    O113911   0.133   0.274  14.640 -0.0286  0.4175 -0.0670
    3TMC2    O213912   4.532   0.058  14.183  0.0695  0.2454 -0.1725
    3TMC2    O513913   4.503   4.598  14.273 -0.2239 -0.9408  0.1615
    3TMC2    H513914   4.518   4.559  14.361  0.2778  1.0933  0.9865
    4TMC2    C113915   4.561   0.819  13.855  0.6765 -0.4257 -0.3801
    4TMC2    C213916   4.612   0.801  13.725 -0.4410  0.8148  0.4565
    4TMC2    C313917   0.001   0.778  13.714 -0.4521  0.6648  0.3970
    4TMC2    C413918   4.649   0.814  13.961  0.5692  0.1268  0.5742
    4TMC2    C513919   0.046   0.791  13.944 -0.5206 -0.1942 -0.0986
    4TMC2    C613920   0.089   0.766  13.818 -0.6500 -0.5131  0.2925
    4TMC2     C13921   4.416   0.827  13.891  0.1665 -0.0059  0.1896
    4TMC2     O13922   4.388   0.851  14.006 -0.1620 -0.5452  0.3598
    4TMC2     H13923   4.552   0.823  13.637 -1.8574 -0.9159  1.0039
    4TMC2    H113924   4.613   0.808  14.064  0.0458  1.4132  0.4724
    4TMC2    H213925   0.193   0.741  13.797 -0.5524  0.2346 -0.1255
    4TMC2    C713926   0.099   0.688  14.033  0.1786 -0.3060  0.6662
    4TMC2    C813927   0.040   0.742  13.584  0.4078  0.4872  0.0994
    4TMC2    O113928   0.103   0.570  13.998  0.3049  0.4781  0.5643
    4TMC2    O213929   0.153   0.773  13.547  0.8823 -0.4760  0.6605
    4TMC2    O513930   4.708   0.633  13.553 -0.1850  0.1420  0.3676
    4TMC2    H513931   4.644   0.598  13.618  1.8443  1.4984  3.1226
    5MPD2     C13932   3.925   0.775  13.733  0.1178  0.2957 -0.4693
    5MPD2    C113933   4.007   0.796  13.624 -0.3901 -0.5384  0.0825
    5MPD2    C213934   4.141   0.794  13.646 -0.6039  0.3584  0.0097
    5MPD2    C313935   4.192   0.798  13.772 -0.5871 -0.8536 -0.2479
    5MPD2    C413936   4.112   0.793  13.880 -0.9229  0.0476 -0.3404
    5MPD2    C513937   3.972   0.780  13.863 -0.3466 -0.3239 -0.7338
    5MPD2     H13938   4.210   0.803  13.562 -2.6858  0.4500 -1.6913
    5MPD2    H113939   4.149   0.793  13.982 -0.7726  1.1662 -0.3935
    5MPD2    H213940   3.817   0.769  13.718  0.2595 -0.2580 -1.2926
    5MPD2    H313941   3.912   0.785  13.953 -1.5452 -0.1535 -1.5454
    5MPD2     N13942   4.337   0.804  13.779  0.1819  0.5818  0.7055
    5MPD2    H513943   4.381   0.799  13.688  1.7871 -0.5090  1.5323
    5MPD2    N113944   3.955   0.801  13.488 -0.2176 -0.0898  0.4024
    5MPD2    H713945   3.855   0.817  13.491 -0.3258 -0.7484  0.5469
    6MPD1     C13946   2.921   1.836  13.452  0.3856  0.0415  0.2843
    6MPD1    C113947   3.043   1.852  13.391  0.1860 -0.6713  0.4031
    6MPD1    C213948   3.060   1.781  13.267 -0.3938 -0.0773  0.0123
    6MPD1    C313949   2.963   1.708  13.204  0.4060  0.7210 -0.2149
    6MPD1    C413950   2.838   1.698  13.268 -0.0540  0.4784  0.4443
    6MPD1    C513951   2.817   1.767  13.389 -0.0777  0.0935  0.3052
    6MPD1     H13952   3.154   1.782  13.213  0.5718  1.7423  1.7351
    6MPD1    H113953   2.760   1.643  13.217  1.0233 -0.0055 -0.6995
    6MPD1    H213954   2.893   1.885  13.544  0.5384 -0.5171  0.6237
    6MPD1    H313955   2.717   1.768  13.431  0.5429 -0.7479  1.8129
    6MPD1     N13956   2.994   1.617  13.106 -0.2031 -0.3675  0.0214
    6MPD1    H513957   2.920   1.551  13.081 -1.0895  0.1177  1.3640
    6MPD1    N113958   3.149   1.913  13.452  0.1359  0.0332  0.4594
    6MPD1    H613959   3.116   1.978  13.523 -0.6753 -1.4775  1.4658
    6MPD1    H713960   3.207   1.956  13.381  1.0210 -0.9245  0.6095
    7MPD2     C13961   3.117   0.911  13.254 -0.2128  0.4798 -0.2391
    7MPD2    C113962   3.204   0.963  13.161  0.7814 -0.4358 -0.3628
    7MPD2    C213963   3.339   0.920  13.172 -0.2506  0.0214  0.2002
    7MPD2    C313964   3.381   0.826  13.266 -0.3399  0.6686  0.4732
    7MPD2    C413965   3.285   0.779  13.355  1.3680  0.2847  0.0204
    7MPD2    C513966   3.156   0.822  13.347 -0.2252  0.2403  0.1766
    7MPD2     H13967   3.419   0.964  13.115  0.3247 -1.0766  0.1610
    7MPD2    H113968   3.309   0.717  13.440 -0.2702 -0.4493 -0.0466
    7MPD2    H213969   3.012   0.937  13.260  0.0347  1.1391  1.3153
    7MPD2    H313970   3.088   0.799  13.427  0.9840  1.6230  1.6032
    7MPD2     N13971   3.518   0.783  13.261 -0.0942  0.3042  0.2454
    7MPD2    H513972   3.543   0.735  13.346  0.4708 -2.1762 -1.3093
    7MPD2    N113973   3.171   1.058  13.066  0.1399 -0.4823 -0.0403
    7MPD2    H713974   3.250   1.076  13.005 -0.6290 -2.5439 -1.6554
    8TMC3    C113975   3.725   0.735  13.156  1.1209 -0.3471  0.0786
    8TMC3    C213976   3.794   0.764  13.269 -0.0001  0.9034 -1.0604
    8TMC3    C313977   3.920   0.813  13.255  0.4832  0.1323 -0.7928
    8TMC3    C413978   3.787   0.742  13.032 -0.1218 -0.7174 -0.6351
    8TMC3    C513979   3.904   0.807  13.018 -0.3461  0.2864  0.1047
    8TMC3    C613980   3.976   0.830  13.129 -0.7009  0.5637 -0.7089
    8TMC3     C13981   3.589   0.778  13.143 -0.2745 -0.0119 -0.0155
    8TMC3     O13982   3.558   0.806  13.026 -0.9650  0.5227 -0.1728
    8TMC3     H13983   3.749   0.750  13.366  1.1715  1.3305 -0.4513
    8TMC3    H113984   3.729   0.705  12.948  0.6001  0.1702 -1.5226
    8TMC3    H213985   4.076   0.870  13.119  0.3954 -1.8660  0.5431
    8TMC3    C713986   3.892   0.908  12.926 -0.6028 -0.3051 -0.8888
    8TMC3    C813987   4.015   0.807  13.364  0.7109  0.3961 -0.6484
    8TMC3    O113988   3.999   0.958  12.891 -0.6085  0.1821  0.2647
    8TMC3    O213989   4.139   0.793  13.342 -0.2672 -0.0838 -0.2741
    9TMC3    C113990   3.092   1.482  12.957 -0.3324  0.4738 -0.3733
    9TMC3    C213991   3.183   1.470  12.866 -0.1091  0.2451  0.6078
    9TMC3    C313992   3.224   1.346  12.828 -0.0009 -0.0866  0.0394
    9TMC3    C413993   3.046   1.368  13.024 -0.4502 -0.0385  0.5876
    9TMC3    C513994   3.079   1.246  12.978  0.6036 -0.0234 -0.6658
    9TMC3    C613995   3.166   1.228  12.874  0.2653 -0.8014 -0.6499
    9TMC3     C13996   3.105   1.603  13.035  0.5515  0.1439  0.8879
    9TMC3     O13997   3.199   1.686  13.015 -0.1156 -0.6044 -0.1138
    9TMC3     H13998   3.242   1.555  12.832  1.0542 -0.8997 -0.2295
    9TMC3    H113999   2.994   1.369  13.120 -0.4057  0.8309  0.6062
    9TMC3    H214000   3.186   1.131  12.831  1.0306 -0.8937 -0.0778
    9TMC3    C714001   3.066   1.138  13.071 -0.8641 -1.0896 -0.4910
    9TMC3    C814002   3.348   1.347  12.760  0.1075  0.0112 -0.5466
    9TMC3    O114003   2.974   1.140  13.152 -0.2689 -0.4912  0.3795
    9TMC3    O214004   3.406   1.456  12.749  0.1179 -0.0557 -0.8579
   10MPD2     C14005   3.817   1.131  12.747  0.3247  0.0979  0.3595
   10MPD2    C114006   3.730   1.049  12.816 -0.0308 -0.5011  0.5342
   10MPD2    C214007   3.595   1.081  12.819 -0.2097 -0.1648  0.3585
   10MPD2    C314008   3.546   1.195  12.749  0.5509 -1.0776  0.0010
   10MPD2    C414009   3.636   1.280  12.685 -0.9636  0.0843  0.6793
   10MPD2    C514010   3.769   1.245  12.682 -0.2243  0.1877  0.0616
   10MPD2     H14011   3.528   1.015  12.873 -2.0006  1.8024  0.5283
   10MPD2    H114012   3.614   1.368  12.626  0.8803  1.9219  2.7400
   10MPD2    H214013   3.926   1.131  12.752  0.4064 -0.8581 -1.4110
   10MPD2    H314014   3.842   1.312  12.638 -1.1370  3.0887  2.9789
   10MPD2     N14015   3.407   1.221  12.765  0.3206 -0.5005 -0.5304
   10MPD2    H514016   3.355   1.145  12.807  0.8648  0.7212  2.3434
   10MPD2    N114017   3.765   0.946  12.907 -0.2606  0.0955 -0.5750
   10MPD2    H714018   3.690   0.902  12.959  0.1904  0.0859  0.0674
   11MPD2     C14019   0.191   0.534  14.506 -0.1996  0.3710  0.3871
   11MPD2    C114020   0.139   0.467  14.403 -0.8724  0.4724  0.9202
   11MPD2    C214021   0.125   0.529  14.281  0.1812  0.0274  0.2050
   11MPD2    C314022   0.182   0.653  14.261 -0.4258 -0.2596  0.4757
   11MPD2    C414023   0.235   0.723  14.367  0.4299  0.3658  0.3186
   11MPD2    C514024   0.241   0.664  14.489 -1.1039  0.2642 -0.3305
   11MPD2     H14025   0.057   0.494  14.204 -0.0139 -2.3662  1.4741
   11MPD2    H114026   0.278   0.820  14.344 -2.4529  1.6445  0.3607
   11MPD2    H214027   0.207   0.493  14.606 -0.0818  0.1645  0.2838
   11MPD2    H314028   0.293   0.714  14.570  0.5647 -1.7037 -0.1811
   11MPD2     N14029   0.139   0.740  14.157  0.1044  0.6393 -0.0362
   11MPD2    H514030   0.148   0.841  14.171  0.0052  0.1898  3.2878
   11MPD2    N114031   0.077   0.342  14.415  0.3299  0.2927 -0.3343
   11MPD2    H714032   0.051   0.294  14.330  1.9314 -2.3913  0.7175
    1MPD1     C14033   2.046   1.178  17.402  0.2269 -0.0543  1.1117
    1MPD1    C114034   2.076   1.258  17.513 -0.1869  1.1586  0.7118
    1MPD1    C214035   2.183   1.350  17.500  0.1903  0.0081  0.6593
    1MPD1    C314036   2.249   1.365  17.376  0.3302 -0.0524  0.7088
    1MPD1    C414037   2.214   1.289  17.269  0.4195 -0.4221  0.8206
    1MPD1    C514038   2.121   1.189  17.289  0.4893  0.1931  0.1061
    1MPD1     H14039   2.201   1.408  17.589 -1.6763  1.4395  0.1036
    1MPD1    H114040   2.256   1.293  17.169 -1.7141 -0.7912 -0.0908
    1MPD1    H214041   1.974   1.097  17.406 -0.5170  0.6285  1.3746
    1MPD1    H314042   2.099   1.122  17.207  1.3590  2.8128 -2.2605
    1MPD1     N14043   2.363   1.450  17.357 -0.4153 -0.2540 -0.3084
    1MPD1    H514044   2.408   1.448  17.266 -0.1249  1.3432 -0.2036
    1MPD1    N114045   2.027   1.221  17.639 -0.5477  0.1894 -0.0618
    1MPD1    H614046   1.942   1.165  17.634  0.2325 -0.9168 -0.9086
    1MPD1    H714047   2.011   1.298  17.703 -2.9559 -1.9192  1.8906
    2MPD1     C14048   3.184   2.017   0.035 -0.5864  0.4135 -0.2838
    2MPD1    C114049   3.225   1.989  17.664  0.2923 -0.6984 -0.0610
    2MPD1    C214050   3.126   1.936  17.579 -0.1496  0.1742 -0.2359
    2MPD1    C314051   2.996   1.900  17.626  0.0579 -0.0949 -1.1826
    2MPD1    C414052   2.971   1.916   0.005  0.8562  1.0565  0.0109
    2MPD1    C514053   3.067   1.969   0.088 -0.0058  0.0568  0.0844
    2MPD1     H14054   3.156   1.924  17.476  0.0418 -0.6570 -0.0886
    2MPD1    H114055   2.873   1.911   0.050  0.5330 -0.4285 -0.8503
    2MPD1    H214056   3.249   2.071   0.103 -2.4866  1.9205  0.3386
    2MPD1    H314057   3.046   1.988   0.192  3.4649  1.8690  0.4602
    2MPD1     N14058   2.904   1.849  17.530  0.0858 -0.2491 -0.2812
    2MPD1    H514059   2.933   1.828  17.435 -1.1052 -1.8550 -0.2787
    2MPD1    N114060   3.344   2.038  17.615  0.2442  0.1147 -0.4481
    2MPD1    H614061   3.372   1.981  17.535  0.9628 -0.1776  0.0178
    2MPD1    H714062   3.416   2.026  17.685 -0.9835  0.9608  0.9740
    3TMC3    C114063   2.727   1.714  17.463  0.1730  0.3655 -0.0365
    3TMC3    C214064   2.802   1.647  17.369 -0.3743 -0.0691 -0.3256
    3TMC3    C314065   2.757   1.535  17.312  0.0355  0.1508 -0.6716
    3TMC3    C414066   2.598   1.678  17.492  0.4258  0.0143  0.9749
    3TMC3    C514067   2.551   1.582  17.408  0.5311 -0.1138 -0.2523
    3TMC3    C614068   2.629   1.503  17.331 -0.4398  0.2711  0.3709
    3TMC3     C14069   2.780   1.808  17.561 -0.5965  0.4206  0.0978
    3TMC3     O14070   2.710   1.827  17.657 -0.6979  0.7710  0.1606
    3TMC3     H14071   2.909   1.660  17.377 -0.3204 -1.6268  1.5928
    3TMC3    H114072   2.531   1.727  17.562 -1.9887 -3.5187  1.1615
    3TMC3    H214073   2.588   1.407  17.302 -1.1299  0.8595 -0.5951
    3TMC3    C714074   2.426   1.528  17.454 -0.0773  0.3231  0.3697
    3TMC3    C814075   2.818   1.493  17.188 -0.4136 -0.4401 -0.0180
    3TMC3    O114076   2.387   1.541  17.568  0.4820  0.3014  0.4844
    3TMC3    O214077   2.781   1.386  17.141 -0.3055 -0.5952  0.3575
    4MPD1     C14078   3.132   1.560  16.782  0.2184 -0.4597 -0.7370
    4MPD1    C114079   3.164   1.647  16.882  0.1702 -0.9460 -0.1851
    4MPD1    C214080   3.077   1.662  16.990  0.0420  0.4390  0.1788
    4MPD1    C314081   2.973   1.574  17.016  0.7009 -0.5132  0.2049
    4MPD1    C414082   2.956   1.476  16.926  0.2641 -0.2427 -0.0406
    4MPD1    C514083   3.030   1.474  16.808  0.6792  0.0206  0.6234
    4MPD1     H14084   3.103   1.731  17.069 -1.2748 -1.1864  2.0162
    4MPD1    H114085   2.869   1.412  16.933  1.0261 -1.2257  0.2864
    4MPD1    H214086   3.192   1.544  16.694  3.1815 -0.0242  1.1773
    4MPD1    H314087   3.001   1.394  16.740  0.0606  0.4306  0.3998
    4MPD1     N14088   2.911   1.578  17.146 -0.8491  0.5434 -0.1030
    4MPD1    H514089   2.941   1.650  17.211 -0.6084  0.0076  0.3711
    4MPD1    N114090   3.267   1.734  16.846 -0.4943  0.5404 -0.7137
    4MPD1    H614091   3.335   1.694  16.782 -2.1420 -1.5588 -1.1692
    4MPD1    H714092   3.308   1.782  16.926 -0.6286  1.2155 -1.0470
    1TCq1    O114093   4.101   0.033  11.571  0.2326 -0.0307  0.2635
    1TCq1    C114094   4.061   0.036  11.708  0.6848  0.0789 -0.3152
    1TCq1    O214095   4.138   0.019  11.801  0.4424 -0.7787 -0.6713
    1TCq1    C214096   3.975   0.157  11.702  0.9292 -0.1896  0.1384
    1TCq1    C314097   3.851   0.160  11.643  0.1657  0.4710 -0.2738
    1TCq1    C414098   3.762   0.252  11.678  0.1390 -0.6162  1.1594
    1TCq1    C514099   3.802   0.350  11.765  0.0829  0.5621  0.0199
    1TCq1    C614100   3.927   0.342  11.829 -0.4247  0.0006 -0.3080
    1TCq1    C714101   4.017   0.255  11.782 -0.7411  1.5435  0.2136
    1TCq1    C814102   3.984   0.457  11.893 -0.1167  0.0323 -0.1902
    1TCq1    O414103   4.107   0.459  11.894  0.0317 -0.3775  0.1408
    1TCq1    C914104   3.625   0.227  11.651  0.0455  0.1210 -0.0881
    1TCq1    O514105   3.537   0.277  11.728  0.2465  0.2004  0.5665
    1TCq1    O614106   3.597   0.149  11.556 -0.2927 -0.3211 -0.2103
    1TCq1    H114107   4.037   0.066  11.505 -0.9544 -1.5059  0.6878
    1TCq1    H214108   3.814   0.070  11.596  1.2350 -0.8411  1.3805
    1TCq1    H314109   3.718   0.406  11.805 -1.4323 -2.4255  1.1230
    1TCq1    H414110   4.112   0.243  11.831 -0.0940 -0.0795 -1.4346
    2MPD1     C14111   3.942   0.842  12.227  0.0424 -0.8078 -0.0361
    2MPD1    C114112   3.814   0.796  12.199 -0.8826  0.1940  0.7009
    2MPD1    C214113   3.808   0.698  12.110  0.0064  0.3256 -0.0405
    2MPD1    C314114   3.913   0.635  12.050 -0.1872 -0.6629  0.0207
    2MPD1    C414115   4.040   0.696  12.060 -0.0915 -0.4966 -0.3761
    2MPD1    C514116   4.050   0.800  12.153 -0.2460 -0.1211  0.1476
    2MPD1     H14117   3.713   0.646  12.103  0.1071  0.1057  0.1968
    2MPD1    H114118   4.130   0.656  12.015 -0.6689 -0.6288 -1.4064
    2MPD1    H214119   3.959   0.915  12.306 -0.1867 -1.0639  0.2485
    2MPD1    H314120   4.149   0.844  12.159 -0.0603 -0.2806 -1.7639
    2MPD1     N14121   3.890   0.518  11.971 -0.2654  0.2558 -0.1307
    2MPD1    H514122   3.791   0.502  11.958  0.0406 -3.2203  1.7623
    2MPD1    N114123   3.698   0.815  12.280  0.6816 -0.0990 -0.0223
    2MPD1    H614124   3.708   0.900  12.335  1.6091 -0.5354  0.4643
    2MPD1    H714125   3.614   0.815  12.222 -0.0845 -2.0523  1.0896
    1TMC1    C114126   3.563   1.346   0.697 -0.7957  0.3331  0.2444
    1TMC1    C214127   3.444   1.396   0.664  0.2107  0.6947  0.1163
    1TMC1    C314128   3.416   1.518   0.715 -1.2748 -0.4442  0.0623
    1TMC1    C414129   3.657   1.404   0.780 -0.7429 -0.6374 -0.2224
    1TMC1    C514130   3.629   1.528   0.823  0.4621  0.6606 -0.5957
    1TMC1    C614131   3.504   1.588   0.795 -0.8409  0.4482  0.3717
    1TMC1     C14132   3.604   1.213   0.640  0.5060 -0.6016 -0.4491
    1TMC1     O14133   3.671   1.139   0.713 -1.0333 -0.1979 -0.1818
    1TMC1     H14134   3.374   1.334   0.608  0.1167  0.8161  0.1006
    1TMC1    H114135   3.752   1.355   0.796 -1.0941 -0.8333  1.2933
    1TMC1    H214136   3.463   1.676   0.842  0.0867  0.9746  0.1832
    1TMC1    C714137   3.735   1.576   0.912 -0.0160  0.3003  0.2783
    1TMC1    C814138   3.284   1.586   0.696 -0.1554 -0.4378  0.5324
    1TMC1    O114139   3.837   1.509   0.917 -0.3566  1.0143  0.1990
    1TMC1    O214140   3.180   1.526   0.683  0.1769 -0.2284 -0.0700
    1TMC1    O314141   3.696   1.675   1.000  0.2695 -0.0760 -0.0440
    1TMC1    H314142   3.630   1.744   0.977 -2.0008 -1.0016  3.6026
    1TMC1    O514143   3.293   1.722   0.701  0.2185  0.3877  0.4737
    1TMC1    H514144   3.381   1.764   0.689 -0.1735  0.9248 -0.5400
    2MPD1     C14145   3.587   0.819   0.292  0.2921 -0.4744  0.4865
    2MPD1    C114146   3.522   0.941   0.238 -0.5480  0.3686  0.6495
    2MPD1    C214147   3.522   1.061   0.308  0.1397 -0.3261 -0.3008
    2MPD1    C314148   3.563   1.062   0.444  0.0471  0.7166  0.0410
    2MPD1    C414149   3.616   0.939   0.498 -0.6615 -0.0919 -0.2127
    2MPD1    C514150   3.638   0.826   0.422 -0.3440  0.2946  0.9754
    2MPD1     H14151   3.490   1.159   0.275  0.7474 -0.1444 -0.3375
    2MPD1    H114152   3.656   0.939   0.599 -4.9115 -0.8968  1.4630
    2MPD1    H214153   3.583   0.722   0.245 -0.4160 -0.9822  1.5813
    2MPD1    H314154   3.670   0.738   0.478 -2.5848 -1.4303 -0.4652
    2MPD1     N14155   3.550   1.185   0.518  0.6055  0.4821 -0.6710
    2MPD1    H514156   3.513   1.270   0.476  1.4916  1.2939  0.1975
    2MPD1    N114157   3.482   0.943   0.100  0.0081 -0.0155 -0.1051
    2MPD1    H614158   3.412   1.017   0.090 -1.0956 -1.0954 -0.3407
    2MPD1    H714159   3.435   0.857   0.072 -0.7533  0.8624 -1.5251
    1MPD1     C14160   4.558   0.031  12.555  0.3149 -0.4357  0.0863
    1MPD1    C114161   4.483   0.102  12.648  0.6787  0.0478  0.7267
    1MPD1    C214162   4.543   0.195  12.730  0.5089  0.4147 -0.2107
    1MPD1    C314163   4.666   0.236  12.702  0.4393 -0.3621 -0.1276
    1MPD1    C414164   0.005   0.164  12.607  0.0465 -0.2562  0.0841
    1MPD1    C514165   4.683   0.063  12.534 -0.2525  0.7391  0.3886
    1MPD1     H14166   4.482   0.253  12.798 -1.6888 -1.2662 -0.7712
    1MPD1    H114167   0.111   0.164  12.583  0.4205  0.0296  1.7168
    1MPD1    H214168   4.515   4.686  12.505  0.3051 -1.5357  1.9559
    1MPD1    H314169   0.001   0.011  12.459 -2.5520 -1.3554  0.0858
    1MPD1     N14170   4.712   0.348  12.776 -0.2298  0.5558 -1.0664
    1MPD1    H514171   4.654   0.395  12.845  0.6245  0.8412 -0.5438
    1MPD1    N114172   4.353   0.053  12.678  0.1832 -0.1058 -0.2928
    1MPD1    H614173   4.284   0.124  12.705 -0.9174 -1.0796 -0.5171
    1MPD1    H714174   4.309   4.739  12.604  0.5908 -0.9316  0.0736
    2MPD1     C14175   0.569   1.397  11.142  0.2374 -0.4785  0.3703
    2MPD1    C114176   0.700   1.383  11.101  0.2452 -0.1881  0.5952
    2MPD1    C214177   0.780   1.276  11.141  0.7561 -0.4016  0.5422
    2MPD1    C314178   0.728   1.181  11.224 -0.3774  0.7791  0.0822
    2MPD1    C414179   0.592   1.190  11.266 -0.0488  0.2532  0.2613
    2MPD1    C514180   0.518   1.293  11.221  0.4364 -0.0751  1.0183
    2MPD1     H14181   0.882   1.269  11.105  0.1872  4.4770 -2.1268
    2MPD1    H114182   0.547   1.107  11.318 -0.2396  0.6541  0.7343
    2MPD1    H214183   0.513   1.487  11.118  0.0107 -0.7867 -0.2489
    2MPD1    H314184   0.414   1.303  11.247  0.0890 -0.1384 -0.3228
    2MPD1     N14185   0.805   1.077  11.282 -0.0005  0.2319 -0.4410
    2MPD1    H514186   0.749   1.026  11.350  2.6720  0.6135  2.0653
    2MPD1    N114187   0.749   1.492  11.024  0.0017 -0.3539 -0.2856
    2MPD1    H614188   0.810   1.461  10.948  1.5480  0.8296  0.4650
    2MPD1    H714189   0.682   1.552  10.976  0.0466  2.8530  3.6839
    3MPD1     C14190   1.675   0.409  11.194  0.0565  0.5498 -0.5119
    3MPD1    C114191   1.681   0.483  11.314  0.1780  0.0275  0.0467
    3MPD1    C214192   1.581   0.577  11.331 -0.2203  0.3969  0.2917
    3MPD1    C314193   1.468   0.581  11.254  0.2631 -0.6846  0.0314
    3MPD1    C414194   1.457   0.488  11.151 -0.0751 -0.4532  0.0809
    3MPD1    C514195   1.563   0.405  11.123 -0.1275 -0.0443 -0.9556
    3MPD1     H14196   1.589   0.642  11.418 -0.5693  2.0599 -0.9339
    3MPD1    H114197   1.372   0.492  11.083 -0.0634 -0.1356  0.0878
    3MPD1    H214198   1.757   0.342  11.171  1.4969  2.1211  0.0824
    3MPD1    H314199   1.559   0.347  11.031 -0.1613  1.9832 -2.2228
    3MPD1     N14200   1.362   0.666  11.293 -0.1011 -0.3486 -0.2114
    3MPD1    H514201   1.378   0.703  11.386  0.2066  1.1099 -0.8348
    3MPD1    N114202   1.803   0.499  11.380  0.6049 -0.2084  0.4458
    3MPD1    H614203   1.846   0.409  11.398 -3.4057 -2.4898 -1.3932
    3MPD1    H714204   1.790   0.544  11.471  0.7255  0.7518 -0.0132
    4MPD2     C14205   0.137   1.069  12.632 -0.7516 -0.0459 -0.1949
    4MPD2    C114206   0.228   0.975  12.668  0.4245 -0.4424  0.3274
    4MPD2    C214207   0.351   0.979  12.611  0.3146 -0.8873 -0.0642
    4MPD2    C314208   0.375   1.062  12.504 -0.0639 -0.1205  0.2766
    4MPD2    C414209   0.285   1.151  12.464 -0.3860 -0.4256  0.3250
    4MPD2    C514210   0.167   1.158  12.532 -0.6077  0.6769  0.1119
    4MPD2     H14211   0.413   0.897  12.646  0.6628 -0.3532  0.5507
    4MPD2    H114212   0.299   1.217  12.379 -1.9228 -0.1486  0.2753
    4MPD2    H214213   0.035   1.065  12.670 -1.1076 -0.5424 -1.1895
    4MPD2    H314214   0.097   1.238  12.508 -0.3877  0.9714  0.4631
    4MPD2     N14215   0.501   1.060  12.439  0.2211 -0.3626 -0.5921
    4MPD2    H514216   0.518   1.111  12.353  3.4291 -0.5320 -0.0762
    4MPD2    N114217   0.204   0.882  12.774  0.4975 -0.2770  0.2969
    4MPD2    H714218   0.281   0.837  12.823 -0.8274 -1.9999  0.8177
    5TMC3    C114219   0.100   0.726  12.893  0.3240 -0.2796 -0.1633
    5TMC3    C214220   0.051   0.612  12.841 -0.6599 -0.1139 -0.0671
    5TMC3    C314221   0.134   0.503  12.850 -0.0392 -0.4197 -0.5150
    5TMC3    C414222   0.220   0.738  12.959  0.5867 -0.0840 -0.0508
    5TMC3    C514223   0.297   0.623  12.964  0.7437 -0.9266 -0.4956
    5TMC3    C614224   0.254   0.503  12.911 -0.2301 -0.4188  0.3206
    5TMC3     C14225   0.083   0.844  12.810  0.2934 -0.3377 -0.1908
    5TMC3     O14226   4.709   0.871  12.767  0.3798 -0.2963 -0.3093
    5TMC3     H14227   4.694   0.611  12.794 -0.6200  0.7864 -0.1701
    5TMC3    H114228   0.249   0.829  13.009  0.9356  0.0870 -0.5630
    5TMC3    H214229   0.300   0.407  12.932 -0.3616 -0.7442 -0.8821
    5TMC3    C714230   0.438   0.647  12.934 -0.5751  0.4509  0.2498
    5TMC3    C814231   0.107   0.381  12.779 -0.1493 -0.0853 -0.2829
    5TMC3    O114232   0.460   0.768  12.929  0.6440 -0.4004  0.2317
    5TMC3    O214233   0.198   0.320  12.725  0.4337  0.3084 -0.3659
    6TMC3    C114234   0.996   0.936  11.310 -0.2026 -0.3302  0.4900
    6TMC3    C214235   1.093   0.881  11.235 -0.0878  0.7654 -0.0423
    6TMC3    C314236   1.145   0.771  11.292  0.6084  0.6648 -0.3858
    6TMC3    C414237   0.957   0.903  11.436  0.3201  0.4164 -0.1002
    6TMC3    C514238   1.032   0.801  11.488  0.5557 -0.5652  0.2237
    6TMC3    C614239   1.137   0.739  11.424  0.8832  0.2201  0.0100
    6TMC3     C14240   0.940   1.055  11.255 -0.5427  0.5622 -0.7669
    6TMC3     O14241   1.019   1.105  11.175 -0.2972  0.2233  0.1926
    6TMC3     H14242   1.109   0.906  11.131  1.5083 -0.3785 -0.0726
    6TMC3    H114243   0.881   0.963  11.485 -0.2453 -0.8288  0.5822
    6TMC3    H214244   1.208   0.669  11.467 -0.0414 -0.7329 -0.0188
    6TMC3    C714245   0.997   0.754  11.625  0.9113  0.1253 -0.5204
    6TMC3    C814246   1.253   0.705  11.220  0.2539  0.1380 -0.0510
    6TMC3    O114247   0.910   0.823  11.669 -0.5243  0.5440 -0.3270
    6TMC3    O214248   1.234   0.696  11.101 -0.2633  0.3306 -0.3963
    7MPD2     C14249   0.901   0.565  12.763  0.5077 -0.2169 -0.0251
    7MPD2    C114250   0.816   0.675  12.741  0.6512  0.3777 -0.2533
    7MPD2    C214251   0.685   0.670  12.780  0.2119  0.3148 -0.5030
    7MPD2    C314252   0.643   0.548  12.837  0.0929 -0.4117  0.5040
    7MPD2    C414253   0.717   0.437  12.840  0.1208  0.1927  0.2004
    7MPD2    C514254   0.848   0.444  12.800  0.2859  0.0150 -1.0740
    7MPD2     H14255   0.616   0.752  12.763 -2.1927 -1.7193 -0.4894
    7MPD2    H114256   0.680   0.345  12.883  0.4936 -0.1079 -0.1224
    7MPD2    H214257   1.004   0.569  12.732  0.7110  0.8973  0.7816
    7MPD2    H314258   0.914   0.358  12.802  0.8048  0.4002 -1.6035
    7MPD2     N14259   0.511   0.545  12.884  0.1586 -0.2064  0.3054
    7MPD2    H514260   0.461   0.457  12.895 -0.5576 -0.0280 -1.5724
    7MPD2    N114261   0.858   0.787  12.672  0.1891 -0.7478  0.1340
    7MPD2    H714262   0.799   0.869  12.665 -0.2461 -0.9872  0.9719
    8TMC3    C114263   0.943   0.904  12.494  0.0596 -0.2629 -0.6261
    8TMC3    C214264   0.962   0.852  12.369 -0.5057  0.0926 -0.2911
    8TMC3    C314265   0.866   0.878  12.278  0.2261  0.0506 -0.3367
    8TMC3    C414266   0.834   0.982  12.522 -0.4000  0.4739 -0.1377
    8TMC3    C514267   0.744   1.012  12.429  0.3170  0.0815 -1.3202
    8TMC3    C614268   0.757   0.953  12.303 -0.9834 -0.0657 -0.0686
    8TMC3     C14269   0.965   0.799  12.589  0.4802 -0.0337  0.4422
    8TMC3     O14270   1.047   0.709  12.572  0.0464  0.3153 -0.2315
    8TMC3     H14271   1.018   0.762  12.347  1.0163  1.4311 -1.8989
    8TMC3    H114272   0.837   1.024  12.622  0.1156 -0.1951  0.1282
    8TMC3    H214273   0.681   0.964  12.227 -0.2025 -1.1680 -0.9952
    8TMC3    C714274   0.613   0.997  12.496 -0.1451 -0.2089  0.5287
    8TMC3    C814275   0.880   0.825  12.145  0.1471  0.2874  0.4432
    8TMC3    O114276   0.627   0.944  12.606  0.1077 -0.5932 -0.5660
    8TMC3    O214277   0.860   0.906  12.055 -0.1311  0.1590 -0.2141
    9MPD2     C14278   1.016   0.495  12.061  0.7195 -0.5469  0.9414
    9MPD2    C114279   0.974   0.621  12.033  0.1017  0.9338 -0.3925
    9MPD2    C214280   0.981   0.673  11.899 -0.2707  0.4195  0.2957
    9MPD2    C314281   1.023   0.585  11.796  0.5100 -0.2056 -0.0694
    9MPD2    C414282   1.057   0.457  11.829  0.1042 -0.7702 -0.3594
    9MPD2    C514283   1.066   0.419  11.959 -0.0392 -0.0233  0.1501
    9MPD2     H14284   0.940   0.772  11.879 -2.5911 -0.3636  1.1708
    9MPD2    H114285   1.095   0.378  11.765  0.0779  0.1699 -1.5321
    9MPD2    H214286   1.020   0.446  12.157 -0.1540  0.8782  1.6916
    9MPD2    H314287   1.081   0.312  11.966 -0.7389 -0.2412 -1.5114
    9MPD2     N14288   1.047   0.632  11.666  0.2145  0.5351 -0.0574
    9MPD2    H514289   1.079   0.568  11.594  2.1700  0.5453  0.8012
    9MPD2    N114290   0.921   0.694  12.147  0.2999  0.1285 -0.2269
    9MPD2    H714291   0.925   0.643  12.235 -2.1810 -0.5340 -0.4836
    1MPD1     C14292   0.452   0.529  16.628  0.8021 -0.0048  0.7714
    1MPD1    C114293   0.398   0.407  16.610  0.5961  0.2583  0.1784
    1MPD1    C214294   0.297   0.399  16.516  0.9469 -0.0078  0.3085
    1MPD1    C314295   0.233   0.510  16.468  0.1026  0.2608 -0.1912
    1MPD1    C414296   0.285   0.636  16.505  0.0785  0.6810  0.2080
    1MPD1    C514297   0.400   0.642  16.582  0.1785 -0.1182 -0.1634
    1MPD1     H14298   0.266   0.299  16.486  0.4697 -0.2845  1.7198
    1MPD1    H114299   0.243   0.732  16.479 -0.1957  0.6269  0.4486
    1MPD1    H214300   0.544   0.532  16.684  0.6199  0.0152  1.0687
    1MPD1    H314301   0.451   0.737  16.597  0.6186 -0.5387  1.0066
    1MPD1     N14302   0.125   0.508  16.369  0.0577  0.2183 -0.2271
    1MPD1    H514303   0.091   0.602  16.349  0.3328  0.4037  0.1841
    1MPD1    N114304   0.463   0.294  16.661 -0.3425  0.4847  0.4159
    1MPD1    H614305   0.403   0.213  16.670 -1.8595  1.7016  1.2196
    1MPD1    H714306   0.509   0.317  16.749 -0.0311 -0.6967  0.5556
    2TMC2    C114307   4.629   0.571  16.055  0.2744 -0.6583  0.4748
    2TMC2    C214308   4.579   0.466  15.975 -0.1591  0.3207  0.0265
    2TMC2    C314309   4.590   0.342  16.035  0.2206  0.2060 -0.0828
    2TMC2    C414310   4.682   0.552  16.180 -0.3240 -0.0688 -0.9469
    2TMC2    C514311   4.694   0.428  16.230 -0.2314 -0.8338 -0.5042
    2TMC2    C614312   4.640   0.319  16.160 -0.6479  0.3902  2.0056
    2TMC2     C14313   4.578   0.706  16.031  0.6295  0.2852 -0.7748
    2TMC2     O14314   4.533   0.760  16.129 -0.2844 -0.0445  0.1774
    2TMC2     H14315   4.552   0.485  15.872  0.1877  1.3288  0.1150
    2TMC2    H114316   4.705   0.644  16.233 -3.2279  1.3182 -2.1029
    2TMC2    H214317   4.653   0.216  16.194 -1.8812 -0.3953  0.0880
    2TMC2    C714318   0.063   0.400  16.324 -0.0308  0.1285  0.2361
    2TMC2    C814319   4.532   0.231  15.958 -0.3342 -0.1362 -0.3851
    2TMC2    O114320   0.085   0.282  16.344 -0.2325 -0.4764  0.1370
    2TMC2    O214321   4.522   0.230  15.839 -0.3595 -0.0173 -0.6488
    2TMC2    O514322   4.465   0.148  16.038  0.3078  0.4048 -0.1477
    2TMC2    H514323   4.457   0.196  16.124 -1.0639  0.6614 -0.4307
    3MPD1     C14324   4.464   1.122  15.757  1.2711  0.4085 -0.7689
    3MPD1    C114325   4.518   1.028  15.677  0.4173  0.9665 -0.1197
    3MPD1    C214326   4.530   0.891  15.719  0.3645 -0.2118 -0.4232
    3MPD1    C314327   4.516   0.868  15.851  0.7202 -0.1094  0.4530
    3MPD1    C414328   4.463   0.965  15.937  0.3510  0.0854 -0.1741
    3MPD1    C514329   4.436   1.090  15.888 -0.4678  0.5391  0.9315
    3MPD1     H14330   4.564   0.802  15.667  0.1488 -1.2193  1.1543
    3MPD1    H114331   4.427   0.957  16.039  0.8293  0.8107  0.0479
    3MPD1    H214332   4.426   1.218  15.724 -0.9698 -1.1366 -2.6887
    3MPD1    H314333   4.391   1.170  15.944 -1.7272 -0.3131  1.1572
    3MPD1     N14334   4.568   0.744  15.897 -0.5004 -0.3081  0.0361
    3MPD1    H514335   4.585   0.672  15.828  2.6610  0.6071 -0.1301
    3MPD1    N114336   4.537   1.060  15.541  0.1241 -0.1719  0.3116
    3MPD1    H614337   4.617   1.021  15.491  0.8301  0.2437  1.1081
    3MPD1    H714338   4.556   1.160  15.538  1.4658 -0.4844 -2.1035
    1TMC1    C114339   3.655   4.037  12.527 -0.5016 -0.8254 -0.3165
    1TMC1    C214340   3.673   4.122  12.422  0.4199  0.2283 -0.7262
    1TMC1    C314341   3.640   4.081  12.297 -0.4736  0.8471 -0.3961
    1TMC1    C414342   3.607   3.904  12.513  0.4178  0.2148  1.0243
    1TMC1    C514343   3.575   3.871  12.381  0.1999  0.4322  0.1473
    1TMC1    C614344   3.593   3.955  12.274  0.6741 -0.5458 -0.4656
    1TMC1     C14345   3.693   4.077  12.665 -0.3074 -0.2936  0.1783
    1TMC1     O14346   3.780   4.156  12.686 -0.1979  0.8630  0.2527
    1TMC1     H14347   3.709   4.219  12.452  3.2130  0.1945 -4.0233
    1TMC1    H114348   3.610   3.834  12.596 -0.8296  1.6824  2.3005
    1TMC1    H214349   3.575   3.926  12.171  0.9277  1.6418 -1.1167
    1TMC1    C714350   3.548   3.727  12.347 -0.4628 -0.2903  0.3302
    1TMC1    C814351   3.676   4.165  12.189 -0.6637  0.4062 -0.4389
    1TMC1    O114352   3.571   3.673  12.240 -0.0237 -0.2938 -0.1233
    1TMC1    O214353   3.669   4.129  12.075 -1.3874  0.0237 -0.3211
    1TMC1    O314354   3.453   3.690  12.433 -0.2986 -0.5468  0.4336
    1TMC1    H314355   3.446   3.752  12.508  1.2256  1.4280 -1.0759
    1TMC1    O514356   3.682   4.297  12.227 -0.4813  0.3573  0.0601
    1TMC1    H514357   3.669   4.323  12.320  1.3210  1.9716 -0.1476
    2MPD2     C14358   3.698   4.124  12.960 -0.2674 -0.0844 -0.0137
    2MPD2    C114359   3.627   4.024  12.895  0.6731  0.4517 -0.3022
    2MPD2    C214360   3.555   3.935  12.974  0.7697  0.5624 -0.1897
    2MPD2    C314361   3.554   3.940  13.110 -0.3925  0.0382  0.2344
    2MPD2    C414362   3.641   4.030  13.164  0.4255 -0.7225 -0.7006
    2MPD2    C514363   3.713   4.118  13.092 -0.4707 -0.0527  0.5195
    2MPD2     H14364   3.512   3.847  12.925  0.2606  1.4244 -1.2933
    2MPD2    H114365   3.655   4.032  13.271 -0.6958  0.9589 -0.5867
    2MPD2    H214366   3.756   4.200  12.909 -2.1719  1.2816 -0.1376
    2MPD2    H314367   3.772   4.192  13.145  1.4509 -1.7544  0.7561
    2MPD2     N14368   3.492   3.846  13.197  0.0718 -1.1271 -0.1811
    2MPD2    H514369   3.530   3.840  13.291  0.7187  1.1750 -0.3006
    2MPD2    N114370   3.621   4.004  12.752 -0.2607 -0.4653  0.1361
    2MPD2    H714371   3.559   3.931  12.718  1.8739 -2.2592  0.0889
    3TCq1    O114372   3.453   3.668  13.655  0.0363  0.1276 -0.0497
    3TCq1    C114373   3.528   3.575  13.586  0.2974  0.4015  0.9026
    3TCq1    O214374   3.613   3.498  13.625  0.3416  0.3391  0.0585
    3TCq1    C214375   3.455   3.559  13.467 -0.5409  0.7364 -0.3284
    3TCq1    C314376   3.448   3.428  13.421  0.9491  0.3365  0.8201
    3TCq1    C414377   3.424   3.405  13.288  0.0085 -0.6704 -0.1742
    3TCq1    C514378   3.394   3.508  13.203 -0.8076  0.2687  0.3330
    3TCq1    C614379   3.401   3.637  13.254  0.8049  0.3498 -0.1325
    3TCq1    C714380   3.432   3.659  13.387  0.2386 -0.7522 -0.3434
    3TCq1    C814381   3.420   3.735  13.150 -0.3381  0.3035 -0.6667
    3TCq1    O414382   3.383   3.706  13.038  0.3933  0.7863 -0.4727
    3TCq1    C914383   3.439   3.261  13.243 -0.3108  0.1806  0.2976
    3TCq1    O514384   3.419   3.242  13.122  0.1396  0.3145 -0.0384
    3TCq1    O614385   3.481   3.181  13.323  0.3082 -0.3862 -0.6216
    3TCq1    H114386   3.381   3.696  13.595  1.7224  2.8720 -0.7930
    3TCq1    H214387   3.470   3.349  13.491  0.1524  1.5514  2.4302
    3TCq1    H314388   3.393   3.489  13.097 -0.0849  1.6796  0.0650
    3TCq1    H414389   3.433   3.761  13.425  0.0112  0.2540 -2.9763
    1MPD2     C14390   3.181   0.364  15.374  0.2471  0.4791  0.6822
    1MPD2    C114391   3.096   0.348  15.265  0.6837 -0.7969 -0.3139
    1MPD2    C214392   3.152   0.352  15.141  0.1139  0.9849  0.0451
    1MPD2    C314393   3.288   0.391  15.123  0.4996  0.6683 -0.1376
    1MPD2    C414394   3.367   0.420  15.235  0.0467 -0.4283  0.0646
    1MPD2    C514395   3.312   0.405  15.358  0.0533 -0.5300 -0.5887
    1MPD2     H14396   3.086   0.341  15.056 -0.0197 -0.2852  0.3286
    1MPD2    H114397   3.473   0.440  15.227  0.1072 -0.5876  0.4687
    1MPD2    H214398   3.141   0.353  15.474  2.5695  2.3293  1.8313
    1MPD2    H314399   3.364   0.406  15.453  0.1254 -0.6134 -0.6268
    1MPD2     N14400   3.351   0.394  14.996 -0.3392  0.1245 -0.0926
    1MPD2    H514401   3.452   0.406  14.994 -0.3737  0.4134  0.0503
    1MPD2    N114402   2.957   0.324  15.290  0.7305  0.5004  0.1630
    1MPD2    H714403   2.915   0.344  15.380  1.8918  1.0716  0.5815
    2TMC3    C114404   2.741   0.241  15.233 -0.0266 -0.0859  0.1841
    2TMC3    C214405   2.691   0.122  15.182  0.5859 -0.2475  0.7204
    2TMC3    C314406   2.584   0.117  15.099  0.5627 -0.0096  0.2913
    2TMC3    C414407   2.671   0.355  15.212 -0.2051 -0.2567 -0.3473
    2TMC3    C514408   2.562   0.344  15.127  0.4901 -0.2210 -0.0980
    2TMC3    C614409   2.517   0.230  15.079 -0.1491 -0.2177 -0.3486
    2TMC3     C14410   2.886   0.249  15.208  0.4593 -0.1434  0.5696
    2TMC3     O14411   2.939   0.164  15.134 -0.1277  0.5696  0.1591
    2TMC3     H14412   2.751   0.033  15.200  1.6672  0.4906  0.7720
    2TMC3    H114413   2.710   0.452  15.242 -1.2397 -0.5841  2.0559
    2TMC3    H214414   2.433   0.228  15.011 -0.0846 -0.7460 -0.4141
    2TMC3    C714415   2.463   0.444  15.125 -0.3381  0.5598  0.4196
    2TMC3    C814416   2.604   0.045  14.980 -0.5629 -0.2367 -0.2080
    2TMC3    O114417   2.346   0.407  15.127  0.2955  0.2676  0.1767
    2TMC3    O214418   2.517   0.008  14.901 -0.0186 -0.1103 -0.3544
    3TCq1    O114419   2.830   1.355  14.761  0.8321  0.1938  0.0954
    3TCq1    C114420   2.829   1.296  14.888 -0.0763 -0.2199 -0.4799
    3TCq1    O214421   2.915   1.215  14.931  0.2266  0.8736 -0.5287
    3TCq1    C214422   2.717   1.341  14.961 -0.0676 -0.0058 -0.9831
    3TCq1    C314423   2.681   1.475  14.951  0.0954  0.1318  0.1962
    3TCq1    C414424   2.569   1.509  15.017  0.5182  0.4938 -1.1536
    3TCq1    C514425   2.494   1.412  15.079  0.2074 -0.1104 -1.2883
    3TCq1    C614426   2.544   1.285  15.100 -0.5401 -0.8924 -0.0411
    3TCq1    C714427   2.662   1.248  15.048 -0.4958 -0.1883  0.3036
    3TCq1    C814428   2.436   1.184  15.120  0.0165  0.2200  0.1936
    3TCq1    O414429   2.320   1.213  15.100  0.6936  0.4050  0.4315
    3TCq1    C914430   2.519   1.648  15.019 -0.4198  0.2263  0.2590
    3TCq1    O514431   2.413   1.670  15.080  0.0685  0.2040 -0.2005
    3TCq1    O614432   2.590   1.741  14.969 -0.1090 -0.1288 -0.2170
    3TCq1    H114433   2.762   1.422  14.738 -0.0812 -0.4090  0.9810
    3TCq1    H214434   2.727   1.553  14.891 -1.4584 -0.0025 -1.1764
    3TCq1    H314435   2.399   1.448  15.116  0.8066  0.5744 -0.4404
    3TCq1    H414436   2.707   1.150  15.060 -1.0736 -0.2771  1.6786
    4MPD2     C14437   2.283   0.923  15.131  0.9850  0.4660 -0.1089
    4MPD2    C114438   2.416   0.935  15.127 -0.1714  0.2923  0.1338
    4MPD2    C214439   2.496   0.812  15.117  0.0592  0.1344 -0.6227
    4MPD2    C314440   2.434   0.685  15.131  0.5587 -0.8006  0.2553
    4MPD2    C414441   2.294   0.686  15.171  0.1870  0.3296  0.0193
    4MPD2    C514442   2.223   0.799  15.163 -0.6692  0.5867  0.4241
    4MPD2     H14443   2.603   0.813  15.099  0.1574  0.1115 -0.0470
    4MPD2    H114444   2.244   0.593  15.195  0.5506 -0.7370 -3.2839
    4MPD2    H214445   2.213   1.003  15.110  1.7150  0.9675 -0.5856
    4MPD2    H314446   2.115   0.792  15.171 -0.6137 -0.3998  0.3574
    4MPD2     N14447   2.514   0.567  15.123 -0.0280  0.3817 -0.3595
    4MPD2    H514448   2.612   0.572  15.097  0.0466 -0.1802 -0.2014
    4MPD2    N114449   2.487   1.060  15.120 -0.5717  0.1581 -0.1513
    4MPD2    H714450   2.588   1.060  15.108 -0.5796 -0.1937 -0.2168
    5TMC2    C114451   3.345   0.118  14.652 -0.5025 -0.1441 -0.3626
    5TMC2    C214452   3.460   0.068  14.718  0.0186  0.0865  0.1314
    5TMC2    C314453   3.529   0.150  14.798 -0.5442  0.4364 -0.1161
    5TMC2    C414454   3.299   0.244  14.679  0.0760  0.0018 -0.7536
    5TMC2    C514455   3.372   0.325  14.765  0.0978 -0.1344  0.1751
    5TMC2    C614456   3.491   0.279  14.818  0.1263 -0.1587  0.1110
    5TMC2     C14457   3.242   0.023  14.620 -0.7469 -0.0786  0.5765
    5TMC2     O14458   3.251   4.690  14.524 -0.1218  0.1429 -0.4646
    5TMC2     H14459   3.485   4.705  14.698  1.4681  0.4505  0.0477
    5TMC2    H114460   3.203   0.279  14.643 -0.1570  0.7055  0.5305
    5TMC2    H214461   3.554   0.332  14.888  0.1779  0.1935 -0.2034
    5TMC2    C714462   3.292   0.396  14.867 -0.5378 -0.0440  0.0939
    5TMC2    C814463   3.648   0.113  14.866 -0.4250 -0.2356  0.5190
    5TMC2    O114464   3.170   0.405  14.854 -0.1976 -0.6337 -0.2362
    5TMC2    O214465   3.724   0.192  14.912 -0.3153 -0.0916 -0.2776
    5TMC2    O514466   3.590   0.015  14.945  0.7108 -0.1364  0.0749
    5TMC2    H514467   3.494   0.001  14.928  1.1806 -0.4119 -2.3663
    6MPD2     C14468   2.770   4.638  14.763 -0.2957 -0.0225  0.3583
    6MPD2    C114469   2.819   4.739  14.846  0.3426  0.1013  0.0624
    6MPD2    C214470   2.954   0.031  14.831 -0.0314 -0.5299  0.4547
    6MPD2    C314471   3.023   4.717  14.729 -0.2937 -0.0981  0.8127
    6MPD2    C414472   2.974   4.619  14.642  0.2643  0.3271  0.4120
    6MPD2    C514473   2.847   4.575  14.664 -0.2761 -0.4429 -0.0900
    6MPD2     H14474   3.009   0.100  14.893  1.2709 -1.2146  0.0597
    6MPD2    H114475   3.040   4.570  14.570 -0.1988  1.2368 -0.6244
    6MPD2    H214476   2.665   4.613  14.777 -0.4103 -0.7040 -1.7442
    6MPD2    H314477   2.793   4.497  14.611  1.2456 -0.5660 -1.4457
    6MPD2     N14478   3.152   0.033  14.719  0.1676  0.3071 -0.7855
    6MPD2    H514479   3.174   0.095  14.797  0.3379 -0.0424 -0.5558
    6MPD2    N114480   2.740   0.050  14.953  0.4780 -1.5488 -0.0735
    6MPD2    H714481   2.802   0.114  15.001  0.1600 -0.3752 -1.2456
  945NH4     N114482   1.738   0.645   0.377  0.1526  0.6063 -0.3836
  945NH4     H214483   1.775   0.554   0.341  0.3775  0.3615  0.4668
  945NH4     H314484   1.775   0.670   0.470 -0.4136 -0.0357  0.0139
  945NH4     H414485   1.634   0.646   0.377  0.1388 -0.5468 -0.8368
  945NH4     H514486   1.758   0.719   0.306 -1.2812  0.1436 -1.2599
  946SOD     NA14487   3.598   4.486  11.227 -0.1670  0.1643 -0.1603
  947SOD     NA14488   1.044   3.636  16.901 -0.1141 -0.1929 -0.0051
  948SOD     NA14489   3.036   1.506  12.408  0.1164 -0.0097 -0.0984
  949SOD     NA14490   4.461   3.093  16.902 -0.0668  0.2866 -0.5883
  950SOD     NA14491   1.524   1.408  13.499 -0.2675  0.2306  0.1297
  951SOD     NA14492   4.054   0.871   7.068  0.4159  1.1135 -0.0715
  952SOD     NA14493   2.201   1.776  15.071  0.0780  0.2405 -0.3044
  953SOL     OW14494   1.350   3.270   7.482  0.0168 -0.3204 -0.1129
  953SOL    HW114495   1.391   3.349   7.446 -0.2318 -0.5142 -0.8275
  953SOL    HW214496   1.369   3.287   7.575 -1.5710  1.5199 -0.1357
  954SOL     OW14497   4.314   0.967   3.093  0.4085 -0.2255 -0.0463
  954SOL    HW114498   4.314   1.019   3.173  3.8463 -1.1669  0.5986
  954SOL    HW214499   4.302   1.032   3.023  1.3499  0.7644  0.7048
  955SOL     OW14500   2.339   0.414   5.881  0.0601  0.2315 -0.0044
  955SOL    HW114501   2.285   0.442   5.955  0.2805 -2.7916  1.2948
  955SOL    HW214502   2.270   0.381   5.823 -0.5057 -0.3132  0.9747
  956SOL     OW14503   2.314   3.520   8.631 -0.3847  0.2129 -0.4176
  956SOL    HW114504   2.394   3.471   8.613 -0.5101  0.2998 -1.2219
  956SOL    HW214505   2.248   3.452   8.640 -0.0149  0.0201  0.7234
  957SOL     OW14506   4.295   1.785  16.433  0.4016  0.5713  0.1459
  957SOL    HW114507   4.314   1.829  16.516 -0.7091  1.4410 -0.0597
  957SOL    HW214508   4.245   1.848  16.381  0.2696  0.6808  0.4038
  958SOL     OW14509   1.100   1.556   5.956 -0.3069  0.0175  0.1511
  958SOL    HW114510   1.074   1.645   5.982 -0.8135  0.2278 -1.0593
  958SOL    HW214511   1.189   1.542   5.987 -0.4329 -0.6731  0.1862
  959SOL     OW14512   2.242   0.401   2.582  0.0828 -0.3319 -0.0170
  959SOL    HW114513   2.300   0.326   2.594 -1.6333 -1.4801  0.9959
  959SOL    HW214514   2.299   0.478   2.585  0.1255 -0.2892 -1.8514
  960SOL     OW14515   1.036   1.141   7.186  0.1945  0.6028 -0.2802
  960SOL    HW114516   1.032   1.233   7.212  1.1161  1.3051 -2.5644
  960SOL    HW214517   0.969   1.108   7.246 -0.3601  0.7730 -0.7992
  961SOL     OW14518   2.095   4.046   5.388  0.0015  0.1586 -0.1373
  961SOL    HW114519   2.159   4.108   5.422 -1.3135 -0.1411  2.8839
  961SOL    HW214520   2.126   4.038   5.298  1.4197 -1.6682  0.5103
  962SOL     OW14521   4.705   4.074   7.523  0.1478 -0.6399 -0.1324
  962SOL    HW114522   0.005   4.054   7.438  0.7688 -0.3548  0.0876
  962SOL    HW214523   4.727   3.992   7.566 -2.8609 -1.4249 -0.1013
  963SOL     OW14524   0.024   3.674   3.343  0.0253  0.5823  0.1202
  963SOL    HW114525   0.084   3.743   3.373  0.3993 -0.3293  1.4793
  963SOL    HW214526   0.071   3.625   3.276 -1.7031 -0.6138 -0.2080
  964SOL     OW14527   0.532   1.802   4.484  0.1810  0.4095 -0.1347
  964SOL    HW114528   0.568   1.713   4.483 -0.3752  0.2313 -3.3080
  964SOL    HW214529   0.470   1.790   4.556 -1.4160  1.7895 -1.2611
  965SOL     OW14530   2.414   3.924   6.856  0.0106  0.0101 -0.1853
  965SOL    HW114531   2.509   3.928   6.863  0.0803 -1.1511 -0.4412
  965SOL    HW214532   2.386   3.965   6.937 -1.6992 -0.4773 -0.5345
  966SOL     OW14533   4.606   1.352  12.715  0.2514  0.0428 -0.5012
  966SOL    HW114534   4.633   1.406  12.641  0.4700 -0.1988 -0.5960
  966SOL    HW214535   4.687   1.335  12.763  1.0532 -1.0132 -2.2577
  967SOL     OW14536   4.388   1.529   7.080  0.2247  0.2567 -0.1045
  967SOL    HW114537   4.336   1.448   7.079 -0.5598  0.7365  2.8911
  967SOL    HW214538   4.319   1.592   7.058 -2.0588 -1.2177  2.8763
  968SOL     OW14539   3.566   2.442   7.099  0.3614 -0.3388  0.3598
  968SOL    HW114540   3.487   2.451   7.152  0.2157 -0.1717  0.1145
  968SOL    HW214541   3.568   2.350   7.075  1.6007 -0.0410 -0.6680
  969SOL     OW14542   1.617   2.424   5.349  0.2270 -0.4345 -0.1025
  969SOL    HW114543   1.647   2.341   5.386 -1.5612 -1.8228 -1.8139
  969SOL    HW214544   1.680   2.424   5.277  1.5687  0.4381  1.0608
  970SOL     OW14545   1.824   3.552   4.589  0.1758 -0.0660  1.0117
  970SOL    HW114546   1.870   3.604   4.523 -1.2100 -1.9997 -1.4888
  970SOL    HW214547   1.889   3.524   4.653 -0.4756 -0.9127  1.2999
  971SOL     OW14548   0.322   4.295   3.035 -0.4285  0.1084  0.0704
  971SOL    HW114549   0.360   4.351   3.104  1.7832 -1.2871 -0.0088
  971SOL    HW214550   0.251   4.354   3.010  0.7774  1.6666  0.2681
  972SOL     OW14551   2.807   1.721   8.594 -0.0171  0.2281 -0.4733
  972SOL    HW114552   2.884   1.777   8.602 -0.2574  0.3249  1.2489
  972SOL    HW214553   2.825   1.666   8.670  1.7175  0.1913 -0.9090
  973SOL     OW14554   3.402   0.867   2.105 -0.3532 -0.2530  0.0006
  973SOL    HW114555   3.485   0.824   2.122 -0.4388 -0.6664 -0.6215
  973SOL    HW214556   3.388   0.845   2.013 -1.5645 -1.7202  0.5421
  974SOL     OW14557   4.190   2.172  11.612  0.0616 -0.4776 -0.0865
  974SOL    HW114558   4.209   2.078  11.603 -0.4430 -0.5886 -0.0028
  974SOL    HW214559   4.244   2.218  11.548 -1.2654  1.1680 -0.0190
  975SOL     OW14560   3.966   1.748   5.179  0.6342 -0.1004 -0.1653
  975SOL    HW114561   3.997   1.839   5.186 -1.2418  0.4934  0.3374
  975SOL    HW214562   4.048   1.708   5.150  1.3094  1.7079 -0.8116
  976SOL     OW14563   0.551   1.387  13.386  0.4850 -0.1467  0.2771
  976SOL    HW114564   0.574   1.301  13.421 -0.1171  0.1108  1.2933
  976SOL    HW214565   0.618   1.392  13.317 -0.5261 -0.5832 -0.7460
  977SOL     OW14566   2.868   2.958   8.184 -0.0402 -0.1099 -0.9398
  977SOL    HW114567   2.789   2.917   8.149  0.7724 -1.3143 -1.3641
  977SOL    HW214568   2.933   2.891   8.161  0.2124  0.4240 -1.8254
  978SOL     OW14569   3.320   0.091   0.257 -0.6532  0.3464 -0.1762
  978SOL    HW114570   3.381   0.025   0.291 -0.6461 -1.0192 -2.8349
  978SOL    HW214571   3.345   0.075   0.167 -0.9376  1.5061 -0.4556
  979SOL     OW14572   0.744   3.121   4.565 -0.3202  0.1883 -0.3658
  979SOL    HW114573   0.803   3.079   4.628 -0.2841 -0.3792 -0.7793
  979SOL    HW214574   0.806   3.117   4.492  2.4003  4.0883  1.7212
  980SOL     OW14575   2.423   0.629   2.336 -0.2852 -0.8277 -0.4380
  980SOL    HW114576   2.413   0.636   2.431  0.3380 -0.8221 -0.3791
  980SOL    HW214577   2.516   0.635   2.318 -0.0155 -0.8168  1.0070
  981SOL     OW14578   2.863   4.079  12.223 -0.1418  0.1135 -0.3090
  981SOL    HW114579   2.808   4.015  12.176 -1.4807 -0.4504  2.0115
  981SOL    HW214580   2.948   4.038  12.209 -1.9974 -3.9943  0.4020
  982SOL     OW14581   0.632   2.614   8.281  0.2871  0.1424  0.1876
  982SOL    HW114582   0.575   2.540   8.302 -1.6007  1.7791  0.8645
  982SOL    HW214583   0.623   2.660   8.365 -3.5093  1.2262 -0.8355
  983SOL     OW14584   4.025   0.209  15.559  0.2896 -0.1638 -0.0357
  983SOL    HW114585   4.091   0.181  15.496  0.9272  0.1372  0.4970
  983SOL    HW214586   4.058   0.291  15.596  0.5396  1.0858 -3.0648
  984SOL     OW14587   3.153   0.655   0.364 -0.0461  0.2974  0.7070
  984SOL    HW114588   3.074   0.606   0.340  1.6584 -1.7070 -0.7713
  984SOL    HW214589   3.220   0.586   0.363  0.8959  1.2225  0.3826
  985SOL     OW14590   1.615   0.830   4.681 -0.5273  0.4928  0.5320
  985SOL    HW114591   1.703   0.839   4.644 -0.2537  0.9517  1.3068
  985SOL    HW214592   1.567   0.812   4.600  0.1608  1.0918 -0.0083
  986SOL     OW14593   1.086   1.966  17.028 -0.0289  0.1670 -0.2898
  986SOL    HW114594   1.007   1.919  17.000 -1.0098  1.0725  0.9358
  986SOL    HW214595   1.145   1.952  16.954 -1.0451 -1.3213 -0.8149
  987SOL     OW14596   1.256   0.328   2.037  0.2047  0.2538 -0.3774
  987SOL    HW114597   1.177   0.275   2.044  0.3575  0.0054 -0.5039
  987SOL    HW214598   1.213   0.413   2.032 -1.8395 -0.5378  3.7469
  988SOL     OW14599   4.566   0.004   5.678 -0.1201 -0.2712  0.3495
  988SOL    HW114600   4.516   0.004   5.597  0.7442  1.0385 -0.1788
  988SOL    HW214601   4.495   4.735   5.742  0.2720 -0.9449  0.7009
  989SOL     OW14602   0.547   2.426   6.850  0.0369  0.3031 -0.4854
  989SOL    HW114603   0.477   2.377   6.807 -0.8395  1.8047 -0.7770
  989SOL    HW214604   0.521   2.406   6.940  3.5917  0.1556  0.4964
  990SOL     OW14605   0.853   2.251   2.774 -0.0692 -0.0138 -0.5291
  990SOL    HW114606   0.932   2.197   2.772  1.2443  1.8821 -0.1952
  990SOL    HW214607   0.894   2.337   2.784  0.3941 -0.3958  0.7891
  991SOL     OW14608   2.757   4.631   5.982 -0.3774 -0.0244 -0.1924
  991SOL    HW114609   2.695   4.626   5.909 -1.7777 -2.5005  1.1840
  991SOL    HW214610   2.732   4.717   6.017 -3.5324 -0.6443 -0.9061
  992SOL     OW14611   0.575   3.458   3.091  0.0011  0.1128 -0.5178
  992SOL    HW114612   0.568   3.500   3.006  2.3477  1.8375  0.1282
  992SOL    HW214613   0.497   3.501   3.127 -0.0628 -0.0191 -0.5003
  993SOL     OW14614   3.699   0.167  12.870 -0.0815  0.1793 -0.7062
  993SOL    HW114615   3.649   0.172  12.789 -0.2994  1.8996 -0.4776
  993SOL    HW214616   3.630   0.164  12.936 -0.4593  1.1077 -1.0604
  994SOL     OW14617   3.681   4.130   7.383 -0.1342 -0.2242 -0.4164
  994SOL    HW114618   3.625   4.186   7.329  0.5669 -1.1737 -2.1321
  994SOL    HW214619   3.768   4.135   7.342  0.2919  2.6882  0.8485
  995SOL     OW14620   0.460   2.231  11.936  0.3361  0.0673  0.0124
  995SOL    HW114621   0.546   2.192  11.948  0.1586 -0.5301 -0.6624
  995SOL    HW214622   0.433   2.233  12.028 -0.4657  1.7037 -0.2615
  996SOL     OW14623   4.554   4.108   7.178 -0.1544  0.3145 -0.2902
  996SOL    HW114624   4.561   4.188   7.231  1.3613 -0.4997  0.7329
  996SOL    HW214625   4.460   4.094   7.166 -0.0122 -0.3530 -0.6482
  997SOL     OW14626   1.369   2.342   8.048 -0.0796 -0.2385 -0.2588
  997SOL    HW114627   1.276   2.331   8.069  0.0910 -0.6748  0.2555
  997SOL    HW214628   1.396   2.319   8.137  1.5997  0.4404 -0.5897
  998SOL     OW14629   3.568   2.196  17.009 -0.2268  0.4546 -0.1029
  998SOL    HW114630   3.561   2.146  16.928  0.4261  2.8801 -1.6551
  998SOL    HW214631   3.642   2.247  16.976 -0.4257  0.9519  0.2206
  999SOL     OW14632   0.227   3.883   3.345  0.6544  0.1945 -0.3185
  999SOL    HW114633   0.304   3.827   3.343 -0.7724 -1.7710  0.2147
  999SOL    HW214634   0.256   3.964   3.303  0.7700  1.5113  2.3138
 1000SOL     OW14635   3.556   1.874  15.895  0.4622  0.4987  0.1283
 1000SOL    HW114636   3.610   1.953  15.899  0.0472  0.8732 -1.8909
 1000SOL    HW214637   3.613   1.822  15.839 -0.5495 -1.5214  0.9588
 1001SOL     OW14638   4.246   1.661   6.269 -0.2827 -0.7153  0.8151
 1001SOL    HW114639   4.156   1.669   6.239  0.0859  0.4359  0.0082
 1001SOL    HW214640   4.283   1.594   6.211 -1.9938  0.3349 -1.5116
 1002SOL     OW14641   2.198   0.126   8.429  0.3509 -0.1140 -0.2071
 1002SOL    HW114642   2.282   0.148   8.467 -0.5870  2.3578  0.4306
 1002SOL    HW214643   2.227   0.050   8.378 -0.2137  0.3104 -1.1602
 1003SOL     OW14644   1.885   2.386  14.536 -0.2030  0.1985 -0.0787
 1003SOL    HW114645   1.795   2.374  14.567  0.0039 -3.1524 -0.8195
 1003SOL    HW214646   1.872   2.391  14.441 -0.9759  0.5657  0.0481
 1004SOL     OW14647   3.616   2.197   6.367  0.2127  0.0299 -0.0774
 1004SOL    HW114648   3.712   2.194   6.368  0.1616 -1.4088  0.0325
 1004SOL    HW214649   3.598   2.232   6.455  0.5512  1.9136 -0.7620
 1005SOL     OW14650   0.797   3.757   9.206 -0.1939 -0.3302 -0.0414
 1005SOL    HW114651   0.809   3.760   9.301  0.0919  0.8176 -0.1106
 1005SOL    HW214652   0.710   3.797   9.209 -0.6678 -1.5296  2.2029
 1006SOL     OW14653   3.366   2.187   7.491 -0.3988 -0.1528  0.0960
 1006SOL    HW114654   3.399   2.166   7.404 -1.3233  1.5351 -0.6654
 1006SOL    HW214655   3.277   2.208   7.461  0.0826  1.7659  0.0243
 1007SOL     OW14656   2.607   1.350   8.545  0.2733 -0.3295  0.6835
 1007SOL    HW114657   2.679   1.347   8.607  0.7197 -1.6432  0.1079
 1007SOL    HW214658   2.568   1.263   8.558 -0.3726 -0.2353 -0.6280
 1008SOL     OW14659   1.026   3.684   7.747  0.3628  0.4345 -0.0352
 1008SOL    HW114660   1.074   3.752   7.700 -1.6378  2.8191  1.3130
 1008SOL    HW214661   1.019   3.726   7.833  3.2919  1.5717 -0.3467
 1009SOL     OW14662   0.202   3.699  11.329 -0.0797 -0.5743 -0.2175
 1009SOL    HW114663   0.189   3.703  11.424  2.0676 -1.8780  0.1390
 1009SOL    HW214664   0.279   3.756  11.318  0.2636 -0.9021  0.4994
 1010SOL     OW14665   1.709   4.330   9.818 -0.6318  0.3554 -0.1023
 1010SOL    HW114666   1.617   4.336   9.843 -0.4681 -1.5723  1.0317
 1010SOL    HW214667   1.698   4.297   9.729 -0.3508  1.8597 -0.7006
 1011SOL     OW14668   2.565   1.282   1.880  0.1311  0.5460 -0.2073
 1011SOL    HW114669   2.530   1.194   1.891  2.8232 -0.5054 -0.0226
 1011SOL    HW214670   2.593   1.312   1.967  1.2096 -1.8139  0.2452
 1012SOL     OW14671   0.360   2.829   4.901 -0.0539  0.3596  0.1731
 1012SOL    HW114672   0.283   2.884   4.913  0.1044  0.8227 -0.9811
 1012SOL    HW214673   0.427   2.877   4.951  0.7690 -0.2889 -0.3097
 1013SOL     OW14674   1.186   2.942  12.574  0.0614  0.5974  0.5175
 1013SOL    HW114675   1.268   2.932  12.623  0.1825 -1.8092 -0.1664
 1013SOL    HW214676   1.191   2.865  12.517 -0.1109 -0.2639  1.6743
 1014SOL     OW14677   2.152   0.294   4.237 -0.3432  0.3579  0.3029
 1014SOL    HW114678   2.128   0.386   4.225 -3.7562 -0.9075 -2.3474
 1014SOL    HW214679   2.213   0.297   4.312  0.3836  0.2501 -0.2844
 1015SOL     OW14680   0.961   2.055   2.386  0.2482  0.4319 -0.4915
 1015SOL    HW114681   0.910   2.046   2.466 -0.3542  0.8029 -0.8333
 1015SOL    HW214682   0.901   2.077   2.315 -0.3270 -2.4553 -0.9069
 1016SOL     OW14683   1.831   3.596   8.466 -0.2806 -0.3408  0.0041
 1016SOL    HW114684   1.769   3.666   8.446  0.6181  1.2356  2.7604
 1016SOL    HW214685   1.820   3.543   8.387  0.6873  0.0024 -0.3694
 1017SOL     OW14686   4.267   0.618   8.068  0.0961  0.1203 -0.0916
 1017SOL    HW114687   4.196   0.627   8.131  1.4493 -0.3608  1.5008
 1017SOL    HW214688   4.346   0.599   8.118  0.3397  2.2358  0.3372
 1018SOL     OW14689   2.483   0.738   8.254 -0.9733  0.0322  0.3118
 1018SOL    HW114690   2.456   0.821   8.216  2.1915  0.4252 -1.1152
 1018SOL    HW214691   2.445   0.751   8.340 -1.5174  0.3889  0.0133
 1019SOL     OW14692   1.140   3.212  16.816  0.0523 -0.1433  0.1796
 1019SOL    HW114693   1.171   3.266  16.744 -2.1806  1.7357  0.6199
 1019SOL    HW214694   1.055   3.209  16.772  0.2063 -0.1769 -0.1130
 1020SOL     OW14695   2.364   2.546  15.422 -0.2744 -0.6603 -0.3687
 1020SOL    HW114696   2.405   2.575  15.340 -0.6343 -0.7782 -0.5876
 1020SOL    HW214697   2.356   2.454  15.401 -0.2034 -0.4062 -1.4935
 1021SOL     OW14698   1.438   0.458   9.301 -0.3708 -0.3757  0.4922
 1021SOL    HW114699   1.349   0.487   9.281  0.2358 -1.1659 -3.4172
 1021SOL    HW214700   1.492   0.537   9.307 -0.4615 -0.2513 -0.2563
 1022SOL     OW14701   4.313   0.242   2.470  0.3229 -0.1393 -0.5525
 1022SOL    HW114702   4.378   0.222   2.403  1.2874 -0.1665  0.3922
 1022SOL    HW214703   4.361   0.194   2.537 -0.5529 -0.7391 -0.3481
 1023SOL     OW14704   2.758   3.365   8.200  0.5255 -0.3666  0.1516
 1023SOL    HW114705   2.853   3.377   8.211  0.1854  0.4634  2.2746
 1023SOL    HW214706   2.730   3.453   8.175  3.7422 -0.0543 -2.3993
 1024SOL     OW14707   3.479   3.353  10.833  0.0828  0.1322 -0.7721
 1024SOL    HW114708   3.399   3.373  10.784 -1.0990 -1.1043  0.6507
 1024SOL    HW214709   3.488   3.259  10.841 -0.7295  0.1730  0.6561
 1025SOL     OW14710   2.127   0.204   3.972  0.0853  0.5069 -0.0358
 1025SOL    HW114711   2.124   0.221   4.066  2.7352  0.3060  0.0880
 1025SOL    HW214712   2.221   0.199   3.952  0.1904 -1.1791  0.8343
 1026SOL     OW14713   2.004   0.669   9.955  0.2906 -0.6467  0.6305
 1026SOL    HW114714   2.091   0.649   9.987  0.7158 -1.4686 -1.0218
 1026SOL    HW214715   1.993   0.605   9.884  2.9592  0.6446 -0.9334
 1027SOL     OW14716   1.075   0.649  16.446 -0.3353  0.1399  0.0708
 1027SOL    HW114717   1.038   0.617  16.528 -1.5299  1.2155 -0.0388
 1027SOL    HW214718   1.056   0.575  16.387 -0.5094 -0.9055  1.4483
 1028SOL     OW14719   1.668   0.695   6.119  0.4033 -0.0807 -0.2529
 1028SOL    HW114720   1.622   0.717   6.038 -1.4608 -2.1292  0.2590
 1028SOL    HW214721   1.669   0.780   6.164 -0.5614 -0.5497  0.6435
 1029SOL     OW14722   1.937   2.542   6.237 -0.3653 -0.4469 -0.3645
 1029SOL    HW114723   1.990   2.472   6.276 -0.3285 -0.6725 -0.8244
 1029SOL    HW214724   1.891   2.576   6.314  0.1142 -0.4073 -0.0925
 1030SOL     OW14725   1.536   3.645  16.852 -0.3707 -0.2423  0.4796
 1030SOL    HW114726   1.535   3.595  16.934 -1.0232 -0.7600  0.1548
 1030SOL    HW214727   1.624   3.682  16.857 -0.2213 -0.3382 -1.6731
 1031SOL     OW14728   3.814   3.876   9.766 -0.0970 -0.0537  0.1805
 1031SOL    HW114729   3.730   3.831   9.760 -1.3608  2.4442 -0.9094
 1031SOL    HW214730   3.826   3.884   9.861  1.2233  0.8850 -0.0587
 1032SOL     OW14731   1.180   4.433   5.687  0.4685  0.1142 -0.1354
 1032SOL    HW114732   1.250   4.448   5.750 -0.3173 -1.4700  1.1386
 1032SOL    HW214733   1.103   4.484   5.715 -0.0321 -0.8945  0.3329
 1033SOL     OW14734   4.609   4.537  13.310  0.0245  0.2834 -0.2445
 1033SOL    HW114735   4.668   4.493  13.371 -0.1231  1.1513  0.5203
 1033SOL    HW214736   4.579   4.614  13.357 -0.5787  0.4440 -0.8891
 1034SOL     OW14737   3.982   3.929   5.103 -0.2111 -0.2067  0.1263
 1034SOL    HW114738   3.927   3.886   5.038 -0.5468  1.1073 -0.4647
 1034SOL    HW214739   3.921   3.986   5.149 -1.0259 -2.0647  1.3534
 1035SOL     OW14740   4.369   4.062   7.410 -0.0845  0.0654  0.3276
 1035SOL    HW114741   4.287   4.048   7.457  1.0728 -0.5040  2.1810
 1035SOL    HW214742   4.433   4.023   7.470 -0.1174 -0.2506  0.1567
 1036SOL     OW14743   1.486   3.829  12.234  0.2710 -0.1585 -0.0764
 1036SOL    HW114744   1.465   3.840  12.142 -0.2369 -0.2897  0.0220
 1036SOL    HW214745   1.499   3.734  12.239 -1.2580 -0.4172 -1.0225
 1037SOL     OW14746   4.656   2.730   7.971 -0.1053  0.1219  0.2977
 1037SOL    HW114747   4.653   2.733   7.876 -0.1375 -1.8778  0.2416
 1037SOL    HW214748   0.010   2.736   7.986 -0.0172  2.9217 -1.3668
 1038SOL     OW14749   2.593   2.226   8.614  0.5959 -0.1323 -0.5419
 1038SOL    HW114750   2.509   2.260   8.582  2.0935  1.3530 -2.8614
 1038SOL    HW214751   2.644   2.234   8.534 -0.4902  0.6547 -1.1581
 1039SOL     OW14752   2.178   4.524   4.825 -0.0731  0.2696  0.5195
 1039SOL    HW114753   2.204   4.518   4.733  0.9749 -0.2334  0.8568
 1039SOL    HW214754   2.083   4.541   4.821 -0.0323 -0.3026 -2.9300
 1040SOL     OW14755   2.832   0.799  11.027  0.3147  0.2079  0.1343
 1040SOL    HW114756   2.785   0.723  11.061  0.7169 -0.1811 -0.1822
 1040SOL    HW214757   2.869   0.761  10.948 -0.1897 -2.9953  1.4292
 1041SOL     OW14758   0.222   1.835   3.386  0.0872 -0.2891  0.2842
 1041SOL    HW114759   0.250   1.921   3.354 -1.3527  0.2903  0.5935
 1041SOL    HW214760   0.135   1.832   3.347 -0.4539  0.3652  1.4438
 1042SOL     OW14761   3.063   0.337   3.650  0.2785  0.4392  0.0492
 1042SOL    HW114762   2.994   0.334   3.717  1.5957  0.9857  1.4280
 1042SOL    HW214763   3.014   0.389   3.585  1.5793  1.3211 -0.2277
 1043SOL     OW14764   0.294   4.068   9.267  0.0944  0.0293 -0.2286
 1043SOL    HW114765   0.256   4.118   9.339 -1.0894 -2.2019  0.6818
 1043SOL    HW214766   0.385   4.068   9.298  0.6035  0.8046 -1.7115
 1044SOL     OW14767   2.979   0.412   1.268  0.1028  0.0804  0.1225
 1044SOL    HW114768   3.065   0.453   1.280  0.9553 -2.9285  3.9206
 1044SOL    HW214769   2.990   0.320   1.291 -0.3549  0.3789  1.5045
 1045SOL     OW14770   0.806   3.422   9.995 -0.2954 -0.3351 -0.3151
 1045SOL    HW114771   0.813   3.422  10.091 -1.6449 -0.1472 -0.2161
 1045SOL    HW214772   0.861   3.499   9.978 -1.0952  0.6368  1.4662
 1046SOL     OW14773   1.107   2.284   6.631 -0.7012  0.0125 -0.2073
 1046SOL    HW114774   1.190   2.288   6.584 -1.1009  0.2252 -0.8904
 1046SOL    HW214775   1.108   2.366   6.682 -1.5723 -0.4520  0.5484
 1047SOL     OW14776   0.530   1.188   5.300 -0.2992 -0.0850  1.1996
 1047SOL    HW114777   0.531   1.100   5.338 -0.4255 -0.1054  1.1555
 1047SOL    HW214778   0.570   1.240   5.370 -2.5912  0.6868  1.9374
 1048SOL     OW14779   3.583   3.362  13.860  0.2200 -0.0235 -0.2669
 1048SOL    HW114780   3.612   3.368  13.769 -0.9145  1.9371 -0.4985
 1048SOL    HW214781   3.512   3.300  13.850  0.8515 -0.5596 -1.3832
 1049SOL     OW14782   0.293   0.194   2.510  0.3241  0.1943  0.1461
 1049SOL    HW114783   0.338   0.163   2.589 -0.3790 -0.3965  0.3209
 1049SOL    HW214784   0.209   0.152   2.528 -0.2936  1.1470 -0.5107
 1050SOL     OW14785   1.449   1.113  11.338 -0.3031 -0.0906  0.2607
 1050SOL    HW114786   1.533   1.067  11.332 -0.1231  0.5798 -2.1118
 1050SOL    HW214787   1.413   1.074  11.418 -1.5690  3.1465  1.2352
 1051SOL     OW14788   0.426   1.689   2.640  0.0386 -0.2941  0.0909
 1051SOL    HW114789   0.341   1.700   2.683  0.7334  0.1488  1.3696
 1051SOL    HW214790   0.489   1.673   2.710 -0.7183  1.3885  1.1559
 1052SOL     OW14791   2.439   1.979   1.251 -0.1118  0.3176 -0.3603
 1052SOL    HW114792   2.421   1.920   1.324  0.9700  2.1834  1.4268
 1052SOL    HW214793   2.511   1.929   1.213 -1.1799 -1.2120 -0.3833
 1053SOL     OW14794   2.828   4.425   6.841 -0.0122 -0.5633  0.2835
 1053SOL    HW114795   2.876   4.498   6.801 -2.3812 -0.0553 -1.6042
 1053SOL    HW214796   2.869   4.345   6.807  2.8753  0.9659  0.1899
 1054SOL     OW14797   0.627   0.232  14.832 -0.1683  0.8563  0.6875
 1054SOL    HW114798   0.701   0.292  14.820 -0.8557  2.0682  2.3859
 1054SOL    HW214799   0.593   0.238  14.743  0.9036  1.4699  0.3208
 1055SOL     OW14800   0.618   2.931   1.333  0.3580  0.6769  0.4694
 1055SOL    HW114801   0.692   2.872   1.345  0.4417  0.8572  0.8324
 1055SOL    HW214802   0.587   2.906   1.246  0.7011 -1.7459  1.0475
 1056SOL     OW14803   2.189   1.457   2.989 -0.2128  0.1518 -0.0233
 1056SOL    HW114804   2.109   1.471   2.939 -0.8748  3.4183  1.9355
 1056SOL    HW214805   2.188   1.361   2.989  1.7674  0.1339 -2.8261
 1057SOL     OW14806   1.427   3.332   8.400  0.7846 -0.1290  0.7543
 1057SOL    HW114807   1.421   3.378   8.316 -1.2519 -0.8556  0.5059
 1057SOL    HW214808   1.462   3.403   8.453  0.5639 -0.0322  0.7669
 1058SOL     OW14809   0.062   3.975   8.904 -0.0523 -0.1257  0.0954
 1058SOL    HW114810   0.023   4.048   8.951  0.1127 -0.7985  1.2795
 1058SOL    HW214811   4.735   3.908   8.891  0.6654 -1.1525  1.5919
 1059SOL     OW14812   3.776   0.218   6.901  0.0573 -0.0548 -0.3559
 1059SOL    HW114813   3.784   0.200   6.807  1.6922  0.5019 -0.3215
 1059SOL    HW214814   3.784   0.129   6.933 -1.0010 -0.6391 -1.7245
 1060SOL     OW14815   1.296   1.278   9.042  0.3382  0.0311 -0.0807
 1060SOL    HW114816   1.342   1.350   9.086  1.9315 -0.6427 -0.6300
 1060SOL    HW214817   1.363   1.236   8.987  0.6957  0.1645  0.2525
 1061SOL     OW14818   0.965   0.160  16.198  0.3780  0.3511 -0.0640
 1061SOL    HW114819   1.058   0.169  16.177  0.2919  2.4083  0.4490
 1061SOL    HW214820   0.956   0.067  16.219 -0.9383  0.4956  0.0405
 1062SOL     OW14821   0.135   0.421   9.052  0.6920 -0.5849  0.1766
 1062SOL    HW114822   0.069   0.486   9.078 -1.3346 -1.7615 -2.0137
 1062SOL    HW214823   0.142   0.432   8.957  0.8325  2.4299  0.5216
 1063SOL     OW14824   1.399   3.055   8.948 -0.4196  0.2893  0.3749
 1063SOL    HW114825   1.481   3.088   8.911  1.1574 -1.6772  2.1499
 1063SOL    HW214826   1.360   2.981   8.902 -1.6109  0.9650  0.2637
 1064SOL     OW14827   1.974   0.486  11.092  0.2229  0.0838  0.5750
 1064SOL    HW114828   1.985   0.393  11.074  0.7094  0.2801 -0.1574
 1064SOL    HW214829   1.896   0.508  11.041  0.4077  0.2685  0.3731
 1065SOL     OW14830   2.298   0.473  12.819 -0.2516 -0.0003  0.2073
 1065SOL    HW114831   2.293   0.467  12.724  1.0954 -1.3429  0.2207
 1065SOL    HW214832   2.297   0.380  12.843  1.1158 -0.3774 -1.1736
 1066SOL     OW14833   2.744   0.602   2.373  0.4627  0.3286 -0.1244
 1066SOL    HW114834   2.705   0.523   2.337 -0.3780  0.4221  0.5626
 1066SOL    HW214835   2.829   0.602   2.330 -0.6236 -1.5997 -2.2727
 1067SOL     OW14836   4.283   2.395   2.703 -0.1084 -0.0723  0.0382
 1067SOL    HW114837   4.332   2.313   2.704  0.7733  0.4236 -1.3957
 1067SOL    HW214838   4.194   2.366   2.719 -0.5449  0.9447 -0.5608
 1068SOL     OW14839   1.724   0.142   2.526 -0.0926 -0.0615  0.0980
 1068SOL    HW114840   1.664   0.213   2.503 -1.2273 -2.2544 -3.6794
 1068SOL    HW214841   1.801   0.199   2.530  1.1771 -1.7064 -0.9047
 1069SOL     OW14842   4.225   4.185   9.973  0.3256 -0.0753  0.3593
 1069SOL    HW114843   4.148   4.236   9.948  1.1430  1.4087  0.8794
 1069SOL    HW214844   4.204   4.169  10.065  1.0136  2.8679  0.9972
 1070SOL     OW14845   0.309   2.080   3.295 -0.2629 -0.7438  0.1449
 1070SOL    HW114846   0.246   2.151   3.309  0.3329 -0.1835 -0.0144
 1070SOL    HW214847   0.392   2.121   3.272  0.0778 -2.8115 -2.4101
 1071SOL     OW14848   4.710   2.140   3.437  0.0181  0.0394 -0.2447
 1071SOL    HW114849   4.659   2.141   3.356 -0.9586 -0.5072  0.3742
 1071SOL    HW214850   0.028   2.211   3.408  1.0430 -0.8169 -0.2621
 1072SOL     OW14851   4.107   0.285   6.857 -0.2084 -0.1991 -0.7385
 1072SOL    HW114852   4.064   0.253   6.777 -1.9207 -1.5766  0.7358
 1072SOL    HW214853   4.046   0.354   6.884  1.7641  0.8049  1.1041
 1073SOL     OW14854   3.534   2.897   3.325  0.4673 -0.3410 -0.2756
 1073SOL    HW114855   3.564   2.931   3.241 -0.6970 -0.9860 -0.9523
 1073SOL    HW214856   3.609   2.918   3.380 -0.3002 -3.6578  2.0569
 1074SOL     OW14857   4.089   1.278   0.117 -0.1990  1.3356  0.2395
 1074SOL    HW114858   4.003   1.308   0.089 -0.7103 -1.5022 -1.2406
 1074SOL    HW214859   4.104   1.332   0.195 -1.4981  3.7831 -1.2202
 1075SOL     OW14860   4.089   0.925   5.066 -0.3495  0.2763 -0.0614
 1075SOL    HW114861   4.063   0.942   4.975  0.1092 -2.4990 -0.7118
 1075SOL    HW214862   4.173   0.883   5.049  0.6848  2.3466 -0.0759
 1076SOL     OW14863   3.576   1.638   5.940  0.0921  0.5434  0.2476
 1076SOL    HW114864   3.494   1.621   5.893 -0.1434 -0.8737  1.1763
 1076SOL    HW214865   3.606   1.714   5.889  0.0619  0.0116 -0.5741
 1077SOL     OW14866   3.456   1.522   3.314  0.3961 -0.4992  0.5913
 1077SOL    HW114867   3.409   1.569   3.245  0.6866 -1.5093 -0.3004
 1077SOL    HW214868   3.544   1.548   3.286  0.8458 -1.2820  1.2811
 1078SOL     OW14869   3.453   1.450   7.715 -0.4675  0.1931  0.1819
 1078SOL    HW114870   3.536   1.470   7.758 -0.6920  0.8367  0.3178
 1078SOL    HW214871   3.471   1.382   7.651 -0.6312 -1.0400  1.4432
 1079SOL     OW14872   3.491   2.740   2.437  0.0361  0.1046 -1.1316
 1079SOL    HW114873   3.445   2.794   2.502  1.7651 -0.8256  0.8785
 1079SOL    HW214874   3.439   2.762   2.360  0.2136 -0.1484 -1.3222
 1080SOL     OW14875   0.600   2.558   2.653 -0.1011  0.2388 -0.2804
 1080SOL    HW114876   0.566   2.640   2.617 -0.4935  0.4846  0.6699
 1080SOL    HW214877   0.620   2.583   2.743  0.7873  1.0287 -0.6946
 1081SOL     OW14878   2.769   0.377   4.606  0.4298  0.3577 -0.1279
 1081SOL    HW114879   2.838   0.311   4.613 -1.2089 -1.2863  0.5090
 1081SOL    HW214880   2.721   0.364   4.688  1.4240 -1.4988  0.1671
 1082SOL     OW14881   0.575   3.176   6.781  0.1747  0.0299  0.6086
 1082SOL    HW114882   0.497   3.164   6.726 -0.0002 -0.6903  1.0095
 1082SOL    HW214883   0.633   3.216   6.717 -2.0464  1.2354 -0.6096
 1083SOL     OW14884   4.203   2.860   8.374  0.2812 -0.0639  0.1338
 1083SOL    HW114885   4.276   2.804   8.401 -0.3792 -1.6257 -1.2606
 1083SOL    HW214886   4.226   2.930   8.434 -3.3313  0.8611  0.4395
 1084SOL     OW14887   2.138   2.554   0.228 -0.3662 -0.2124 -0.1138
 1084SOL    HW114888   2.061   2.499   0.213  0.9066 -1.6251 -1.3595
 1084SOL    HW214889   2.187   2.555   0.145 -1.8824  0.9177 -1.0154
 1085SOL     OW14890   0.049   2.823  13.188 -0.0016 -0.1974 -0.0518
 1085SOL    HW114891   0.041   2.730  13.210 -0.5069  0.1005  1.0219
 1085SOL    HW214892   4.720   2.854  13.246  0.4399 -0.1873  0.4701
 1086SOL     OW14893   3.188   3.912   2.637 -0.2975  0.2805  0.0647
 1086SOL    HW114894   3.138   3.991   2.616 -1.7751  0.0237  2.6195
 1086SOL    HW214895   3.125   3.862   2.689  2.0378 -1.5273  1.1565
 1087SOL     OW14896   2.928   0.125   3.249 -0.4256  0.1963  0.0987
 1087SOL    HW114897   2.982   0.078   3.186 -0.2374 -1.1706  1.2584
 1087SOL    HW214898   2.997   0.153   3.308  1.1999 -0.6810 -1.3885
 1088SOL     OW14899   0.342   4.696   1.634 -0.1726 -0.1994  0.1691
 1088SOL    HW114900   0.380   4.610   1.615  1.9705  0.8553 -0.3361
 1088SOL    HW214901   0.344   4.689   1.730 -0.7472  0.2498  0.2119
 1089SOL     OW14902   3.359   2.158  16.752  0.0071  0.0544 -0.3641
 1089SOL    HW114903   3.447   2.178  16.719  0.4064  0.2907  0.8635
 1089SOL    HW214904   3.340   2.075  16.707 -1.5114 -0.0469  0.4882
 1090SOL     OW14905   2.659   0.371   8.766 -0.2092 -0.0325  0.9834
 1090SOL    HW114906   2.716   0.299   8.794 -1.1490 -2.9402 -4.6343
 1090SOL    HW214907   2.579   0.320   8.759 -0.7277  1.1891 -1.8377
 1091SOL     OW14908   2.953   1.763   5.202 -0.3343 -1.0235  0.1034
 1091SOL    HW114909   3.046   1.787   5.203 -0.1099 -1.9433  0.5506
 1091SOL    HW214910   2.937   1.787   5.110  1.0554 -2.1243 -0.4256
 1092SOL     OW14911   2.410   2.386   3.415 -0.0476  0.2746 -0.3526
 1092SOL    HW114912   2.403   2.414   3.506 -1.1006  1.8497 -0.9334
 1092SOL    HW214913   2.347   2.314   3.415  0.0074  0.2203 -2.7609
 1093SOL     OW14914   3.035   2.522  12.348  0.3655 -0.6930  0.3440
 1093SOL    HW114915   3.030   2.600  12.403  2.4242  0.1333 -0.6509
 1093SOL    HW214916   3.126   2.520  12.318 -0.1727 -0.8528 -1.2627
 1094SOL     OW14917   2.689   2.553  10.588 -0.2095  0.5502  0.0805
 1094SOL    HW114918   2.718   2.602  10.665  0.2566 -1.5670  1.2642
 1094SOL    HW214919   2.773   2.525  10.551  0.0221 -0.2168  1.1858
 1095SOL     OW14920   1.751   2.521   5.621 -1.1187  0.4351  0.5885
 1095SOL    HW114921   1.765   2.516   5.716  0.1449  1.4502  0.4500
 1095SOL    HW214922   1.692   2.595   5.609 -2.3516 -0.3640  1.6071
 1096SOL     OW14923   1.543   1.525  14.809 -0.3687  0.2094  0.0176
 1096SOL    HW114924   1.561   1.574  14.889  0.4201  0.4905 -0.3295
 1096SOL    HW214925   1.632   1.531  14.775  0.3489 -1.6040  1.5728
 1097SOL     OW14926   0.965   0.808  14.226 -0.2297  0.0377  0.1693
 1097SOL    HW114927   1.034   0.742  14.235  0.0246  0.4441  1.2840
 1097SOL    HW214928   0.936   0.834  14.314  2.1192 -0.7799  1.2136
 1098SOL     OW14929   1.784   0.824   7.913  0.0075 -0.0719 -0.4541
 1098SOL    HW114930   1.870   0.823   7.870 -0.2639  0.6031 -1.0061
 1098SOL    HW214931   1.809   0.859   7.998  0.2307 -0.9655 -0.1536
 1099SOL     OW14932   0.291   3.419   2.530 -0.2544  0.0721 -0.1616
 1099SOL    HW114933   0.215   3.434   2.475 -0.2944 -4.6812 -1.3986
 1099SOL    HW214934   0.263   3.339   2.575  0.4650  0.5356  1.1303
 1100SOL     OW14935   1.475   3.581   2.841 -0.4780  0.0422  0.0472
 1100SOL    HW114936   1.554   3.537   2.810 -0.3572 -0.4652  1.0657
 1100SOL    HW214937   1.415   3.524   2.794  0.9838 -1.8327  0.4584
 1101SOL     OW14938   2.498   2.824  13.639 -0.4253  0.1801 -0.4721
 1101SOL    HW114939   2.553   2.897  13.669  1.0996 -1.5201  0.8893
 1101SOL    HW214940   2.561   2.758  13.609 -3.5610 -4.2902  2.7323
 1102SOL     OW14941   4.726   3.378  10.032  0.5244  0.8696  0.2452
 1102SOL    HW114942   4.655   3.314  10.038  1.3812 -0.2633 -1.9911
 1102SOL    HW214943   0.036   3.352   9.956 -1.9692 -4.1117  0.3556
 1103SOL     OW14944   0.464   2.460   3.278 -0.3850 -0.2708 -0.0776
 1103SOL    HW114945   0.388   2.515   3.258  1.9085  2.6206 -0.8051
 1103SOL    HW214946   0.521   2.516   3.329 -1.6312  2.1725 -1.3681
 1104SOL     OW14947   2.869   2.012  15.952 -0.0226 -0.3627 -0.7703
 1104SOL    HW114948   2.799   1.961  15.994  0.3793  0.5770  1.0261
 1104SOL    HW214949   2.944   2.006  16.011 -1.0523 -1.9298  0.3963
 1105SOL     OW14950   1.719   1.251   8.735 -0.2429 -0.0432  0.3526
 1105SOL    HW114951   1.795   1.196   8.756 -0.3358 -1.3454 -2.8173
 1105SOL    HW214952   1.711   1.234   8.642  3.6284  0.7088 -0.1320
 1106SOL     OW14953   2.747   4.149   5.279 -0.3096 -0.1484  0.4798
 1106SOL    HW114954   2.764   4.242   5.264  0.4535 -0.2826  0.5337
 1106SOL    HW214955   2.802   4.139   5.357  0.4626 -0.2747 -0.0900
 1107SOL     OW14956   0.594   2.679   4.964 -0.6835 -0.2046  0.1962
 1107SOL    HW114957   0.512   2.725   4.944 -0.4168  0.3150  0.2982
 1107SOL    HW214958   0.596   2.692   5.058 -1.9430  0.8894  0.0744
 1108SOL     OW14959   4.270   3.344   4.647  0.2057 -0.3449 -0.4963
 1108SOL    HW114960   4.269   3.357   4.552  0.0783 -1.5480 -0.6523
 1108SOL    HW214961   4.316   3.426   4.668 -0.2425 -0.2456  0.1196
 1109SOL     OW14962   1.046   0.517   6.460  0.2766 -0.5496 -0.3948
 1109SOL    HW114963   0.993   0.595   6.474  0.5290 -0.2218 -1.3162
 1109SOL    HW214964   1.005   0.487   6.379 -2.2501  0.4744  0.4988
 1110SOL     OW14965   3.575   1.513  17.591  0.0077 -0.6760  0.2211
 1110SOL    HW114966   3.490   1.558  17.594  1.0877  1.4446 -1.0132
 1110SOL    HW214967   3.608   1.525  17.502  0.4239 -0.1108  0.4538
 1111SOL     OW14968   4.664   1.019   8.490  0.3147  0.7490  0.0046
 1111SOL    HW114969   4.582   0.979   8.520  0.7360 -0.9786 -1.1474
 1111SOL    HW214970   4.681   0.964   8.414  2.2486  0.1567  0.8734
 1112SOL     OW14971   3.402   0.567   8.438 -0.3044 -0.3898 -0.6892
 1112SOL    HW114972   3.367   0.520   8.514 -0.2609  1.4291  0.4452
 1112SOL    HW214973   3.472   0.508   8.409  0.5900  0.1237  0.4055
 1113SOL     OW14974   1.225   0.093   9.361 -0.8991 -0.4781 -0.7479
 1113SOL    HW114975   1.222   0.064   9.270  0.2862  0.6054 -1.1397
 1113SOL    HW214976   1.135   0.118   9.381 -0.4465 -1.4540  2.4641
 1114SOL     OW14977   1.444   4.062   5.067  0.1924 -0.6889 -0.0361
 1114SOL    HW114978   1.530   4.091   5.036  1.3573 -1.5538  2.4467
 1114SOL    HW214979   1.408   4.015   4.992  1.7312 -0.4581 -0.9254
 1115SOL     OW14980   2.166   3.187   4.716  0.3521  0.2901 -0.1735
 1115SOL    HW114981   2.260   3.193   4.704  0.1066  0.9076 -1.7946
 1115SOL    HW214982   2.167   3.106   4.767 -0.2171  0.1648 -0.3525
 1116SOL     OW14983   3.099   3.255   9.391  0.2442 -0.1605  0.0968
 1116SOL    HW114984   3.022   3.307   9.415 -0.6117 -1.7210  0.6929
 1116SOL    HW214985   3.096   3.271   9.296 -1.5820 -0.6468  0.0641
 1117SOL     OW14986   0.305   3.094   8.433 -0.0528  0.3907  1.0260
 1117SOL    HW114987   0.249   3.141   8.494 -0.6517 -0.0555  0.8213
 1117SOL    HW214988   0.383   3.058   8.474  0.2632  1.6556  1.5255
 1118SOL     OW14989   4.608   4.042   5.769  0.5910 -0.4494  0.0546
 1118SOL    HW114990   4.531   4.015   5.818  0.2077 -1.0504 -0.8778
 1118SOL    HW214991   4.648   4.101   5.832  1.6549  0.4061 -1.4253
 1119SOL     OW14992   0.239   2.419   3.707  0.2549  0.1231 -0.3430
 1119SOL    HW114993   0.303   2.394   3.641 -1.4767  0.6715 -2.1994
 1119SOL    HW214994   0.271   2.356   3.772  0.3887 -0.8381 -1.3481
 1120SOL     OW14995   1.374   1.468   3.231 -0.5183  0.0802 -0.2332
 1120SOL    HW114996   1.331   1.552   3.247 -1.7258 -0.5632 -0.1253
 1120SOL    HW214997   1.447   1.486   3.292 -1.4044  0.0538  0.8320
 1121SOL     OW14998   3.756   3.463   4.150 -0.3285 -0.6657  0.0554
 1121SOL    HW114999   3.680   3.412   4.178  0.7034 -1.9604  0.4518
 1121SOL    HW215000   3.733   3.483   4.059  3.8605  0.0235 -0.8519
 1122SOL     OW15001   2.780   1.259   4.609  0.0012  0.5318  0.1989
 1122SOL    HW115002   2.769   1.165   4.620 -1.9693  0.7407  0.0041
 1122SOL    HW215003   2.849   1.277   4.544 -0.4373 -3.0402 -1.2493
 1123SOL     OW15004   2.961   2.623   6.356 -0.5996  0.2951  0.6570
 1123SOL    HW115005   2.904   2.556   6.319  0.1043 -0.3441  0.7383
 1123SOL    HW215006   2.973   2.582   6.441 -0.8110 -1.7799 -0.3050
 1124SOL     OW15007   2.414   1.502   9.475  0.3430 -0.1188 -0.2217
 1124SOL    HW115008   2.378   1.421   9.512  1.2566 -0.5146 -0.2067
 1124SOL    HW215009   2.492   1.514   9.528  0.1497  2.8572 -0.6094
 1125SOL     OW15010   2.130   2.887   1.596 -0.9322  0.7105 -0.1968
 1125SOL    HW115011   2.041   2.894   1.631 -0.4966 -0.4015  1.1205
 1125SOL    HW215012   2.192   2.852   1.660  0.0603  1.1553 -0.9248
 1126SOL     OW15013   2.344   2.451   8.841 -0.4713 -0.3134  0.5497
 1126SOL    HW115014   2.251   2.445   8.862 -1.2438  1.2905 -2.4740
 1126SOL    HW215015   2.354   2.361   8.811  1.0147  0.8102 -2.3240
 1127SOL     OW15016   1.149   3.866   7.591 -0.0856 -0.4614 -0.3659
 1127SOL    HW115017   1.175   3.950   7.630 -0.5566 -1.1150  1.3670
 1127SOL    HW215018   1.195   3.871   7.507  1.6834  0.2768  0.6447
 1128SOL     OW15019   1.427   2.926   7.209  0.0958  0.0952  0.6299
 1128SOL    HW115020   1.420   2.933   7.114  0.3638  0.7035  0.6563
 1128SOL    HW215021   1.521   2.924   7.223  0.7694  1.0241 -3.8713
 1129SOL     OW15022   1.471   0.743   5.856  0.2708  0.5581  0.0801
 1129SOL    HW115023   1.420   0.760   5.935  2.0954 -1.1154  1.6260
 1129SOL    HW215024   1.408   0.692   5.804  1.1601 -1.0677  0.5890
 1130SOL     OW15025   1.366   3.027   7.853  0.1712 -0.3864  0.3176
 1130SOL    HW115026   1.336   3.045   7.942 -0.7667 -0.1406 -0.0562
 1130SOL    HW215027   1.446   3.077   7.836 -0.7537  0.2659 -2.0921
 1131SOL     OW15028   2.862   3.868   7.242  0.1013 -0.2800 -0.2076
 1131SOL    HW115029   2.887   3.953   7.277  1.0690 -1.1120  1.1159
 1131SOL    HW215030   2.771   3.867   7.272  0.1387 -0.5123 -0.0995
 1132SOL     OW15031   3.030   1.633   4.517  0.8598  0.3058 -0.1919
 1132SOL    HW115032   3.070   1.715   4.547 -1.8841  0.5386  2.9018
 1132SOL    HW215033   3.054   1.583   4.595  1.3747 -0.0622 -0.5909
 1133SOL     OW15034   2.320   0.565  12.542  0.0397  0.1390 -0.3351
 1133SOL    HW115035   2.253   0.498  12.527 -1.1813  0.8935  1.7012
 1133SOL    HW215036   2.288   0.650  12.512 -0.3521  0.5856  1.3276
 1134SOL     OW15037   2.835   0.189   8.837  0.0288  0.0311  0.0715
 1134SOL    HW115038   2.847   0.125   8.767 -0.9134 -0.3105  0.2286
 1134SOL    HW215039   2.848   0.138   8.918 -1.2513 -3.8480 -2.1789
 1135SOL     OW15040   2.027   3.756   6.544  0.5018 -0.7183 -0.5215
 1135SOL    HW115041   1.962   3.786   6.480  1.8022 -1.9696 -2.4047
 1135SOL    HW215042   2.101   3.773   6.486 -0.0547 -1.1472 -1.3550
 1136SOL     OW15043   0.604   0.088  17.322 -0.2597 -0.2339  0.6458
 1136SOL    HW115044   0.521   0.069  17.367 -0.7504 -1.3111 -0.7295
 1136SOL    HW215045   0.606   0.015  17.261  1.6634  0.0552  0.3745
 1137SOL     OW15046   4.186   3.414   7.930  0.0007 -0.5173 -0.0852
 1137SOL    HW115047   4.233   3.380   8.006 -3.9453 -1.6622  1.8290
 1137SOL    HW215048   4.191   3.509   7.939 -0.9215 -0.8326  3.8180
 1138SOL     OW15049   3.142   0.512   6.327 -0.6165  0.5169 -0.3508
 1138SOL    HW115050   3.231   0.489   6.357 -0.2449  0.8078 -1.2428
 1138SOL    HW215051   3.149   0.597   6.285  1.6892  0.4659 -0.0735
 1139SOL     OW15052   0.229   1.831   4.897 -0.2365 -0.1647 -0.3226
 1139SOL    HW115053   0.320   1.808   4.881 -0.1851 -0.3496  0.2461
 1139SOL    HW215054   0.194   1.742   4.904 -0.2692  0.0604  2.1240
 1140SOL     OW15055   2.352   2.549   2.704  0.2519 -0.4481 -0.1433
 1140SOL    HW115056   2.381   2.473   2.755  2.0189  0.9287  0.9421
 1140SOL    HW215057   2.306   2.594   2.775 -1.4464 -3.3102  0.5367
 1141SOL     OW15058   2.225   4.038   8.256 -0.7689  0.5071  0.4273
 1141SOL    HW115059   2.264   4.062   8.172 -1.0312  1.6612  0.6385
 1141SOL    HW215060   2.159   4.106   8.266 -0.5643  0.3670  2.8091
 1142SOL     OW15061   1.580   2.561  17.626  0.2856  0.8592 -0.0587
 1142SOL    HW115062   1.641   2.488  17.635  1.9662  2.3003  0.2860
 1142SOL    HW215063   1.586   2.606  17.711  3.2296  1.5018 -0.6059
 1143SOL     OW15064   4.137   0.370   4.741 -0.1285  0.5479  0.0265
 1143SOL    HW115065   4.084   0.436   4.696 -0.6971 -0.0631 -0.2018
 1143SOL    HW215066   4.197   0.424   4.792 -0.0866 -1.3438  1.9842
 1144SOL     OW15067   1.003   0.548   5.754 -0.4828  0.2244 -0.1301
 1144SOL    HW115068   0.956   0.588   5.827  1.4427  0.2335  1.1215
 1144SOL    HW215069   0.941   0.488   5.713 -1.0618  1.0632 -0.4508
 1145SOL     OW15070   4.166   2.528   5.164 -0.5250  0.3935 -0.4347
 1145SOL    HW115071   4.154   2.602   5.223  1.8718  1.5998 -1.4594
 1145SOL    HW215072   4.225   2.574   5.104 -1.0274  0.5250 -0.8298
 1146SOL     OW15073   3.648   1.884   9.573 -0.9082 -0.1032 -0.0104
 1146SOL    HW115074   3.683   1.850   9.491  0.7203 -0.3597  0.7810
 1146SOL    HW215075   3.631   1.975   9.552  1.5749  0.3721 -0.0146
 1147SOL     OW15076   2.727   3.834   6.601  0.1808 -0.1474  0.4060
 1147SOL    HW115077   2.678   3.753   6.618  1.1105 -0.8877 -0.4324
 1147SOL    HW215078   2.815   3.819   6.636  0.9849 -3.2513 -2.9502
 1148SOL     OW15079   1.111   1.971  16.372 -0.1440  0.6596 -0.0263
 1148SOL    HW115080   1.173   1.926  16.314 -1.0790 -1.2141  0.4205
 1148SOL    HW215081   1.039   1.986  16.310  0.9726  2.8742 -0.7826
 1149SOL     OW15082   2.073   2.470  15.535  0.3858 -0.1828  0.1985
 1149SOL    HW115083   2.149   2.413  15.540  1.1832  0.8778  0.1491
 1149SOL    HW215084   2.047   2.452  15.445 -1.8352  0.4580  0.6984
 1150SOL     OW15085   2.400   1.483  16.508 -0.3158  0.1775 -0.0543
 1150SOL    HW115086   2.402   1.388  16.518 -0.9032 -0.0254 -1.8933
 1150SOL    HW215087   2.324   1.504  16.454  0.2542  0.6886 -0.6734
 1151SOL     OW15088   3.251   1.538  12.500 -0.8558 -0.2933  0.0413
 1151SOL    HW115089   3.310   1.470  12.467 -2.2135 -0.6864 -1.5528
 1151SOL    HW215090   3.295   1.579  12.574  0.8782  0.3377 -1.3252
 1152SOL     OW15091   0.542   1.626   9.132 -0.0575  0.3923  0.0813
 1152SOL    HW115092   0.490   1.586   9.064  4.2555 -1.8420 -1.8901
 1152SOL    HW215093   0.630   1.593   9.113  0.0083  0.7331 -0.2078
 1153SOL     OW15094   1.082   2.624  15.148 -0.0282 -0.7378 -0.0678
 1153SOL    HW115095   1.132   2.584  15.076 -1.4523 -1.0157 -0.8850
 1153SOL    HW215096   1.150   2.684  15.179 -0.5950 -1.5899  2.8496
 1154SOL     OW15097   2.269   1.174   7.491 -0.3278  0.1997  0.3143
 1154SOL    HW115098   2.343   1.218   7.449 -0.9347 -0.0654 -1.0028
 1154SOL    HW215099   2.301   1.084   7.486 -2.5883 -0.5422 -0.6527
 1155SOL     OW15100   2.105   1.338   4.041 -0.2443  0.0850  0.4501
 1155SOL    HW115101   2.017   1.376   4.044 -0.6997 -0.8338 -0.9029
 1155SOL    HW215102   2.110   1.299   4.128  0.0054 -0.0173  0.3900
 1156SOL     OW15103   3.973   1.378  10.099  0.0342 -0.0368  0.2386
 1156SOL    HW115104   4.054   1.346  10.137 -0.6096 -1.6160  0.2706
 1156SOL    HW215105   3.906   1.367  10.167 -1.6020 -1.2429 -1.5519
 1157SOL     OW15106   0.982   4.161   2.255  0.3768 -0.4540  0.0467
 1157SOL    HW115107   1.034   4.117   2.187 -1.9493 -2.5928 -0.3265
 1157SOL    HW215108   1.055   4.162   2.317 -0.8483 -2.6706  1.5077
 1158SOL     OW15109   1.420   0.988   2.299  0.1335  0.0190 -0.4303
 1158SOL    HW115110   1.443   0.976   2.391  0.6862  0.3372 -0.5300
 1158SOL    HW215111   1.506   1.006   2.261  0.6442  0.1481  0.7574
 1159SOL     OW15112   2.715   4.187   6.516 -0.2367  0.2105 -0.1437
 1159SOL    HW115113   2.648   4.119   6.502  0.1475  0.0939 -1.3805
 1159SOL    HW215114   2.657   4.257   6.546  1.3071  0.8099  1.3763
 1160SOL     OW15115   2.341   2.376   4.480  0.3597  0.0375 -0.2639
 1160SOL    HW115116   2.365   2.310   4.545 -1.4398  1.0804  1.4677
 1160SOL    HW215117   2.321   2.323   4.403  1.8227 -1.0843  0.1373
 1161SOL     OW15118   4.289   0.366   0.529 -0.7850 -0.3960  0.3376
 1161SOL    HW115119   4.264   0.294   0.587 -0.5826  0.3814  1.4023
 1161SOL    HW215120   4.346   0.322   0.466 -0.5271  2.1321 -1.1577
 1162SOL     OW15121   2.171   4.260  11.043 -0.7791 -0.4597  0.4411
 1162SOL    HW115122   2.230   4.225  11.111  0.7035 -0.1954 -0.7150
 1162SOL    HW215123   2.162   4.346  11.086 -0.5818  0.8461 -2.1654
 1163SOL     OW15124   0.095   3.249   7.191 -0.4346 -0.2073 -0.4144
 1163SOL    HW115125   0.107   3.293   7.275 -0.4295 -1.0148  0.0050
 1163SOL    HW215126   4.740   3.245   7.183 -0.4513 -1.3985  0.4440
 1164SOL     OW15127   3.599   2.511  13.690  0.2907 -0.4639  0.2184
 1164SOL    HW115128   3.564   2.572  13.625  1.5415  0.0209  0.0023
 1164SOL    HW215129   3.596   2.422  13.655  0.4583 -1.0320  1.6548
 1165SOL     OW15130   3.371   3.751   2.149  0.3439  0.0182  0.3108
 1165SOL    HW115131   3.343   3.798   2.227 -1.8502 -2.0973  0.8163
 1165SOL    HW215132   3.411   3.674   2.191  2.8250  0.8767 -0.5035
 1166SOL     OW15133   3.719   3.845   6.409  0.2840  0.0497  0.2138
 1166SOL    HW115134   3.703   3.769   6.464 -0.5806 -0.6841 -1.0580
 1166SOL    HW215135   3.645   3.900   6.434  0.1637  1.1063 -2.4128
 1167SOL     OW15136   3.074   1.304   0.776  0.4041  0.0160  0.2464
 1167SOL    HW115137   3.096   1.385   0.730  0.6071 -0.3402 -0.2986
 1167SOL    HW215138   3.135   1.243   0.732 -0.8535  1.3466 -3.3814
 1168SOL     OW15139   1.434   0.385   2.800 -0.2924 -0.3535 -0.3349
 1168SOL    HW115140   1.382   0.414   2.725 -0.4652  0.6381  0.1654
 1168SOL    HW215141   1.494   0.314   2.777 -0.6846 -0.6221 -0.5230
 1169SOL     OW15142   3.046   3.062   2.642 -0.3274 -0.9196 -0.9431
 1169SOL    HW115143   3.106   2.998   2.602  1.0257 -0.2465 -0.0147
 1169SOL    HW215144   3.102   3.135   2.614 -0.3829  0.6405  2.9941
 1170SOL     OW15145   3.760   0.928   7.461 -0.0078 -0.5578  0.1480
 1170SOL    HW115146   3.685   0.869   7.446 -0.4508  0.6144 -2.3421
 1170SOL    HW215147   3.773   0.968   7.375  2.4203  0.9439  1.2020
 1171SOL     OW15148   3.928   1.874   5.770  0.2862 -0.0299  0.7948
 1171SOL    HW115149   4.010   1.878   5.722  0.0309  2.8465  0.5872
 1171SOL    HW215150   3.956   1.910   5.854 -0.2034 -1.5679  1.6249
 1172SOL     OW15151   2.844   3.094   5.374 -0.1908  0.0564  0.7750
 1172SOL    HW115152   2.840   3.003   5.403  0.1663 -0.5051 -0.9255
 1172SOL    HW215153   2.908   3.101   5.303  0.3586  2.0864  1.4614
 1173SOL     OW15154   0.861   1.151   2.204 -0.3177 -0.3241 -0.0122
 1173SOL    HW115155   0.888   1.171   2.114 -0.9477  2.5418  0.4364
 1173SOL    HW215156   0.772   1.186   2.208 -0.6829 -1.2135 -0.3598
 1174SOL     OW15157   0.900   4.114   7.703 -0.0493  0.3205 -0.0862
 1174SOL    HW115158   0.902   4.083   7.613 -0.9968 -0.0323  0.0090
 1174SOL    HW215159   0.811   4.150   7.705 -0.4775 -0.6762 -0.9272
 1175SOL     OW15160   0.681   1.999   3.410 -0.7517 -0.2664  0.6107
 1175SOL    HW115161   0.709   2.038   3.327 -1.1427 -1.0049  0.1267
 1175SOL    HW215162   0.660   2.081   3.456 -0.7203 -1.0258  1.9785
 1176SOL     OW15163   4.218   2.308  17.365 -0.4733 -0.1489 -0.6592
 1176SOL    HW115164   4.202   2.238  17.428  0.4940 -0.1944 -0.4587
 1176SOL    HW215165   4.160   2.279  17.295  0.2386  0.9588 -1.7122
 1177SOL     OW15166   3.127   4.108   4.995 -0.0089 -0.0169  0.5101
 1177SOL    HW115167   3.198   4.124   5.056  0.2466 -3.3767  1.0834
 1177SOL    HW215168   3.150   4.176   4.932 -2.5845  0.7898  0.4346
 1178SOL     OW15169   0.869   2.318  12.311 -0.1277  0.1832  0.2813
 1178SOL    HW115170   0.946   2.324  12.254 -0.9698 -0.1534 -0.8923
 1178SOL    HW215171   0.866   2.402  12.356  1.6171  0.5659 -0.3486
 1179SOL     OW15172   3.393   3.413   9.565 -0.4938  0.4361 -0.3890
 1179SOL    HW115173   3.409   3.422   9.471  0.2410 -3.9683 -0.6708
 1179SOL    HW215174   3.381   3.319   9.567 -0.2755  0.3576 -2.5900
 1180SOL     OW15175   1.753   0.896   7.498 -0.1802  0.2101 -0.0659
 1180SOL    HW115176   1.781   0.932   7.413  1.9990 -0.5138  0.3562
 1180SOL    HW215177   1.825   0.914   7.557 -1.6968  1.2023  1.4904
 1181SOL     OW15178   1.318   1.693   5.628 -0.0620  0.5031  0.4720
 1181SOL    HW115179   1.231   1.665   5.656 -0.2694 -1.9642 -2.5657
 1181SOL    HW215180   1.309   1.683   5.533 -0.3147 -0.6584  0.6150
 1182SOL     OW15181   3.990   3.351   7.141  0.0682  0.4945  0.1348
 1182SOL    HW115182   4.016   3.443   7.139 -0.3114  0.5881 -0.4250
 1182SOL    HW215183   4.055   3.326   7.207 -1.3239 -4.4489 -0.3916
 1183SOL     OW15184   1.467   1.472   8.802 -0.2676  0.1685  0.4569
 1183SOL    HW115185   1.552   1.433   8.784 -0.4483 -0.9098  1.9751
 1183SOL    HW215186   1.410   1.438   8.732  1.5628 -2.1959  0.1163
 1184SOL     OW15187   2.731   1.961  11.932 -0.0395 -0.2739  0.0407
 1184SOL    HW115188   2.815   2.002  11.950 -0.2264 -0.6743  1.8246
 1184SOL    HW215189   2.738   1.943  11.838 -0.0494  1.7174 -0.3309
 1185SOL     OW15190   2.815   2.184   9.500 -0.5308 -0.1281  0.1341
 1185SOL    HW115191   2.734   2.173   9.550  0.7982  1.6278  2.6696
 1185SOL    HW215192   2.853   2.255   9.552 -1.1278  0.3825 -0.1383
 1186SOL     OW15193   1.526   2.711   3.959  0.6880 -0.7285  0.2400
 1186SOL    HW115194   1.541   2.659   4.038  0.3464 -1.6658 -0.3129
 1186SOL    HW215195   1.538   2.804   3.978 -1.3850 -0.1957 -1.1302
 1187SOL     OW15196   0.433   3.136   1.678 -0.1119 -0.2264 -0.2047
 1187SOL    HW115197   0.338   3.144   1.668 -0.6154 -1.2693  3.4801
 1187SOL    HW215198   0.453   3.223   1.712  3.0796 -1.2956  0.6794
 1188SOL     OW15199   2.903   3.521  16.052 -0.1229 -0.6687 -0.6045
 1188SOL    HW115200   2.923   3.522  15.958  1.3893 -1.4041 -0.2982
 1188SOL    HW215201   2.969   3.582  16.085 -0.3077 -1.0225  0.4092
 1189SOL     OW15202   1.096   1.451   3.289 -0.1032 -0.1459 -0.7307
 1189SOL    HW115203   1.013   1.480   3.326 -0.7014  1.4874 -3.3768
 1189SOL    HW215204   1.140   1.536   3.279 -0.0390 -0.1577 -0.5563
 1190SOL     OW15205   2.995   1.769   1.301 -0.1145 -0.3758 -0.2168
 1190SOL    HW115206   2.942   1.848   1.291 -0.1182 -0.4173 -0.5235
 1190SOL    HW215207   3.005   1.739   1.211 -1.3139  0.0913 -0.5047
 1191SOL     OW15208   2.233   1.920   6.152  0.3305 -0.6102 -0.0940
 1191SOL    HW115209   2.324   1.899   6.132  0.6767 -0.6339  1.5008
 1191SOL    HW215210   2.221   1.985   6.083 -0.4793 -2.4471 -1.6827
 1192SOL     OW15211   3.248   2.611  17.442  0.4708 -0.3778  0.1689
 1192SOL    HW115212   3.176   2.549  17.433  0.1712 -0.0215  0.0937
 1192SOL    HW215213   3.262   2.605  17.537  2.2634  0.7449 -0.0300
 1193SOL     OW15214   0.252   4.323  10.979  0.7401  0.1754 -0.4354
 1193SOL    HW115215   0.160   4.299  10.967  0.9063 -1.2552  1.0790
 1193SOL    HW215216   0.228   4.395  11.037 -0.1826 -0.7514  0.3587
 1194SOL     OW15217   4.021   3.253   8.383  0.2539  0.5715 -0.4243
 1194SOL    HW115218   3.983   3.179   8.430 -2.1067  0.9412 -1.7316
 1194SOL    HW215219   4.109   3.242   8.419  0.9844  0.7741 -2.1655
 1195SOL     OW15220   3.700   3.359   3.600  0.2021  0.1440 -0.1095
 1195SOL    HW115221   3.689   3.267   3.626  1.6882  0.7670  2.7246
 1195SOL    HW215222   3.663   3.344   3.513 -0.2569 -1.4913  0.3608
 1196SOL     OW15223   1.231   4.732  15.959 -0.0870 -0.4368 -0.1489
 1196SOL    HW115224   1.313   0.017  15.917  0.4163 -1.1447  0.4042
 1196SOL    HW215225   1.229   0.066  16.020  0.0563  0.1573 -0.8727
 1197SOL     OW15226   3.905   0.128   6.254 -0.5393  0.4238 -0.3987
 1197SOL    HW115227   3.995   0.098   6.239 -0.4858 -0.1843  1.0882
 1197SOL    HW215228   3.863   0.042   6.253  1.2501 -0.4792  0.7682
 1198SOL     OW15229   3.672   4.658   9.817 -0.0217  0.0923 -0.2307
 1198SOL    HW115230   3.583   4.676   9.847  1.3683  2.5969  2.3756
 1198SOL    HW215231   3.650   4.598   9.745  0.6168 -0.3644 -0.0460
 1199SOL     OW15232   2.738   1.665   8.334 -0.0144  0.6564  0.6969
 1199SOL    HW115233   2.688   1.584   8.342  1.4620 -0.3839 -0.5956
 1199SOL    HW215234   2.759   1.692   8.423  1.6214 -0.3753  0.6296
 1200SOL     OW15235   4.163   3.303   8.968  0.1855  0.5767 -0.1288
 1200SOL    HW115236   4.174   3.209   8.979  0.5371  0.3273 -2.6254
 1200SOL    HW215237   4.118   3.301   8.884  2.0659 -0.6946 -1.1157
 1201SOL     OW15238   4.448   0.685   6.855  0.4133  0.0561  0.2296
 1201SOL    HW115239   4.371   0.631   6.837 -1.2366  2.6018 -0.5156
 1201SOL    HW215240   4.489   0.683   6.768  0.5573 -2.6998  0.3581
 1202SOL     OW15241   0.175   0.739   1.817 -0.8110  0.6509 -0.0954
 1202SOL    HW115242   0.176   0.713   1.909 -0.0367  0.3408 -0.1894
 1202SOL    HW215243   0.256   0.694   1.793 -3.9842 -3.0795 -3.6036
 1203SOL     OW15244   1.424   1.413  13.312  0.0853 -0.4190 -0.2614
 1203SOL    HW115245   1.332   1.437  13.298  0.3883  1.2979  0.6384
 1203SOL    HW215246   1.469   1.423  13.228  1.3302  1.0368  0.5862
 1204SOL     OW15247   4.714   1.250  15.110  0.2508 -0.4344  0.0148
 1204SOL    HW115248   0.016   1.185  15.053  0.2939  0.7815 -1.3315
 1204SOL    HW215249   4.655   1.196  15.163  0.2216  0.3006  0.7271
 1205SOL     OW15250   0.001   1.263   2.785 -0.2430  0.0903  0.4189
 1205SOL    HW115251   0.091   1.262   2.755 -0.4109 -0.6953 -0.0705
 1205SOL    HW215252   4.719   1.183   2.737  0.3239  1.6973 -2.4941
 1206SOL     OW15253   0.543   3.000   7.737  0.2962  0.5289 -0.2525
 1206SOL    HW115254   0.635   2.976   7.751  0.7141  2.4268  0.1552
 1206SOL    HW215255   0.546   3.085   7.693  2.3677 -0.2063 -1.5035
 1207SOL     OW15256   2.554   3.792   3.126  0.5313 -0.2394  0.1995
 1207SOL    HW115257   2.575   3.744   3.206 -3.0486 -0.6705  0.8608
 1207SOL    HW215258   2.475   3.834   3.159  0.7701  1.3616 -1.2790
 1208SOL     OW15259   0.062   3.817   5.825 -0.3561 -0.0505 -0.0672
 1208SOL    HW115260   0.003   3.890   5.804 -0.6792 -0.8726 -1.9803
 1208SOL    HW215261   0.004   3.745   5.801 -0.8438  0.4505 -0.3877
 1209SOL     OW15262   3.337   1.636   2.536 -0.5552 -0.8440 -0.0533
 1209SOL    HW115263   3.345   1.710   2.476  2.0876 -1.1602 -0.1088
 1209SOL    HW215264   3.382   1.570   2.483 -1.1533 -0.1940 -1.3593
 1210SOL     OW15265   0.127   3.419   4.270  0.3316  0.0123  0.6603
 1210SOL    HW115266   0.161   3.508   4.275  0.7972 -0.1635  0.6222
 1210SOL    HW215267   0.033   3.437   4.265  0.0519 -1.7582 -0.4575
 1211SOL     OW15268   3.613   4.455   2.917  0.3096  0.1469 -0.0822
 1211SOL    HW115269   3.676   4.493   2.978 -0.8447  0.4109  0.9426
 1211SOL    HW215270   3.571   4.534   2.884  0.8723 -0.1529 -1.5198
 1212SOL     OW15271   0.032   0.360   5.320 -0.2014  0.2850  0.4662
 1212SOL    HW115272   0.013   0.317   5.404  0.5684 -0.4394  0.2692
 1212SOL    HW215273   4.703   0.321   5.266  1.1431 -1.2115 -0.1748
 1213SOL     OW15274   0.661   4.615  12.947 -0.1874 -0.0608  0.2829
 1213SOL    HW115275   0.713   4.556  13.001  1.5230  2.0323  0.9389
 1213SOL    HW215276   0.626   4.672  13.016 -0.8278 -0.3707  0.2159
 1214SOL     OW15277   1.422   1.820   2.575 -0.4250  0.6691  0.0495
 1214SOL    HW115278   1.440   1.911   2.601 -0.3337  0.3783  0.9789
 1214SOL    HW215279   1.326   1.817   2.567 -0.3474  0.1347 -0.7341
 1215SOL     OW15280   0.852   1.834   4.637  0.0872 -0.2722  0.1684
 1215SOL    HW115281   0.772   1.885   4.653  1.6840  2.4569 -0.5583
 1215SOL    HW215282   0.909   1.900   4.598 -0.5127  0.3027  0.2581
 1216SOL     OW15283   1.851   4.541   9.482 -0.0734 -0.3887 -0.0980
 1216SOL    HW115284   1.755   4.535   9.484 -0.1725  1.5514  0.8019
 1216SOL    HW215285   1.864   4.602   9.554 -0.7969 -0.8297  0.4073
 1217SOL     OW15286   2.428   4.460   9.486 -0.6948  0.3707  0.4601
 1217SOL    HW115287   2.416   4.435   9.395 -0.2793  0.4379  0.3847
 1217SOL    HW215288   2.354   4.519   9.498  1.0763  2.7451 -0.1422
 1218SOL     OW15289   4.029   4.670   0.235  0.7930 -0.4040 -0.2109
 1218SOL    HW115290   4.084   4.593   0.254  1.9211  0.6069  0.6667
 1218SOL    HW215291   4.094   4.738   0.216  2.5777 -1.1545  3.1964
 1219SOL     OW15292   1.849   2.139   7.943 -0.2336 -0.5032  0.6495
 1219SOL    HW115293   1.781   2.088   7.899  0.8611 -0.8001 -0.6692
 1219SOL    HW215294   1.831   2.230   7.919 -1.6747 -1.2331 -1.0373
 1220SOL     OW15295   1.562   1.510  16.863  0.0656 -0.0848  0.5626
 1220SOL    HW115296   1.571   1.557  16.946  0.9382  1.2700 -0.2966
 1220SOL    HW215297   1.568   1.423  16.902 -0.0478 -1.1488 -1.7797
 1221SOL     OW15298   0.292   0.815   7.402  0.5341 -0.0310  0.5113
 1221SOL    HW115299   0.208   0.856   7.421 -0.9682 -2.1903 -1.5221
 1221SOL    HW215300   0.344   0.886   7.366  0.5105  0.7134  1.9464
 1222SOL     OW15301   0.190   3.977   8.660 -0.2029  0.1881 -0.1931
 1222SOL    HW115302   0.148   3.974   8.746 -0.1600 -3.0733 -0.2867
 1222SOL    HW215303   0.271   4.024   8.679  0.0037 -0.1810 -0.1697
 1223SOL     OW15304   0.951   0.845   4.918  0.1385  0.4127  0.3694
 1223SOL    HW115305   0.892   0.914   4.949 -0.9754  0.3461 -1.5668
 1223SOL    HW215306   0.954   0.888   4.832 -1.4188  0.5173  0.3698
 1224SOL     OW15307   3.147   0.139   7.267  0.1421  0.0103  0.0193
 1224SOL    HW115308   3.072   0.160   7.323  0.5914  2.6033 -0.3413
 1224SOL    HW215309   3.101   0.131   7.184  3.4296  1.0253 -1.8875
 1225SOL     OW15310   3.366   1.935   3.883 -0.9446 -0.0968 -0.7080
 1225SOL    HW115311   3.297   2.000   3.899  1.7827  2.2657  1.4544
 1225SOL    HW215312   3.315   1.860   3.853  1.7465 -2.0496 -0.3331
 1226SOL     OW15313   1.409   2.783  11.813  0.1698  0.0141 -0.4046
 1226SOL    HW115314   1.394   2.876  11.793  2.1248 -0.2517 -3.1057
 1226SOL    HW215315   1.505   2.778  11.812  0.2002  0.6662 -0.6949
 1227SOL     OW15316   0.396   4.610   2.546 -0.0195 -0.0935 -0.4548
 1227SOL    HW115317   0.475   4.588   2.496  0.0826 -0.4853 -0.1225
 1227SOL    HW215318   0.330   4.618   2.477 -0.2515 -0.0864 -0.2320
 1228SOL     OW15319   1.560   0.335  15.996  1.0550 -0.1130 -0.5151
 1228SOL    HW115320   1.569   0.402  15.929 -3.3798  1.0191  0.0346
 1228SOL    HW215321   1.634   0.335  16.057  0.7071  0.5050 -0.0889
 1229SOL     OW15322   0.551   4.690   4.323 -0.0768 -0.2204 -0.6717
 1229SOL    HW115323   0.610   4.639   4.379 -0.3460  0.2054 -0.0056
 1229SOL    HW215324   0.481   4.710   4.386  1.0257 -0.8891  0.7622
 1230SOL     OW15325   3.023   0.389   4.240 -0.0871  0.3375 -0.1326
 1230SOL    HW115326   2.971   0.430   4.171  0.8728 -0.1406 -1.1260
 1230SOL    HW215327   3.046   0.455   4.305  1.4507 -1.2928  0.9796
 1231SOL     OW15328   2.091   3.026   8.382  0.1361 -0.2127  0.2237
 1231SOL    HW115329   2.076   2.935   8.409  2.6002 -0.2811  1.4039
 1231SOL    HW215330   2.158   3.010   8.315  0.6722 -3.0702  1.4210
 1232SOL     OW15331   0.988   1.171   5.361 -0.3227 -0.3302 -0.1473
 1232SOL    HW115332   1.067   1.159   5.413  0.3645 -1.6975 -1.5514
 1232SOL    HW215333   0.991   1.102   5.296  0.3191  1.8190 -2.3854
 1233SOL     OW15334   3.722   0.841  17.129  0.5121  0.4286  0.4446
 1233SOL    HW115335   3.674   0.853  17.047  1.8969  0.8877 -0.2901
 1233SOL    HW215336   3.799   0.896  17.116 -0.2616  0.6963 -3.2204
 1234SOL     OW15337   0.400   1.616   5.913  0.3510 -0.3352  0.0132
 1234SOL    HW115338   0.314   1.622   5.873 -0.9064  0.0866  2.8123
 1234SOL    HW215339   0.374   1.609   6.005 -0.3192  0.5874 -0.1057
 1235SOL     OW15340   0.132   1.822   8.424 -0.0666  0.0106 -1.0847
 1235SOL    HW115341   0.061   1.759   8.416 -1.7462  1.9941 -1.7425
 1235SOL    HW215342   0.114   1.868   8.342 -0.4287 -1.5368 -1.8622
 1236SOL     OW15343   2.030   2.296  12.480 -0.0007  0.2077 -0.0078
 1236SOL    HW115344   2.075   2.333  12.404 -0.5417 -1.2333 -1.0508
 1236SOL    HW215345   2.062   2.355  12.547  0.1203 -0.1916  0.2858
 1237SOL     OW15346   3.074   2.631   4.728 -0.3916 -0.6584 -0.0197
 1237SOL    HW115347   3.117   2.660   4.648 -0.1911  1.3951  0.8207
 1237SOL    HW215348   2.989   2.675   4.725 -0.8053 -1.6238 -2.2275
 1238SOL     OW15349   3.248   1.841   9.107 -1.1881  0.4551  0.6583
 1238SOL    HW115350   3.181   1.774   9.093 -0.6372  0.3626 -1.6887
 1238SOL    HW215351   3.267   1.822   9.199 -0.5210 -2.6028 -0.1000
 1239SOL     OW15352   1.301   1.898   7.526  0.3524 -0.0983 -0.2846
 1239SOL    HW115353   1.325   1.858   7.610 -1.7452 -2.2922 -0.7200
 1239SOL    HW215354   1.207   1.878   7.525  0.1531  0.8923 -0.8852
 1240SOL     OW15355   1.045   4.514  10.365 -0.3793  0.0800  0.8785
 1240SOL    HW115356   1.078   4.448  10.426  0.0393 -0.4331  0.0918
 1240SOL    HW215357   1.098   4.510  10.286  0.4667 -1.5363  1.5201
 1241SOL     OW15358   1.461   1.700   5.064  0.0205  0.2400 -0.0717
 1241SOL    HW115359   1.405   1.625   5.045 -0.1126  0.4302 -0.4270
 1241SOL    HW215360   1.541   1.648   5.075  0.0229  0.2134 -0.2216
 1242SOL     OW15361   4.738   1.630  16.980  0.0528 -0.1921  0.0507
 1242SOL    HW115362   4.738   1.565  17.050 -3.2927 -0.2187  0.0041
 1242SOL    HW215363   0.066   1.596  16.921  0.9782 -0.0069  1.0091
 1243SOL     OW15364   0.961   2.724   6.083  0.3043  0.0817  0.0311
 1243SOL    HW115365   1.002   2.665   6.019  1.1607  0.4846  0.2041
 1243SOL    HW215366   0.868   2.712   6.066  0.5652  2.4754 -3.1007
 1244SOL     OW15367   2.504   3.132   2.487 -0.8989 -0.0268 -0.3918
 1244SOL    HW115368   2.580   3.081   2.516 -0.1279  1.3885  0.0975
 1244SOL    HW215369   2.480   3.079   2.411 -2.2418 -2.3148  1.6268
 1245SOL     OW15370   1.602   3.732  14.219  0.3714  0.5224  0.2445
 1245SOL    HW115371   1.591   3.770  14.132 -1.5411  1.0939  0.7308
 1245SOL    HW215372   1.579   3.805  14.277 -0.2749  0.2853  0.2896
 1246SOL     OW15373   2.010   0.554   2.523 -0.0991 -0.3041  0.1379
 1246SOL    HW115374   2.083   0.499   2.549 -1.1948 -0.7107  2.3074
 1246SOL    HW215375   2.003   0.603   2.605 -2.7376  1.5931 -1.1962
 1247SOL     OW15376   4.114   3.684   7.451  0.1653  0.4436  0.0069
 1247SOL    HW115377   4.063   3.618   7.405  0.1467 -1.8336  3.2977
 1247SOL    HW215378   4.185   3.631   7.486 -0.3660  0.3650  0.9835
 1248SOL     OW15379   4.216   4.185   9.447 -0.1127 -0.3132  0.0272
 1248SOL    HW115380   4.173   4.150   9.369  0.2690 -1.5803  0.3896
 1248SOL    HW215381   4.201   4.110   9.504 -0.9979 -1.3797 -1.6068
 1249SOL     OW15382   3.942   1.863  11.184  0.6162  0.3258  0.5881
 1249SOL    HW115383   3.860   1.912  11.197  0.1065 -0.5510  0.6480
 1249SOL    HW215384   4.011   1.930  11.184  2.1198 -1.2262 -0.1322
 1250SOL     OW15385   3.957   2.322   6.040  0.4968  0.4012 -0.2483
 1250SOL    HW115386   3.996   2.354   6.122 -1.9581  1.2594  0.6048
 1250SOL    HW215387   3.930   2.400   5.992  0.5247  1.0075  0.7149
 1251SOL     OW15388   1.676   2.132  13.357  0.1379  0.1493  0.1920
 1251SOL    HW115389   1.596   2.078  13.358 -0.6768  1.3463 -1.7500
 1251SOL    HW215390   1.651   2.190  13.429 -0.7007  1.0910 -0.8625
 1252SOL     OW15391   0.374   0.293   8.193  0.0612  0.0369 -0.2346
 1252SOL    HW115392   0.435   0.366   8.198 -2.2713  2.0460 -1.4468
 1252SOL    HW215393   0.331   0.314   8.110 -0.1055 -2.1454 -0.7144
 1253SOL     OW15394   0.593   0.732   9.200 -0.5393 -0.3579 -0.3612
 1253SOL    HW115395   0.655   0.744   9.128 -0.7844  0.3486 -0.4561
 1253SOL    HW215396   0.562   0.819   9.224  0.1252  0.1087 -1.1875
 1254SOL     OW15397   4.633   0.501   1.197  0.0401 -0.1676  0.5695
 1254SOL    HW115398   4.671   0.503   1.109 -0.9531  1.1769  0.1719
 1254SOL    HW215399   4.638   0.406   1.203 -1.2027 -0.3977 -1.9944
 1255SOL     OW15400   2.962   3.943   5.728  0.2059 -0.1428  0.0591
 1255SOL    HW115401   2.887   3.976   5.678 -0.2921 -0.0454  0.8759
 1255SOL    HW215402   2.987   3.859   5.690  0.8920  0.6018 -1.1276
 1256SOL     OW15403   0.001   2.869   4.113  0.1278 -0.3429 -0.2016
 1256SOL    HW115404   0.048   2.923   4.049  2.1458 -0.9716  0.7283
 1256SOL    HW215405   4.650   2.893   4.097  1.1041  3.0050 -0.6565
 1257SOL     OW15406   1.047   0.213  14.735  0.7788  0.3276  0.4396
 1257SOL    HW115407   1.056   0.309  14.734  1.1818  0.2895  0.4084
 1257SOL    HW215408   1.050   0.192  14.828  0.4641 -1.3804  0.0643
 1258SOL     OW15409   2.104   2.185  10.091 -0.2347  0.1424 -0.4021
 1258SOL    HW115410   2.106   2.123  10.163 -1.0527  1.2336  0.5605
 1258SOL    HW215411   2.195   2.206  10.070  0.1160 -1.1978 -0.2080
 1259SOL     OW15412   2.849   0.537  17.477  0.3688 -0.2940  0.5117
 1259SOL    HW115413   2.906   0.549  17.401  1.4502  0.9399  1.5295
 1259SOL    HW215414   2.819   0.449  17.454 -0.4146 -0.2519  1.3702
 1260SOL     OW15415   0.861   4.428   5.036  0.2156 -0.3016 -0.3239
 1260SOL    HW115416   0.811   4.422   5.117  1.5250 -0.9561  0.4203
 1260SOL    HW215417   0.943   4.387   5.062  0.8272  0.2995 -1.3095
 1261SOL     OW15418   2.111   1.482  11.948  0.2906 -0.2407  0.2271
 1261SOL    HW115419   2.119   1.546  11.878  0.8665 -2.6161 -1.8995
 1261SOL    HW215420   2.065   1.525  12.021  0.9221  1.9231 -0.6600
 1262SOL     OW15421   3.266   2.036   9.724 -0.3691  0.3344 -0.6098
 1262SOL    HW115422   3.358   2.062   9.712 -0.1507  1.1704  2.8381
 1262SOL    HW215423   3.272   1.941   9.741 -1.0470  0.8093  2.2947
 1263SOL     OW15424   1.328   0.961   7.830  0.1834 -0.0245  0.2661
 1263SOL    HW115425   1.361   0.899   7.895 -1.2566 -0.5051  0.5439
 1263SOL    HW215426   1.338   1.047   7.870  1.8975  0.5097 -1.2996
 1264SOL     OW15427   1.305   0.268  16.624 -0.1089 -0.1385  0.2042
 1264SOL    HW115428   1.239   0.276  16.693 -0.4223  0.3937 -0.1551
 1264SOL    HW215429   1.300   0.175  16.606  0.6641  0.2504 -2.0565
 1265SOL     OW15430   3.449   3.339   3.096 -0.3406 -0.9153 -0.2723
 1265SOL    HW115431   3.384   3.278   3.063 -0.0995 -0.6449 -1.2236
 1265SOL    HW215432   3.498   3.369   3.020 -1.2893 -0.7259 -0.8046
 1266SOL     OW15433   1.950   2.093  12.324 -0.3160  0.4497 -0.1722
 1266SOL    HW115434   1.908   2.148  12.257 -0.0465 -1.7058 -2.1066
 1266SOL    HW215435   1.952   2.158  12.395  2.0067 -0.9868  1.0473
 1267SOL     OW15436   3.124   2.311   4.423  0.8860 -0.0950 -0.2544
 1267SOL    HW115437   3.144   2.218   4.426 -1.4125 -0.5011  2.3497
 1267SOL    HW215438   3.170   2.335   4.342 -1.3867  2.0719 -0.9041
 1268SOL     OW15439   0.661   0.431  17.575 -0.2298 -0.4312 -0.1633
 1268SOL    HW115440   0.585   0.374  17.590 -1.4659  1.3865  0.4481
 1268SOL    HW215441   0.640   0.485  17.500  2.0187  2.6187  1.3979
 1269SOL     OW15442   2.933   0.833   5.832  0.0232 -0.3658 -0.0191
 1269SOL    HW115443   2.858   0.809   5.886  0.7587 -1.5134  0.5161
 1269SOL    HW215444   3.005   0.795   5.884 -0.5006 -0.9222  0.2911
 1270SOL     OW15445   3.744   1.030   5.697 -0.0073 -0.6293  0.2486
 1270SOL    HW115446   3.811   1.096   5.714 -0.4791  0.3570 -1.7049
 1270SOL    HW215447   3.679   1.063   5.760 -1.6156  0.0167 -1.7410
 1271SOL     OW15448   1.267   3.710   5.165  0.4965 -0.3705 -0.2711
 1271SOL    HW115449   1.273   3.648   5.238  1.0575 -1.3382 -1.1506
 1271SOL    HW215450   1.358   3.705   5.136  1.0425  0.6933  1.2025
 1272SOL     OW15451   3.724   4.189   7.774  0.1943 -0.1918 -0.4929
 1272SOL    HW115452   3.749   4.125   7.707  1.0544  0.2384 -0.5804
 1272SOL    HW215453   3.651   4.230   7.727 -0.4654 -0.2573  0.4708
 1273SOL     OW15454   0.770   2.245   6.819 -0.3610  0.2078 -0.1270
 1273SOL    HW115455   0.824   2.314   6.858 -0.3670  0.6279 -0.8596
 1273SOL    HW215456   0.692   2.267   6.871 -1.1762 -0.0563 -1.2466
 1274SOL     OW15457   0.148   4.586   4.535 -0.0654 -0.3332  0.2225
 1274SOL    HW115458   0.106   4.500   4.540  0.9153 -0.7499  1.2382
 1274SOL    HW215459   0.100   4.630   4.605  0.2641 -0.3537  0.4594
 1275SOL     OW15460   3.367   1.358   4.411 -0.1767  0.2397  1.0840
 1275SOL    HW115461   3.347   1.433   4.356 -0.8756 -1.2558 -0.6941
 1275SOL    HW215462   3.445   1.321   4.369 -0.4718 -0.7190  1.3633
 1276SOL     OW15463   0.298   1.606   6.733 -0.4551  0.5119  0.7745
 1276SOL    HW115464   0.337   1.555   6.804 -2.2050 -1.8572  0.0615
 1276SOL    HW215465   0.263   1.681   6.781 -0.2688  1.9516 -1.3453
 1277SOL     OW15466   2.989   0.631  15.479  0.8950  0.4394 -0.4922
 1277SOL    HW115467   3.075   0.635  15.520  0.6792  0.0451  0.0012
 1277SOL    HW215468   2.939   0.558  15.515  0.1285 -0.0060 -2.4512
 1278SOL     OW15469   4.453   0.289   6.621  0.1549  0.5792  0.1154
 1278SOL    HW115470   4.463   0.372   6.574  1.0329  0.8652  0.8032
 1278SOL    HW215471   4.470   0.313   6.713 -2.0266  1.7104  0.2145
 1279SOL     OW15472   2.938   4.635   8.069  0.4597  0.4521  0.4009
 1279SOL    HW115473   2.916   4.728   8.063 -0.3056  0.2999  0.9112
 1279SOL    HW215474   3.032   4.653   8.074  0.7654 -0.9876 -0.2120
 1280SOL     OW15475   3.798   0.027   4.413  0.1303  0.1512 -0.2233
 1280SOL    HW115476   3.791   4.702   4.483 -0.2744  0.4316 -0.0054
 1280SOL    HW215477   3.716   0.018   4.365 -0.7706 -2.8360  1.8417
 1281SOL     OW15478   2.679   4.410   9.650  0.1429 -0.2217 -0.0830
 1281SOL    HW115479   2.628   4.370   9.580 -0.4990  0.2941  0.0939
 1281SOL    HW215480   2.681   4.332   9.706 -0.7875  0.5860  1.0688
 1282SOL     OW15481   4.496   4.613   2.833 -0.1027 -0.0334  0.8265
 1282SOL    HW115482   4.550   4.579   2.761 -0.1526 -0.0061  0.7756
 1282SOL    HW215483   4.445   4.538   2.863  1.2686 -1.4293 -0.3907
 1283SOL     OW15484   2.296   1.330   0.146 -0.1613 -0.3629  0.7253
 1283SOL    HW115485   2.247   1.405   0.112  0.7281  0.0032  0.2261
 1283SOL    HW215486   2.357   1.380   0.200 -2.6328 -0.0477  3.2012
 1284SOL     OW15487   3.235   1.481   5.262  0.1176 -0.3937 -0.1175
 1284SOL    HW115488   3.293   1.547   5.224 -1.4515  1.9150  1.4901
 1284SOL    HW215489   3.228   1.417   5.191 -3.7523 -0.1684  0.0204
 1285SOL     OW15490   0.447   4.302   2.802 -0.0340 -0.2691 -0.2229
 1285SOL    HW115491   0.433   4.281   2.894  2.7711  0.3328  0.3343
 1285SOL    HW215492   0.496   4.384   2.809 -0.5589 -0.0984  1.4652
 1286SOL     OW15493   0.760   0.616   9.397  0.2127  0.3641  0.3128
 1286SOL    HW115494   0.749   0.533   9.350 -0.1399  1.1763 -1.0243
 1286SOL    HW215495   0.724   0.679   9.336  0.6059 -1.2067 -1.5479
 1287SOL     OW15496   3.673   1.011  12.508 -0.0793 -0.2759 -0.1287
 1287SOL    HW115497   3.670   1.092  12.559 -1.9994  0.5009 -1.4597
 1287SOL    HW215498   3.751   0.967  12.541  0.3476  1.7071  1.5715
 1288SOL     OW15499   3.987   0.463   0.927 -0.7031  0.3138  0.1253
 1288SOL    HW115500   3.954   0.407   0.856  0.0988 -1.1384  0.8969
 1288SOL    HW215501   4.077   0.431   0.936  0.1475  2.8528  0.4887
 1289SOL     OW15502   2.096   3.399  12.958  0.2593  0.2852 -0.3001
 1289SOL    HW115503   2.135   3.486  12.952  0.3558  0.3410  1.1829
 1289SOL    HW215504   2.128   3.359  12.877  2.3608 -0.5005  0.9297
 1290SOL     OW15505   3.451   1.829  13.027  0.2838 -0.0261 -0.2441
 1290SOL    HW115506   3.357   1.815  13.016 -0.1554  3.0159 -0.3965
 1290SOL    HW215507   3.502   1.777  12.965 -0.0669  0.1695 -0.7019
 1291SOL     OW15508   3.209   2.326   4.722  0.2531  0.0214  0.1760
 1291SOL    HW115509   3.186   2.329   4.628 -1.5824  1.2183  0.6514
 1291SOL    HW215510   3.274   2.396   4.726 -1.0606  1.2978 -0.5435
 1292SOL     OW15511   2.452   1.460   5.697  0.7112  0.0576  0.5212
 1292SOL    HW115512   2.537   1.437   5.659  0.5800  0.5682 -0.0768
 1292SOL    HW215513   2.407   1.491   5.618 -0.3910  0.1125  1.1728
 1293SOL     OW15514   0.983   1.510   7.903  0.0066  0.0213 -0.4403
 1293SOL    HW115515   1.049   1.471   7.846 -1.9294 -2.0107 -1.3051
 1293SOL    HW215516   1.026   1.595   7.913 -1.4329  0.9764 -2.2728
 1294SOL     OW15517   2.207   2.293   1.960 -0.1836  0.3073 -0.3246
 1294SOL    HW115518   2.137   2.350   1.994  0.4338 -0.4487  2.2068
 1294SOL    HW215519   2.243   2.347   1.890  1.0768 -1.7469 -1.2509
 1295SOL     OW15520   1.766   3.471   8.239 -0.2221 -0.5323 -0.3033
 1295SOL    HW115521   1.720   3.481   8.156 -1.3374 -1.2489  0.2372
 1295SOL    HW215522   1.816   3.390   8.228  2.9196  1.0194  2.3166
 1296SOL     OW15523   0.075   1.926  10.881  0.2365 -0.1889  0.1404
 1296SOL    HW115524   0.039   1.898  10.965  0.3427 -1.4587 -0.2333
 1296SOL    HW215525   0.066   2.021  10.881 -2.1240 -0.4043 -1.5629
 1297SOL     OW15526   2.866   0.017   2.269 -0.2094  0.4757  0.6944
 1297SOL    HW115527   2.807   4.726   2.200  0.3207  2.8247 -0.8214
 1297SOL    HW215528   2.799   0.063   2.320 -0.8946 -0.5324  0.7130
 1298SOL     OW15529   1.771   2.133  13.091  0.7669  0.2828  0.4586
 1298SOL    HW115530   1.743   2.144  13.182  0.1238  1.1179  0.1667
 1298SOL    HW215531   1.780   2.040  13.071  2.0892  0.5246 -0.0210
 1299SOL     OW15532   3.480   2.837   7.465 -0.2814  0.2086  0.1754
 1299SOL    HW115533   3.503   2.830   7.372 -2.1613 -2.0148 -0.1424
 1299SOL    HW215534   3.561   2.820   7.512 -0.4029 -1.1893 -0.1149
 1300SOL     OW15535   4.657   1.746   5.744 -0.1150 -0.0792 -0.0421
 1300SOL    HW115536   4.568   1.712   5.751  0.5147 -1.7931 -0.3252
 1300SOL    HW215537   4.699   1.675   5.695 -2.0226 -0.4820 -1.0864
 1301SOL     OW15538   1.048   1.827   6.062  0.1266 -0.0686 -0.2948
 1301SOL    HW115539   0.984   1.895   6.040  1.5579  1.0641 -0.8987
 1301SOL    HW215540   1.006   1.804   6.145  0.9658  1.2143  0.4679
 1302SOL     OW15541   1.534   2.744  16.023  0.1254  0.3079  0.4752
 1302SOL    HW115542   1.568   2.826  16.060 -1.9707  0.6336  1.6460
 1302SOL    HW215543   1.598   2.737  15.951  2.3308  2.3196  2.2309
 1303SOL     OW15544   1.777   1.287   5.103 -0.1103  0.3330 -0.3163
 1303SOL    HW115545   1.805   1.226   5.171  1.1962  0.0924 -1.0795
 1303SOL    HW215546   1.820   1.241   5.031  0.3325  0.2950 -0.0238
 1304SOL     OW15547   3.266   2.735   5.499  0.1104  0.4002 -0.4467
 1304SOL    HW115548   3.211   2.693   5.433  0.1695 -0.4973  0.0735
 1304SOL    HW215549   3.304   2.661   5.545  0.3335 -0.1811 -1.5717
 1305SOL     OW15550   4.362   1.065   9.168  0.2197  0.2859  0.3785
 1305SOL    HW115551   4.270   1.051   9.193 -0.2203  1.5239 -0.5726
 1305SOL    HW215552   4.347   1.112   9.086 -0.7380 -1.5528 -0.5103
 1306SOL     OW15553   0.619   4.290  15.988  0.1153  0.1478 -0.1709
 1306SOL    HW115554   0.570   4.357  16.037 -0.2956 -1.0153  1.0017
 1306SOL    HW215555   0.583   4.300  15.900  1.3674  1.0360 -0.5898
 1307SOL     OW15556   1.771   4.495   8.537  0.4343 -0.2091 -0.2754
 1307SOL    HW115557   1.757   4.401   8.549  1.9321 -0.2543  1.1144
 1307SOL    HW215558   1.708   4.517   8.469  0.7665  0.5344 -0.3502
 1308SOL     OW15559   0.408   4.040   3.836 -0.5040  0.4923  0.2191
 1308SOL    HW115560   0.368   3.964   3.793 -1.5501  0.8330  0.5846
 1308SOL    HW215561   0.352   4.057   3.912 -0.3229 -1.2747  0.7589
 1309SOL     OW15562   4.009   0.403   2.165 -0.1721 -0.2821 -0.3159
 1309SOL    HW115563   4.011   0.326   2.221 -2.4830  0.0614  0.2778
 1309SOL    HW215564   3.954   0.373   2.092 -0.0790  0.9404 -0.8968
 1310SOL     OW15565   2.782   1.008   8.992 -0.0275 -0.4816 -0.1156
 1310SOL    HW115566   2.767   0.921   8.955  0.6632 -0.2618 -0.9174
 1310SOL    HW215567   2.696   1.046   8.976 -0.5958 -1.1595  1.3137
 1311SOL     OW15568   2.809   2.983   7.412  0.1977 -0.5365  0.0255
 1311SOL    HW115569   2.862   2.916   7.368  0.7074  0.5630 -1.0121
 1311SOL    HW215570   2.875   3.025   7.467  0.9319 -1.3375 -0.2336
 1312SOL     OW15571   0.441   3.665   5.509 -0.2704  0.4145 -0.0252
 1312SOL    HW115572   0.523   3.713   5.522 -0.4284  1.3317 -2.3243
 1312SOL    HW215573   0.375   3.713   5.559 -2.7563  1.1403 -3.9769
 1313SOL     OW15574   0.453   2.016   5.391 -0.5280  0.0873  0.5193
 1313SOL    HW115575   0.411   1.968   5.462 -0.2837  1.2383  1.4460
 1313SOL    HW215576   0.398   2.094   5.396 -0.7223 -0.1115  1.3283
 1314SOL     OW15577   1.259   2.347   4.600  0.3166  0.2290  0.0449
 1314SOL    HW115578   1.285   2.291   4.527  0.7637 -1.6541  1.6649
 1314SOL    HW215579   1.167   2.357   4.577  0.3458  0.5782  0.0751
 1315SOL     OW15580   3.040   0.674  14.114  0.3986  0.0830  0.3851
 1315SOL    HW115581   3.056   0.725  14.034  0.0804 -2.3081 -1.1930
 1315SOL    HW215582   3.120   0.683  14.166  0.1187  3.7523  0.1939
 1316SOL     OW15583   0.464   1.452   8.932  0.6944 -0.3285 -0.6964
 1316SOL    HW115584   0.459   1.443   8.837  0.2784 -3.7722 -0.3315
 1316SOL    HW215585   0.557   1.433   8.944  0.3260 -1.1451  0.9181
 1317SOL     OW15586   1.098   0.487   2.858  0.0411 -0.1882 -0.4263
 1317SOL    HW115587   1.089   0.470   2.952 -2.7470 -1.5738 -0.9429
 1317SOL    HW215588   1.124   0.403   2.821 -0.3803 -0.4228 -0.1855
 1318SOL     OW15589   2.603   3.461   7.101  0.2161  0.0484 -0.3178
 1318SOL    HW115590   2.641   3.461   7.189 -0.4661 -2.4902 -0.0396
 1318SOL    HW215591   2.526   3.405   7.110 -1.7079  2.7802  0.4750
 1319SOL     OW15592   1.261   0.465   8.827 -0.4284 -0.3568  0.3555
 1319SOL    HW115593   1.200   0.516   8.774  0.4652 -0.7212 -1.0116
 1319SOL    HW215594   1.327   0.532   8.840 -0.4314 -0.4616  0.9350
 1320SOL     OW15595   2.614   1.118   2.701  0.3509 -0.0750 -0.2278
 1320SOL    HW115596   2.697   1.146   2.662  0.2980 -2.0840 -1.8101
 1320SOL    HW215597   2.551   1.183   2.669 -0.4295 -1.6647 -1.9661
 1321SOL     OW15598   2.669   2.992   4.156 -0.0664  0.5727  0.1409
 1321SOL    HW115599   2.714   2.965   4.236  0.7896  1.2212 -0.1178
 1321SOL    HW215600   2.740   3.039   4.111  0.6102  0.2351  0.8463
 1322SOL     OW15601   3.856   3.571  17.233 -0.3277 -0.8141 -0.0226
 1322SOL    HW115602   3.834   3.546  17.322 -0.3160  1.6237  0.6546
 1322SOL    HW215603   3.770   3.594  17.199 -0.5447 -4.1799 -1.7782
 1323SOL     OW15604   2.443   3.552   2.278 -0.0078 -0.5144  0.2106
 1323SOL    HW115605   2.367   3.507   2.240 -0.6097 -0.7724  1.7263
 1323SOL    HW215606   2.442   3.513   2.366  1.6294  0.5626  0.7136
 1324SOL     OW15607   4.593   1.218   3.659 -0.1374 -0.0854 -0.1114
 1324SOL    HW115608   4.665   1.280   3.657  0.6032 -0.9452 -0.2233
 1324SOL    HW215609   4.544   1.258   3.587 -0.0698  2.1787  1.0919
 1325SOL     OW15610   1.612   0.280   9.142  0.4594 -0.3034  0.4217
 1325SOL    HW115611   1.553   0.344   9.181  1.7500 -0.5012  2.7236
 1325SOL    HW215612   1.688   0.332   9.118  0.9766 -1.4527 -0.4504
 1326SOL     OW15613   1.067   3.117   6.001  0.4673  0.2830  0.0042
 1326SOL    HW115614   1.127   3.046   5.975 -0.3106 -0.6935  0.8651
 1326SOL    HW215615   1.018   3.076   6.073 -0.6626  0.8758 -0.4369
 1327SOL     OW15616   1.479   1.976   4.602 -0.0578 -0.7584 -0.3279
 1327SOL    HW115617   1.407   1.928   4.642  0.3068 -1.8513 -0.9858
 1327SOL    HW215618   1.528   1.898   4.577 -2.1577 -2.0375 -0.4700
 1328SOL     OW15619   2.577   2.018   8.785 -0.6606 -0.1462  0.1541
 1328SOL    HW115620   2.666   2.003   8.818 -1.6810  0.7794  3.2746
 1328SOL    HW215621   2.602   2.089   8.726  2.6921 -0.6489  0.9208
 1329SOL     OW15622   2.205   1.213   6.566 -0.5483 -0.7985  0.0208
 1329SOL    HW115623   2.204   1.307   6.546  0.7629 -1.0291 -1.1382
 1329SOL    HW215624   2.233   1.192   6.477  1.9698 -0.5085  0.7608
 1330SOL     OW15625   4.101   2.825   5.330  0.1371 -0.4023 -0.3268
 1330SOL    HW115626   4.057   2.840   5.247  0.7280 -0.5841 -0.6752
 1330SOL    HW215627   4.043   2.851   5.401 -1.1293  0.4438 -1.6707
 1331SOL     OW15628   0.511   0.413  15.762  0.2526 -0.5656 -0.0044
 1331SOL    HW115629   0.590   0.457  15.730  0.3141 -1.3959 -0.9912
 1331SOL    HW215630   0.457   0.426  15.684 -0.6556 -0.3316  0.6654
 1332SOL     OW15631   4.000   4.076   4.353 -0.6293 -0.0488 -0.0006
 1332SOL    HW115632   3.919   4.112   4.319  0.2322 -0.7474 -2.7890
 1332SOL    HW215633   4.060   4.076   4.278  0.7188 -1.0756  1.0739
 1333SOL     OW15634   1.056   1.620   2.225  0.3658  0.4118  0.4347
 1333SOL    HW115635   1.080   1.709   2.249 -1.8418  1.1498 -0.0780
 1333SOL    HW215636   1.027   1.627   2.134  0.8658 -0.7830  0.1824
 1334SOL     OW15637   0.797   4.332   4.270 -0.0895 -0.0699 -0.4655
 1334SOL    HW115638   0.723   4.353   4.214 -1.8835  1.8758  2.6598
 1334SOL    HW215639   0.802   4.241   4.243  0.4639  0.2323 -1.3862
 1335SOL     OW15640   2.068   1.647  10.404 -0.0362  0.1353 -0.0424
 1335SOL    HW115641   2.071   1.560  10.444  1.0852  1.4225  2.5966
 1335SOL    HW215642   2.050   1.693  10.486  0.7140  2.3826 -1.1319
 1336SOL     OW15643   3.478   1.716   3.553  0.0573 -0.8375  0.1445
 1336SOL    HW115644   3.488   1.627   3.517 -2.0073 -0.4017 -1.5196
 1336SOL    HW215645   3.400   1.701   3.606  1.2081 -0.5096  1.9179
 1337SOL     OW15646   1.001   0.532   6.839  0.1249 -0.0102 -0.1271
 1337SOL    HW115647   1.043   0.476   6.773  1.8457  0.9397  0.1547
 1337SOL    HW215648   0.915   0.492   6.849  0.2572  0.1468  1.6312
 1338SOL     OW15649   0.309   4.094   6.788  0.4754  0.1109  0.2015
 1338SOL    HW115650   0.318   4.087   6.693 -0.8885  0.9406  0.0067
 1338SOL    HW215651   0.389   4.046   6.808  0.7783 -0.0873 -1.4865
 1339SOL     OW15652   4.689   1.571   3.106 -0.4184  0.3604 -0.2664
 1339SOL    HW115653   4.600   1.605   3.107 -0.6524 -0.2488 -0.3861
 1339SOL    HW215654   4.681   1.529   3.020 -0.6148  0.3788 -0.2566
 1340SOL     OW15655   3.422   2.874   5.085  0.0890 -0.6324 -0.3826
 1340SOL    HW115656   3.338   2.885   5.041 -0.0259  0.2652  0.0748
 1340SOL    HW215657   3.479   2.871   5.008  0.6267  1.1820 -0.0423
 1341SOL     OW15658   4.480   1.913   4.035  0.2444  0.0736 -0.2307
 1341SOL    HW115659   4.443   1.838   4.082  0.8927 -0.4778 -0.5914
 1341SOL    HW215660   4.420   1.900   3.962  0.2185 -0.6798 -0.0855
 1342SOL     OW15661   0.078   0.051   3.638 -0.2838 -0.3020  0.4037
 1342SOL    HW115662   4.726   0.025   3.630 -0.2089  0.1443 -1.9878
 1342SOL    HW215663   0.106   4.734   3.710  0.7283 -0.3211 -0.0184
 1343SOL     OW15664   0.477   1.288  17.296 -0.5102 -0.0519 -0.5161
 1343SOL    HW115665   0.491   1.344  17.219 -1.1231  1.8966  0.7711
 1343SOL    HW215666   0.435   1.341  17.365  0.7159 -0.9153  0.8998
 1344SOL     OW15667   0.939   0.712   2.868 -0.0291 -0.0110 -0.3364
 1344SOL    HW115668   0.890   0.675   2.941 -0.9204 -0.7284 -1.3128
 1344SOL    HW215669   1.010   0.647   2.863 -1.4587 -1.5083 -0.8900
 1345SOL     OW15670   3.174   3.301   9.109  0.1144 -0.5686 -0.3475
 1345SOL    HW115671   3.115   3.376   9.109  0.9103  0.0555 -0.2194
 1345SOL    HW215672   3.171   3.272   9.018 -0.5464 -1.9887  0.1106
 1346SOL     OW15673   1.266   0.371  12.760  0.1927  0.3865  0.1509
 1346SOL    HW115674   1.361   0.380  12.769 -0.2332  4.7057  0.3337
 1346SOL    HW215675   1.238   0.455  12.797 -2.9125  0.4346 -2.2884
 1347SOL     OW15676   3.838   4.622   6.144  0.0692  0.4846  0.0400
 1347SOL    HW115677   3.834   4.528   6.160 -1.1014  0.8248  1.8094
 1347SOL    HW215678   3.804   4.618   6.055  1.2265 -0.1952 -0.3623
 1348SOL     OW15679   2.223   2.548  10.944 -0.3849 -0.1548 -0.7781
 1348SOL    HW115680   2.313   2.563  10.913 -1.9641  1.8861 -4.2550
 1348SOL    HW215681   2.199   2.459  10.921  1.2278 -1.3167  1.9722
 1349SOL     OW15682   0.635   0.517   4.172 -0.1754 -0.3242  0.8699
 1349SOL    HW115683   0.659   0.607   4.149  0.2027 -0.3917  1.0077
 1349SOL    HW215684   0.629   0.479   4.084 -0.9306 -0.3749  0.9454
 1350SOL     OW15685   2.089   3.063   6.007  0.2578 -0.0630 -0.4680
 1350SOL    HW115686   2.164   3.097   6.056 -0.0356  0.8665 -0.6557
 1350SOL    HW215687   2.124   3.045   5.920 -0.8472  0.3845 -1.0048
 1351SOL     OW15688   4.585   0.147   0.083  0.6597 -0.2960 -0.3765
 1351SOL    HW115689   4.614   0.146   0.174  1.3348 -0.5383 -0.5935
 1351SOL    HW215690   4.645   0.210   0.042 -0.2330  1.6932  1.3921
 1352SOL     OW15691   2.330   3.272  15.185  0.4089 -0.5272 -0.2239
 1352SOL    HW115692   2.348   3.353  15.137 -1.1673 -0.7845 -1.2336
 1352SOL    HW215693   2.237   3.287  15.202  0.5582  1.1827 -0.8470
 1353SOL     OW15694   2.822   2.568   9.042 -0.4226 -0.1266  0.0123
 1353SOL    HW115695   2.781   2.496   8.996  1.3529 -1.1613  0.0498
 1353SOL    HW215696   2.835   2.519   9.123  0.2359 -0.9159 -0.5786
 1354SOL     OW15697   0.163   4.671   2.403  0.2227 -0.7503  0.1733
 1354SOL    HW115698   0.163   4.579   2.379 -1.2545 -0.3018 -1.6197
 1354SOL    HW215699   0.076   4.691   2.440 -0.0802  1.1490 -1.5660
 1355SOL     OW15700   3.544   3.467   1.829 -0.0899  0.3830 -0.2641
 1355SOL    HW115701   3.554   3.380   1.791 -1.7612 -0.2626  0.7328
 1355SOL    HW215702   3.630   3.507   1.835  0.2968 -0.4294 -0.4421
 1356SOL     OW15703   0.936   2.257   7.757 -0.2630 -0.3301 -0.3274
 1356SOL    HW115704   0.901   2.325   7.700  1.8161  2.0648  1.2529
 1356SOL    HW215705   0.860   2.235   7.812 -0.4836  0.3521 -0.3688
 1357SOL     OW15706   2.485   2.835  11.494 -0.0531 -0.0914  0.0813
 1357SOL    HW115707   2.564   2.856  11.544 -1.4552  1.8656  1.4961
 1357SOL    HW215708   2.466   2.926  11.472 -2.1332 -0.5056  0.1717
 1358SOL     OW15709   1.169   1.876   3.112  0.0488  0.4137 -0.4727
 1358SOL    HW115710   1.156   1.856   3.020  2.3429  0.0592 -0.7300
 1358SOL    HW215711   1.135   1.965   3.120  3.3337  1.6229  0.0708
 1359SOL     OW15712   1.788   1.461   4.546  0.1190  0.7550 -0.2511
 1359SOL    HW115713   1.700   1.424   4.540  0.0841  0.6041  1.2930
 1359SOL    HW215714   1.805   1.523   4.475  0.3973 -0.0918 -0.9157
 1360SOL     OW15715   2.550   1.690   8.607 -0.8559 -0.0785 -0.1351
 1360SOL    HW115716   2.645   1.690   8.616 -1.0788 -0.0576  2.2509
 1360SOL    HW215717   2.543   1.625   8.537 -0.7598 -0.6103  0.3464
 1361SOL     OW15718   2.278   1.741   0.915  0.1894 -0.7001  0.0354
 1361SOL    HW115719   2.282   1.786   0.830 -0.5859  0.4496  0.6103
 1361SOL    HW215720   2.324   1.659   0.901  0.9884  0.0270 -1.7138
 1362SOL     OW15721   0.094   2.803  14.284  0.2622 -0.7748  0.0242
 1362SOL    HW115722   0.087   2.715  14.249  0.6617 -0.5492 -0.6358
 1362SOL    HW215723   0.127   2.789  14.373  1.6992 -2.7104 -0.8334
 1363SOL     OW15724   1.512   0.978   6.781  0.2336  0.0948 -0.6322
 1363SOL    HW115725   1.471   0.900   6.818 -1.3252  0.9253 -0.6450
 1363SOL    HW215726   1.592   0.929   6.762 -0.4383 -1.1576 -0.1771
 1364SOL     OW15727   2.233   0.638  14.235  0.5326 -0.4244 -0.1370
 1364SOL    HW115728   2.181   0.597  14.305 -0.0260  1.1354  0.3686
 1364SOL    HW215729   2.241   0.723  14.277 -1.9190 -0.3122  0.1359
 1365SOL     OW15730   2.833   0.858   1.981 -0.2065  0.2488 -0.3402
 1365SOL    HW115731   2.793   0.918   2.044  0.6813  0.6957 -0.1985
 1365SOL    HW215732   2.808   0.887   1.893  1.2804 -0.2304 -0.9298
 1366SOL     OW15733   2.880   2.954  13.042 -0.0056  0.1069 -0.6275
 1366SOL    HW115734   2.886   2.978  13.135  1.1978 -1.9744 -0.1759
 1366SOL    HW215735   2.891   2.859  13.034  1.2746  0.2189 -0.2027
 1367SOL     OW15736   1.461   4.553   3.455 -0.0062  0.0980  0.5313
 1367SOL    HW115737   1.508   4.617   3.509 -0.8708  2.4768 -1.5421
 1367SOL    HW215738   1.402   4.610   3.406 -0.8377  1.2007  2.7934
 1368SOL     OW15739   4.732   3.879   1.032  0.1745  0.2429 -0.7253
 1368SOL    HW115740   0.026   3.962   0.998  0.5625  1.9898  3.9508
 1368SOL    HW215741   0.070   3.826   1.017  0.9630  0.7536  1.6333
 1369SOL     OW15742   0.036   4.733   2.689 -0.2481 -0.1756 -0.5499
 1369SOL    HW115743   0.059   4.644   2.662  0.8270 -0.2143  0.4779
 1369SOL    HW215744   0.094   4.737   2.765  0.1439  1.0580 -0.9181
 1370SOL     OW15745   2.770   4.295  15.480 -0.1403  0.2364 -0.2876
 1370SOL    HW115746   2.737   4.356  15.545  1.4990  1.5640 -0.6879
 1370SOL    HW215747   2.860   4.284  15.511 -0.1519  1.6389  0.2231
 1371SOL     OW15748   2.960   3.746   6.677 -0.0574 -0.2453 -0.0059
 1371SOL    HW115749   3.039   3.692   6.667  1.5425  2.2197 -0.5833
 1371SOL    HW215750   3.004   3.829   6.693  0.2647 -0.4186  0.0030
 1372SOL     OW15751   0.131   1.708   2.935  0.0745  0.8758 -0.2770
 1372SOL    HW115752   0.086   1.636   2.980 -1.4576  2.8205  1.2637
 1372SOL    HW215753   0.221   1.676   2.944  0.5926  2.5965  0.7069
 1373SOL     OW15754   0.674   4.003   4.412  0.6231 -0.3676 -0.1230
 1373SOL    HW115755   0.666   3.936   4.344  0.6428 -1.7646  1.2430
 1373SOL    HW215756   0.693   3.941   4.482  1.3739  0.9175  0.8110
 1374SOL     OW15757   4.245   2.581   2.263 -0.3144  0.6180  0.5108
 1374SOL    HW115758   4.324   2.576   2.208 -1.1108  1.1193 -0.6767
 1374SOL    HW215759   4.217   2.489   2.258  0.0566  0.5010  0.5447
 1375SOL     OW15760   1.323   1.347   0.064  0.0237  0.5836 -0.6654
 1375SOL    HW115761   1.330   1.312   0.153  3.6778  0.9952 -0.7757
 1375SOL    HW215762   1.230   1.332   0.049 -0.2597  2.1166 -0.3680
 1376SOL     OW15763   4.502   2.684  14.659  0.4421  0.0742  0.3126
 1376SOL    HW115764   4.555   2.749  14.706  0.9144 -0.2153  0.1825
 1376SOL    HW215765   4.502   2.725  14.572  0.9172  0.8573  0.6826
 1377SOL     OW15766   3.956   3.478   6.012 -0.1837  0.0803  0.3718
 1377SOL    HW115767   3.973   3.387   6.035 -1.1130 -1.0623 -3.5470
 1377SOL    HW215768   3.922   3.516   6.093  0.2366  1.6746 -0.1875
 1378SOL     OW15769   2.905   3.688   5.101 -0.1261  0.3523  0.1393
 1378SOL    HW115770   2.903   3.781   5.083 -0.7853  0.0646 -1.2684
 1378SOL    HW215771   2.907   3.657   5.011 -1.1764  1.6683 -0.3408
 1379SOL     OW15772   3.511   1.012   3.342 -0.3321 -0.0069  0.1023
 1379SOL    HW115773   3.573   1.044   3.277  0.1753 -0.8955  0.1463
 1379SOL    HW215774   3.569   1.018   3.418 -0.5638  2.9205  0.0624
 1380SOL     OW15775   4.102   2.481  10.136  0.0480  0.0089  0.3681
 1380SOL    HW115776   4.167   2.477  10.206 -0.6858 -0.4266  1.0325
 1380SOL    HW215777   4.025   2.502  10.189 -0.1696 -0.9767  0.4513
 1381SOL     OW15778   2.749   0.476   0.143  0.1078 -0.6560  0.0518
 1381SOL    HW115779   2.713   0.562   0.123 -4.0667 -1.6977  3.0950
 1381SOL    HW215780   2.675   0.443   0.194  0.2715  2.4912  2.3539
 1382SOL     OW15781   2.479   1.365   9.153  0.0598  0.6410 -0.1036
 1382SOL    HW115782   2.489   1.455   9.184 -0.0237 -0.5282  3.3635
 1382SOL    HW215783   2.485   1.372   9.058 -0.2639  3.0207  0.0357
 1383SOL     OW15784   3.598   4.007   5.866 -0.2287 -0.4407  0.2021
 1383SOL    HW115785   3.663   3.945   5.899  0.9085 -0.2808 -1.7222
 1383SOL    HW215786   3.520   3.953   5.857 -2.3004  2.5169  0.5574
 1384SOL     OW15787   4.678   0.786   2.590 -0.6491 -0.0409 -0.5093
 1384SOL    HW115788   4.736   0.743   2.652 -0.1187 -0.5651 -1.3610
 1384SOL    HW215789   4.660   0.714   2.529  1.5749 -0.8511 -0.2366
 1385SOL     OW15790   3.712   2.948   6.705 -0.0551 -0.5292  0.3360
 1385SOL    HW115791   3.762   2.868   6.688 -1.8032 -1.0960 -2.0599
 1385SOL    HW215792   3.732   3.007   6.633  0.5319  0.0253  0.9526
 1386SOL     OW15793   0.427   0.021   9.772  0.2165  0.0085 -0.3067
 1386SOL    HW115794   0.364   4.690   9.782 -0.6304  0.9078  0.6318
 1386SOL    HW215795   0.494   4.730   9.711  1.2411 -0.2255  0.9404
 1387SOL     OW15796   3.243   2.001   6.290 -0.7455 -0.0056  0.2370
 1387SOL    HW115797   3.177   1.984   6.357 -2.2386  0.2302 -1.1624
 1387SOL    HW215798   3.238   2.095   6.308 -0.1014  0.0767 -0.0098
 1388SOL     OW15799   3.629   3.669   6.591  0.3278  0.5293 -0.4107
 1388SOL    HW115800   3.539   3.687   6.619  1.1085  0.7820  1.9338
 1388SOL    HW215801   3.685   3.713   6.655  1.3884 -0.7849 -0.4495
 1389SOL     OW15802   3.502   1.055   7.729  0.1466  0.1851  0.2623
 1389SOL    HW115803   3.470   1.120   7.792  1.3053  0.7561  0.2593
 1389SOL    HW215804   3.418   1.052   7.682  1.2663 -1.5615 -1.6020
 1390SOL     OW15805   4.717   4.187   2.273 -0.6718 -0.0369 -1.0730
 1390SOL    HW115806   0.069   4.204   2.254  0.1414 -2.5440  0.6263
 1390SOL    HW215807   4.700   4.118   2.209 -1.1180 -1.7905  0.9363
 1391SOL     OW15808   3.978   4.008   6.662 -0.6493  0.1351  0.3702
 1391SOL    HW115809   3.987   4.000   6.757  0.4451  0.2973  0.2848
 1391SOL    HW215810   4.071   4.021   6.646 -0.6291  2.8810  2.5796
 1392SOL     OW15811   2.713   1.016   4.724  0.2698 -0.4535  0.6313
 1392SOL    HW115812   2.655   0.940   4.727 -1.7452  1.0420 -0.2721
 1392SOL    HW215813   2.667   1.076   4.782 -1.0891  1.8066 -2.7498
 1393SOL     OW15814   1.014   2.575   5.591 -0.4204 -0.0303  0.2938
 1393SOL    HW115815   0.928   2.592   5.630  0.1332 -1.3560  2.1247
 1393SOL    HW215816   1.031   2.490   5.632 -0.0354  0.8801  2.0268
 1394SOL     OW15817   4.493   3.105   9.070 -0.0323 -0.1983 -0.5908
 1394SOL    HW115818   4.486   3.022   9.022 -0.3515 -0.9922  0.8111
 1394SOL    HW215819   4.418   3.098   9.130  1.8859 -0.7778  1.7355
 1395SOL     OW15820   1.303   2.836   7.422  0.0904  0.2657  0.0495
 1395SOL    HW115821   1.360   2.760   7.406 -0.6142 -0.5090  1.2053
 1395SOL    HW215822   1.342   2.889   7.352 -1.1987  1.5719  0.3303
 1396SOL     OW15823   4.687   0.193   1.686 -0.4621  0.1353 -0.0432
 1396SOL    HW115824   0.014   0.256   1.660 -0.0775 -0.1297  0.2829
 1396SOL    HW215825   4.616   0.254   1.706 -1.4662 -0.6018 -1.3402
 1397SOL     OW15826   0.711   4.544   3.456  0.1654  0.2095 -0.7011
 1397SOL    HW115827   0.781   4.608   3.474 -2.0128  1.5883  2.9333
 1397SOL    HW215828   0.751   4.480   3.515  1.2631 -0.3913 -2.0940
 1398SOL     OW15829   3.092   3.146   5.799 -0.3896  0.2245  0.2346
 1398SOL    HW115830   3.185   3.170   5.791 -0.3707 -0.0757 -0.4528
 1398SOL    HW215831   3.103   3.092   5.877  2.6233  1.8924  0.9758
 1399SOL     OW15832   1.134   3.731   5.843 -0.0517 -0.4977  0.0308
 1399SOL    HW115833   1.050   3.768   5.815 -0.5476  0.5039  2.8287
 1399SOL    HW215834   1.196   3.804   5.836  1.3509 -1.7958 -1.0133
 1400SOL     OW15835   0.045   3.009   1.260  0.4154  0.4591  0.8413
 1400SOL    HW115836   0.080   2.921   1.274 -0.4694  0.0457  0.4398
 1400SOL    HW215837   0.036   3.025   1.354  1.7786 -0.5664  1.1464
 1401SOL     OW15838   1.565   1.975   7.590  0.2013  0.3798  1.1771
 1401SOL    HW115839   1.556   2.069   7.605 -1.9116  0.3334  0.2011
 1401SOL    HW215840   1.477   1.943   7.569  0.3181 -0.0864  1.3931
 1402SOL     OW15841   3.076   0.776   1.886 -0.0276  0.0274 -0.3110
 1402SOL    HW115842   2.983   0.773   1.907 -0.4662  0.1583 -2.2266
 1402SOL    HW215843   3.066   0.793   1.792  0.6728  0.8359 -0.2358
 1403SOL     OW15844   3.898   0.330   8.977 -0.1585  0.0724 -0.0516
 1403SOL    HW115845   3.905   0.378   8.894  0.4349 -1.0295 -0.6520
 1403SOL    HW215846   3.852   0.252   8.945  1.4326 -0.4634 -1.0458
 1404SOL     OW15847   1.398   4.551   4.475  0.1884  0.2370  0.7259
 1404SOL    HW115848   1.449   4.503   4.541  0.1433  0.1884  0.7256
 1404SOL    HW215849   1.336   4.481   4.456  1.0898  0.4156 -2.8833
 1405SOL     OW15850   2.854   4.177   1.297  0.1249 -0.3204  0.1228
 1405SOL    HW115851   2.840   4.118   1.223 -2.8679  1.8435 -1.0103
 1405SOL    HW215852   2.767   4.167   1.336  0.7978  1.2479  2.0437
 1406SOL     OW15853   1.046   3.497   4.972 -0.4864  0.0002  0.1921
 1406SOL    HW115854   1.136   3.527   4.971  0.6008 -3.3001 -0.3372
 1406SOL    HW215855   1.059   3.416   5.021  1.4090 -0.0429 -0.3937
 1407SOL     OW15856   1.427   3.379   8.945 -0.4090 -0.2052 -0.2809
 1407SOL    HW115857   1.354   3.440   8.959 -0.4355  0.1811 -2.1035
 1407SOL    HW215858   1.487   3.441   8.904  0.7371  0.5085  2.4803
 1408SOL     OW15859   0.817   1.410  16.565 -0.2128 -0.1690 -0.0680
 1408SOL    HW115860   0.807   1.326  16.610 -2.7880  0.2854  0.1954
 1408SOL    HW215861   0.821   1.385  16.473 -0.1246 -1.1881  0.2116
 1409SOL     OW15862   0.232   4.458   6.262 -0.6912 -0.3970  0.1272
 1409SOL    HW115863   0.321   4.476   6.233 -0.5234 -2.7191 -0.8326
 1409SOL    HW215864   0.216   4.535   6.316  1.6108  0.4848 -0.4337
 1410SOL     OW15865   1.580   0.308   3.965  0.3994 -0.4946 -0.5501
 1410SOL    HW115866   1.566   0.392   3.921  0.6489 -0.2621 -0.1924
 1410SOL    HW215867   1.568   0.243   3.896  0.1400 -0.8912 -0.1280
 1411SOL     OW15868   3.930   3.609   9.579  0.0642 -0.5169  0.1939
 1411SOL    HW115869   3.938   3.644   9.668 -0.1747 -2.7040  1.0730
 1411SOL    HW215870   3.871   3.537   9.602 -0.0473 -0.9466 -1.4217
 1412SOL     OW15871   4.470   1.456   8.858 -0.2877  0.6895  0.1324
 1412SOL    HW115872   4.557   1.495   8.854  0.5559 -1.2519 -0.1427
 1412SOL    HW215873   4.474   1.399   8.782 -0.4433  0.2783  0.4324
 1413SOL     OW15874   0.863   4.555   1.365  0.1324 -0.2849 -0.3328
 1413SOL    HW115875   0.871   4.511   1.449 -0.6337  0.0640 -0.0733
 1413SOL    HW215876   0.829   4.643   1.378 -0.2677 -0.7035  1.4829
 1414SOL     OW15877   3.104   2.567   9.298  0.3628 -0.1424 -0.3304
 1414SOL    HW115878   3.177   2.572   9.360 -0.6846  0.3643  0.8704
 1414SOL    HW215879   3.026   2.588   9.350  0.4589 -1.0109  0.1582
 1415SOL     OW15880   3.823   4.517   9.990  0.0990  0.7355  0.4686
 1415SOL    HW115881   3.787   4.431   9.969 -2.1714  1.8555 -0.2671
 1415SOL    HW215882   3.766   4.578   9.942  0.3607 -0.0641 -0.8545
 1416SOL     OW15883   4.358   3.710   9.424 -0.3205  0.0934 -0.2753
 1416SOL    HW115884   4.376   3.768   9.350  2.2288 -1.5870 -0.9427
 1416SOL    HW215885   4.264   3.727   9.429 -0.6221 -1.1268 -1.8093
 1417SOL     OW15886   2.181   4.365   1.746 -0.2063 -0.6315  0.4094
 1417SOL    HW115887   2.263   4.386   1.792 -0.0282  0.2400 -0.3061
 1417SOL    HW215888   2.119   4.365   1.819 -0.6884  0.3454 -0.0041
 1418SOL     OW15889   2.486   4.450   5.003  0.1286  0.0793 -0.4135
 1418SOL    HW115890   2.409   4.491   5.042  1.2359  1.4979  0.2669
 1418SOL    HW215891   2.454   4.419   4.919  2.2980 -1.3794 -0.7099
 1419SOL     OW15892   4.232   2.085   3.393 -0.1863 -0.0972  0.3828
 1419SOL    HW115893   4.229   2.055   3.302 -0.5065  0.2106  0.2920
 1419SOL    HW215894   4.256   2.177   3.383  1.4612 -0.5175  0.5813
 1420SOL     OW15895   2.273   4.386   9.256  0.0380 -0.0626  0.1476
 1420SOL    HW115896   2.279   4.466   9.205 -2.4164  1.8961  2.9516
 1420SOL    HW215897   2.186   4.403   9.293 -0.2290 -2.2295  0.5215
 1421SOL     OW15898   2.701   2.305  13.770  0.2801 -0.2829 -0.5375
 1421SOL    HW115899   2.615   2.331  13.737  0.9142 -0.2773 -2.2060
 1421SOL    HW215900   2.750   2.289  13.689  2.6790 -0.4487  0.9531
 1422SOL     OW15901   3.268   4.452   7.675 -0.1596  0.0327  0.3579
 1422SOL    HW115902   3.205   4.477   7.608 -0.6411  0.5755  1.0127
 1422SOL    HW215903   3.232   4.368   7.701  0.8663 -1.3893 -2.8242
 1423SOL     OW15904   2.831   2.003   4.620 -0.5825 -0.3639  1.0530
 1423SOL    HW115905   2.914   1.989   4.667 -0.3645  1.8069  1.3118
 1423SOL    HW215906   2.844   2.040   4.533  1.3450 -1.7532  0.7410
 1424SOL     OW15907   1.955   3.460   2.512  0.2483 -0.8655 -0.0837
 1424SOL    HW115908   1.969   3.371   2.478 -0.6996 -1.7042  1.7070
 1424SOL    HW215909   2.011   3.446   2.588  1.2848 -1.3078 -0.9170
 1425SOL     OW15910   0.156   0.505   5.022 -0.0273 -0.4136  0.1428
 1425SOL    HW115911   0.083   0.444   5.010  0.3032 -1.1721  2.0144
 1425SOL    HW215912   0.181   0.521   4.931 -0.2901  0.8818  0.3027
 1426SOL     OW15913   4.034   1.962  12.321  0.1056  0.0482  0.3852
 1426SOL    HW115914   3.974   2.036  12.311  0.1870  0.1229  0.4444
 1426SOL    HW215915   4.026   1.929  12.410 -1.3288  0.3723  0.3755
 1427SOL     OW15916   3.049   2.221  11.419  0.0829  0.1265  0.8550
 1427SOL    HW115917   3.125   2.165  11.438  0.2289 -0.2886 -1.0078
 1427SOL    HW215918   3.089   2.297  11.377  0.2959  0.1717  1.1401
 1428SOL     OW15919   1.818   3.765   2.297  0.2874  0.2895  0.1598
 1428SOL    HW115920   1.911   3.782   2.279  0.0221  0.0613 -1.3862
 1428SOL    HW215921   1.813   3.680   2.252  0.2514  0.3255  0.0973
 1429SOL     OW15922   1.794   3.336   4.032  0.3646 -0.7963  0.3673
 1429SOL    HW115923   1.764   3.275   4.099  0.4029  1.5993  2.5422
 1429SOL    HW215924   1.848   3.392   4.088 -2.0492 -0.4620  2.3382
 1430SOL     OW15925   4.044   0.639   7.122  0.0627  0.2412  0.6438
 1430SOL    HW115926   4.003   0.589   7.051  1.3161  0.7518 -0.4441
 1430SOL    HW215927   3.973   0.627   7.185  0.0126  1.0043  0.7333
 1431SOL     OW15928   4.663   2.261   1.304  0.2906  0.5088 -0.5332
 1431SOL    HW115929   4.713   2.201   1.360 -0.1680  0.0853 -0.5814
 1431SOL    HW215930   4.597   2.294   1.365 -0.8912  0.0267 -1.5617
 1432SOL     OW15931   2.575   2.004   3.059 -0.2911  0.1519 -0.4746
 1432SOL    HW115932   2.494   2.055   3.060 -0.9797 -0.9602  0.7666
 1432SOL    HW215933   2.563   1.959   2.976 -0.3159  1.5242 -1.2195
 1433SOL     OW15934   0.158   3.925   4.993  0.2601 -0.1593  0.2865
 1433SOL    HW115935   0.241   3.892   5.028  1.1432  0.8926 -0.8113
 1433SOL    HW215936   0.183   3.928   4.901 -1.9535  0.1541 -0.2792
 1434SOL     OW15937   0.167   3.165   9.277  0.3550 -0.3833  0.0965
 1434SOL    HW115938   0.071   3.169   9.276  0.3271 -1.3974 -0.9922
 1434SOL    HW215939   0.193   3.249   9.240 -0.1542 -0.9365 -1.5220
 1435SOL     OW15940   0.828   0.462   7.193  0.2135 -0.6625  0.7864
 1435SOL    HW115941   0.911   0.421   7.219  1.3754  1.3714  0.2669
 1435SOL    HW215942   0.854   0.551   7.171  0.5867 -1.3376 -1.5671
 1436SOL     OW15943   1.516   2.518   6.338 -0.3241  0.3463  0.2735
 1436SOL    HW115944   1.504   2.463   6.260 -1.0838 -0.4563  0.9584
 1436SOL    HW215945   1.546   2.602   6.302 -4.6268  2.3642  1.4718
 1437SOL     OW15946   0.117   2.566   6.284  0.3256  0.6183  0.5911
 1437SOL    HW115947   0.166   2.645   6.308  3.8631 -1.1424 -0.7689
 1437SOL    HW215948   0.030   2.595   6.311  0.8742  3.2148 -0.3668
 1438SOL     OW15949   4.389   3.883   5.121  0.3059 -0.2222 -0.7024
 1438SOL    HW115950   4.470   3.850   5.082  0.3207  0.3212 -1.1335
 1438SOL    HW215951   4.386   3.838   5.205  0.1645 -1.1022 -1.1773
 1439SOL     OW15952   2.911   1.986  17.026  0.0782  0.1508  0.0031
 1439SOL    HW115953   2.893   1.940  16.944  1.2944  0.1051 -0.2411
 1439SOL    HW215954   2.945   2.063  16.981  2.2350 -1.0371 -0.4112
 1440SOL     OW15955   0.506   1.908   5.025 -0.0576 -0.5294 -0.1340
 1440SOL    HW115956   0.565   1.884   5.096  0.6469 -0.1912 -0.6069
 1440SOL    HW215957   0.457   1.984   5.057  0.2333  0.7715 -2.7594
 1441SOL     OW15958   2.309   1.321  11.294  0.1902 -0.2666  0.0682
 1441SOL    HW115959   2.345   1.296  11.380 -1.3716 -0.0357  0.7778
 1441SOL    HW215960   2.352   1.404  11.275  2.4731 -1.6365 -0.7638
 1442SOL     OW15961   2.379   2.306   8.172 -0.3799 -0.4410  0.0515
 1442SOL    HW115962   2.388   2.325   8.079 -1.8167 -0.8939 -0.1798
 1442SOL    HW215963   2.472   2.312   8.194  0.1190 -2.1947 -1.5874
 1443SOL     OW15964   0.531   4.212   5.093  0.2535  0.7146  0.2668
 1443SOL    HW115965   0.438   4.208   5.070  0.6493  0.5572 -1.2565
 1443SOL    HW215966   0.558   4.278   5.029  0.7416  1.4236  1.1795
 1444SOL     OW15967   1.871   2.301   8.164  0.6021  0.1872  0.6692
 1444SOL    HW115968   1.955   2.270   8.196  0.0182 -1.5864  0.5248
 1444SOL    HW215969   1.838   2.224   8.116  0.0275  0.1926  1.0618
 1445SOL     OW15970   3.209   0.148  12.975  0.6241 -0.4954  0.1430
 1445SOL    HW115971   3.225   0.187  13.061  2.8999 -2.7951  0.7971
 1445SOL    HW215972   3.295   0.106  12.967  0.5805 -0.3171 -1.2037
 1446SOL     OW15973   3.050   2.225   2.480  0.6560  0.8887  0.1003
 1446SOL    HW115974   3.115   2.238   2.548 -0.6163  0.0656  1.4748
 1446SOL    HW215975   3.076   2.302   2.430  2.3094 -1.0523 -2.0379
 1447SOL     OW15976   3.180   0.962   1.195 -0.4891 -0.2998  0.4545
 1447SOL    HW115977   3.236   0.890   1.165 -0.1771  0.2172 -0.1938
 1447SOL    HW215978   3.183   1.002   1.108 -1.0992 -0.1346  0.5091
 1448SOL     OW15979   2.860   3.013   2.414  0.7403 -0.4748  0.2677
 1448SOL    HW115980   2.908   2.949   2.361  0.3815 -0.9302  0.4910
 1448SOL    HW215981   2.917   3.040   2.485  0.5656  0.6422 -0.0284
 1449SOL     OW15982   0.549   3.752   2.677 -0.0453 -0.4313 -0.2581
 1449SOL    HW115983   0.600   3.793   2.748 -2.2576 -3.2406  2.9655
 1449SOL    HW215984   0.490   3.821   2.647  1.0673  0.4026 -0.5583
 1450SOL     OW15985   3.158   0.681   3.771 -0.6817  0.1396 -0.1926
 1450SOL    HW115986   3.114   0.766   3.766  3.2893  2.2706  0.3901
 1450SOL    HW215987   3.086   0.630   3.809  2.3154 -1.8050  2.9090
 1451SOL     OW15988   3.915   2.136   7.482 -0.3315  0.0027 -0.8681
 1451SOL    HW115989   3.864   2.193   7.424 -1.0703 -0.2692 -0.4851
 1451SOL    HW215990   3.928   2.051   7.440  0.2526  1.0817 -2.8786
 1452SOL     OW15991   2.740   0.821   9.696 -0.5018  0.3310  0.0316
 1452SOL    HW115992   2.724   0.751   9.633  1.2296 -1.5541  1.6953
 1452SOL    HW215993   2.806   0.875   9.652 -1.2362  0.6291 -0.7017
 1453SOL     OW15994   1.156   4.334  10.562 -0.6017 -0.5944  0.1112
 1453SOL    HW115995   1.249   4.309  10.559 -0.7554 -1.4688  2.3101
 1453SOL    HW215996   1.124   4.261  10.614  2.8608 -1.3203  1.2640
 1454SOL     OW15997   3.877   3.364   6.397 -0.1685 -0.3036 -0.2294
 1454SOL    HW115998   3.912   3.451   6.418  0.8099 -0.4173 -1.3730
 1454SOL    HW215999   3.782   3.369   6.394 -0.0135  2.6725  0.0015
 1455SOL     OW16000   0.942   4.483   6.036  0.7226 -0.0202 -0.0424
 1455SOL    HW116001   0.852   4.454   6.050  0.9009 -0.2555  0.6536
 1455SOL    HW216002   0.941   4.561   6.092 -3.3903 -0.1438  0.0798
 1456SOL     OW16003   0.613   1.428   4.187  0.0555 -0.4377 -0.6624
 1456SOL    HW116004   0.553   1.444   4.113 -1.2438  1.8235  0.8865
 1456SOL    HW216005   0.670   1.356   4.158  0.4019  0.7304 -2.8725
 1457SOL     OW16006   3.444   2.827  17.245 -0.1379  0.2785 -0.6817
 1457SOL    HW116007   3.504   2.875  17.301  0.2771  1.0299 -1.7693
 1457SOL    HW216008   3.363   2.867  17.276  1.1456  0.0209  2.9705
 1458SOL     OW16009   2.810   2.746   6.923  0.5163 -0.0929  0.5258
 1458SOL    HW116010   2.887   2.801   6.937 -1.1005  1.9659  1.3116
 1458SOL    HW216011   2.761   2.806   6.866 -0.7666 -2.7341 -1.1714
 1459SOL     OW16012   4.649   0.321   2.699 -0.2239 -0.1873 -0.5370
 1459SOL    HW116013   4.698   0.254   2.652 -0.9325 -0.0189 -1.5241
 1459SOL    HW216014   4.566   0.276   2.713 -0.2566  0.7393  2.2511
 1460SOL     OW16015   3.447   3.099  10.640 -0.2885 -0.5738 -0.4732
 1460SOL    HW116016   3.496   3.019  10.657  0.4135  0.1509  0.9557
 1460SOL    HW216017   3.486   3.126  10.556 -0.4696  1.1394 -0.0126
 1461SOL     OW16018   1.991   3.909   8.504 -0.7805 -0.7701 -0.1186
 1461SOL    HW116019   1.939   3.976   8.461 -1.5957  0.1037  2.1983
 1461SOL    HW216020   2.032   3.869   8.428  2.5045 -0.0086  1.2301
 1462SOL     OW16021   1.210   1.627   7.051  0.2346 -0.7215  0.2630
 1462SOL    HW116022   1.212   1.574   6.971  0.5419  1.1057 -0.9311
 1462SOL    HW216023   1.166   1.700   7.009 -1.5046 -2.2438 -0.5410
 1463SOL     OW16024   1.969   1.998  10.896  1.0965 -0.0711  0.3417
 1463SOL    HW116025   2.059   1.985  10.866  1.1496  1.4720 -0.1694
 1463SOL    HW216026   1.961   2.093  10.903  2.0608  0.1985 -1.9099
 1464SOL     OW16027   4.047   4.021   1.732  0.0846 -0.3392 -0.1333
 1464SOL    HW116028   4.022   3.930   1.717 -0.1047 -0.6227  1.9342
 1464SOL    HW216029   4.095   4.040   1.652 -1.0759 -0.2097 -0.8098
 1465SOL     OW16030   3.331   0.193   8.489  0.4179 -0.4162 -0.2664
 1465SOL    HW116031   3.267   0.208   8.419  0.0990  0.8698  0.3059
 1465SOL    HW216032   3.288   0.179   8.574  0.4658 -0.3702 -0.2348
 1466SOL     OW16033   0.408   4.052   5.780  0.3920  0.1185  0.0082
 1466SOL    HW116034   0.468   4.030   5.709  0.0179 -0.6690 -0.0653
 1466SOL    HW216035   0.386   3.969   5.821  0.3434 -0.0479 -0.3563
 1467SOL     OW16036   3.741   4.499   5.508 -0.2412 -0.2319 -0.7751
 1467SOL    HW116037   3.758   4.587   5.542  1.3331 -0.7694 -0.1661
 1467SOL    HW216038   3.664   4.476   5.560  0.5645 -0.8264  0.1689
 1468SOL     OW16039   4.644   4.074   2.838  0.2652  0.4701  0.0292
 1468SOL    HW116040   4.635   4.028   2.754  0.3745  0.7189 -0.1192
 1468SOL    HW216041   4.686   4.158   2.818 -0.4483  1.1455  1.3637
 1469SOL     OW16042   2.245   3.848   9.214 -0.4048 -0.1421 -0.2076
 1469SOL    HW116043   2.223   3.775   9.156  0.3234 -0.5930  0.0900
 1469SOL    HW216044   2.339   3.834   9.212 -0.1194  1.7232  0.0443
 1470SOL     OW16045   1.920   0.293   1.885  0.0684 -0.2375 -0.4453
 1470SOL    HW116046   1.942   0.378   1.923 -1.5985 -0.4967  1.1132
 1470SOL    HW216047   1.986   0.283   1.816 -0.8750 -0.2837 -1.3272
 1471SOL     OW16048   0.645   1.895  10.121  0.1251 -0.0435 -0.3151
 1471SOL    HW116049   0.597   1.976  10.138  0.4139  0.7039 -3.1548
 1471SOL    HW216050   0.578   1.844  10.075 -0.2448  1.0560 -0.9896
 1472SOL     OW16051   3.836   2.659   5.434  0.4148 -0.5888 -0.2945
 1472SOL    HW116052   3.888   2.586   5.467  0.5063 -0.0384  0.7796
 1472SOL    HW216053   3.749   2.619   5.436  0.6025 -0.7253  4.0130
 1473SOL     OW16054   0.952   0.683   1.919 -0.4280  0.3908  0.0894
 1473SOL    HW116055   0.930   0.669   2.011  0.6130  0.3145  0.3238
 1473SOL    HW216056   0.876   0.724   1.879  0.0884  0.9230 -0.3370
 1474SOL     OW16057   4.430   3.359   3.601 -0.1275  0.4098  0.1003
 1474SOL    HW116058   4.503   3.420   3.600  1.0089 -0.9405  0.1284
 1474SOL    HW216059   4.443   3.313   3.518 -0.8273 -1.3319  0.9438
 1475SOL     OW16060   4.643   0.547   5.941  0.0184 -0.7094  0.0655
 1475SOL    HW116061   4.696   0.477   5.978  2.3340 -1.1367 -4.0122
 1475SOL    HW216062   4.683   0.622   5.984  0.1773 -2.2933  2.6633
 1476SOL     OW16063   1.170   1.306  16.714  0.0076  0.3990  0.2309
 1476SOL    HW116064   1.216   1.373  16.663 -1.7487  2.0445  0.8326
 1476SOL    HW216065   1.156   1.247  16.640 -1.5535  2.9690 -1.5067
 1477SOL     OW16066   0.519   1.854   2.427 -0.0124 -0.4919 -0.0755
 1477SOL    HW116067   0.493   1.797   2.499  1.6633 -1.1704 -0.0126
 1477SOL    HW216068   0.444   1.913   2.413  1.6638  1.2586 -1.7800
 1478SOL     OW16069   2.767   0.305   7.007  0.0282  0.7468  0.1757
 1478SOL    HW116070   2.729   0.389   7.034 -0.3362  1.2535 -1.8869
 1478SOL    HW216071   2.805   0.318   6.920  2.1382 -2.5960  0.6155
 1479SOL     OW16072   0.299   0.615   8.698  0.1875  0.1636  0.6351
 1479SOL    HW116073   0.307   0.665   8.779  1.3350  1.6889 -0.4231
 1479SOL    HW216074   0.270   0.535   8.743 -1.3495 -1.0780 -2.5887
 1480SOL     OW16075   4.156   2.939   2.081  0.2007  0.2283  0.6205
 1480SOL    HW116076   4.061   2.946   2.091 -0.0581 -0.7371 -1.1095
 1480SOL    HW216077   4.178   2.978   1.996  1.0352 -1.7017 -0.0479
 1481SOL     OW16078   2.942   4.546  17.024  0.3023 -0.6676 -0.4510
 1481SOL    HW116079   2.883   4.580  17.091  0.8217  0.7265 -0.6979
 1481SOL    HW216080   2.893   4.469  16.996  0.0004 -0.9144  0.7454
 1482SOL     OW16081   2.034   4.506   9.260  0.0379  0.7414  0.3002
 1482SOL    HW116082   2.004   4.429   9.210 -0.1234  1.1596 -0.2458
 1482SOL    HW216083   1.954   4.546   9.294  0.9634  3.1948 -0.4413
 1483SOL     OW16084   1.871   2.435   0.527  0.5501  0.5610  0.2200
 1483SOL    HW116085   1.870   2.443   0.622  0.6010  0.7602  0.2055
 1483SOL    HW216086   1.900   2.345   0.515  2.1846  1.0108  0.7969
 1484SOL     OW16087   4.617   4.568   6.307  0.0908  0.3376  0.2086
 1484SOL    HW116088   4.540   4.519   6.334  1.8554 -1.1348  2.5775
 1484SOL    HW216089   4.651   4.598   6.392  0.1677  1.6052 -0.2747
 1485SOL     OW16090   3.489   1.832  14.834 -0.0240 -0.3885  0.2834
 1485SOL    HW116091   3.485   1.810  14.741  1.4142  0.9797 -0.1167
 1485SOL    HW216092   3.492   1.742  14.865  2.4882 -0.5145 -0.3581
 1486SOL     OW16093   2.885   2.602   4.955 -0.0206 -0.1365 -0.1568
 1486SOL    HW116094   2.878   2.594   5.050 -0.7512 -0.2286 -0.2142
 1486SOL    HW216095   2.795   2.597   4.921 -0.5967  0.3620  1.2995
 1487SOL     OW16096   1.343   3.134   4.436 -0.1037 -0.1985  0.2564
 1487SOL    HW116097   1.356   3.185   4.356 -0.4223 -0.3428  0.1092
 1487SOL    HW216098   1.350   3.198   4.507  3.6914  1.8969 -2.0028
 1488SOL     OW16099   3.655   3.073   2.699 -0.9164 -0.3141  0.0763
 1488SOL    HW116100   3.567   3.092   2.731 -0.1601  2.3276  0.5722
 1488SOL    HW216101   3.682   3.017   2.772  1.2616  0.8996  0.2096
 1489SOL     OW16102   3.598   2.527   5.445 -0.0220  0.1444 -0.3377
 1489SOL    HW116103   3.533   2.542   5.514  0.8839  1.7467  0.1704
 1489SOL    HW216104   3.536   2.539   5.372  0.5629 -0.3842 -0.9206
 1490SOL     OW16105   2.361   4.664   9.147 -0.0124  0.2874  0.3823
 1490SOL    HW116106   2.352   4.710   9.231  1.9223 -0.0073  0.7555
 1490SOL    HW216107   2.276   4.666   9.103 -0.1872  1.3174  0.7460
 1491SOL     OW16108   3.953   4.134   9.631 -0.0918  0.0972  0.4865
 1491SOL    HW116109   4.017   4.064   9.646  1.3828  0.9284 -1.9040
 1491SOL    HW216110   3.917   4.150   9.718 -1.0452  0.4261  0.0248
 1492SOL     OW16111   1.142   3.453   6.585 -0.0393  0.0840 -0.1295
 1492SOL    HW116112   1.226   3.481   6.548  0.8202 -0.8318  1.1270
 1492SOL    HW216113   1.116   3.385   6.523 -1.1336  0.5141 -0.1413
 1493SOL     OW16114   3.639   4.142   4.809  0.2827 -0.5222 -0.0975
 1493SOL    HW116115   3.558   4.155   4.760 -0.0499  1.4331  0.9626
 1493SOL    HW216116   3.655   4.049   4.791  2.2054 -0.6260  2.1470
 1494SOL     OW16117   1.833   4.739  14.643 -0.0386 -0.0374 -0.7760
 1494SOL    HW116118   1.754   4.691  14.620  0.2026 -0.4131 -0.8124
 1494SOL    HW216119   1.899   4.671  14.650 -0.3033 -0.4534 -2.4127
 1495SOL     OW16120   3.835   3.189   4.358  0.2446 -0.3605 -0.2786
 1495SOL    HW116121   3.768   3.137   4.313 -0.1521  0.2372 -0.3747
 1495SOL    HW216122   3.911   3.183   4.301 -0.8984  0.5425 -1.9145
 1496SOL     OW16123   0.798   1.757   9.328 -0.3399  0.3420  0.0130
 1496SOL    HW116124   0.879   1.802   9.350  1.4589 -2.8637 -0.0276
 1496SOL    HW216125   0.838   1.689   9.274  1.9035  1.5669  0.1566
 1497SOL     OW16126   1.315   1.967   6.730  0.6965 -0.0621 -0.2978
 1497SOL    HW116127   1.383   1.979   6.664  0.4252  1.3706 -0.3114
 1497SOL    HW216128   1.323   1.876   6.759  1.1927 -0.4311 -1.5861
 1498SOL     OW16129   2.012   2.102  12.669  0.3852  0.6199  0.1247
 1498SOL    HW116130   1.947   2.158  12.712 -0.2321 -0.4857  0.6681
 1498SOL    HW216131   2.004   2.133  12.580  1.7154  3.2421  0.9395
 1499SOL     OW16132   4.666   0.054   6.517 -0.7280 -0.2009  0.2028
 1499SOL    HW116133   4.620   0.134   6.488 -0.4941  0.2840  1.1860
 1499SOL    HW216134   4.683   0.069   6.610 -1.0787 -1.7491  0.5060
 1500SOL     OW16135   1.500   2.690   6.003  0.2741 -0.5618  0.2471
 1500SOL    HW116136   1.544   2.703   6.087  0.0297 -1.9831  0.5942
 1500SOL    HW216137   1.509   2.772   5.954  1.7670  0.5300  2.3502
 1501SOL     OW16138   4.344   0.582  11.326  0.0563  0.4995 -0.0502
 1501SOL    HW116139   4.354   0.585  11.422  0.8778  0.0703 -0.1225
 1501SOL    HW216140   4.434   0.568  11.296  0.0431  0.1374  0.0769
 1502SOL     OW16141   2.124   1.760   6.830 -0.1051 -0.1890  0.5128
 1502SOL    HW116142   2.130   1.845   6.786  0.5124 -1.0452 -1.0536
 1502SOL    HW216143   2.055   1.719   6.778  0.7094 -0.5578 -0.2756
 1503SOL     OW16144   3.191   0.027   4.606 -0.0369 -0.1762  0.2291
 1503SOL    HW116145   3.268   0.075   4.577 -0.0520  0.7551  1.7213
 1503SOL    HW216146   3.125   0.090   4.576  1.5926  0.0196 -2.9321
 1504SOL     OW16147   3.101   2.160  16.863 -0.3528 -0.3600  0.1659
 1504SOL    HW116148   3.077   2.083  16.810 -1.9504  0.5056 -0.3947
 1504SOL    HW216149   3.170   2.199  16.810 -2.6052  3.6128  0.1639
 1505SOL     OW16150   1.584   2.317   9.732  0.0530  0.5610  0.4697
 1505SOL    HW116151   1.514   2.370   9.772  0.1520  1.2706 -0.2906
 1505SOL    HW216152   1.555   2.228   9.749  1.7298 -0.6514 -3.1341
 1506SOL     OW16153   0.552   4.599   7.978  0.2871  0.1186 -0.8123
 1506SOL    HW116154   0.584   4.559   7.898  1.6714  0.2021 -0.3082
 1506SOL    HW216155   0.581   4.534   8.042  2.8734  0.2071 -1.8968
 1507SOL     OW16156   4.683   4.321  12.507 -0.1384 -0.3052  0.7800
 1507SOL    HW116157   4.722   4.398  12.465 -3.0132 -0.1839 -1.6341
 1507SOL    HW216158   0.024   4.270  12.511 -1.1479 -1.8304  1.4428
 1508SOL     OW16159   2.713   1.336   5.929 -0.2105  0.3349 -0.0071
 1508SOL    HW116160   2.701   1.312   5.837  0.8075  1.1860 -0.3600
 1508SOL    HW216161   2.683   1.427   5.935 -0.9177  0.0629  0.6365
 1509SOL     OW16162   1.700   0.659   5.680 -0.0008  0.1586 -0.0464
 1509SOL    HW116163   1.619   0.665   5.731  1.1092 -0.1032  1.7364
 1509SOL    HW216164   1.736   0.592   5.737  2.0209 -2.7606 -4.7450
 1510SOL     OW16165   0.266   1.177   9.377 -0.1747  0.2845 -0.3022
 1510SOL    HW116166   0.296   1.172   9.467 -1.5573  2.1544  0.2737
 1510SOL    HW216167   0.267   1.273   9.372 -1.3861  0.2840 -0.5267
 1511SOL     OW16168   4.588   4.363   7.253 -0.0531 -0.3791 -0.0867
 1511SOL    HW116169   4.518   4.423   7.277  1.0087  1.3849 -1.4626
 1511SOL    HW216170   4.660   4.424   7.236 -1.5034  1.0723 -1.0149
 1512SOL     OW16171   4.185   3.617  13.280 -0.9689  0.3184  0.2788
 1512SOL    HW116172   4.102   3.591  13.320 -0.7470 -1.6704 -0.5422
 1512SOL    HW216173   4.195   3.552  13.210  1.7355  0.5505  0.4487
 1513SOL     OW16174   3.038   1.847   4.723  0.3382 -0.1297 -0.3671
 1513SOL    HW116175   2.998   1.775   4.771 -1.7525  0.7458 -0.7755
 1513SOL    HW216176   3.132   1.839   4.738  0.4536  1.6742 -0.0993
 1514SOL     OW16177   2.454   3.662   5.507 -0.5139 -0.4618  0.3961
 1514SOL    HW116178   2.436   3.737   5.564  0.5238  0.4864 -0.5209
 1514SOL    HW216179   2.476   3.712   5.428 -2.6577 -2.0964 -1.2287
 1515SOL     OW16180   1.526   1.783   5.808  0.0261 -0.3183 -0.4424
 1515SOL    HW116181   1.529   1.709   5.869 -1.6116 -1.3565 -1.6388
 1515SOL    HW216182   1.439   1.784   5.769 -0.4484  0.4956  0.6447
 1516SOL     OW16183   1.285   4.566   3.717 -0.4023 -0.0477  0.1558
 1516SOL    HW116184   1.332   4.642   3.752  1.4634  0.9611 -4.5117
 1516SOL    HW216185   1.358   4.537   3.662 -1.2213 -1.7624 -0.0083
 1517SOL     OW16186   3.916   4.230  17.376 -0.0537 -0.4465  0.5072
 1517SOL    HW116187   3.915   4.291  17.303  0.2867 -0.0310  0.8527
 1517SOL    HW216188   3.826   4.228  17.407 -0.1759 -1.3304  0.1015
 1518SOL     OW16189   3.863   4.404   1.769 -0.5644  0.5822 -0.4225
 1518SOL    HW116190   3.785   4.353   1.793  1.1129 -1.2816  1.0338
 1518SOL    HW216191   3.941   4.357   1.800 -1.6359 -2.2517 -1.9985
 1519SOL     OW16192   3.257   3.328   2.795  0.4212  0.3570  0.3342
 1519SOL    HW116193   3.162   3.321   2.788  0.5342 -0.5458 -0.2350
 1519SOL    HW216194   3.271   3.281   2.876  1.9916 -1.3297 -0.9347
 1520SOL     OW16195   3.907   1.701   8.045  0.2307 -0.8876  0.9481
 1520SOL    HW116196   3.892   1.715   8.138  0.6398 -1.3545  1.0859
 1520SOL    HW216197   3.818   1.723   8.018  0.3500  0.8625  1.9946
 1521SOL     OW16198   3.531   2.014   9.233 -0.1990  0.7743 -0.1027
 1521SOL    HW116199   3.593   1.956   9.277  0.3153  1.1088 -0.3853
 1521SOL    HW216200   3.453   1.957   9.240 -0.8507  1.5449 -1.2083
 1522SOL     OW16201   2.934   4.402  13.376  0.0912 -0.4192  0.2842
 1522SOL    HW116202   2.885   4.431  13.299  1.2596  3.4613  1.0072
 1522SOL    HW216203   2.887   4.322  13.398 -0.4081 -0.0767  0.4704
 1523SOL     OW16204   3.753   3.489  16.458  0.5630  0.1849 -0.5842
 1523SOL    HW116205   3.841   3.518  16.437 -0.2943  2.7058 -0.6872
 1523SOL    HW216206   3.705   3.572  16.463 -0.6888 -0.4496 -2.1647
 1524SOL     OW16207   3.113   2.879   8.817  0.6512  0.4452 -0.1550
 1524SOL    HW116208   3.168   2.910   8.745  1.8885  0.8630  0.9695
 1524SOL    HW216209   3.109   2.787   8.791  2.5020  0.2485  0.2184
 1525SOL     OW16210   2.872   1.188   9.155 -0.2288 -0.1194 -0.1195
 1525SOL    HW116211   2.852   1.121   9.089  0.9491 -0.1834 -0.4009
 1525SOL    HW216212   2.786   1.187   9.198 -1.6808 -0.4520 -3.0687
 1526SOL     OW16213   2.568   2.907   8.571 -0.5195  0.4722 -0.1783
 1526SOL    HW116214   2.582   2.981   8.630  1.9119  1.5387 -2.0698
 1526SOL    HW216215   2.522   2.949   8.498 -0.2546 -0.8755 -1.1214
 1527SOL     OW16216   2.955   1.152   2.314 -0.3910  0.0060  0.3026
 1527SOL    HW116217   3.050   1.151   2.322 -0.3261  1.3623 -0.4132
 1527SOL    HW216218   2.929   1.067   2.350  0.5692 -0.6012 -0.4282
 1528SOL     OW16219   4.039   3.938   8.237 -0.0044 -0.7239  0.0873
 1528SOL    HW116220   4.079   3.980   8.161 -2.0000  1.5964  0.3229
 1528SOL    HW216221   4.118   3.924   8.290  1.4949 -2.4771 -2.5840
 1529SOL     OW16222   3.740   1.397   5.712  0.1190 -0.0698  0.0086
 1529SOL    HW116223   3.797   1.466   5.745  1.7803  0.7291 -4.5242
 1529SOL    HW216224   3.794   1.334   5.663 -0.9097 -0.1537 -1.0222
 1530SOL     OW16225   1.661   3.602   3.705 -0.6923 -0.0354 -0.0728
 1530SOL    HW116226   1.579   3.644   3.680  0.3070  2.1494  0.3085
 1530SOL    HW216227   1.676   3.637   3.793 -0.1461 -1.6873  0.5093
 1531SOL     OW16228   3.909   0.643  14.234  0.6937 -0.3088  0.5689
 1531SOL    HW116229   3.866   0.709  14.179  0.4101  0.2806  1.4954
 1531SOL    HW216230   3.972   0.602  14.176 -0.0329  0.2648 -0.6300
 1532SOL     OW16231   1.341   4.293   8.616 -0.1646  0.0226  0.5015
 1532SOL    HW116232   1.246   4.281   8.609 -0.2297  1.3596 -0.8788
 1532SOL    HW216233   1.364   4.267   8.705  1.8836  0.1297 -0.0106
 1533SOL     OW16234   2.931   2.819   9.476 -0.1118 -0.0983 -0.4968
 1533SOL    HW116235   2.912   2.879   9.404 -2.6258 -0.1859  0.0675
 1533SOL    HW216236   2.899   2.735   9.442 -0.4418  1.4554 -3.9474
 1534SOL     OW16237   2.712   0.158   6.078  0.2104  0.1926 -0.6939
 1534SOL    HW116238   2.696   0.193   6.165 -1.7143 -1.4672 -0.3727
 1534SOL    HW216239   2.630   0.156   6.027  0.0257 -2.1447 -0.3240
 1535SOL     OW16240   0.088   4.016   0.648  0.6770  0.4101 -0.3938
 1535SOL    HW116241   0.095   4.083   0.716 -0.0048 -1.6048  1.6591
 1535SOL    HW216242   4.736   3.988   0.649  0.2873  1.6037 -1.9029
 1536SOL     OW16243   2.722   1.615   4.448  0.6879 -0.6433 -0.5927
 1536SOL    HW116244   2.810   1.605   4.486 -0.0812 -1.0208  1.1178
 1536SOL    HW216245   2.685   1.674   4.514 -0.7303  1.1721 -3.0422
 1537SOL     OW16246   4.295   2.187  16.191  0.0290  0.0615  0.2286
 1537SOL    HW116247   4.304   2.269  16.239  0.2725 -1.3218  2.5683
 1537SOL    HW216248   4.366   2.191  16.127  1.5930 -0.8943  1.8960
 1538SOL     OW16249   2.264   4.100   6.241  0.1069  0.1084 -0.2914
 1538SOL    HW116250   2.213   4.130   6.316 -0.4086  1.9342 -1.3558
 1538SOL    HW216251   2.246   4.006   6.240 -1.9705  0.5090 -2.6566
 1539SOL     OW16252   1.565   4.326   3.300 -0.0013  0.0812 -0.1669
 1539SOL    HW116253   1.553   4.401   3.358 -0.8899  0.7615 -1.2471
 1539SOL    HW216254   1.511   4.263   3.349 -0.7555  1.1630  0.3910
 1540SOL     OW16255   3.905   3.146   9.423 -0.1904 -0.3152 -0.4472
 1540SOL    HW116256   3.951   3.205   9.364 -0.0179 -0.3594 -0.3579
 1540SOL    HW216257   3.817   3.183   9.430  0.8115  2.1436 -0.7534
 1541SOL     OW16258   3.203   4.658   1.462 -0.8658 -0.3533 -0.7637
 1541SOL    HW116259   3.235   4.605   1.389  1.3253 -0.1641  0.0618
 1541SOL    HW216260   3.210   4.594   1.533 -1.3625  0.6431  0.1810
 1542SOL     OW16261   3.358   3.655   3.372  0.1373 -0.2692  0.0430
 1542SOL    HW116262   3.340   3.580   3.314 -1.1123 -0.3590  0.5504
 1542SOL    HW216263   3.379   3.726   3.311 -2.7896  1.1656  0.7234
 1543SOL     OW16264   3.074   1.676  10.250 -0.1922  0.5208 -0.2162
 1543SOL    HW116265   3.104   1.599  10.201 -1.3230  0.6131 -1.0497
 1543SOL    HW216266   3.070   1.740  10.178  2.7836  1.7816  0.7213
 1544SOL     OW16267   2.570   1.171   4.918  0.8997  0.1810  0.0810
 1544SOL    HW116268   2.538   1.261   4.914  2.7745  0.8632  0.3477
 1544SOL    HW216269   2.596   1.170   5.010  1.1757 -0.1495  0.0017
 1545SOL     OW16270   2.615   3.901   5.810 -0.6900 -0.1868 -0.4206
 1545SOL    HW116271   2.670   3.831   5.774 -0.5262 -1.4526  2.3053
 1545SOL    HW216272   2.566   3.927   5.732  0.4516  0.5423 -0.9047
 1546SOL     OW16273   2.671   0.851   2.376  0.0566 -0.1014  0.0525
 1546SOL    HW116274   2.692   0.763   2.343 -1.7843 -0.9715  1.2002
 1546SOL    HW216275   2.700   0.906   2.304 -0.1911  0.7199  0.5835
 1547SOL     OW16276   0.279   1.714   4.308 -0.8212  0.0597 -0.2068
 1547SOL    HW116277   0.254   1.626   4.281  1.2058 -0.2299 -1.1001
 1547SOL    HW216278   0.326   1.702   4.390  0.2663 -1.9495 -1.1344
 1548SOL     OW16279   2.871   4.660   5.400  0.2978  0.4420  0.5168
 1548SOL    HW116280   2.950   4.714   5.397 -0.0450  0.9333  0.3852
 1548SOL    HW216281   2.912   4.584   5.441  2.0532  0.8529 -0.5187
 1549SOL     OW16282   2.924   0.459   3.455 -0.3003 -0.4351 -0.3687
 1549SOL    HW116283   2.942   0.523   3.386 -0.1951  0.9157  0.9281
 1549SOL    HW216284   2.834   0.436   3.430 -1.0409  1.3767  0.6541
 1550SOL     OW16285   1.076   0.807  15.526 -0.5784  0.3652  0.4056
 1550SOL    HW116286   1.116   0.892  15.542  2.1615 -1.3314  2.4646
 1550SOL    HW216287   1.136   0.735  15.544 -0.5311 -0.3803 -2.6770
 1551SOL     OW16288   3.225   2.937   9.047 -0.2618 -0.5293 -0.0398
 1551SOL    HW116289   3.148   2.913   8.995 -0.9473 -0.0787  0.7633
 1551SOL    HW216290   3.256   3.017   9.006  0.7730 -0.2325  1.3337
 1552SOL     OW16291   1.193   3.355   7.980  0.5142 -0.3389  0.1212
 1552SOL    HW116292   1.111   3.326   7.940  0.9886 -0.2958 -0.8885
 1552SOL    HW216293   1.209   3.273   8.026  1.1829  0.0038  0.4953
 1553SOL     OW16294   0.208   3.015   2.892 -0.0593 -0.5683  0.4711
 1553SOL    HW116295   0.293   2.992   2.854 -0.3001  2.7321 -2.1021
 1553SOL    HW216296   0.212   3.110   2.905  1.1517 -0.4469 -0.7484
 1554SOL     OW16297   2.905   2.466   4.493 -0.4888  0.5786 -0.0142
 1554SOL    HW116298   2.980   2.416   4.459  1.0680  1.8690  1.5625
 1554SOL    HW216299   2.862   2.401   4.549 -1.6558  1.7617  0.4344
 1555SOL     OW16300   0.922   3.435   7.788 -0.3111 -0.7356  0.3097
 1555SOL    HW116301   0.966   3.507   7.744  0.3054 -1.8804 -0.9683
 1555SOL    HW216302   0.884   3.483   7.861  2.4985  0.3993  0.9890
 1556SOL     OW16303   3.264   1.786   1.436 -0.0652  0.1116 -0.1599
 1556SOL    HW116304   3.177   1.763   1.402 -0.1302  0.2843 -0.1152
 1556SOL    HW216305   3.240   1.854   1.499 -0.5097 -0.4366  0.2565
 1557SOL     OW16306   2.663   4.595   7.238  0.0498  0.3972 -0.1886
 1557SOL    HW116307   2.659   4.517   7.183  2.1880 -1.4752  2.3348
 1557SOL    HW216308   2.590   4.569   7.294 -0.6072 -1.8316 -2.0981
 1558SOL     OW16309   0.962   1.831   3.324 -0.4222 -0.2598 -0.0853
 1558SOL    HW116310   1.026   1.855   3.257 -0.2815  1.7328  0.7525
 1558SOL    HW216311   0.882   1.873   3.292 -1.1928 -2.1213 -0.5714
 1559SOL     OW16312   2.114   1.401  12.675 -0.1365 -0.6160 -0.2498
 1559SOL    HW116313   2.046   1.412  12.741 -0.3104 -0.5162 -0.4442
 1559SOL    HW216314   2.161   1.484  12.682 -0.2248 -0.6968  1.2640
 1560SOL     OW16315   4.006   2.972   4.808  0.7077 -0.7044 -0.3021
 1560SOL    HW116316   3.976   2.893   4.852 -1.4713 -0.6530 -1.6533
 1560SOL    HW216317   3.949   2.973   4.730  0.5299  2.0922 -0.1589
 1561SOL     OW16318   3.704   2.138  12.094 -0.8014 -0.5358 -0.0817
 1561SOL    HW116319   3.723   2.142  12.000 -0.8414  0.2095 -0.0585
 1561SOL    HW216320   3.611   2.115  12.094 -0.8332 -0.4112  0.6326
 1562SOL     OW16321   1.731   0.053   4.364 -0.0312  0.2261 -0.5756
 1562SOL    HW116322   1.721   0.147   4.352 -1.0700  0.3620  1.3199
 1562SOL    HW216323   1.640   0.033   4.344  0.2107 -1.0925 -0.4021
 1563SOL     OW16324   3.081   1.298   8.567 -0.1380 -0.0817  0.1467
 1563SOL    HW116325   3.159   1.266   8.611 -0.1478 -0.2721  0.0272
 1563SOL    HW216326   3.109   1.371   8.511  1.0278  0.3994  1.3864
 1564SOL     OW16327   1.338   4.128   7.160 -0.2669 -0.2336 -0.2149
 1564SOL    HW116328   1.353   4.093   7.249  3.0064 -0.1998 -0.7620
 1564SOL    HW216329   1.340   4.223   7.168  1.5041  0.0420 -3.9870
 1565SOL     OW16330   0.072   0.721   3.593 -0.1943 -0.3885  0.0424
 1565SOL    HW116331   0.089   0.816   3.592 -1.4405 -0.1607 -0.3792
 1565SOL    HW216332   4.733   0.716   3.538 -0.4651 -0.4141  0.4341
 1566SOL     OW16333   4.496   3.618  16.024  0.4080 -0.4322  0.4949
 1566SOL    HW116334   4.425   3.654  15.971 -0.4552 -0.6823  1.4762
 1566SOL    HW216335   4.459   3.623  16.112  1.2625 -0.2266  0.8352
 1567SOL     OW16336   1.205   4.163   7.609  0.4719  0.0221 -0.1552
 1567SOL    HW116337   1.261   4.240   7.602  0.1643  0.1029 -1.7127
 1567SOL    HW216338   1.123   4.195   7.646  0.2481 -1.9688  1.0773
 1568SOL     OW16339   4.640   0.570  15.671  0.1987 -0.3942 -0.4241
 1568SOL    HW116340   4.572   0.520  15.627  0.8327 -1.9231  0.3150
 1568SOL    HW216341   4.701   0.504  15.702 -0.4009  0.7145  3.1786
 1569SOL     OW16342   2.480   2.902   3.026 -0.0545 -0.4141  0.3343
 1569SOL    HW116343   2.411   2.838   3.009 -0.4303  0.0553  0.0659
 1569SOL    HW216344   2.483   2.949   2.943  0.6113  0.6512  0.9615
 1570SOL     OW16345   0.562   0.915   7.574  0.6479  0.5790 -0.0021
 1570SOL    HW116346   0.582   0.979   7.641 -0.3807  0.5997  0.2832
 1570SOL    HW216347   0.469   0.907   7.596 -0.2156  3.6735 -2.5752
 1571SOL     OW16348   3.406   1.727   8.921 -0.5501 -0.1563 -0.0038
 1571SOL    HW116349   3.350   1.763   8.990  0.1806  0.4102  0.2960
 1571SOL    HW216350   3.492   1.757   8.948 -0.1237 -0.6757 -0.7765
 1572SOL     OW16351   0.365   4.104  16.978 -0.2235 -0.2019  0.1416
 1572SOL    HW116352   0.423   4.033  16.954 -2.3766 -1.3963 -1.5221
 1572SOL    HW216353   0.320   4.138  16.900  1.7725  0.4173 -0.7354
 1573SOL     OW16354   1.611   4.407   6.950  0.8809  0.5840  0.2187
 1573SOL    HW116355   1.657   4.489   6.933 -0.6647  1.3575 -0.2846
 1573SOL    HW216356   1.588   4.376   6.863  0.6600 -2.5971  1.4183
 1574SOL     OW16357   2.859   4.719  12.936  0.4527 -0.1806  0.4052
 1574SOL    HW116358   2.830   4.731  12.846 -0.1094 -2.3010  0.3093
 1574SOL    HW216359   2.877   0.071  12.957 -0.6238  0.7214 -2.6018
 1575SOL     OW16360   2.851   2.046   2.450 -0.1285  0.2727  0.0220
 1575SOL    HW116361   2.903   1.974   2.486 -3.2502 -1.4469  1.0721
 1575SOL    HW216362   2.922   2.111   2.454  1.1736 -1.2174  1.5765
 1576SOL     OW16363   1.776   2.441   7.106 -0.2913 -0.3082 -0.3725
 1576SOL    HW116364   1.770   2.528   7.065  1.5808  1.5085  3.1791
 1576SOL    HW216365   1.810   2.470   7.191 -0.7685 -0.8314 -0.0018
 1577SOL     OW16366   0.964   2.627   7.036  0.4213 -0.4610 -0.5435
 1577SOL    HW116367   0.961   2.676   7.119 -1.5028 -1.8213  0.1962
 1577SOL    HW216368   0.870   2.621   7.019  0.8525  0.8921 -3.3423
 1578SOL     OW16369   4.167   2.145   6.132  0.5528  0.6678  0.1923
 1578SOL    HW116370   4.254   2.187   6.132  1.0137 -0.3193 -2.4534
 1578SOL    HW216371   4.127   2.201   6.065  0.8905 -1.6154 -1.9061
 1579SOL     OW16372   0.643   2.581   2.968 -0.0407 -0.5037  0.1721
 1579SOL    HW116373   0.640   2.603   3.062 -0.4022  0.8575 -0.1620
 1579SOL    HW216374   0.624   2.668   2.932 -1.3352 -1.6842 -1.9705
 1580SOL     OW16375   3.485   2.730  13.064 -0.8132 -0.0527 -0.2348
 1580SOL    HW116376   3.485   2.728  12.968  0.2916 -0.2760 -0.2340
 1580SOL    HW216377   3.476   2.823  13.082  0.2639  0.3825 -1.9301
 1581SOL     OW16378   4.486   0.125   2.040  0.1552 -0.3593  0.4466
 1581SOL    HW116379   4.569   0.156   2.077 -0.2733  2.8480 -1.2690
 1581SOL    HW216380   4.515   0.119   1.949 -0.7121 -0.2667  0.1590
 1582SOL     OW16381   0.978   3.966   3.898  0.0927  0.5552 -0.1012
 1582SOL    HW116382   1.017   3.942   3.982 -0.3245  0.3618  0.0409
 1582SOL    HW216383   1.042   4.020   3.853 -2.0687  2.0635 -1.3652
 1583SOL     OW16384   4.713   1.789   3.591 -0.1523 -0.2302 -0.0190
 1583SOL    HW116385   0.056   1.742   3.592  1.1119  1.9503 -2.4171
 1583SOL    HW216386   4.713   1.809   3.498 -0.0542  0.1087  0.0526
 1584SOL     OW16387   1.749   3.189   1.814  0.5747 -0.4647 -0.3649
 1584SOL    HW116388   1.792   3.191   1.900  1.4495 -1.4582 -0.7848
 1584SOL    HW216389   1.672   3.132   1.820  0.3544 -0.2610 -1.2234
 1585SOL     OW16390   2.064   0.079  12.492  0.4034  0.4493  0.2275
 1585SOL    HW116391   2.051   0.017  12.564  0.3208  0.9881  0.6709
 1585SOL    HW216392   2.151   0.113  12.514  0.1846 -1.0175  3.3399
 1586SOL     OW16393   4.140   1.589   8.689 -0.4886  0.3959  0.0576
 1586SOL    HW116394   4.082   1.513   8.691 -0.1134  0.1282  0.4996
 1586SOL    HW216395   4.082   1.647   8.640 -0.9626 -0.9113 -0.9316
 1587SOL     OW16396   2.124   1.712  11.806  0.1264 -0.0811 -0.0995
 1587SOL    HW116397   2.215   1.712  11.776  0.6171  1.3118  1.4241
 1587SOL    HW216398   2.119   1.775  11.877  4.2430  2.6640 -2.2133
 1588SOL     OW16399   2.013   0.529   7.867  0.4197 -0.8256 -0.2222
 1588SOL    HW116400   2.067   0.517   7.789 -0.4314  0.4829 -1.0266
 1588SOL    HW216401   1.921   0.543   7.844  0.4634 -0.1800  0.0016
 1589SOL     OW16402   2.488   0.865   2.579  0.0037  0.0563 -0.6665
 1589SOL    HW116403   2.522   0.937   2.633  1.5713 -0.6568 -0.7274
 1589SOL    HW216404   2.552   0.855   2.509  0.9471  1.7709 -0.0737
 1590SOL     OW16405   2.586   3.786   4.260  0.1250 -0.0043 -0.1755
 1590SOL    HW116406   2.549   3.829   4.182 -0.4635  0.9026  0.6088
 1590SOL    HW216407   2.662   3.761   4.207 -0.4726 -2.7279  0.2628
 1591SOL     OW16408   2.928   0.452   2.595 -0.1943  0.7860  0.1635
 1591SOL    HW116409   2.839   0.471   2.626 -1.0820  0.9796 -2.4864
 1591SOL    HW216410   2.992   0.517   2.624 -2.6471  2.6131  1.4978
 1592SOL     OW16411   3.517   0.056   3.101  0.0458 -0.6436 -0.5817
 1592SOL    HW116412   3.610   0.080   3.095 -0.3382  0.4797 -2.0388
 1592SOL    HW216413   3.506   0.068   3.196  1.9838 -0.8233 -0.3224
 1593SOL     OW16414   4.061   3.200   6.059 -0.6133 -0.0636 -0.3500
 1593SOL    HW116415   4.042   3.192   6.152  0.9416  1.4161  0.1153
 1593SOL    HW216416   4.154   3.177   6.058 -0.4535  0.5486  0.7211
 1594SOL     OW16417   2.194   0.960   7.146 -0.1728  0.4822 -0.2037
 1594SOL    HW116418   2.272   1.013   7.131  0.5488 -1.1093 -2.0367
 1594SOL    HW216419   2.232   0.876   7.121 -0.3279  0.8791 -1.8157
 1595SOL     OW16420   0.526   2.691   3.741 -0.0514  0.9495 -0.5323
 1595SOL    HW116421   0.509   2.636   3.817 -2.2863 -0.6706 -2.1644
 1595SOL    HW216422   0.600   2.741   3.774  0.1014  0.5388 -0.2603
 1596SOL     OW16423   1.962   1.734  11.571 -0.1327  0.4061  0.4585
 1596SOL    HW116424   2.039   1.731  11.514 -0.9268  0.7722 -0.6284
 1596SOL    HW216425   2.001   1.724  11.658  0.9735 -0.2597 -0.1161
 1597SOL     OW16426   2.770   2.882  13.519 -0.3272 -0.0566  0.3083
 1597SOL    HW116427   2.794   2.919  13.434  1.2507 -3.2170 -0.6427
 1597SOL    HW216428   2.755   2.959  13.573 -1.1515  0.5725 -0.8037
 1598SOL     OW16429   2.884   3.775   2.580 -0.5576 -0.0820 -0.0107
 1598SOL    HW116430   2.814   3.762   2.644  0.1030  2.0244  1.1226
 1598SOL    HW216431   2.835   3.774   2.498  0.1161  0.4675 -0.4160
 1599SOL     OW16432   1.744   4.246  12.463  0.4378 -0.5444  0.4407
 1599SOL    HW116433   1.768   4.329  12.421 -1.4239  0.7663  1.9322
 1599SOL    HW216434   1.779   4.191  12.393 -0.8886 -1.6903  0.6828
 1600SOL     OW16435   3.612   2.604   0.559 -0.0359 -0.7177 -0.1435
 1600SOL    HW116436   3.588   2.549   0.484 -1.9003 -1.0577  0.7040
 1600SOL    HW216437   3.543   2.583   0.622 -1.1499 -0.2188 -1.2142
 1601SOL     OW16438   1.813   3.712  15.221  0.6518  0.4066 -0.0185
 1601SOL    HW116439   1.769   3.788  15.258 -2.0954 -1.3900  0.3935
 1601SOL    HW216440   1.744   3.658  15.181  1.5727 -2.1943  1.9398
 1602SOL     OW16441   1.758   1.478   3.863 -0.4456 -0.1057 -0.2004
 1602SOL    HW116442   1.782   1.398   3.817 -0.6526  0.0140 -0.5124
 1602SOL    HW216443   1.679   1.447   3.909 -0.3711  1.8448  1.2738
 1603SOL     OW16444   2.619   1.769   7.855 -0.0151 -1.2319 -0.1997
 1603SOL    HW116445   2.678   1.701   7.823  1.0010 -0.6262  0.3912
 1603SOL    HW216446   2.651   1.776   7.945  0.5972  0.7422 -0.5787
 1604SOL     OW16447   2.911   1.796   2.278  0.6656  0.4455  0.1868
 1604SOL    HW116448   2.832   1.849   2.289  0.4011  0.4329 -1.8045
 1604SOL    HW216449   2.959   1.799   2.361 -0.0218 -1.7153  0.6739
 1605SOL     OW16450   2.596   0.394   3.432 -0.2109 -0.1186  0.7095
 1605SOL    HW116451   2.591   0.301   3.410 -1.2983  0.1775 -0.3201
 1605SOL    HW216452   2.553   0.433   3.356  1.3458 -0.2063 -0.1955
 1606SOL     OW16453   2.683   1.294   8.116  0.4059  0.3786  0.2967
 1606SOL    HW116454   2.627   1.306   8.193  1.4004 -0.4861  1.1533
 1606SOL    HW216455   2.671   1.200   8.102  0.6812  0.6526 -1.7711
 1607SOL     OW16456   1.290   1.529  10.169 -0.1523  0.0760  0.1900
 1607SOL    HW116457   1.290   1.620  10.198 -0.3699  0.1350  0.0039
 1607SOL    HW216458   1.314   1.503  10.258  1.0549  0.9468  0.1136
 1608SOL     OW16459   2.984   2.431   7.178 -0.5259  0.3823 -0.6256
 1608SOL    HW116460   3.042   2.490   7.131 -1.4313  1.6157 -0.1794
 1608SOL    HW216461   2.930   2.384   7.114 -1.3675  0.3401  0.1128
 1609SOL     OW16462   2.295   4.033   1.837  0.7935  0.2484  0.1194
 1609SOL    HW116463   2.380   3.989   1.840  1.0991  0.9008  1.0953
 1609SOL    HW216464   2.276   4.031   1.931  0.0475 -1.0309 -0.0540
 1610SOL     OW16465   0.614   1.504   7.365  0.6887  0.4499  0.1875
 1610SOL    HW116466   0.630   1.524   7.457 -0.5274 -2.5617  1.0284
 1610SOL    HW216467   0.706   1.503   7.336  0.9356 -3.3871  1.0784
 1611SOL     OW16468   2.829   0.923  14.372 -0.1397  0.4539  0.2615
 1611SOL    HW116469   2.854   1.015  14.362  1.8080 -0.0885 -0.0075
 1611SOL    HW216470   2.841   0.909  14.466  3.1593 -1.4961 -0.4399
 1612SOL     OW16471   0.075   2.672   2.405  0.2948  0.7176 -0.0712
 1612SOL    HW116472   4.723   2.699   2.403 -0.0547 -0.5268 -1.5875
 1612SOL    HW216473   0.093   2.659   2.311  0.0664  1.6761 -0.2404
 1613SOL     OW16474   4.576   4.141  15.381  0.1339 -0.4602  0.3082
 1613SOL    HW116475   4.516   4.070  15.358  1.3371 -1.4676  0.3072
 1613SOL    HW216476   4.654   4.089  15.402  0.8059 -0.0245 -1.1512
 1614SOL     OW16477   3.546   1.645   7.463 -0.2755  0.1393 -0.2408
 1614SOL    HW116478   3.505   1.573   7.414  0.5681  0.4981 -1.4733
 1614SOL    HW216479   3.510   1.622   7.549  1.5453  1.7219  0.9387
 1615SOL     OW16480   4.486   3.275   2.615  0.2619 -0.1459 -0.6211
 1615SOL    HW116481   4.543   3.206   2.581  0.0068 -0.2749 -0.7757
 1615SOL    HW216482   4.483   3.340   2.544  0.6970 -1.1455 -1.5503
 1616SOL     OW16483   1.005   3.161   0.367  0.0923  0.1071 -0.1724
 1616SOL    HW116484   1.092   3.155   0.328 -0.9101 -0.5221 -2.3094
 1616SOL    HW216485   1.023   3.132   0.456  2.8191  1.0569 -0.4087
 1617SOL     OW16486   0.563   1.562   2.251  0.0228 -0.0787 -0.1619
 1617SOL    HW116487   0.644   1.596   2.287 -0.3820 -0.0716  0.7594
 1617SOL    HW216488   0.506   1.639   2.239 -0.0068 -0.0863 -0.0689
 1618SOL     OW16489   0.541   4.237  15.273  0.5629 -0.0771 -0.7944
 1618SOL    HW116490   0.525   4.329  15.255  0.1276  0.2926  1.5553
 1618SOL    HW216491   0.601   4.214  15.202  0.1174  2.4752 -1.9878
 1619SOL     OW16492   3.621   3.556   5.590  0.1659 -0.0346  0.1993
 1619SOL    HW116493   3.671   3.538   5.670 -0.2081 -0.1164  0.4119
 1619SOL    HW216494   3.527   3.547   5.602 -0.1221  1.4752 -0.8922
 1620SOL     OW16495   1.983   3.388   9.871  0.0909 -0.2446 -0.3154
 1620SOL    HW116496   1.913   3.414   9.810  0.6745 -0.0103 -0.8796
 1620SOL    HW216497   1.939   3.336   9.938 -0.0135  0.3957  0.1152
 1621SOL     OW16498   1.279   0.164   7.259 -0.3679  0.0470 -0.3364
 1621SOL    HW116499   1.334   0.233   7.297  0.2456 -0.0298 -1.0873
 1621SOL    HW216500   1.254   0.113   7.336  0.3556  0.8099  0.4150
 1622SOL     OW16501   3.082   3.918   7.052 -0.2263 -0.0470 -0.5076
 1622SOL    HW116502   3.046   3.959   7.130 -0.9300  3.7696 -2.8295
 1622SOL    HW216503   3.150   3.863   7.090 -0.6941 -0.3629 -0.1353
 1623SOL     OW16504   3.455   2.424  17.666 -0.3576 -0.4982  0.0116
 1623SOL    HW116505   3.469   2.509  17.624 -0.2886 -1.6584 -2.2802
 1623SOL    HW216506   3.430   2.365  17.595 -1.4400  0.5734 -0.5080
 1624SOL     OW16507   1.824   0.248   2.992  0.4971 -0.5632 -0.0441
 1624SOL    HW116508   1.768   0.187   2.945 -0.2133  0.5234 -0.5904
 1624SOL    HW216509   1.871   0.184   3.046  1.9543  1.9381  1.7068
 1625SOL     OW16510   1.870   1.050   9.624  0.3759  0.1858  0.6874
 1625SOL    HW116511   1.820   1.128   9.599  1.5738  0.2550 -1.4991
 1625SOL    HW216512   1.882   1.052   9.719 -1.6390  0.2885  0.9400
 1626SOL     OW16513   2.861   2.354  13.262 -0.3717 -0.2506 -0.2228
 1626SOL    HW116514   2.865   2.270  13.217  1.2115  0.8868 -2.2488
 1626SOL    HW216515   2.849   2.413  13.187  1.0762  0.6648  0.2458
 1627SOL     OW16516   1.076   3.820   2.107  0.3418  0.2436  0.0800
 1627SOL    HW116517   1.080   3.793   2.016 -0.3582 -0.4140  0.2379
 1627SOL    HW216518   1.134   3.896   2.104  1.3097 -0.5530 -1.2537
 1628SOL     OW16519   3.598   3.046   4.906  0.3491  0.3627 -0.2865
 1628SOL    HW116520   3.600   3.103   4.983 -0.0203 -1.6621  1.2128
 1628SOL    HW216521   3.570   3.097   4.830  1.2886  1.7428  0.3027
 1629SOL     OW16522   0.254   3.766   7.698  0.2744  0.1621 -0.0217
 1629SOL    HW116523   0.177   3.822   7.688  0.3382 -0.1424 -2.0410
 1629SOL    HW216524   0.236   3.715   7.778 -1.9225  1.4232  0.2905
 1630SOL     OW16525   1.712   2.739  11.863 -0.3553  0.2582 -0.3374
 1630SOL    HW116526   1.791   2.702  11.823 -0.2667  1.1748 -0.9917
 1630SOL    HW216527   1.738   2.830  11.874  1.2266  0.0532 -2.2858
 1631SOL     OW16528   1.371   1.172   8.535  0.0561  0.7057 -0.4439
 1631SOL    HW116529   1.322   1.146   8.458  0.3598 -4.0545  0.9667
 1631SOL    HW216530   1.310   1.189   8.607  1.4399  4.3917 -0.1386
 1632SOL     OW16531   0.718   1.718   5.567 -0.0637 -0.1020 -0.1381
 1632SOL    HW116532   0.708   1.792   5.507  1.1675  1.2381  1.2944
 1632SOL    HW216533   0.702   1.755   5.655  2.7473  2.2761 -0.6112
 1633SOL     OW16534   3.574   0.689   4.160 -0.9633  0.1352 -0.3851
 1633SOL    HW116535   3.553   0.731   4.244  0.0729 -2.4600  1.1546
 1633SOL    HW216536   3.492   0.679   4.112 -0.6574  1.1185 -1.1052
 1634SOL     OW16537   2.838   2.105   8.155 -0.0134  0.1474  0.6755
 1634SOL    HW116538   2.796   2.183   8.117 -0.1275 -0.3656 -0.2423
 1634SOL    HW216539   2.899   2.151   8.213  1.3707 -0.9107  0.0666
 1635SOL     OW16540   3.562   0.849   1.371  0.2392  0.1370  0.3474
 1635SOL    HW116541   3.645   0.866   1.327  0.9710 -1.9615  0.9091
 1635SOL    HW216542   3.560   0.756   1.349 -0.0841  0.5871 -1.5018
 1636SOL     OW16543   4.315   2.163  16.626  0.2254  0.1337  0.3736
 1636SOL    HW116544   4.291   2.235  16.568 -1.8560 -1.4793 -0.7594
 1636SOL    HW216545   4.410   2.157  16.617  0.4125  1.2315  1.5062
 1637SOL     OW16546   2.772   0.550   6.309 -0.0048 -0.7159 -0.2344
 1637SOL    HW116547   2.780   0.536   6.215 -1.3205  1.8028 -0.7126
 1637SOL    HW216548   2.677   0.540   6.305 -0.1647  0.3261  1.0060
 1638SOL     OW16549   0.056   0.777   4.302  0.4125 -0.3258 -0.0389
 1638SOL    HW116550   0.061   0.861   4.257 -0.6204 -0.1244  0.2143
 1638SOL    HW216551   0.040   0.707   4.239 -0.5020 -0.7647  0.6753
 1639SOL     OW16552   4.335   2.175   7.980 -0.1967  0.1627 -0.2277
 1639SOL    HW116553   4.414   2.121   7.968 -0.7381 -0.7952  0.4666
 1639SOL    HW216554   4.332   2.150   8.073  3.9231 -1.8507 -0.6004
 1640SOL     OW16555   1.285   2.355   3.343 -0.1235 -0.0956 -0.0918
 1640SOL    HW116556   1.311   2.427   3.400 -3.1372  1.3287 -0.5627
 1640SOL    HW216557   1.224   2.401   3.286  0.6482  1.4365  0.3325
 1641SOL     OW16558   4.611   0.088   8.506  0.0132 -0.3022  0.2043
 1641SOL    HW116559   4.515   0.091   8.502  0.0132  2.6911  1.7767
 1641SOL    HW216560   4.632   0.135   8.425 -1.5535  1.5142  0.8330
 1642SOL     OW16561   0.118   1.380  12.794  0.2242  0.0729  0.4605
 1642SOL    HW116562   0.152   1.452  12.847 -1.3505 -0.3370  2.0049
 1642SOL    HW216563   0.199   1.329  12.789  0.5900  0.5408  1.5668
 1643SOL     OW16564   2.799   0.517   1.555 -0.0667  0.2000  0.2797
 1643SOL    HW116565   2.876   0.574   1.559  0.2099 -0.1736  0.2672
 1643SOL    HW216566   2.832   0.463   1.483  0.0920  0.9155 -0.1879
 1644SOL     OW16567   4.114   4.626   5.718  0.0546  0.1450  0.1167
 1644SOL    HW116568   4.076   4.538   5.712 -1.4847  0.7345  1.1378
 1644SOL    HW216569   4.096   4.661   5.631  0.8180  0.4858  0.0989
 1645SOL     OW16570   1.088   0.346   7.869  0.3251  0.0722  0.0181
 1645SOL    HW116571   1.178   0.338   7.838 -0.2785 -1.4893 -1.3414
 1645SOL    HW216572   1.068   0.437   7.849  1.8059  0.5275  0.5745
 1646SOL     OW16573   0.506   1.568   6.302 -0.1764 -0.3604  0.4785
 1646SOL    HW116574   0.457   1.631   6.248  0.6530 -0.4992 -0.4411
 1646SOL    HW216575   0.550   1.627   6.362  0.1866 -1.8559  1.6705
 1647SOL     OW16576   0.306   4.187   2.549 -0.4515  0.0899 -0.2172
 1647SOL    HW116577   0.356   4.235   2.615  0.3753  2.3922 -2.5414
 1647SOL    HW216578   0.345   4.101   2.534 -2.9447 -0.9613 -0.7163
 1648SOL     OW16579   0.017   4.177   4.371  0.7900  0.0951  0.0760
 1648SOL    HW116580   0.059   4.242   4.315  0.3881 -0.8751 -1.3327
 1648SOL    HW216581   0.099   4.153   4.415  1.2198  0.4645 -0.5240
 1649SOL     OW16582   3.126   0.933   3.282 -0.0879  0.3736  0.1089
 1649SOL    HW116583   3.214   0.910   3.311  0.5277 -1.2577 -3.1034
 1649SOL    HW216584   3.136   1.027   3.299 -0.0125  0.3011  0.4779
 1650SOL     OW16585   1.349   2.870   5.122  0.3579  0.4096 -0.3796
 1650SOL    HW116586   1.321   2.792   5.170  0.9558  1.2753  1.3846
 1650SOL    HW216587   1.444   2.857   5.133  0.7060  2.8347 -0.6042
 1651SOL     OW16588   1.344   2.574   3.508 -0.1952  0.2723 -1.3004
 1651SOL    HW116589   1.334   2.661   3.468 -0.7473 -0.5249 -2.9335
 1651SOL    HW216590   1.327   2.608   3.596  2.4215  1.6204 -1.2862
 1652SOL     OW16591   3.020   4.523   4.714  0.4992 -0.6193 -0.6844
 1652SOL    HW116592   2.945   4.582   4.715  0.7375 -0.3322  0.5175
 1652SOL    HW216593   3.097   4.575   4.689 -0.4031  0.2367 -1.6713
 1653SOL     OW16594   1.779   1.207   8.478 -0.0486 -0.4747  0.0635
 1653SOL    HW116595   1.797   1.242   8.391  1.6591  0.1466  0.6776
 1653SOL    HW216596   1.805   1.115   8.482  0.1315 -0.4484 -0.6610
 1654SOL     OW16597   4.361   1.103   3.340  0.2677 -0.8171  0.3611
 1654SOL    HW116598   4.420   1.164   3.296 -1.2615  0.9368  0.7189
 1654SOL    HW216599   4.307   1.164   3.390 -0.0291 -2.6581  2.2727
 1655SOL     OW16600   2.262   0.439   7.961  0.2662 -0.4194  0.4590
 1655SOL    HW116601   2.195   0.501   7.989  1.0385  0.4887  0.2830
 1655SOL    HW216602   2.263   0.372   8.029  0.1227 -0.6580  0.2283
 1656SOL     OW16603   1.905   0.233   6.189 -0.1887  0.6970 -0.1230
 1656SOL    HW116604   1.981   0.205   6.241  0.5122  2.3183 -0.2480
 1656SOL    HW216605   1.909   0.328   6.177  1.9893  0.6176 -0.0957
 1657SOL     OW16606   0.781   4.600   6.452  0.2207 -0.3820 -0.6226
 1657SOL    HW116607   0.806   4.617   6.362 -0.5410 -1.3497 -1.0189
 1657SOL    HW216608   0.689   4.626   6.448 -0.0897 -1.0178  2.1505
 1658SOL     OW16609   2.367   1.633  11.718 -0.0729  0.3394  0.1368
 1658SOL    HW116610   2.426   1.660  11.788  1.0292  0.2671 -0.7655
 1658SOL    HW216611   2.427   1.578  11.668 -1.7456 -0.4007 -1.0449
 1659SOL     OW16612   2.832   1.759  16.749  0.7533 -0.1092  0.8779
 1659SOL    HW116613   2.757   1.736  16.804  0.5901 -1.5553  0.0557
 1659SOL    HW216614   2.895   1.691  16.772  1.0234  0.6734  2.4486
 1660SOL     OW16615   1.686   3.068   3.609 -0.0716 -0.4963 -0.0454
 1660SOL    HW116616   1.744   3.083   3.684  1.4400  1.4175 -1.6030
 1660SOL    HW216617   1.654   3.155   3.586  1.2935  0.1679  0.5705
 1661SOL     OW16618   2.374   3.855   1.577  0.2834  0.1460 -0.3024
 1661SOL    HW116619   2.362   3.906   1.657 -0.4628  0.9006 -0.8907
 1661SOL    HW216620   2.350   3.920   1.510  0.8509  0.7344  0.0639
 1662SOL     OW16621   2.349   4.376  17.107 -0.1702  0.2497  0.1268
 1662SOL    HW116622   2.379   4.287  17.089  1.0303 -0.0753  3.8312
 1662SOL    HW216623   2.382   4.423  17.031 -0.9315  1.0864  0.3172
 1663SOL     OW16624   2.764   3.278   2.296 -0.4208 -0.1367  0.0645
 1663SOL    HW116625   2.702   3.206   2.305 -0.4848 -0.1211 -0.2419
 1663SOL    HW216626   2.833   3.252   2.357  1.1210  1.6252 -0.9145
 1664SOL     OW16627   4.645   2.586  10.831 -0.1967  0.3250  0.5471
 1664SOL    HW116628   4.736   2.570  10.807 -0.3058  0.5675 -0.0426
 1664SOL    HW216629   4.614   2.496  10.839  0.0052  0.0993 -1.1271
 1665SOL     OW16630   1.915   2.392  11.150 -0.5275 -0.0328  0.4152
 1665SOL    HW116631   2.001   2.404  11.110 -0.5076  0.3254  0.5709
 1665SOL    HW216632   1.941   2.309  11.190 -0.4530  0.0285  0.4915
 1666SOL     OW16633   0.398   3.639   4.647 -0.0449  0.0861  0.0757
 1666SOL    HW116634   0.420   3.553   4.682  2.5211  0.1972 -1.2678
 1666SOL    HW216635   0.445   3.700   4.704  0.3497  1.0610 -1.2796
 1667SOL     OW16636   1.607   1.102   4.422  0.0087 -0.1656 -0.2518
 1667SOL    HW116637   1.605   1.056   4.338 -0.0161 -0.8294  0.1166
 1667SOL    HW216638   1.688   1.060   4.451  0.2777 -0.6632 -1.7187
 1668SOL     OW16639   2.543   3.637   5.117 -0.1694 -0.3220  0.2573
 1668SOL    HW116640   2.514   3.589   5.194  2.9134 -2.3302  0.1748
 1668SOL    HW216641   2.461   3.685   5.107  0.5055  0.8334  0.1493
 1669SOL     OW16642   0.621   4.234   7.634 -0.2163 -0.6247  0.3271
 1669SOL    HW116643   0.655   4.254   7.547  3.3870 -3.2059  1.1228
 1669SOL    HW216644   0.550   4.173   7.617  0.8460 -1.8205  0.1541
 1670SOL     OW16645   1.813   0.622   5.429  0.3457 -0.3679 -0.5515
 1670SOL    HW116646   1.784   0.673   5.504  0.9189 -0.0185 -0.5638
 1670SOL    HW216647   1.784   0.532   5.438  2.2805 -1.1627 -2.1384
 1671SOL     OW16648   3.392   4.422   9.400 -0.3303 -0.1391  0.2959
 1671SOL    HW116649   3.320   4.388   9.453  0.2707 -1.7436  0.1123
 1671SOL    HW216650   3.448   4.345   9.412 -0.1666  0.0522  0.7232
 1672SOL     OW16651   3.842   0.996   8.661  0.2007  0.0411 -0.9125
 1672SOL    HW116652   3.767   0.994   8.602  0.4408 -0.0072 -1.2150
 1672SOL    HW216653   3.796   1.016   8.743  0.6494 -0.6080 -0.4982
 1673SOL     OW16654   2.564   4.408   7.990  0.0454  0.4004 -0.3944
 1673SOL    HW116655   2.638   4.350   8.006  1.9144  2.7517 -0.5243
 1673SOL    HW216656   2.611   4.478   7.945  2.3562 -0.7008  0.3412
 1674SOL     OW16657   4.358   3.682  15.475  0.4170 -0.2441 -0.7442
 1674SOL    HW116658   4.270   3.686  15.513 -0.0358  0.0453 -1.8293
 1674SOL    HW216659   4.332   3.685  15.383 -0.9090 -0.6208 -0.3709
 1675SOL     OW16660   3.043   3.598   0.324 -0.2994  0.1488  0.3707
 1675SOL    HW116661   2.987   3.525   0.351 -1.6849  0.4107 -1.7842
 1675SOL    HW216662   3.002   3.642   0.250 -0.7072 -0.1524  0.4187
 1676SOL     OW16663   4.152   2.829   4.518 -0.1680  0.3924  0.3441
 1676SOL    HW116664   4.173   2.878   4.439  0.3798 -0.2857  0.0611
 1676SOL    HW216665   4.069   2.790   4.491  1.0914 -1.4415 -0.8895
 1677SOL     OW16666   1.818   1.636   1.135 -0.5793  0.3379 -0.7469
 1677SOL    HW116667   1.826   1.710   1.074  1.0121 -1.0257 -2.1665
 1677SOL    HW216668   1.764   1.675   1.204 -0.0807  2.4495 -1.5413
 1678SOL     OW16669   3.911   2.222   6.956 -0.0722  0.0937  0.3780
 1678SOL    HW116670   3.939   2.160   7.023 -3.1738 -0.8084  0.8439
 1678SOL    HW216671   3.917   2.170   6.875 -2.3829  0.5714 -0.0986
 1679SOL     OW16672   2.214   3.392   2.220 -0.1977 -0.7112  0.8477
 1679SOL    HW116673   2.153   3.357   2.155 -0.6694  1.5362  0.0789
 1679SOL    HW216674   2.164   3.359   2.295  1.4644 -0.3151  2.1144
 1680SOL     OW16675   3.991   2.385   2.065 -0.0344 -0.1663 -0.4646
 1680SOL    HW116676   3.925   2.328   2.105  0.5874 -0.5763 -0.0147
 1680SOL    HW216677   4.049   2.332   2.010 -0.3437 -0.1554 -0.8037
 1681SOL     OW16678   0.924   1.483   6.199  1.0244 -0.1531  0.1728
 1681SOL    HW116679   0.994   1.419   6.212  0.0216 -1.2568  0.1285
 1681SOL    HW216680   0.860   1.435   6.148  0.9310 -0.6339  0.7433
 1682SOL     OW16681   4.456   0.730  10.021 -0.2764 -0.6082 -0.6898
 1682SOL    HW116682   4.531   0.695   9.973 -0.9005  0.7008 -2.6492
 1682SOL    HW216683   4.472   0.697  10.109  3.6659  2.7049 -0.1621
 1683SOL     OW16684   3.113   1.055   1.955  0.1150  0.8382  0.9559
 1683SOL    HW116685   3.114   1.069   1.861 -0.7343  0.2802  0.8565
 1683SOL    HW216686   3.101   0.961   1.968  2.0232  0.4930  0.1633
 1684SOL     OW16687   2.993   2.317  16.516  0.3461  0.1115 -0.3080
 1684SOL    HW116688   3.058   2.313  16.586 -1.5831 -3.0689  1.3219
 1684SOL    HW216689   2.941   2.388  16.554  0.1936 -0.0198 -0.2677
 1685SOL     OW16690   1.615   4.148  10.141  0.1062 -0.0497  0.6158
 1685SOL    HW116691   1.577   4.070  10.101  2.7531 -0.3597 -1.2712
 1685SOL    HW216692   1.691   4.169  10.087  0.7845  0.3007  1.7006
 1686SOL     OW16693   2.696   2.497  16.365  0.2777 -0.3208  0.3607
 1686SOL    HW116694   2.660   2.433  16.303 -0.6329  0.3653  0.1756
 1686SOL    HW216695   2.622   2.558  16.362  0.7774  0.2183 -0.9027
 1687SOL     OW16696   2.331   4.035   7.071  0.5527  0.2125 -0.0183
 1687SOL    HW116697   2.241   4.004   7.084  1.3095 -0.6132  3.2537
 1687SOL    HW216698   2.349   4.078   7.154  1.7483 -0.5522  0.1170
 1688SOL     OW16699   4.393   2.720  17.278  0.2074 -0.1880  0.4576
 1688SOL    HW116700   4.378   2.788  17.212  0.7035 -1.1117 -0.5968
 1688SOL    HW216701   4.458   2.751  17.341 -0.1495 -0.4662  0.9595
 1689SOL     OW16702   3.044   3.275   4.738 -0.2928  0.4160 -0.3387
 1689SOL    HW116703   3.084   3.213   4.799  0.0393 -1.0158 -1.9963
 1689SOL    HW216704   3.080   3.361   4.762  1.0665 -0.8009  2.0309
 1690SOL     OW16705   4.015   2.862   5.097 -0.2899  0.6506  0.0897
 1690SOL    HW116706   4.109   2.872   5.082  0.0889 -0.1214  1.9430
 1690SOL    HW216707   3.986   2.809   5.023  1.2930  0.1794 -0.1950
 1691SOL     OW16708   0.048   3.456   1.695 -0.8323  0.3167 -0.2976
 1691SOL    HW116709   0.021   3.367   1.720 -0.9042  0.1657 -0.9099
 1691SOL    HW216710   4.716   3.501   1.653  2.2063  4.5433 -0.9582
 1692SOL     OW16711   3.661   3.964   3.651  0.8005 -0.7456  0.4112
 1692SOL    HW116712   3.693   4.031   3.712 -1.0008 -0.3734  0.9270
 1692SOL    HW216713   3.724   3.968   3.579  1.7809 -2.2275  1.1932
 1693SOL     OW16714   1.427   2.755   2.375 -0.0186  0.1609  0.2317
 1693SOL    HW116715   1.350   2.766   2.319  1.0376  0.8046 -1.0986
 1693SOL    HW216716   1.408   2.672   2.419 -1.7354  1.4449  1.9111
 1694SOL     OW16717   2.849   1.223   7.050  0.0479  0.4121 -0.1436
 1694SOL    HW116718   2.799   1.298   7.083  0.0219 -0.2579  1.3704
 1694SOL    HW216719   2.936   1.264   7.054  1.0905 -1.7223 -0.9575
 1695SOL     OW16720   4.141   4.560  10.371 -0.1926  0.4853 -0.0017
 1695SOL    HW116721   4.066   4.555  10.311 -0.3119 -0.5645  0.2403
 1695SOL    HW216722   4.108   4.597  10.452 -1.3266  0.2518 -0.3625
 1696SOL     OW16723   4.533   4.702   4.402 -0.2759 -0.3221  0.1639
 1696SOL    HW116724   4.536   4.727   4.494  1.1157 -1.3597  0.4063
 1696SOL    HW216725   4.583   0.036   4.368 -1.0457 -0.7268 -1.8379
 1697SOL     OW16726   0.758   0.817  10.522  0.1119 -0.3377  0.3033
 1697SOL    HW116727   0.697   0.830  10.449 -0.8165  0.4850  1.2303
 1697SOL    HW216728   0.699   0.787  10.591  2.0892 -0.8292  1.7853
 1698SOL     OW16729   2.862   0.697   3.063 -0.2166 -0.6332  0.1004
 1698SOL    HW116730   2.922   0.632   3.101 -2.1856 -1.7706  1.2290
 1698SOL    HW216731   2.924   0.754   3.016  1.6375 -0.3622  2.8766
 1699SOL     OW16732   2.759   1.474   2.712 -0.6008  0.7369 -0.1264
 1699SOL    HW116733   2.798   1.544   2.764 -1.6352 -0.7159  2.5830
 1699SOL    HW216734   2.848   1.438   2.718 -0.5010  0.8112 -1.0684
 1700SOL     OW16735   2.225   1.637   8.531  0.2359  0.3285  0.2206
 1700SOL    HW116736   2.160   1.575   8.499  1.9167 -0.5935 -1.4103
 1700SOL    HW216737   2.299   1.617   8.474  0.3998  1.6420 -0.0256
 1701SOL     OW16738   0.595   4.244   4.113  0.1018 -0.1509 -0.7727
 1701SOL    HW116739   0.644   4.162   4.114 -0.7553 -0.6888 -2.2950
 1701SOL    HW216740   0.542   4.227   4.191  0.2332 -0.3105 -0.7171
 1702SOL     OW16741   4.447   2.357   4.817 -0.3087 -0.0935  0.0369
 1702SOL    HW116742   4.388   2.320   4.752  0.2662  0.2242 -0.6666
 1702SOL    HW216743   4.432   2.452   4.814  1.8195  0.2423  0.2349
 1703SOL     OW16744   1.593   4.730   6.021 -0.3841 -0.1710 -0.6772
 1703SOL    HW116745   1.644   4.734   6.101 -2.1302  0.7352  0.3883
 1703SOL    HW216746   1.511   4.713   6.066 -0.4540 -0.5281 -0.9399
 1704SOL     OW16747   4.627   0.542   0.535  0.4411 -0.2974 -0.0566
 1704SOL    HW116748   4.615   0.634   0.559  0.0271 -0.4424  0.3020
 1704SOL    HW216749   4.675   0.546   0.453  0.0574 -2.7978 -0.4010
 1705SOL     OW16750   0.720   3.366   4.970 -0.0433  0.2718  0.3604
 1705SOL    HW116751   0.733   3.364   5.065  0.8421 -2.7124  0.2085
 1705SOL    HW216752   0.725   3.273   4.948 -0.1011  0.4105 -0.2195
 1706SOL     OW16753   2.341   2.848   1.745 -0.5172 -0.3562 -0.0500
 1706SOL    HW116754   2.403   2.905   1.699  0.1966 -0.5990  0.6156
 1706SOL    HW216755   2.407   2.792   1.785 -0.8069  0.3207  1.3716
 1707SOL     OW16756   0.402   2.196  12.198  0.4702 -0.2766 -0.4243
 1707SOL    HW116757   0.355   2.155  12.270 -0.9931  0.4064 -0.9850
 1707SOL    HW216758   0.478   2.233  12.243  0.6822 -1.0230 -0.1753
 1708SOL     OW16759   4.269   1.293   5.397  0.0099 -0.2048 -0.0255
 1708SOL    HW116760   4.325   1.349   5.345 -1.9929  0.0245 -1.9082
 1708SOL    HW216761   4.221   1.260   5.321  0.0422  0.5862 -0.3858
 1709SOL     OW16762   4.008   3.243  13.370 -0.5187 -0.5196 -0.4380
 1709SOL    HW116763   3.928   3.196  13.345 -0.3952 -0.5773 -0.7310
 1709SOL    HW216764   3.973   3.331  13.355  2.4351  0.2765 -2.8066
 1710SOL     OW16765   4.728   3.040   6.194 -0.0078 -0.3953  0.1773
 1710SOL    HW116766   4.720   3.012   6.285 -2.1644 -0.7334 -0.1156
 1710SOL    HW216767   4.634   3.058   6.188 -0.1626 -1.3364 -0.2835
 1711SOL     OW16768   1.312   4.150  10.270  0.6916 -0.1774  0.3492
 1711SOL    HW116769   1.312   4.244  10.252 -2.3462 -0.1053  0.8320
 1711SOL    HW216770   1.231   4.139  10.319 -0.4287  1.2681 -1.1830
 1712SOL     OW16771   3.891   3.294  14.178  0.0875 -0.3663 -0.5250
 1712SOL    HW116772   3.810   3.259  14.141 -0.2301  1.3500 -1.4371
 1712SOL    HW216773   3.917   3.354  14.108  1.1771  0.5138  0.6158
 1713SOL     OW16774   2.415   1.797   7.130 -0.1374  0.2941 -0.1492
 1713SOL    HW116775   2.348   1.766   7.191  1.2756 -2.0702  0.2121
 1713SOL    HW216776   2.389   1.888   7.121 -1.8718 -0.0899  1.0424
 1714SOL     OW16777   3.226   4.247   6.384 -0.5061 -0.1952 -0.0361
 1714SOL    HW116778   3.178   4.290   6.454 -0.1664  0.5002 -0.2312
 1714SOL    HW216779   3.237   4.157   6.417 -0.3135  0.1562  0.8590
 1715SOL     OW16780   2.409   2.241  12.383  0.4259 -0.0872 -0.2430
 1715SOL    HW116781   2.424   2.234  12.289  2.9365  0.9346  0.0790
 1715SOL    HW216782   2.322   2.279  12.371 -0.8114 -2.1019  2.3394
 1716SOL     OW16783   1.158   0.572   1.440 -0.2937  0.2854  0.3039
 1716SOL    HW116784   1.110   0.609   1.514  0.3368  0.1666  0.7723
 1716SOL    HW216785   1.247   0.569   1.474 -1.0302 -0.5375  2.1516
 1717SOL     OW16786   1.242   0.214  16.159 -0.4345  0.1018 -0.0319
 1717SOL    HW116787   1.327   0.235  16.198 -1.1517 -0.4794  1.8635
 1717SOL    HW216788   1.207   0.300  16.181  2.7111  1.1352  0.9710
 1718SOL     OW16789   0.345   1.883   6.996 -0.2347  0.4414 -0.5259
 1718SOL    HW116790   0.299   1.908   6.916  0.8694  0.2585 -1.2197
 1718SOL    HW216791   0.290   1.828   7.051 -0.6840  0.4539 -0.9573
 1719SOL     OW16792   3.782   1.421   2.928 -0.2411 -0.2655 -0.2324
 1719SOL    HW116793   3.865   1.455   2.893  0.1799 -0.1108  0.9224
 1719SOL    HW216794   3.795   1.353   2.995 -0.2013  2.4172  2.4788
 1720SOL     OW16795   1.952   1.979   9.947 -0.1210  0.0356  0.6269
 1720SOL    HW116796   1.988   2.067   9.952 -1.6875  0.6919  0.5944
 1720SOL    HW216797   1.935   1.971  10.040  1.5025 -0.2132  0.8983
 1721SOL     OW16798   0.627   4.616   9.627  0.1307  0.6289  0.7265
 1721SOL    HW116799   0.707   4.590   9.581  0.2904  1.3698  0.5916
 1721SOL    HW216800   0.566   4.545   9.607  1.8609 -0.1198 -2.0392
 1722SOL     OW16801   2.207   0.692   4.949 -0.1433  0.2834  0.0499
 1722SOL    HW116802   2.114   0.713   4.944 -0.4447 -0.9274  0.5534
 1722SOL    HW216803   2.239   0.768   4.998  0.7318 -0.4741  0.6492
 1723SOL     OW16804   4.551   4.726  16.730  0.2936  0.3419 -0.0798
 1723SOL    HW116805   4.586   0.012  16.815 -0.9041  0.2035  0.4564
 1723SOL    HW216806   4.551   0.066  16.678  0.8495  0.2540 -0.2201
 1724SOL     OW16807   1.023   3.551   3.019 -0.0416 -0.6725 -0.2680
 1724SOL    HW116808   0.952   3.492   2.995  0.4183 -0.1655 -2.8825
 1724SOL    HW216809   1.040   3.604   2.941 -0.8939 -1.3487 -0.9027
 1725SOL     OW16810   3.352   4.359   3.833  0.5156  0.2401 -0.5839
 1725SOL    HW116811   3.422   4.364   3.768  0.9113 -0.1981 -0.1965
 1725SOL    HW216812   3.396   4.395   3.911  1.0319  0.0180 -0.7685
 1726SOL     OW16813   4.544   1.998   8.190 -0.0237 -0.3656 -0.0057
 1726SOL    HW116814   4.529   1.979   8.283  3.3314  0.6794  0.7303
 1726SOL    HW216815   4.635   2.026   8.201  0.2534 -1.6218  0.8713
 1727SOL     OW16816   3.473   4.607  12.314 -0.4608 -0.0491  0.0363
 1727SOL    HW116817   3.515   4.693  12.322  0.7686 -0.7099  0.6665
 1727SOL    HW216818   3.542   4.559  12.361 -0.4039 -1.4527 -1.5053
 1728SOL     OW16819   4.195   3.845   2.927 -0.1229  0.1759 -0.1613
 1728SOL    HW116820   4.114   3.834   2.876  0.1840  1.0730 -0.8373
 1728SOL    HW216821   4.238   3.761   2.912  0.0239  0.2359 -0.0626
 1729SOL     OW16822   0.067   0.365  11.408 -0.1122 -0.1722  0.3218
 1729SOL    HW116823   0.009   0.379  11.333 -1.4650  0.5594  1.5102
 1729SOL    HW216824   0.099   0.281  11.373  2.0685  1.1089 -0.8077
 1730SOL     OW16825   1.549   3.809   6.608  0.0011  0.3796  0.2096
 1730SOL    HW116826   1.620   3.784   6.550  0.5235 -2.3071  2.0082
 1730SOL    HW216827   1.520   3.896   6.581 -2.9278 -1.0768 -1.4005
 1731SOL     OW16828   4.250   3.588   3.590  0.1354  1.0521 -0.2194
 1731SOL    HW116829   4.305   3.510   3.579  0.0209  1.1260 -1.2404
 1731SOL    HW216830   4.318   3.650   3.615  1.1811  0.3213 -1.2515
 1732SOL     OW16831   0.699   1.877   7.921 -0.4350  0.0957 -0.4891
 1732SOL    HW116832   0.672   1.951   7.975  1.2945  0.5774 -0.3033
 1732SOL    HW216833   0.624   1.881   7.862 -0.4765 -3.4847 -0.6797
 1733SOL     OW16834   3.827   4.148   8.847  0.8342  1.1342 -0.2908
 1733SOL    HW116835   3.890   4.078   8.860 -1.0392 -0.5308 -0.1999
 1733SOL    HW216836   3.860   4.188   8.766  1.2266 -0.6498 -1.0172
 1734SOL     OW16837   4.615   0.521   2.493 -0.2573 -0.2239  0.8919
 1734SOL    HW116838   4.579   0.452   2.436 -1.4153 -0.5100  1.9687
 1734SOL    HW216839   4.631   0.468   2.571 -1.2849  1.7847  2.4637
 1735SOL     OW16840   0.834   0.313   0.849 -0.1894  0.3091  0.0452
 1735SOL    HW116841   0.790   0.398   0.850 -0.8946 -0.0633  0.5572
 1735SOL    HW216842   0.919   0.327   0.807 -0.5212 -1.9828 -1.3640
 1736SOL     OW16843   2.804   2.021   1.291  0.4006  0.0523 -0.4740
 1736SOL    HW116844   2.744   2.046   1.362  0.4103  0.2996 -0.5542
 1736SOL    HW216845   2.841   2.103   1.258 -0.1297  0.0214 -1.1382
 1737SOL     OW16846   2.380   1.144   8.593  0.1273 -0.0568  0.6021
 1737SOL    HW116847   2.315   1.159   8.524  1.5949  0.4306 -0.6824
 1737SOL    HW216848   2.352   1.217   8.648 -2.1258 -0.8494  0.4910
 1738SOL     OW16849   2.957   2.212  16.271  0.6221 -0.5948 -0.1633
 1738SOL    HW116850   2.978   2.264  16.349  1.3971  2.4529 -2.3960
 1738SOL    HW216851   2.989   2.124  16.290  0.8883 -0.5246 -0.2905
 1739SOL     OW16852   4.318   2.319   7.419  0.1650 -0.3758 -0.2527
 1739SOL    HW116853   4.273   2.254   7.472  0.2262 -1.8384 -2.0017
 1739SOL    HW216854   4.323   2.394   7.479 -0.1042 -1.5555  1.2437
 1740SOL     OW16855   0.271   2.097   4.545 -0.4058  0.3135  0.3283
 1740SOL    HW116856   0.355   2.125   4.581  0.6715  0.7613 -2.5602
 1740SOL    HW216857   0.252   2.055   4.629  2.7421  0.5132  1.1626
 1741SOL     OW16858   3.076   2.915   3.756 -0.5723 -0.5063 -0.0844
 1741SOL    HW116859   3.076   2.981   3.687 -0.3113 -1.4907 -1.0096
 1741SOL    HW216860   3.038   2.958   3.833 -0.4914 -0.9989  0.2354
 1742SOL     OW16861   3.307   1.851   4.740 -0.3651  0.2573 -0.2262
 1742SOL    HW116862   3.295   1.946   4.747  1.2635  0.5251 -1.0330
 1742SOL    HW216863   3.359   1.830   4.818 -2.2350  2.4927  1.6220
 1743SOL     OW16864   3.218   3.769  13.555 -0.3334  0.1956 -0.5352
 1743SOL    HW116865   3.226   3.848  13.607  0.0556 -0.7768  0.8926
 1743SOL    HW216866   3.124   3.755  13.564 -0.2688  0.0883 -0.0604
 1744SOL     OW16867   4.252   2.287   2.404 -0.0406  0.3460  0.0724
 1744SOL    HW116868   4.311   2.264   2.332  0.3335  1.7723 -0.0807
 1744SOL    HW216869   4.234   2.205   2.449 -0.7452  0.9728  0.9458
 1745SOL     OW16870   1.508   2.936   4.147 -0.0179 -0.7208 -0.4588
 1745SOL    HW116871   1.453   2.882   4.203  2.0268 -0.6553  1.6542
 1745SOL    HW216872   1.450   3.001   4.108  0.2251  0.0957  0.5320
 1746SOL     OW16873   0.536   3.818   6.331 -0.0044  0.5680 -0.0775
 1746SOL    HW116874   0.530   3.912   6.318 -1.3799  0.7452  1.8127
 1746SOL    HW216875   0.447   3.788   6.314 -0.6894  2.1675  0.7569
 1747SOL     OW16876   2.145   1.778  12.531 -0.0385  0.1642  0.1071
 1747SOL    HW116877   2.202   1.853  12.512  0.1174  0.1177  0.3848
 1747SOL    HW216878   2.075   1.790  12.468 -0.7411  0.1593  0.8910
 1748SOL     OW16879   4.631   1.480  13.945  0.5724  0.0649 -0.9713
 1748SOL    HW116880   4.564   1.545  13.924  1.0526  1.3845  1.5806
 1748SOL    HW216881   4.679   1.523  14.015  0.7581  0.0883 -1.1130
 1749SOL     OW16882   0.990   2.840   9.001  0.0474 -0.3062 -0.5471
 1749SOL    HW116883   1.028   2.814   8.917 -0.3100 -2.0295 -0.1812
 1749SOL    HW216884   1.066   2.885   9.037  0.8220 -0.1512 -2.3849
 1750SOL     OW16885   3.848   0.563   5.880 -0.2114 -0.6739 -0.2239
 1750SOL    HW116886   3.779   0.625   5.858  1.1152  0.6567 -0.6265
 1750SOL    HW216887   3.822   0.494   5.820  1.1392 -1.7968  0.4688
 1751SOL     OW16888   2.756   0.937  12.701 -0.1310 -0.2669 -0.1817
 1751SOL    HW116889   2.824   0.883  12.660 -1.2713 -0.4539 -1.7928
 1751SOL    HW216890   2.756   0.901  12.790 -2.8919 -0.8065 -0.4222
 1752SOL     OW16891   0.621   2.478   2.158  0.2597 -0.8424 -0.5009
 1752SOL    HW116892   0.715   2.464   2.168  0.4599 -0.6764 -2.1108
 1752SOL    HW216893   0.601   2.396   2.203 -1.0882 -0.1753  0.1106
 1753SOL     OW16894   0.056   3.319   7.452  0.0675 -0.2704 -0.3835
 1753SOL    HW116895   4.720   3.261   7.458 -1.4354  1.8880  1.6013
 1753SOL    HW216896   0.018   3.407   7.453  0.0519 -0.2750 -0.6634
 1754SOL     OW16897   2.764   1.087   6.810  0.5263  0.4526 -0.3637
 1754SOL    HW116898   2.787   1.148   6.881  0.8152  1.1263 -1.0348
 1754SOL    HW216899   2.823   1.113   6.740  0.7951  1.6093  0.2813
 1755SOL     OW16900   4.000   0.779   7.558 -0.0842 -0.4953  0.4572
 1755SOL    HW116901   3.999   0.716   7.486  1.2330  1.5406 -1.3536
 1755SOL    HW216902   3.922   0.829   7.533 -1.2945 -2.5229  0.1754
 1756SOL     OW16903   0.167   0.961   6.689  0.4736  0.0320 -0.1515
 1756SOL    HW116904   0.160   0.880   6.739  0.4024  1.0373  1.4620
 1756SOL    HW216905   0.257   0.992   6.701  0.6900 -0.5791 -0.2060
 1757SOL     OW16906   2.059   3.969   4.130  0.1138  0.3830  0.4241
 1757SOL    HW116907   1.978   4.020   4.125  0.9722  1.9019  1.7413
 1757SOL    HW216908   2.072   3.982   4.036  0.2224  0.3437  0.4342
 1758SOL     OW16909   3.954   4.403   3.010 -0.1441  0.6021  0.1575
 1758SOL    HW116910   3.959   4.375   3.101 -0.3097  1.3303  0.3934
 1758SOL    HW216911   3.965   4.498   3.013 -0.3366  0.6648 -0.9232
 1759SOL     OW16912   4.014   4.325   7.074  0.1858 -0.1195  0.1623
 1759SOL    HW116913   3.939   4.384   7.078  1.0220  0.9873 -0.5830
 1759SOL    HW216914   4.089   4.383   7.077 -0.2244  0.4281 -0.1370
 1760SOL     OW16915   1.265   3.392   5.179  0.3140  0.2053 -0.4069
 1760SOL    HW116916   1.173   3.367   5.180 -0.0726  1.6723  1.6604
 1760SOL    HW216917   1.279   3.438   5.262 -0.3991 -1.7823  0.8082
 1761SOL     OW16918   3.685   3.597   1.384 -0.0281 -0.9590  0.1603
 1761SOL    HW116919   3.765   3.589   1.333 -1.2385 -1.4679 -1.6611
 1761SOL    HW216920   3.686   3.690   1.407  1.1068 -0.8999 -0.1219
 1762SOL     OW16921   0.682   3.069   1.545  0.5642 -0.3295 -0.2480
 1762SOL    HW116922   0.682   3.011   1.469  1.2715 -2.8158  1.6254
 1762SOL    HW216923   0.590   3.082   1.567  0.3692 -0.3032 -1.0952
 1763SOL     OW16924   4.034   1.606  13.975  0.6464  0.3760  0.0808
 1763SOL    HW116925   3.969   1.661  13.931  1.7816  1.9881  0.4169
 1763SOL    HW216926   4.012   1.635  14.063  0.7785 -1.9026  0.8561
 1764SOL     OW16927   3.768   0.340   6.381 -0.4808 -0.4037 -0.0862
 1764SOL    HW116928   3.806   0.264   6.337 -0.7009 -1.5106  1.6027
 1764SOL    HW216929   3.841   0.398   6.406  2.9004 -4.9542  0.5855
 1765SOL     OW16930   4.105   1.291  11.167 -0.3288 -0.0130  0.6624
 1765SOL    HW116931   4.054   1.367  11.194 -0.7686 -0.2147  0.4001
 1765SOL    HW216932   4.054   1.247  11.099  0.2900 -0.4889  0.5041
 1766SOL     OW16933   1.542   1.940   1.247 -0.0891 -0.6206 -0.3271
 1766SOL    HW116934   1.596   2.007   1.204 -0.6156 -0.3638 -0.5893
 1766SOL    HW216935   1.526   1.982   1.331 -0.9743  0.0162 -0.8160
 1767SOL     OW16936   3.207   1.228   3.100 -0.1236 -0.0231 -0.0735
 1767SOL    HW116937   3.146   1.170   3.054  2.1223 -0.4498 -2.5170
 1767SOL    HW216938   3.160   1.310   3.086 -2.5241 -1.0491  1.9683
 1768SOL     OW16939   0.521   3.656  11.482 -0.4034  0.0001 -0.2472
 1768SOL    HW116940   0.469   3.576  11.477  0.6716 -0.7452  0.4534
 1768SOL    HW216941   0.525   3.681  11.574 -2.3978  1.2142 -0.4983
 1769SOL     OW16942   4.112   0.631   2.294  0.4041  0.4087 -0.0280
 1769SOL    HW116943   4.124   0.576   2.372 -0.5862  0.4661  0.1646
 1769SOL    HW216944   4.090   0.557   2.237 -0.9154 -0.0389  1.0586
 1770SOL     OW16945   1.375   1.085   2.576 -0.0175 -0.7745  0.2509
 1770SOL    HW116946   1.337   1.163   2.617  2.7057  1.2547 -1.1124
 1770SOL    HW216947   1.353   1.035   2.655  1.2676  0.8664  1.6312
 1771SOL     OW16948   1.940   0.517   3.352 -0.6413 -0.1160  0.0625
 1771SOL    HW116949   1.988   0.564   3.421  0.0280 -0.5125 -0.1291
 1771SOL    HW216950   2.007   0.503   3.284 -0.0381  2.5148  0.1211
 1772SOL     OW16951   3.501   1.031   4.186  0.0081 -0.3397  0.4530
 1772SOL    HW116952   3.573   0.992   4.136  1.2103  2.4470  0.0511
 1772SOL    HW216953   3.532   1.120   4.198 -0.8707  0.2254 -1.5496
 1773SOL     OW16954   3.651   1.900   7.484 -0.2037 -0.4436  0.0448
 1773SOL    HW116955   3.650   1.892   7.580  2.7706 -2.3049 -0.0667
 1773SOL    HW216956   3.607   1.819   7.458  0.7067 -2.2122  3.9279
 1774SOL     OW16957   0.559   2.342  15.453 -0.2300 -0.2826  0.5482
 1774SOL    HW116958   0.550   2.369  15.362 -1.1411  1.1263  1.0612
 1774SOL    HW216959   0.520   2.420  15.493 -1.0372  0.0729 -0.9351
 1775SOL     OW16960   2.833   1.884   9.478 -0.2030 -0.1902  0.1719
 1775SOL    HW116961   2.749   1.924   9.455  0.2090  0.9661  0.6479
 1775SOL    HW216962   2.836   1.902   9.573  1.8703  1.0334 -0.1146
 1776SOL     OW16963   1.286   1.891   6.449 -0.3513  0.7114 -0.0256
 1776SOL    HW116964   1.252   1.893   6.538  1.2095 -2.0709  0.6199
 1776SOL    HW216965   1.377   1.899   6.477 -0.3335  0.6416 -0.0625
 1777SOL     OW16966   1.635   1.909   0.740 -0.5800  0.2089  0.1783
 1777SOL    HW116967   1.552   1.941   0.776 -0.6723 -0.6429  0.7145
 1777SOL    HW216968   1.619   1.944   0.653 -4.5619  1.1216  1.2881
 1778SOL     OW16969   3.128   3.613   8.839 -0.0635  0.0923  0.6650
 1778SOL    HW116970   3.073   3.559   8.895  0.8227  1.7743  3.1666
 1778SOL    HW216971   3.070   3.669   8.787 -1.2904 -0.6799  1.1925
 1779SOL     OW16972   4.305   4.708   2.141 -0.6857  0.1226 -0.6562
 1779SOL    HW116973   4.358   0.029   2.089  0.2212 -0.6463 -0.6411
 1779SOL    HW216974   4.256   4.664   2.073 -0.0450 -0.6903 -0.6050
 1780SOL     OW16975   2.233   1.773   3.016  0.2382  0.2642  0.6033
 1780SOL    HW116976   2.200   1.717   2.946 -1.8878 -0.6273  2.2993
 1780SOL    HW216977   2.252   1.850   2.963 -2.0141  0.3170 -0.1278
 1781SOL     OW16978   1.556   0.462   6.243  0.4595  0.1948 -0.2406
 1781SOL    HW116979   1.549   0.527   6.312  1.7760 -0.9472  0.9835
 1781SOL    HW216980   1.646   0.472   6.211  0.3226  1.5150 -0.2082
 1782SOL     OW16981   3.364   3.140  15.637 -0.2234  0.4293 -0.0116
 1782SOL    HW116982   3.420   3.173  15.566 -1.8617  0.5931 -1.2224
 1782SOL    HW216983   3.281   3.181  15.615 -0.3755  0.1984  0.1426
 1783SOL     OW16984   2.808   1.872  15.046  0.3854  0.2403 -0.1873
 1783SOL    HW116985   2.721   1.842  15.020  0.3094 -0.1057  0.4448
 1783SOL    HW216986   2.828   1.957  15.009 -1.6425  0.0172 -1.7999
 1784SOL     OW16987   1.351   2.784   4.366  0.3232 -0.4349  0.0054
 1784SOL    HW116988   1.333   2.847   4.435 -1.8443 -1.0595 -0.0042
 1784SOL    HW216989   1.376   2.709   4.420 -0.7088 -0.7565  0.0238
 1785SOL     OW16990   2.342   3.933  15.267 -0.5729 -0.6475  0.3392
 1785SOL    HW116991   2.304   3.969  15.347 -1.9331 -1.6320  0.1541
 1785SOL    HW216992   2.408   4.001  15.254 -2.0463  0.6247 -0.5490
 1786SOL     OW16993   3.714   4.123   1.244 -0.0266  0.0027  0.6820
 1786SOL    HW116994   3.707   4.144   1.337  0.0009  0.1811  0.6425
 1786SOL    HW216995   3.676   4.195   1.194  0.2084 -2.2526 -2.7345
 1787SOL     OW16996   2.747   0.846   3.277  0.3533 -0.2446  0.1150
 1787SOL    HW116997   2.733   0.768   3.224  2.4112 -0.6249  0.1589
 1787SOL    HW216998   2.808   0.897   3.224  1.7676 -0.9063  1.1007
 1788SOL     OW16999   0.786   2.354   9.291  0.1477  0.0998 -0.2810
 1788SOL    HW117000   0.801   2.419   9.360 -4.1781  0.2482  0.5128
 1788SOL    HW217001   0.787   2.278   9.348 -0.2475 -0.1275 -0.5840
 1789SOL     OW17002   3.881   0.714  14.641 -0.4957 -0.0211 -0.1974
 1789SOL    HW117003   3.828   0.756  14.573  1.1380 -0.7523 -1.9148
 1789SOL    HW217004   3.931   0.646  14.596  1.1171  0.8518  0.2634
 1790SOL     OW17005   3.816   2.182   2.192 -0.2196 -0.3006  0.1470
 1790SOL    HW117006   3.760   2.104   2.197  0.9149 -1.1456 -0.2257
 1790SOL    HW217007   3.766   2.252   2.234 -0.1104  1.2179 -2.2657
 1791SOL     OW17008   3.313   1.904   9.379  0.3346 -0.2503  0.5439
 1791SOL    HW117009   3.368   1.951   9.441  0.1829 -1.4565  1.6108
 1791SOL    HW217010   3.229   1.949   9.390  0.9097  0.9217  0.1158
 1792SOL     OW17011   0.654   3.692   8.319  0.3322  0.2708 -0.2588
 1792SOL    HW117012   0.600   3.771   8.328 -2.1368 -1.2780 -1.4644
 1792SOL    HW217013   0.737   3.723   8.354  0.1129  2.1805 -1.4599
 1793SOL     OW17014   0.060   2.124   9.909 -0.2497 -0.1593  0.5062
 1793SOL    HW117015   0.139   2.131   9.964  0.7107  0.5756 -0.9539
 1793SOL    HW217016   0.088   2.057   9.847 -2.6155  0.1338 -0.8439
 1794SOL     OW17017   0.499   4.237   4.385 -0.6573 -0.0848  0.0053
 1794SOL    HW117018   0.425   4.230   4.446  1.7051  2.0675  3.0896
 1794SOL    HW217019   0.545   4.153   4.394  0.9030  0.3671 -3.7542
 1795SOL     OW17020   2.763   1.127   7.746 -0.3046  0.4872 -0.7443
 1795SOL    HW117021   2.796   1.042   7.716  0.3282  0.4452  0.0766
 1795SOL    HW217022   2.848   1.172   7.753  0.0829 -0.1384 -1.3244
 1796SOL     OW17023   1.679   4.510  14.724 -0.4734  0.6329 -0.8626
 1796SOL    HW117024   1.739   4.442  14.755  0.4667  1.4434 -0.9058
 1796SOL    HW217025   1.683   4.504  14.628 -0.0650 -0.0791 -0.7989
 1797SOL     OW17026   0.823   0.076   0.985  0.0684 -0.9426  0.0899
 1797SOL    HW117027   0.829   0.156   0.933  2.2991 -0.5946  0.8707
 1797SOL    HW217028   0.833   0.121   1.069  1.9192 -0.1104 -0.5744
 1798SOL     OW17029   4.575   2.035  10.764 -0.0388  0.0760 -0.0582
 1798SOL    HW117030   4.605   1.969  10.827  0.1528 -0.5698 -0.8265
 1798SOL    HW217031   4.617   2.012  10.681 -0.6518 -0.1599 -0.3105
 1799SOL     OW17032   1.583   0.890   3.511 -0.2949  0.6291  0.7326
 1799SOL    HW117033   1.621   0.962   3.462  0.5540 -0.6785 -0.5282
 1799SOL    HW217034   1.618   0.898   3.599  1.7114  2.5990 -0.2572
 1800SOL     OW17035   3.419   1.441  16.615 -0.5702  0.1834  0.4642
 1800SOL    HW117036   3.395   1.364  16.563 -0.7480 -0.0048  0.8291
 1800SOL    HW217037   3.382   1.442  16.703  0.5464 -0.3547  0.9327
 1801SOL     OW17038   4.723   3.997   3.381 -0.3142 -0.0602  0.0280
 1801SOL    HW117039   0.065   3.951   3.364 -0.8681 -1.4608  1.2084
 1801SOL    HW217040   4.681   3.977   3.297 -0.4809 -1.3927  0.4398
 1802SOL     OW17041   1.423   3.164  17.488  0.0687 -0.1524  0.3937
 1802SOL    HW117042   1.382   3.080  17.508 -2.6172  0.7226 -1.5219
 1802SOL    HW217043   1.459   3.196  17.571  2.5588 -1.1326 -0.3104
 1803SOL     OW17044   3.190   2.264   6.152  0.4283  0.2372  0.4179
 1803SOL    HW117045   3.102   2.301   6.148  0.5259  0.5655  1.3456
 1803SOL    HW217046   3.196   2.215   6.069 -0.4496  0.0912  0.4347
 1804SOL     OW17047   0.087   1.828   6.781  0.0410 -0.0526  0.6226
 1804SOL    HW117048   0.150   1.885   6.737  0.5263 -2.4574 -1.8129
 1804SOL    HW217049   0.026   1.808   6.710  1.5593 -3.5276  0.3020
 1805SOL     OW17050   0.710   4.149  11.526  0.2758 -0.0652  0.6344
 1805SOL    HW117051   0.628   4.117  11.563 -0.8728 -0.6836 -2.4540
 1805SOL    HW217052   0.679   4.156  11.436  2.5832  0.1323 -0.1397
 1806SOL     OW17053   2.657   0.230   2.021  0.0153 -0.4816 -0.3694
 1806SOL    HW117054   2.661   0.145   1.978 -2.7053  0.1600 -1.8759
 1806SOL    HW217055   2.747   0.257   2.040  0.0778 -0.9786  0.0443
 1807SOL     OW17056   3.107   1.584  10.673 -0.2641  0.0750 -0.1221
 1807SOL    HW117057   3.111   1.624  10.759  1.9572  2.1017 -1.1474
 1807SOL    HW217058   3.086   1.656  10.614 -1.6784 -1.6470 -1.7083
 1808SOL     OW17059   2.464   4.534   8.720  0.5644 -0.1503 -0.4728
 1808SOL    HW117060   2.463   4.552   8.814  0.3820 -1.4640 -0.2216
 1808SOL    HW217061   2.558   4.530   8.704  0.7611  2.3968 -0.0582
 1809SOL     OW17062   4.416   4.149   3.656  0.2490 -0.2933 -0.2060
 1809SOL    HW117063   4.367   4.103   3.724 -0.4047  0.3315 -0.2645
 1809SOL    HW217064   4.416   4.075   3.595  0.8331 -0.6504  0.2200
 1810SOL     OW17065   1.469   1.722   6.816 -0.4666  0.1892  0.1558
 1810SOL    HW117066   1.411   1.684   6.881 -3.3793  2.1536 -1.3016
 1810SOL    HW217067   1.549   1.672   6.830 -1.2229 -0.1829  2.9684
 1811SOL     OW17068   4.031   1.232  16.654  0.3783 -0.3722 -0.3335
 1811SOL    HW117069   4.075   1.283  16.586 -0.7248 -2.0018 -2.2645
 1811SOL    HW217070   4.058   1.147  16.618  2.4755  0.8913 -1.7892
 1812SOL     OW17071   2.175   0.541   6.065 -0.1243 -0.3827 -1.0239
 1812SOL    HW117072   2.082   0.536   6.086 -0.5449  3.6473 -1.9244
 1812SOL    HW217073   2.206   0.595   6.137  0.6403 -3.1788  0.7476
 1813SOL     OW17074   0.784   1.248   6.704 -0.5343 -0.2998  0.4711
 1813SOL    HW117075   0.757   1.330   6.747  2.3254  2.5881 -3.2384
 1813SOL    HW217076   0.707   1.192   6.699 -0.2553 -0.6838  0.5231
 1814SOL     OW17077   4.506   1.128   5.194  0.0576  0.7516  0.6437
 1814SOL    HW117078   4.489   1.212   5.234  1.3534  1.3464 -0.0340
 1814SOL    HW217079   4.557   1.085   5.262  0.3490 -1.3540 -0.8814
 1815SOL     OW17080   1.000   4.551   1.926 -0.4458  0.1852 -0.9819
 1815SOL    HW117081   0.936   4.515   1.987  0.3482  1.3501  0.5246
 1815SOL    HW217082   1.078   4.498   1.942 -1.1527 -0.2046  1.1819
 1816SOL     OW17083   2.774   3.313   3.669 -0.6795  0.3692 -0.2435
 1816SOL    HW117084   2.789   3.376   3.739  0.6572  0.1976 -0.3645
 1816SOL    HW217085   2.817   3.360   3.597  0.1541 -0.6155 -0.3820
 1817SOL     OW17086   2.399   1.917   3.825 -0.2245 -0.5664 -0.6432
 1817SOL    HW117087   2.365   1.869   3.749  2.7083  1.0212 -2.9549
 1817SOL    HW217088   2.447   1.982   3.774  0.9756 -0.1927  0.9615
 1818SOL     OW17089   1.965   0.685   9.174  0.3971 -0.1028 -0.1791
 1818SOL    HW117090   2.006   0.737   9.243  0.5094  0.7036 -0.8574
 1818SOL    HW217091   1.889   0.742   9.164 -0.1238 -0.5350  1.2636
 1819SOL     OW17092   4.391   3.720   5.350 -0.0295  0.4836 -0.1415
 1819SOL    HW117093   4.422   3.784   5.414 -2.9288  1.4363  0.2817
 1819SOL    HW217094   4.390   3.640   5.402 -0.5946  1.5192  1.4251
 1820SOL     OW17095   3.151   2.898  16.383  0.4665  0.1624 -0.0829
 1820SOL    HW117096   3.084   2.872  16.446 -0.6278  1.6278 -0.6371
 1820SOL    HW217097   3.215   2.948  16.435 -2.1338  1.4717  1.8748
 1821SOL     OW17098   4.610   0.337   9.212 -0.4816  0.7252 -0.9053
 1821SOL    HW117099   4.691   0.286   9.215 -1.5700 -0.9185  0.4999
 1821SOL    HW217100   4.629   0.412   9.156  4.9664 -0.5635 -0.7583
 1822SOL     OW17101   2.433   4.318   4.759 -0.5319 -0.1345 -0.4573
 1822SOL    HW117102   2.424   4.230   4.796 -2.3448  1.9498  4.1789
 1822SOL    HW217103   2.362   4.321   4.695 -0.3290  2.9728 -0.5242
 1823SOL     OW17104   2.746   3.981   3.703 -0.1834  0.1147  0.3954
 1823SOL    HW117105   2.753   3.901   3.755 -0.6508  0.2735  0.7020
 1823SOL    HW217106   2.676   4.032   3.743 -2.9750 -2.6778 -0.9316
 1824SOL     OW17107   3.939   2.717   7.039 -0.3545 -0.1295 -0.5708
 1824SOL    HW117108   3.866   2.749   6.986  0.8547  1.0517 -1.5611
 1824SOL    HW217109   4.006   2.697   6.973 -0.2241 -0.3757 -0.3645
 1825SOL     OW17110   3.530   3.120   6.788  0.0368  0.6836  0.3392
 1825SOL    HW117111   3.550   3.134   6.880  1.5543 -0.3473  0.1673
 1825SOL    HW217112   3.608   3.070   6.764  0.9582  1.5936  1.4408
 1826SOL     OW17113   2.436   1.492   1.112  0.0405 -0.4040  0.0759
 1826SOL    HW117114   2.476   1.409   1.140 -1.3685 -1.2724 -0.5014
 1826SOL    HW217115   2.380   1.509   1.188  2.5873 -1.1833  2.1529
 1827SOL     OW17116   3.797   2.665   2.965  0.3041 -0.0821 -0.1748
 1827SOL    HW117117   3.787   2.644   3.058  0.6162 -1.5598 -0.4645
 1827SOL    HW217118   3.764   2.587   2.920  2.5588  0.0584 -2.0847
 1828SOL     OW17119   3.764   0.936   6.661  0.7950 -0.6204 -0.2646
 1828SOL    HW117120   3.727   0.880   6.592 -1.6705  0.7531 -0.0107
 1828SOL    HW217121   3.733   1.020   6.630  0.6747 -0.1630  1.1109
 1829SOL     OW17122   2.295   0.684   7.598  0.8679 -0.3423 -0.3883
 1829SOL    HW117123   2.338   0.679   7.683  1.1463 -0.2602 -0.5268
 1829SOL    HW217124   2.250   0.599   7.597 -0.9811  0.6398 -0.6585
 1830SOL     OW17125   3.452   0.450   4.540  0.0006  0.2370 -0.3823
 1830SOL    HW117126   3.538   0.490   4.527  1.2313 -1.9682  0.9403
 1830SOL    HW217127   3.468   0.355   4.546 -2.0745 -0.0834  0.2584
 1831SOL     OW17128   1.496   1.307  15.095  0.1560 -0.8878  0.3815
 1831SOL    HW117129   1.550   1.237  15.059  0.0370 -0.4899 -0.5511
 1831SOL    HW217130   1.562   1.364  15.134  1.2119 -2.6995  1.2380
 1832SOL     OW17131   0.910   3.008   6.937 -0.3410 -0.2720  0.3462
 1832SOL    HW117132   0.927   3.092   6.980  0.3216 -1.2037  1.9009
 1832SOL    HW217133   0.869   2.957   7.007  2.6126 -0.9515  1.5536
 1833SOL     OW17134   2.677   1.598   9.898  0.3408  0.3404 -0.0904
 1833SOL    HW117135   2.718   1.589   9.812  3.3578 -0.6638  1.4378
 1833SOL    HW217136   2.609   1.664   9.882  0.7615  0.6952 -0.4200
 1834SOL     OW17137   3.507   4.662   4.461 -0.1861 -0.3400 -0.0068
 1834SOL    HW117138   3.579   4.617   4.506  0.1007 -2.3382 -2.4609
 1834SOL    HW217139   3.483   4.594   4.398 -0.3450 -1.2782  1.0542
 1835SOL     OW17140   2.294   2.572   6.807 -0.3024  0.3660 -0.2625
 1835SOL    HW117141   2.242   2.542   6.882  0.1425 -1.2149 -0.5863
 1835SOL    HW217142   2.241   2.623   6.745 -0.3943 -1.5390 -1.7663
 1836SOL     OW17143   3.587   3.918   4.262 -0.4148 -0.4447 -0.5679
 1836SOL    HW117144   3.555   3.961   4.341  0.2012 -3.0513  1.0826
 1836SOL    HW217145   3.679   3.902   4.284 -0.5565 -0.3225  0.1103
 1837SOL     OW17146   2.716   1.381   5.637 -0.3597 -0.2622 -0.8848
 1837SOL    HW117147   2.715   1.290   5.607  0.9030 -0.2760 -0.8762
 1837SOL    HW217148   2.810   1.398   5.645 -0.6700  0.5845  0.8681
 1838SOL     OW17149   0.059   2.550   4.309 -0.1847 -0.7235  0.6045
 1838SOL    HW117150   0.014   2.555   4.393 -2.9413  0.5362 -0.9233
 1838SOL    HW217151   0.058   2.456   4.292 -0.9670 -0.4221 -1.0445
 1839SOL     OW17152   3.388   4.081   6.939 -0.1373 -0.1448  0.2337
 1839SOL    HW117153   3.317   4.126   6.984 -2.2831 -1.0239 -2.2828
 1839SOL    HW217154   3.370   4.098   6.847 -3.4749 -1.2054  0.6944
 1840SOL     OW17155   3.462   4.228   3.447  0.4043  0.0361 -0.1358
 1840SOL    HW117156   3.385   4.211   3.394  1.2997  0.8839 -1.7019
 1840SOL    HW217157   3.424   4.204   3.531 -2.7523 -0.8785 -1.8307
 1841SOL     OW17158   0.008   4.394   1.799 -0.3563 -0.2073  0.9038
 1841SOL    HW117159   4.670   4.432   1.838 -0.6929 -1.2146  1.2126
 1841SOL    HW217160   0.062   4.406   1.878  0.8341  1.0683 -0.1008
 1842SOL     OW17161   4.286   4.237   3.197  0.0957  0.2412  0.3851
 1842SOL    HW117162   4.349   4.235   3.269  1.4604  1.7814 -0.7688
 1842SOL    HW217163   4.206   4.230   3.250 -0.9030 -0.3910 -1.2138
 1843SOL     OW17164   0.300   4.010  12.511 -0.6009 -0.3323 -0.7235
 1843SOL    HW117165   0.274   4.008  12.419  1.5287 -0.9710 -1.3043
 1843SOL    HW217166   0.252   3.932  12.538 -1.3324  0.6050  0.6920
 1844SOL     OW17167   4.299   4.426   7.035 -0.5769  0.3863 -0.3292
 1844SOL    HW117168   4.313   4.520   7.041 -0.9030  0.2704  2.1768
 1844SOL    HW217169   4.286   4.397   7.125  1.0887  1.0522  0.1316
 1845SOL     OW17170   0.959   2.546   2.692 -0.5243 -0.5031  0.4831
 1845SOL    HW117171   0.909   2.626   2.680 -0.8671 -0.6696  0.7930
 1845SOL    HW217172   0.946   2.505   2.606  1.3573 -0.3110  0.1153
 1846SOL     OW17173   0.407   1.496   4.915 -0.5884  0.1915 -0.3388
 1846SOL    HW117174   0.502   1.483   4.911 -0.9199 -2.0692 -0.6579
 1846SOL    HW217175   0.401   1.514   5.009  1.2690  2.6136 -0.6693
 1847SOL     OW17176   4.463   1.091   4.063 -0.2098  0.0990  0.2635
 1847SOL    HW117177   4.459   1.121   4.154 -1.7859 -1.1343  0.5933
 1847SOL    HW217178   4.376   1.110   4.029  1.1080 -0.2294 -3.2468
 1848SOL     OW17179   2.654   3.183  11.817  0.0016  0.0991  0.2082
 1848SOL    HW117180   2.735   3.191  11.766  1.0656 -2.8653  1.4250
 1848SOL    HW217181   2.686   3.197  11.906 -0.9234 -0.4837  0.6293
 1849SOL     OW17182   1.625   4.146   1.742 -0.7066  0.0247 -0.2474
 1849SOL    HW117183   1.676   4.213   1.786 -1.5122  1.6748 -1.8246
 1849SOL    HW217184   1.657   4.159   1.652  1.6948  0.1131  0.6437
 1850SOL     OW17185   1.295   1.420   1.220 -0.5474 -0.0391 -0.1468
 1850SOL    HW117186   1.378   1.461   1.194  0.2819 -1.9203 -0.4530
 1850SOL    HW217187   1.245   1.500   1.236  0.0288  0.0154  1.3414
 1851SOL     OW17188   0.331   3.537   6.194  0.4950  0.5317 -0.2151
 1851SOL    HW117189   0.316   3.592   6.117 -0.2765  4.1331  2.5304
 1851SOL    HW217190   0.426   3.535   6.193  0.4415 -3.5551  0.7082
 1852SOL     OW17191   4.297   3.047   6.511  0.0665  0.1784  0.0802
 1852SOL    HW117192   4.243   2.984   6.559  0.2340  0.1651  0.2513
 1852SOL    HW217193   4.285   3.007   6.425  0.0545 -0.2459  0.2779
 1853SOL     OW17194   1.541   4.436   7.671  0.2635 -0.4738 -0.4051
 1853SOL    HW117195   1.504   4.366   7.725  0.0652  0.6187  0.8622
 1853SOL    HW217196   1.466   4.479   7.631  0.0100  0.7438  1.3988
 1854SOL     OW17197   0.704   4.171   8.573 -0.0658  0.1439  0.3032
 1854SOL    HW117198   0.653   4.093   8.593 -0.4358 -0.1205 -1.6711
 1854SOL    HW217199   0.717   4.159   8.479 -2.1668 -2.4314  0.3352
 1855SOL     OW17200   3.863   4.506   7.541 -0.3173 -0.2252 -0.0799
 1855SOL    HW117201   3.810   4.519   7.462  1.6382 -0.1098 -1.3708
 1855SOL    HW217202   3.815   4.552   7.610  1.1305 -1.2070  1.5497
 1856SOL     OW17203   1.559   1.085   4.083  0.0751 -0.0709 -0.1294
 1856SOL    HW117204   1.582   1.055   3.995  3.1752  2.0797 -0.0759
 1856SOL    HW217205   1.465   1.066   4.087  0.0440  0.4350  1.6802
 1857SOL     OW17206   0.453   3.509   6.514  0.7272  0.5036  0.0613
 1857SOL    HW117207   0.435   3.529   6.606 -0.5313  1.3338 -0.3572
 1857SOL    HW217208   0.480   3.597   6.487 -0.0918  0.5216 -0.7384
 1858SOL     OW17209   0.675   2.752   6.411 -0.0096 -0.1035 -0.5968
 1858SOL    HW117210   0.756   2.759   6.461 -0.1615 -1.5874 -0.1398
 1858SOL    HW217211   0.604   2.762   6.474  0.7789  2.1713 -0.0608
 1859SOL     OW17212   2.140   3.141   3.305 -0.2226  0.0473 -0.4438
 1859SOL    HW117213   2.156   3.052   3.273  2.7950  0.7078 -0.8198
 1859SOL    HW217214   2.101   3.124   3.390 -0.0519  2.3259  0.0946
 1860SOL     OW17215   2.477   4.489   7.414 -0.4555 -0.0492  0.2381
 1860SOL    HW117216   2.396   4.441   7.428  0.6614 -2.0216 -0.0248
 1860SOL    HW217217   2.535   4.427   7.459  1.2461  2.1342  1.0700
 1861SOL     OW17218   2.104   2.182   2.851  0.7647 -0.0825 -0.1038
 1861SOL    HW117219   2.062   2.264   2.826  1.4184  0.1578 -0.4161
 1861SOL    HW217220   2.083   2.179   2.944 -0.2671 -0.7502 -0.3573
 1862SOL     OW17221   3.263   4.652   8.798 -0.0027 -0.2255  0.4702
 1862SOL    HW117222   3.294   4.640   8.708 -0.7405 -2.0144  0.4577
 1862SOL    HW217223   3.336   4.615   8.847 -0.4479 -0.5661  0.8727
 1863SOL     OW17224   0.817   0.741   3.515 -0.1623  0.2786 -0.0508
 1863SOL    HW117225   0.737   0.783   3.545 -0.1088  2.1548 -2.4793
 1863SOL    HW217226   0.817   0.765   3.422  0.1057 -1.7000 -0.5659
 1864SOL     OW17227   2.665   3.526   8.699  0.5751  0.5045 -0.1150
 1864SOL    HW117228   2.669   3.489   8.787  1.4948  0.0467 -0.3591
 1864SOL    HW217229   2.610   3.462   8.654  1.0832 -0.7725  1.1171
 1865SOL     OW17230   1.865   2.410  11.544 -0.4089 -0.3622 -0.4057
 1865SOL    HW117231   1.851   2.437  11.454  2.4358  1.3620 -0.3417
 1865SOL    HW217232   1.950   2.364  11.547 -0.3931 -0.3699 -0.9888
 1866SOL     OW17233   2.559   2.986  10.791 -1.0512 -0.2523  0.6024
 1866SOL    HW117234   2.573   3.076  10.760  1.6904 -1.0911 -0.6400
 1866SOL    HW217235   2.506   2.991  10.871 -1.0648  0.3158  0.5556
 1867SOL     OW17236   1.097   3.218   8.719 -0.0490  0.3930  0.0158
 1867SOL    HW117237   1.076   3.171   8.639 -0.7989  0.4992  0.1566
 1867SOL    HW217238   1.190   3.236   8.703 -0.6575  2.2151 -1.5212
 1868SOL     OW17239   1.914   4.609   4.811  0.2561  0.1451  0.2573
 1868SOL    HW117240   1.859   4.672   4.857  0.7412  0.7502  0.0114
 1868SOL    HW217241   1.889   4.627   4.720  0.3191  2.0941  0.6290
 1869SOL     OW17242   2.712   3.783   7.489  0.9142 -0.5746 -0.3422
 1869SOL    HW117243   2.625   3.759   7.519  1.9704  0.8911  3.8968
 1869SOL    HW217244   2.767   3.710   7.516  1.8510  0.2390 -0.0343
 1870SOL     OW17245   2.551   3.035   8.315 -0.3231 -0.9476 -0.3369
 1870SOL    HW117246   2.499   3.099   8.266  0.4801  0.4184  0.5980
 1870SOL    HW217247   2.527   2.951   8.274 -0.8332 -1.1760  0.4327
 1871SOL     OW17248   4.173   0.984   8.799 -0.2960  0.0538  0.2249
 1871SOL    HW117249   4.258   1.026   8.814  0.7310 -2.2328  0.7078
 1871SOL    HW217250   4.108   1.048   8.829 -0.6931 -0.1654 -0.1726
 1872SOL     OW17251   0.921   0.982   6.979  0.0844 -0.2573  0.2922
 1872SOL    HW117252   0.938   0.982   6.885 -2.0766  0.5529 -0.1195
 1872SOL    HW217253   0.984   1.047   7.008 -1.4825  1.7207 -0.7191
 1873SOL     OW17254   3.797   3.350   6.779 -0.0900  0.3352  0.6844
 1873SOL    HW117255   3.704   3.370   6.792  0.3392  0.8964  2.8425
 1873SOL    HW217256   3.838   3.430   6.747 -0.6040 -0.3623 -1.7033
 1874SOL     OW17257   3.511   0.173   7.657 -0.6444 -0.2304 -0.0060
 1874SOL    HW117258   3.489   0.256   7.613 -0.0187 -0.5051 -0.8385
 1874SOL    HW217259   3.606   0.184   7.656 -0.6821  0.1170  0.0248
 1875SOL     OW17260   1.591   3.272   2.957 -0.1955 -0.4209  0.4245
 1875SOL    HW117261   1.642   3.321   2.893 -0.3292  0.8296  1.2707
 1875SOL    HW217262   1.633   3.189   2.937  2.0144  1.1110 -1.2014
 1876SOL     OW17263   1.871   1.312   3.498 -0.9100 -0.7423 -0.6857
 1876SOL    HW117264   1.865   1.284   3.589  1.4749 -0.1419 -0.3346
 1876SOL    HW217265   1.856   1.407   3.502 -0.1664 -0.6819  0.8001
 1877SOL     OW17266   2.832   1.922   6.773 -0.2369 -0.0308 -0.3292
 1877SOL    HW117267   2.801   1.881   6.854  0.5762 -0.4637 -0.2436
 1877SOL    HW217268   2.839   1.848   6.712  1.1035 -1.3816  1.4719
 1878SOL     OW17269   0.721   4.310   1.263 -0.3489  0.4438 -0.6737
 1878SOL    HW117270   0.703   4.261   1.343 -0.7946  0.5062 -0.7367
 1878SOL    HW217271   0.785   4.372   1.298  0.8071  0.6395 -3.1430
 1879SOL     OW17272   0.310   0.130   5.981  0.0944  0.0374  0.2481
 1879SOL    HW117273   0.269   0.048   5.953 -0.9799  0.8221 -0.4587
 1879SOL    HW217274   0.339   0.172   5.900  0.3573 -0.6463 -0.0146
 1880SOL     OW17275   4.522   1.602   6.026  0.2949 -0.3707  0.3326
 1880SOL    HW117276   4.469   1.540   6.077 -0.3691  0.1223  0.2387
 1880SOL    HW217277   4.614   1.592   6.052  0.3565  1.4372  0.8128
 1881SOL     OW17278   4.715   3.505   8.318  0.2787  0.4323 -0.0269
 1881SOL    HW117279   4.661   3.542   8.248 -0.9123 -1.1766  0.0577
 1881SOL    HW217280   0.061   3.528   8.283  0.4407 -0.4336 -0.1762
 1882SOL     OW17281   3.739   1.776   3.634  0.2097 -0.7322  0.0595
 1882SOL    HW117282   3.657   1.740   3.602  1.2362 -2.3488 -0.7918
 1882SOL    HW217283   3.702   1.844   3.689  1.0993 -0.3216  0.1517
 1883SOL     OW17284   1.704   3.994   8.086  0.1937 -0.2101  0.3840
 1883SOL    HW117285   1.726   4.013   8.177  4.4686 -0.2111 -0.6515
 1883SOL    HW217286   1.748   3.910   8.074  0.4394 -0.1699  1.0303
 1884SOL     OW17287   1.164   2.487   6.030 -0.1059  0.4293  0.4158
 1884SOL    HW117288   1.219   2.509   5.955 -2.2502  0.1585 -1.2445
 1884SOL    HW217289   1.143   2.396   6.010  0.6858 -0.1464  2.1892
 1885SOL     OW17290   4.415   0.389   5.538  0.4930 -0.1512  0.1945
 1885SOL    HW117291   4.351   0.418   5.603 -1.1502 -0.5954 -1.2212
 1885SOL    HW217292   4.492   0.438   5.569  0.8776  0.5117 -1.7850
 1886SOL     OW17293   2.881   4.707  16.370  0.2779  0.3818  0.3249
 1886SOL    HW117294   2.867   4.614  16.350 -0.3746  0.6214 -0.3226
 1886SOL    HW217295   2.922   0.001  16.291 -2.2864 -0.4270 -1.3427
 1887SOL     OW17296   3.485   3.950   9.558 -0.3168 -1.2746  0.0909
 1887SOL    HW117297   3.513   3.891   9.628  2.7511  1.1084  0.8761
 1887SOL    HW217298   3.398   3.965   9.595  1.4325 -0.2269  3.7831
 1888SOL     OW17299   3.327   0.506   1.528  0.4926  0.4525 -0.0433
 1888SOL    HW117300   3.397   0.567   1.552 -0.1117  0.7799  0.9017
 1888SOL    HW217301   3.358   0.424   1.567  1.0534  1.6323  2.0237
 1889SOL     OW17302   1.722   0.702   2.567  0.2034 -0.5717  0.7921
 1889SOL    HW117303   1.740   0.615   2.601 -0.3467 -0.9454  0.1097
 1889SOL    HW217304   1.645   0.732   2.616  0.8779  2.1703  0.1764
 1890SOL     OW17305   3.340   0.714   8.778 -0.7184 -0.0844  0.5181
 1890SOL    HW117306   3.343   0.677   8.866  3.0835 -0.7635  0.1390
 1890SOL    HW217307   3.322   0.634   8.729 -1.8945  1.2130 -1.1663
 1891SOL     OW17308   3.929   1.520  17.247 -0.0134 -0.1966 -0.1633
 1891SOL    HW117309   3.979   1.448  17.209 -0.8521 -0.7417 -0.2257
 1891SOL    HW217310   3.962   1.583  17.183  0.6400 -1.6084 -1.2085
 1892SOL     OW17311   1.097   2.135   3.119 -0.8014 -0.1773 -0.1396
 1892SOL    HW117312   1.081   2.183   3.201  0.9695  1.2523 -0.6435
 1892SOL    HW217313   1.035   2.177   3.059  0.4703  0.0268 -1.3191
 1893SOL     OW17314   1.057   0.522   4.186 -0.2072  0.4748  0.3132
 1893SOL    HW117315   1.096   0.441   4.152 -0.4880 -0.6694  2.7179
 1893SOL    HW217316   1.057   0.584   4.113  1.4944  0.4547  0.2982
 1894SOL     OW17317   4.313   2.624   8.861 -0.3828 -0.2567 -0.1777
 1894SOL    HW117318   4.306   2.529   8.854  1.0416 -0.5993  3.1295
 1894SOL    HW217319   4.239   2.634   8.921 -1.4186  1.9236 -1.7959
 1895SOL     OW17320   3.476   2.760   8.348  0.1507  0.4506  0.5600
 1895SOL    HW117321   3.421   2.760   8.269 -1.1020  0.1976  1.4325
 1895SOL    HW217322   3.554   2.799   8.308 -1.1447  3.7183  1.1941
 1896SOL     OW17323   1.496   4.305   1.423 -0.2563  0.2439  0.2663
 1896SOL    HW117324   1.422   4.262   1.465  0.9033 -1.8729  0.1480
 1896SOL    HW217325   1.466   4.396   1.428  1.2296  0.6048  2.7541
 1897SOL     OW17326   0.548   0.032  13.129 -0.3221  0.3749  0.2380
 1897SOL    HW117327   0.460   0.017  13.164  0.2739 -1.1269  1.1061
 1897SOL    HW217328   0.537   0.105  13.069  0.2794  0.6625  0.4768
 1898SOL     OW17329   4.072   4.324   1.460  0.3472 -0.1484  0.1695
 1898SOL    HW117330   4.142   4.378   1.423 -0.1535  1.5043  1.6294
 1898SOL    HW217331   4.126   4.245   1.465  0.8502  0.2682  1.2722
 1899SOL     OW17332   4.525   3.308   6.003  0.3849 -0.7198  0.1652
 1899SOL    HW117333   4.506   3.256   6.081  1.9863  0.2839  1.2174
 1899SOL    HW217334   4.535   3.394   6.043 -2.5203  0.0897 -0.8420
 1900SOL     OW17335   2.279   0.800   5.676 -0.4878 -0.3125 -0.2945
 1900SOL    HW117336   2.230   0.719   5.662  1.1004 -1.4132  0.4540
 1900SOL    HW217337   2.232   0.863   5.622  1.3514  0.1053 -1.4029
 1901SOL     OW17338   2.891   2.090   8.870  0.4317  0.4202 -0.1617
 1901SOL    HW117339   2.911   2.177   8.835 -1.8674  0.9638 -0.0727
 1901SOL    HW217340   2.977   2.050   8.856 -0.0535  0.3697 -3.0193
 1902SOL     OW17341   4.288   2.329   3.303 -0.4155 -0.6673  0.0540
 1902SOL    HW117342   4.279   2.383   3.223  1.0635 -0.8340 -0.2187
 1902SOL    HW217343   4.380   2.353   3.315 -0.7178 -0.5719  2.1662
 1903SOL     OW17344   2.295   3.352   9.809  0.9956 -0.1947  0.2311
 1903SOL    HW117345   2.211   3.364   9.763  1.2926  2.8279  0.4530
 1903SOL    HW217346   2.288   3.418   9.878 -0.6046 -0.6256  0.4974
 1904SOL     OW17347   0.811   0.456   4.651  0.1985  0.2367 -0.3576
 1904SOL    HW117348   0.781   0.366   4.663  3.6597 -0.9147 -0.4566
 1904SOL    HW217349   0.818   0.454   4.556 -0.8751 -2.9055 -0.3710
 1905SOL     OW17350   0.855   1.907   6.594 -0.1417  0.3925 -0.0876
 1905SOL    HW117351   0.918   1.950   6.652 -0.0844 -0.8000  0.7188
 1905SOL    HW217352   0.907   1.930   6.516 -0.9888  0.4022 -0.6489
 1906SOL     OW17353   4.398   2.640  16.499  0.6395  0.3458 -0.1030
 1906SOL    HW117354   4.383   2.549  16.477 -2.3839  0.0450  3.2609
 1906SOL    HW217355   4.321   2.681  16.459  1.6778  1.3605 -1.0904
 1907SOL     OW17356   2.239   2.885   2.646  0.1597  0.6627 -0.1560
 1907SOL    HW117357   2.327   2.869   2.682 -0.0556 -2.2634 -0.8565
 1907SOL    HW217358   2.274   2.881   2.556 -2.7726  2.6074 -1.3441
 1908SOL     OW17359   2.247   1.464   2.316 -0.2470 -0.3286  0.3810
 1908SOL    HW117360   2.305   1.404   2.364  2.4781  1.0262 -1.2121
 1908SOL    HW217361   2.302   1.508   2.252 -1.1176  1.2719  0.7364
 1909SOL     OW17362   1.377   4.303  11.209  0.1282  0.0533  0.0257
 1909SOL    HW117363   1.302   4.330  11.263  0.0670  2.6056 -1.3050
 1909SOL    HW217364   1.420   4.384  11.180 -2.7273  0.9340 -1.8491
 1910SOL     OW17365   1.628   0.161   2.227  0.6000 -0.1027  0.0545
 1910SOL    HW117366   1.567   0.169   2.301  1.9853  2.6876  0.8845
 1910SOL    HW217367   1.623   0.253   2.202  0.0685 -0.0242  0.4443
 1911SOL     OW17368   0.594   1.301  10.080 -0.1285 -0.2040 -0.4568
 1911SOL    HW117369   0.687   1.285  10.060 -0.5675 -0.7254 -2.1162
 1911SOL    HW217370   0.594   1.334  10.169  0.0371 -0.1300 -0.4848
 1912SOL     OW17371   2.299   3.957   4.540 -0.1630  0.0855  0.4773
 1912SOL    HW117372   2.280   3.938   4.448  2.5396 -0.3451  0.0173
 1912SOL    HW217373   2.385   3.917   4.553 -0.6252 -0.5276  1.5525
 1913SOL     OW17374   0.808   0.105   7.242  0.4288  0.0180 -0.0781
 1913SOL    HW117375   0.795   0.088   7.149  0.2358 -2.0757  0.3105
 1913SOL    HW217376   0.757   0.032   7.280 -0.0081  0.8690  0.9712
 1914SOL     OW17377   2.883   4.594   6.243  0.1111 -0.5058 -0.0314
 1914SOL    HW117378   2.851   4.567   6.158  0.4370  0.2051 -0.3806
 1914SOL    HW217379   2.806   4.639   6.278 -1.3142 -0.9348 -2.6516
 1915SOL     OW17380   3.681   1.542  17.334 -0.2698  1.0725 -0.4323
 1915SOL    HW117381   3.652   1.617  17.282 -0.2350  0.2681 -1.6176
 1915SOL    HW217382   3.770   1.543  17.299 -0.2678  2.0405 -0.4085
 1916SOL     OW17383   1.882   3.209   7.281  0.4608 -0.0762 -0.4310
 1916SOL    HW117384   1.800   3.219   7.233  2.5894  3.6165 -3.2616
 1916SOL    HW217385   1.851   3.253   7.360  0.6743  1.3798 -1.1598
 1917SOL     OW17386   3.456   1.109   5.112 -0.0809  0.4241 -0.5529
 1917SOL    HW117387   3.516   1.057   5.058  0.1755  0.9088 -0.7264
 1917SOL    HW217388   3.431   1.039   5.172 -1.3830  0.7448 -0.7375
 1918SOL     OW17389   4.329   0.437   0.932  0.1372 -0.5423 -0.1703
 1918SOL    HW117390   4.423   0.454   0.934 -0.2636  1.3903  2.7406
 1918SOL    HW217391   4.302   0.518   0.887  1.9971  0.7670  1.0609
 1919SOL     OW17392   0.480   1.777  17.136  0.3510  0.0921 -0.1991
 1919SOL    HW117393   0.535   1.769  17.058 -0.6587 -1.8538 -0.7016
 1919SOL    HW217394   0.424   1.852  17.115  2.1888  1.5607  0.0827
 1920SOL     OW17395   1.275   4.485   7.543 -0.4679 -0.1659  0.7079
 1920SOL    HW117396   1.188   4.470   7.579 -0.0670  1.1320  2.2406
 1920SOL    HW217397   1.273   4.581   7.533  0.3445 -0.1605  0.6149
 1921SOL     OW17398   3.587   2.888   7.175 -0.0259  0.2194 -0.5002
 1921SOL    HW117399   3.655   2.912   7.112  1.0903 -2.4534 -0.3080
 1921SOL    HW217400   3.633   2.814   7.215  0.2010  0.3815 -0.4570
 1922SOL     OW17401   2.479   3.092   8.746 -0.4749 -0.0516  0.3468
 1922SOL    HW117402   2.393   3.050   8.742 -0.3516 -0.3777  1.0400
 1922SOL    HW217403   2.460   3.168   8.801 -3.0036  0.0732 -0.7057
 1923SOL     OW17404   1.478   4.363   0.471 -0.6727  0.4617 -0.1720
 1923SOL    HW117405   1.407   4.305   0.445  0.6381 -1.7190  1.1596
 1923SOL    HW217406   1.556   4.307   0.464 -1.2766 -0.1904 -1.6763
 1924SOL     OW17407   2.891   4.723   1.238 -0.3122  0.1642  0.2425
 1924SOL    HW117408   2.957   0.032   1.288 -2.0875  1.0895  1.6652
 1924SOL    HW217409   2.933   4.637   1.235  1.5495  1.0534  0.9668
 1925SOL     OW17410   0.800   1.996   0.279 -0.2133 -0.0065 -0.3255
 1925SOL    HW117411   0.838   2.084   0.286  0.3314 -0.3355  0.8995
 1925SOL    HW217412   0.832   1.953   0.359  0.5364  0.1832 -0.5246
 1926SOL     OW17413   1.251   0.590  12.412 -0.6070  0.3246  0.5335
 1926SOL    HW117414   1.181   0.623  12.469 -1.7844 -0.8536 -0.2327
 1926SOL    HW217415   1.246   0.495  12.424  0.8965  0.7359  4.4694
 1927SOL     OW17416   2.403   2.924   2.097  0.0072  0.5307  0.3002
 1927SOL    HW117417   2.483   2.933   2.149  0.3408  0.6078 -0.2278
 1927SOL    HW217418   2.423   2.873   2.019  3.3524  0.3928  1.2741
 1928SOL     OW17419   3.539   4.621   7.577  0.8659 -0.0062  0.2160
 1928SOL    HW117420   3.606   4.598   7.642  1.4475  0.5775 -0.1801
 1928SOL    HW217421   3.527   4.715   7.593 -1.5889 -0.7655  2.8919
 1929SOL     OW17422   3.457   1.149   6.687  0.1199  0.0526  0.0886
 1929SOL    HW117423   3.544   1.151   6.648  0.7705  0.9437  1.5880
 1929SOL    HW217424   3.429   1.059   6.672 -0.2225 -0.0529  1.3169
 1930SOL     OW17425   2.761   0.196   1.624 -0.0021  0.5182 -0.4201
 1930SOL    HW117426   2.779   0.150   1.542  0.6812 -0.5338  0.3199
 1930SOL    HW217427   2.836   0.255   1.636 -0.0961  1.0528 -2.4071
 1931SOL     OW17428   1.853   1.860  10.494  0.3362  0.0219 -0.4395
 1931SOL    HW117429   1.816   1.941  10.528  0.2752 -0.3941  0.4946
 1931SOL    HW217430   1.933   1.844  10.543 -0.4682 -1.5806  0.3530
 1932SOL     OW17431   2.066   1.928   5.716  0.3409  0.3404 -0.1521
 1932SOL    HW117432   1.988   1.882   5.748  0.6596  0.7085  1.1341
 1932SOL    HW217433   2.102   1.964   5.796 -0.4415  1.2238 -0.2021
 1933SOL     OW17434   0.558   3.489   3.698 -0.2574  0.1745  0.0095
 1933SOL    HW117435   0.507   3.570   3.698  0.4215  0.6098  1.9627
 1933SOL    HW217436   0.558   3.465   3.790  1.0522 -2.0020 -0.5454
 1934SOL     OW17437   3.276   1.060   9.296 -0.1570 -0.1992 -0.0890
 1934SOL    HW117438   3.295   1.001   9.370 -0.1307  0.1278  0.1649
 1934SOL    HW217439   3.184   1.085   9.302 -0.1040 -0.0633  0.1900
 1935SOL     OW17440   1.819   2.410   7.866 -0.3324  0.1698 -0.6451
 1935SOL    HW117441   1.855   2.499   7.869  1.4251 -0.6350  3.2416
 1935SOL    HW217442   1.852   2.381   7.781  1.7234  0.6055 -0.0228
 1936SOL     OW17443   1.802   1.853   0.967  0.2989  0.0424  0.0208
 1936SOL    HW117444   1.758   1.860   0.882 -1.4550 -2.1281  0.7361
 1936SOL    HW217445   1.889   1.868   0.930 -0.7160 -2.8244 -3.5624
 1937SOL     OW17446   3.775   3.658   1.843  0.2888  0.4396 -0.5141
 1937SOL    HW117447   3.827   3.669   1.764  3.3940  1.3789  1.6695
 1937SOL    HW217448   3.841   3.659   1.912 -0.6297 -2.5855  0.4219
 1938SOL     OW17449   2.677   3.803  16.014 -0.3106  0.0423 -0.4304
 1938SOL    HW117450   2.751   3.854  15.980 -0.4217  0.8729  0.5635
 1938SOL    HW217451   2.654   3.746  15.941 -2.0814 -0.6418  0.6588
 1939SOL     OW17452   1.354   3.214   0.870  0.0598  0.9435 -0.0767
 1939SOL    HW117453   1.317   3.125   0.867  2.1201  0.0172  1.6569
 1939SOL    HW217454   1.405   3.213   0.951  1.3237  1.2091 -0.8581
 1940SOL     OW17455   0.498   4.050   3.426  0.0987  0.0746  0.2013
 1940SOL    HW117456   0.485   4.144   3.440 -0.9791 -0.1828  0.9759
 1940SOL    HW217457   0.465   4.057   3.337 -1.2395  0.9338  0.7537
 1941SOL     OW17458   3.522   3.358   7.341  0.5093  0.9278 -0.3681
 1941SOL    HW117459   3.561   3.396   7.420 -1.3147  0.2822  0.8650
 1941SOL    HW217460   3.603   3.322   7.305  1.7137  0.4177  2.8048
 1942SOL     OW17461   2.662   1.644   1.826  0.0175  0.5356 -0.1171
 1942SOL    HW117462   2.671   1.680   1.915 -4.9084  0.7979  0.3224
 1942SOL    HW217463   2.749   1.606   1.823 -0.1553  0.1602 -0.2817
 1943SOL     OW17464   0.448   3.229  10.019 -0.2596  0.3507  0.5339
 1943SOL    HW117465   0.455   3.281  10.099 -0.8166  0.5774  0.4299
 1943SOL    HW217466   0.526   3.174  10.030 -0.6036 -0.5140 -1.4263
 1944SOL     OW17467   1.024   4.468   7.663 -0.0617  0.0294  0.2665
 1944SOL    HW117468   0.975   4.548   7.683 -2.0894 -0.8588 -1.1657
 1944SOL    HW217469   0.986   4.426   7.585 -1.9915  1.7797  0.2629
 1945SOL     OW17470   3.660   1.966   3.827 -0.1563  0.1788  0.3978
 1945SOL    HW117471   3.661   2.062   3.824  0.7009  0.0956 -2.4424
 1945SOL    HW217472   3.571   1.951   3.858 -0.8046 -1.6357 -2.2853
 1946SOL     OW17473   1.980   2.152   6.340 -0.6035  0.3876  0.0278
 1946SOL    HW117474   1.954   2.096   6.413  0.0834  2.0314  1.5093
 1946SOL    HW217475   1.909   2.135   6.278  0.1680  0.5854 -0.9131
 1947SOL     OW17476   0.035   2.058   5.453 -0.8325 -0.0226 -0.0327
 1947SOL    HW117477   4.687   2.022   5.444 -1.6428  1.2688  2.7674
 1947SOL    HW217478   0.056   2.031   5.543  0.6926  1.3233  0.0116
 1948SOL     OW17479   0.844   3.063   8.913 -0.0712  0.3482  0.3533
 1948SOL    HW117480   0.764   3.027   8.951 -1.3171  1.2616 -1.3710
 1948SOL    HW217481   0.922   3.015   8.940 -0.6158 -0.1745  0.9920
 1949SOL     OW17482   3.745   0.489   1.084  0.2416 -0.5217  0.6915
 1949SOL    HW117483   3.824   0.489   1.030  1.9411 -1.6191  3.1466
 1949SOL    HW217484   3.689   0.433   1.031 -0.1051 -0.4789  1.0094
 1950SOL     OW17485   2.780   2.842  11.040 -0.5371 -0.0109  0.0122
 1950SOL    HW117486   2.842   2.871  10.973 -0.7250 -0.0876 -0.1931
 1950SOL    HW217487   2.768   2.924  11.089  0.8417 -1.1006  2.2061
 1951SOL     OW17488   0.367   2.266   5.361  0.0260  0.0098  0.3660
 1951SOL    HW117489   0.461   2.274   5.375  0.3094  0.5134 -1.8830
 1951SOL    HW217490   0.359   2.290   5.269 -0.7266 -1.6799 -0.0182
 1952SOL     OW17491   4.578   2.752   5.720 -0.2472 -0.0606 -0.3452
 1952SOL    HW117492   4.522   2.774   5.645  0.7185 -0.7364 -1.2547
 1952SOL    HW217493   4.654   2.807   5.702  0.6202 -0.7228  1.3228
 1953SOL     OW17494   2.827   1.473  12.359  0.1658 -0.4830 -0.5731
 1953SOL    HW117495   2.756   1.521  12.400  0.9093  0.6506 -0.6026
 1953SOL    HW217496   2.795   1.473  12.269  0.8368  1.4856 -0.8125
 1954SOL     OW17497   4.068   2.878   1.585  0.1289 -0.1021  0.4583
 1954SOL    HW117498   4.135   2.816   1.614  1.9523  1.8327  0.3940
 1954SOL    HW217499   4.031   2.907   1.668 -0.4107 -2.3572  0.9929
 1955SOL     OW17500   2.101   4.109   1.600 -0.1990 -0.0406  0.0773
 1955SOL    HW117501   2.191   4.117   1.630 -0.3996  0.7518  0.4451
 1955SOL    HW217502   2.060   4.178   1.652 -0.7822  0.2608 -0.7743
 1956SOL     OW17503   0.087   0.207  14.135  0.1021  0.0963  0.3978
 1956SOL    HW117504   0.084   0.118  14.098  2.3033  1.2213 -2.4761
 1956SOL    HW217505   0.053   0.259  14.062  0.1168 -0.0592  0.2794
 1957SOL     OW17506   1.937   1.185   2.539  0.4796 -0.1252 -0.8907
 1957SOL    HW117507   1.867   1.123   2.560  0.7584 -1.2173 -3.2071
 1957SOL    HW217508   1.902   1.270   2.568  3.1313  1.5817 -2.6230
 1958SOL     OW17509   0.232   2.410  12.225  0.2886  0.2580  0.5214
 1958SOL    HW117510   0.299   2.347  12.253 -0.2010 -0.3950  0.2254
 1958SOL    HW217511   0.201   2.366  12.145 -0.4560  0.6081  0.6188
 1959SOL     OW17512   1.472   1.475   9.069  0.1951 -0.5155 -0.0289
 1959SOL    HW117513   1.461   1.528   8.990 -0.0687 -2.8466 -1.5409
 1959SOL    HW217514   1.543   1.419   9.040 -1.0049 -1.3776 -1.3187
 1960SOL     OW17515   2.108   0.377   3.162 -0.1435  0.7009 -0.0970
 1960SOL    HW117516   2.179   0.440   3.151 -0.8250  1.2028 -1.7013
 1960SOL    HW217517   2.084   0.379   3.070 -1.8325 -1.9989  0.2767
 1961SOL     OW17518   1.498   2.098   6.327 -0.2305  0.9624  0.1242
 1961SOL    HW117519   1.442   2.111   6.404  1.0041 -0.0665  1.1840
 1961SOL    HW217520   1.434   2.051   6.273  2.2921 -1.3656 -0.7850
 1962SOL     OW17521   2.113   3.596  16.658  0.4831 -0.1486  0.3155
 1962SOL    HW117522   2.049   3.635  16.599 -1.6563 -1.1381  1.9981
 1962SOL    HW217523   2.169   3.673  16.666 -1.2205  1.1053  0.0614
 1963SOL     OW17524   1.759   2.362  17.611 -0.1980 -0.5168 -0.4643
 1963SOL    HW117525   1.797   2.314  17.685 -0.3446  1.1394  0.6844
 1963SOL    HW217526   1.735   2.295  17.548  0.7715 -1.8736  0.6145
 1964SOL     OW17527   4.137   4.725   9.520 -0.2024 -0.6276  0.1214
 1964SOL    HW117528   4.203   4.671   9.477  0.2420 -0.0032  0.0155
 1964SOL    HW217529   4.066   4.662   9.525 -2.0864  1.4372 -0.7188
 1965SOL     OW17530   2.079   4.393   5.617  0.3244 -0.1690 -0.0924
 1965SOL    HW117531   1.985   4.392   5.634  0.4303  3.9184  0.8952
 1965SOL    HW217532   2.108   4.375   5.706 -1.9378 -0.8112  0.5048
 1966SOL     OW17533   2.036   3.069  17.067 -0.0346  0.3556 -0.2412
 1966SOL    HW117534   2.120   3.034  17.040  0.0263  1.3319 -1.3417
 1966SOL    HW217535   2.008   3.009  17.136 -2.6323  1.1110 -0.6131
 1967SOL     OW17536   3.744   1.777   6.249 -0.1738  0.6856 -0.5988
 1967SOL    HW117537   3.790   1.857   6.225 -0.2061  0.4529 -1.4323
 1967SOL    HW217538   3.724   1.804   6.339  3.5969  3.1692 -0.5000
 1968SOL     OW17539   1.161   0.512   9.276  0.7748 -0.8332  0.5771
 1968SOL    HW117540   1.135   0.465   9.197  0.2366 -1.4013  1.0962
 1968SOL    HW217541   1.115   0.594   9.261 -0.8985 -1.2759  3.3429
 1969SOL     OW17542   4.211   0.546   4.954 -0.4566 -0.6765 -0.0288
 1969SOL    HW117543   4.269   0.615   4.986 -0.6107 -0.2300 -0.7195
 1969SOL    HW217544   4.126   0.589   4.963 -0.9948 -1.6401 -0.4714
 1970SOL     OW17545   0.492   3.088   3.382 -0.4687 -0.2461 -0.2976
 1970SOL    HW117546   0.522   3.108   3.294 -0.1284  0.4180 -0.0309
 1970SOL    HW217547   0.514   3.170   3.426 -0.8098  0.0927 -0.7581
 1971SOL     OW17548   2.780   4.106   2.605 -1.0566  0.3696 -0.1394
 1971SOL    HW117549   2.709   4.104   2.668 -3.5422  1.9800 -2.8979
 1971SOL    HW217550   2.781   4.198   2.577 -1.9276  0.3654 -0.1640
 1972SOL     OW17551   4.489   4.605  12.007  0.7259  0.5488  0.1527
 1972SOL    HW117552   4.470   4.586  11.916  5.1496  0.1831 -0.7125
 1972SOL    HW217553   4.420   4.669  12.024 -0.3958 -0.2020 -1.6078
 1973SOL     OW17554   1.368   1.628   8.479  0.4671  0.0381  0.1564
 1973SOL    HW117555   1.276   1.642   8.501  0.0152  0.1099 -1.8432
 1973SOL    HW217556   1.416   1.665   8.553 -0.5323  0.7100  0.4533
 1974SOL     OW17557   1.613   4.592  10.054 -0.1014 -0.0466  0.0583
 1974SOL    HW117558   1.627   4.672  10.104  0.9978  0.6634 -1.3862
 1974SOL    HW217559   1.654   4.619   9.973 -0.0292 -2.7206 -0.7869
 1975SOL     OW17560   1.777   3.591   3.475 -0.4175  0.3802 -0.7093
 1975SOL    HW117561   1.699   3.633   3.439 -0.9724 -0.2796 -0.2809
 1975SOL    HW217562   1.747   3.593   3.566 -4.2995 -1.3142 -1.9383
 1976SOL     OW17563   2.262   1.688   1.649  0.1038  0.9174  0.4781
 1976SOL    HW117564   2.247   1.747   1.575 -2.0983 -1.2670 -0.8252
 1976SOL    HW217565   2.170   1.673   1.669  0.4358  0.3855  1.5878
 1977SOL     OW17566   3.039   4.063   8.021  1.0189 -0.2187  0.0195
 1977SOL    HW117567   3.008   4.093   8.106 -0.6664  1.4699 -1.1979
 1977SOL    HW217568   3.087   4.136   7.981 -0.1420  0.8701  0.6374
 1978SOL     OW17569   4.274   3.404  14.693 -0.0068 -0.1479  0.2827
 1978SOL    HW117570   4.218   3.474  14.662  2.7200  2.1503  0.5577
 1978SOL    HW217571   4.226   3.328  14.660 -1.3859  0.1250  1.6337
 1979SOL     OW17572   3.740   4.591   7.782 -0.6080  0.0992 -0.3052
 1979SOL    HW117573   3.766   4.546   7.862 -1.1337  0.7994  0.2651
 1979SOL    HW217574   3.717   4.680   7.810 -1.5852 -0.1091 -0.4168
 1980SOL     OW17575   3.273   1.109   2.253 -0.3378 -0.6447 -0.3901
 1980SOL    HW117576   3.345   1.171   2.241  0.9405 -1.8677  0.8236
 1980SOL    HW217577   3.288   1.037   2.192 -1.3163 -1.1088 -0.0771
 1981SOL     OW17578   2.448   0.398   7.478 -0.0057 -0.0174 -0.2975
 1981SOL    HW117579   2.390   0.327   7.507  0.5612 -1.0236 -1.6119
 1981SOL    HW217580   2.473   0.435   7.563 -0.1086 -0.5507 -0.0333
 1982SOL     OW17581   4.114   4.018   6.096  0.3564  0.0464  0.1581
 1982SOL    HW117582   4.182   4.083   6.112 -1.4877  1.6353  1.5139
 1982SOL    HW217583   4.072   4.044   6.014  0.2852  0.5929  0.3677
 1983SOL     OW17584   3.034   3.881   4.280 -0.4098 -0.1009  0.3187
 1983SOL    HW117585   3.121   3.893   4.242 -0.6810  1.5279  0.2133
 1983SOL    HW217586   3.052   3.894   4.373 -0.1287  1.2568  0.0721
 1984SOL     OW17587   3.461   4.651   1.669 -0.5299 -0.3339  0.2184
 1984SOL    HW117588   3.504   4.589   1.610  0.0818  0.0083  0.3089
 1984SOL    HW217589   3.387   4.598   1.699 -2.7441  1.7342 -1.6005
 1985SOL     OW17590   2.379   0.312   3.597  0.8494  0.1179  0.0556
 1985SOL    HW117591   2.427   0.245   3.645  0.0336  0.3469  1.1848
 1985SOL    HW217592   2.450   0.356   3.549  0.6547  0.8001  0.3877
 1986SOL     OW17593   2.531   2.825   8.114 -0.0060 -0.1251 -0.1936
 1986SOL    HW117594   2.489   2.743   8.087 -0.6592  0.6554 -1.5030
 1986SOL    HW217595   2.613   2.783   8.141 -0.4857 -0.6672  0.4178
 1987SOL     OW17596   2.046   0.115  13.507  0.2959 -0.2203 -0.4831
 1987SOL    HW117597   2.100   0.148  13.436 -1.5642  2.0349 -0.8622
 1987SOL    HW217598   1.971   0.175  13.501 -0.1818 -1.0124 -2.4520
 1988SOL     OW17599   4.553   3.525   1.606 -0.0728  0.2213 -0.3591
 1988SOL    HW117600   4.519   3.448   1.651 -0.3678  0.6357  0.1271
 1988SOL    HW217601   4.476   3.562   1.562 -0.9105 -0.9423  0.1259
 1989SOL     OW17602   3.561   2.095   7.297  0.2167  0.6175  0.0857
 1989SOL    HW117603   3.580   2.033   7.368 -0.8525  0.1294 -0.0575
 1989SOL    HW217604   3.633   2.159   7.297 -0.5447  1.4785  0.6333
 1990SOL     OW17605   2.602   4.042   6.029  0.3191  0.0509 -0.1432
 1990SOL    HW117606   2.692   4.073   6.033 -0.7619  3.1002 -0.0125
 1990SOL    HW217607   2.597   3.988   5.950  0.1055 -0.7789  0.4293
 1991SOL     OW17608   4.359   3.936   3.495 -0.0058  0.0056 -0.4272
 1991SOL    HW117609   4.356   3.858   3.441  0.1247  0.0922 -0.5592
 1991SOL    HW217610   4.265   3.951   3.503  0.2182  0.5284  1.3590
 1992SOL     OW17611   0.732   2.738   1.939 -0.0785  0.0111  0.0228
 1992SOL    HW117612   0.787   2.797   1.888 -1.9155  1.5753 -0.1425
 1992SOL    HW217613   0.644   2.772   1.920  0.5205  1.1715 -0.6619
 1993SOL     OW17614   3.111   3.810   1.951 -0.0373  0.4239 -0.1787
 1993SOL    HW117615   3.042   3.744   1.960 -0.6598  1.3135  1.4309
 1993SOL    HW217616   3.147   3.790   2.037 -1.1153  0.9730  0.4047
 1994SOL     OW17617   3.752   4.371   8.351  0.3327 -0.0914  0.2518
 1994SOL    HW117618   3.658   4.391   8.344  0.4401 -0.7826 -3.5168
 1994SOL    HW217619   3.747   4.289   8.302  1.6875  0.3884 -0.6900
 1995SOL     OW17620   3.011   0.552   4.936 -0.0383 -0.2828 -0.0606
 1995SOL    HW117621   3.001   0.589   4.848 -1.5862 -0.3645  0.0884
 1995SOL    HW217622   3.006   0.458   4.922 -0.3565 -0.3526  0.5311
 1996SOL     OW17623   0.827   4.486  10.194  0.2773 -0.2047 -0.3573
 1996SOL    HW117624   0.819   4.398  10.232  3.1596  0.0791  0.9069
 1996SOL    HW217625   0.906   4.520  10.236  0.1123 -1.3697  0.8841
 1997SOL     OW17626   4.022   4.478   3.818 -0.1625 -0.1488 -0.7013
 1997SOL    HW117627   3.980   4.516   3.896  0.5871  2.4104 -1.5295
 1997SOL    HW217628   4.111   4.490   3.849 -0.6892 -0.0060  0.7709
 1998SOL     OW17629   0.283   0.386   7.960 -0.8403 -0.5557  0.2227
 1998SOL    HW117630   0.292   0.477   7.930  0.7513 -0.5957  0.5630
 1998SOL    HW217631   0.199   0.357   7.925 -0.3737 -0.7751 -0.7245
 1999SOL     OW17632   3.941   0.536   6.460  0.0945  0.6497 -0.1632
 1999SOL    HW117633   3.944   0.574   6.372  0.5478  0.0238 -0.4183
 1999SOL    HW217634   3.994   0.607   6.498  2.4359  0.5466 -3.2270
 2000SOL     OW17635   1.323   3.610   7.608  0.4318  0.0217  0.3766
 2000SOL    HW117636   1.321   3.527   7.656  0.2586  0.9710  2.0256
 2000SOL    HW217637   1.233   3.615   7.577  0.2343 -0.2581  0.9040
 2001SOL     OW17638   1.961   4.576   2.856  0.7626 -0.0168  0.2397
 2001SOL    HW117639   1.947   4.516   2.930 -0.2393 -1.3889 -1.0568
 2001SOL    HW217640   1.990   4.652   2.907 -1.4129  1.2295 -0.3768
 2002SOL     OW17641   4.441   0.014   5.236 -0.2057  0.3036  0.0400
 2002SOL    HW117642   4.375   4.714   5.180  0.7818 -0.4704 -0.5799
 2002SOL    HW217643   4.452   4.677   5.292  1.3925 -0.4356 -1.2974
 2003SOL     OW17644   1.242   4.192   5.603 -0.0521  0.2034  0.3114
 2003SOL    HW117645   1.328   4.209   5.641  0.8611 -1.0979 -1.1701
 2003SOL    HW217646   1.200   4.269   5.640  2.2874  1.9525 -0.6799
 2004SOL     OW17647   1.226   1.819   3.858 -0.1988 -0.3234 -0.3033
 2004SOL    HW117648   1.158   1.886   3.850 -2.1823 -2.1710  1.1573
 2004SOL    HW217649   1.195   1.757   3.792 -0.5726 -0.4968  0.0356
 2005SOL     OW17650   0.822   3.441   3.580 -0.0536  0.8737 -0.1440
 2005SOL    HW117651   0.745   3.462   3.633  0.3051  4.2127 -0.9482
 2005SOL    HW217652   0.887   3.426   3.648  0.9189 -0.2460 -1.3230
 2006SOL     OW17653   1.726   3.956   8.814  0.2742  0.4092 -0.6127
 2006SOL    HW117654   1.715   3.980   8.906 -1.0651  1.7783 -1.1288
 2006SOL    HW217655   1.752   3.864   8.809  0.8474  0.5979 -1.0584
 2007SOL     OW17656   0.354   0.476   3.198  0.4805 -0.2237 -0.4808
 2007SOL    HW117657   0.315   0.512   3.118  0.0362  0.6842  0.1510
 2007SOL    HW217658   0.308   0.517   3.272 -0.0190  1.7024 -1.8530
 2008SOL     OW17659   2.140   0.502  14.455 -0.2000  0.7527 -0.2121
 2008SOL    HW117660   2.155   0.410  14.433 -0.0115  1.3026 -2.4630
 2008SOL    HW217661   2.070   0.494  14.520  0.4686 -0.0019  0.3998
 2009SOL     OW17662   0.276   4.435   7.726 -0.5472  0.9859 -0.2353
 2009SOL    HW117663   0.223   4.455   7.649 -1.7103  2.7982  1.0467
 2009SOL    HW217664   0.275   4.340   7.736  0.7038  0.9570 -0.3357
 2010SOL     OW17665   1.361   0.283   5.803 -0.0050  0.0700 -0.0297
 2010SOL    HW117666   1.438   0.322   5.761  0.2223 -1.4106 -0.9640
 2010SOL    HW217667   1.400   0.197   5.818 -0.7491 -0.3178 -0.3200
 2011SOL     OW17668   0.766   4.575  16.824 -0.4201 -0.1587  0.2800
 2011SOL    HW117669   0.775   4.667  16.801 -1.2438  0.3634  2.0728
 2011SOL    HW217670   0.825   4.572  16.900 -0.8018 -0.9802  0.5533
 2012SOL     OW17671   2.660   3.735  11.829 -0.2858  0.1887  0.2717
 2012SOL    HW117672   2.700   3.721  11.743 -1.0064  1.0811 -0.2219
 2012SOL    HW217673   2.566   3.750  11.814 -0.4604  1.0138  2.2622
 2013SOL     OW17674   2.959   3.421   3.909  0.0398  0.2007 -0.1207
 2013SOL    HW117675   2.926   3.353   3.968 -2.4504  2.6471  1.3343
 2013SOL    HW217676   3.028   3.460   3.963  1.2705 -0.0373 -1.5135
 2014SOL     OW17677   1.124   1.603   8.598 -0.0123  0.7598 -0.5419
 2014SOL    HW117678   1.151   1.656   8.673  0.6220  0.4840 -0.5712
 2014SOL    HW217679   1.072   1.665   8.547 -1.2576  0.9995  1.0187
 2015SOL     OW17680   4.634   1.460   9.426 -0.3958  0.4680  0.1946
 2015SOL    HW117681   4.587   1.382   9.399  0.5470 -0.6983  1.9521
 2015SOL    HW217682   4.680   1.486   9.346 -0.3053  2.1122  0.7717
 2016SOL     OW17683   1.401   1.164   3.362  0.4229  0.1877 -0.1774
 2016SOL    HW117684   1.496   1.171   3.369 -0.0239  3.4400  2.8022
 2016SOL    HW217685   1.375   1.238   3.417 -1.8335 -0.6759 -0.0668
 2017SOL     OW17686   2.596   3.323   7.608 -0.1825 -0.1880 -0.5580
 2017SOL    HW117687   2.596   3.418   7.618 -0.7472 -0.1502 -0.8939
 2017SOL    HW217688   2.689   3.312   7.587 -0.3144 -0.1049 -1.1871
 2018SOL     OW17689   1.957   2.281   4.756 -0.1354 -0.1822  0.2815
 2018SOL    HW117690   1.935   2.270   4.663  0.2002 -0.3100  0.2181
 2018SOL    HW217691   2.027   2.217   4.773  0.7879  0.5410 -0.8093
 2019SOL     OW17692   2.334   0.652   3.959  0.4128  0.3257  0.8650
 2019SOL    HW117693   2.298   0.604   3.884  1.2180  1.4828 -0.2474
 2019SOL    HW217694   2.367   0.578   4.010  1.0606  1.2100  1.7034
 2020SOL     OW17695   0.740   0.907   6.315 -0.0976  0.2778  0.1176
 2020SOL    HW117696   0.788   0.983   6.281  1.0806 -0.2744  0.5387
 2020SOL    HW217697   0.659   0.922   6.266 -0.0456  0.6595  0.1476
 2021SOL     OW17698   2.287   4.420   8.941  0.0872  0.3528 -0.1097
 2021SOL    HW117699   2.377   4.429   8.975  0.1336 -1.0914  0.1369
 2021SOL    HW217700   2.262   4.331   8.962  3.3146 -0.9742 -1.7923
 2022SOL     OW17701   4.624   0.959  10.079 -0.1845 -0.2837 -0.5655
 2022SOL    HW117702   4.574   0.877  10.074  2.7620 -2.1009 -0.0105
 2022SOL    HW217703   4.599   0.993   9.993 -2.0106  1.2605  0.5619
 2023SOL     OW17704   3.832   3.051   4.593 -0.3026  0.8759 -0.2655
 2023SOL    HW117705   3.848   3.106   4.516  1.0959  0.8497 -0.0044
 2023SOL    HW217706   3.752   3.087   4.631  0.3403 -0.3556  2.2396
 2024SOL     OW17707   2.920   2.481   3.041  0.1704 -0.0113 -0.1933
 2024SOL    HW117708   2.887   2.489   2.951  0.8442 -0.7306 -0.5062
 2024SOL    HW217709   2.907   2.564   3.088  1.0964  0.9819 -1.6931
 2025SOL     OW17710   2.887   2.689  13.024  0.3918  0.1764 -0.3496
 2025SOL    HW117711   2.828   2.614  13.017 -0.6673  1.0210 -0.4397
 2025SOL    HW217712   2.953   2.646  13.078  2.0769 -2.3675 -4.4928
 2026SOL     OW17713   0.517   4.208   6.164  0.5805 -0.1860  0.2349
 2026SOL    HW117714   0.544   4.180   6.251 -0.8578 -0.9376  0.4386
 2026SOL    HW217715   0.590   4.165   6.120  1.3652  0.5313  0.8170
 2027SOL     OW17716   1.114   3.079   8.472 -0.6848 -0.3453 -0.4913
 2027SOL    HW117717   1.065   3.040   8.400 -1.5728 -0.1202 -0.0008
 2027SOL    HW217718   1.132   3.169   8.445  2.6267 -0.7380  0.4073
 2028SOL     OW17719   1.405   2.387   5.658 -0.5299  0.2744 -0.1970
 2028SOL    HW117720   1.400   2.410   5.751 -0.2511 -0.6251  0.0447
 2028SOL    HW217721   1.441   2.299   5.664  0.2286  0.3994 -3.1227
 2029SOL     OW17722   1.825   3.641  10.589  0.2408  0.1090  0.3050
 2029SOL    HW117723   1.776   3.711  10.546 -0.2260 -2.6125 -3.6607
 2029SOL    HW217724   1.857   3.596  10.511 -1.0631  1.7761 -1.1914
 2030SOL     OW17725   4.329   2.353   8.884  0.2703 -0.0806  0.5922
 2030SOL    HW117726   4.367   2.328   8.800 -3.2810  0.8210 -1.3234
 2030SOL    HW217727   4.293   2.269   8.914 -0.0263 -0.5691 -1.1334
 2031SOL     OW17728   4.075   4.217   3.367 -0.1624 -0.0053  0.0251
 2031SOL    HW117729   3.986   4.249   3.371 -0.5121 -1.1599  1.4968
 2031SOL    HW217730   4.063   4.122   3.364 -0.8065  0.1033 -0.9989
 2032SOL     OW17731   2.550   0.612   1.759  0.0358 -0.0509 -0.2472
 2032SOL    HW117732   2.614   0.556   1.714 -1.0372 -0.0316 -1.8180
 2032SOL    HW217733   2.530   0.551   1.830 -0.3174 -0.1612 -0.4429
 2033SOL     OW17734   0.587   0.576  17.345 -0.0868  0.2530  0.3476
 2033SOL    HW117735   0.606   0.612  17.259 -1.4471  2.2926  0.9057
 2033SOL    HW217736   0.595   0.654  17.400 -2.1005 -0.2238  1.3437
 2034SOL     OW17737   1.613   3.413   5.476  0.4165  0.0779 -0.2582
 2034SOL    HW117738   1.525   3.409   5.514  0.9248  1.1884  1.0213
 2034SOL    HW217739   1.624   3.507   5.461 -1.3269  0.0405 -1.8635
 2035SOL     OW17740   0.694   3.092   4.916 -0.6671  0.2006  0.4002
 2035SOL    HW117741   0.633   3.098   4.843 -0.6707  0.5122  0.4309
 2035SOL    HW217742   0.643   3.054   4.989 -1.6191  0.2124 -0.2604
 2036SOL     OW17743   1.383   1.170   1.272 -0.3261 -0.1644  0.4329
 2036SOL    HW117744   1.436   1.207   1.344 -0.4456  0.8661 -0.0085
 2036SOL    HW217745   1.357   1.247   1.222 -2.4501 -0.8377  0.5256
 2037SOL     OW17746   2.755   2.720   7.198  0.2559 -0.2374  0.2882
 2037SOL    HW117747   2.807   2.800   7.201 -0.3076  0.0940  1.2330
 2037SOL    HW217748   2.764   2.697   7.105  0.4812  1.8853 -0.2237
 2038SOL     OW17749   0.168   3.454   6.989 -0.7177  0.4805 -0.6076
 2038SOL    HW117750   0.164   3.397   7.066  0.7629 -1.6522 -2.1218
 2038SOL    HW217751   0.231   3.411   6.932  2.3492  1.5371  1.9771
 2039SOL     OW17752   4.091   4.504   9.002 -0.4489 -0.2194 -0.2363
 2039SOL    HW117753   4.113   4.590   8.965 -0.2673 -0.4126 -0.5818
 2039SOL    HW217754   4.070   4.521   9.094 -0.5675  2.8774 -0.8193
 2040SOL     OW17755   0.719   0.590   4.990  0.4516 -0.0400 -0.0567
 2040SOL    HW117756   0.665   0.634   4.924 -1.1542 -0.0108  1.2795
 2040SOL    HW217757   0.671   0.618   5.068 -1.9594 -0.7998 -1.2565
 2041SOL     OW17758   2.098   1.761   2.234  0.4858  0.5657  0.2201
 2041SOL    HW117759   2.086   1.751   2.139 -3.8065 -1.7015  1.0697
 2041SOL    HW217760   2.190   1.790   2.231  0.4137  0.5484 -2.8583
 2042SOL     OW17761   2.943   0.491  10.193  0.0440 -0.4520  0.4447
 2042SOL    HW117762   2.930   0.518  10.102 -0.9203 -1.0631  0.3991
 2042SOL    HW217763   2.940   0.574  10.240 -0.3421  0.4192 -1.1122
 2043SOL     OW17764   0.739   4.118  15.114  0.1318 -0.1027  0.3057
 2043SOL    HW117765   0.800   4.129  15.187 -0.7541 -1.4564  1.2629
 2043SOL    HW217766   0.787   4.051  15.067 -0.3206  0.0658 -0.3929
 2044SOL     OW17767   2.171   4.724   1.708 -0.2554  0.0659 -0.2104
 2044SOL    HW117768   2.193   4.631   1.713 -1.5719 -0.1518  1.8480
 2044SOL    HW217769   2.082   4.728   1.673 -0.1495  0.6143 -0.4203
 2045SOL     OW17770   1.426   2.260   2.946 -0.5368  0.6787 -0.5502
 2045SOL    HW117771   1.394   2.321   3.012  1.4085  0.0272  1.0102
 2045SOL    HW217772   1.403   2.175   2.984  0.5231  0.1529 -1.0770
 2046SOL     OW17773   1.163   0.335   6.000 -0.5546  0.5386 -0.3894
 2046SOL    HW117774   1.232   0.329   5.933  0.1456  0.1874  0.3596
 2046SOL    HW217775   1.087   0.301   5.953  0.1585  0.0706 -1.2165
 2047SOL     OW17776   1.865   2.861   4.984 -0.2439  0.3544 -0.4079
 2047SOL    HW117777   1.803   2.807   5.033 -2.7298  1.6651 -2.1209
 2047SOL    HW217778   1.919   2.901   5.053  2.0505  0.0808 -2.0385
 2048SOL     OW17779   1.540   3.761   2.194  0.0313  0.2342 -0.1971
 2048SOL    HW117780   1.635   3.767   2.208  0.0833  0.7852 -0.8068
 2048SOL    HW217781   1.523   3.829   2.129  0.1119  0.5047  0.0629
 2049SOL     OW17782   4.705   4.167   6.956  0.2087 -0.0941 -0.2871
 2049SOL    HW117783   4.647   4.181   7.031 -0.5409  2.0095 -1.2539
 2049SOL    HW217784   0.044   4.136   6.999 -0.5028  0.7459  1.6382
 2050SOL     OW17785   3.205   0.846   5.562  0.0127 -0.1915 -0.4625
 2050SOL    HW117786   3.110   0.854   5.568 -0.0490 -1.6948  0.5892
 2050SOL    HW217787   3.235   0.932   5.591 -0.5816  0.1338 -0.8094
 2051SOL     OW17788   3.738   2.011   5.524 -0.0889 -0.3244  0.2026
 2051SOL    HW117789   3.717   1.934   5.577 -2.4148  2.0160  2.6872
 2051SOL    HW217790   3.770   1.979   5.440 -2.0124 -1.5284 -0.0751
 2052SOL     OW17791   1.527   1.859   6.597 -0.5309  0.7216  0.2059
 2052SOL    HW117792   1.604   1.819   6.555 -0.6978  0.5846  0.0301
 2052SOL    HW217793   1.532   1.828   6.687 -1.5595 -1.7901 -0.6238
 2053SOL     OW17794   2.146   4.158  14.242  0.4791  0.3761 -0.3304
 2053SOL    HW117795   2.066   4.190  14.284  0.3188  0.2556 -0.5415
 2053SOL    HW217796   2.144   4.203  14.157 -2.9031 -1.5608 -1.2835
 2054SOL     OW17797   4.678   2.232   4.266 -0.1049 -0.2682 -0.0392
 2054SOL    HW117798   4.669   2.216   4.172 -1.9161  0.7735 -0.0468
 2054SOL    HW217799   4.713   2.153   4.306 -1.6672  0.1404  2.1385
 2055SOL     OW17800   1.605   0.047   3.496 -0.4054 -0.0290  0.1553
 2055SOL    HW117801   1.545   0.121   3.485 -1.3698 -0.7294  0.7535
 2055SOL    HW217802   1.653   0.055   3.578  2.0477 -0.1782 -1.2277
 2056SOL     OW17803   3.869   1.156   7.248  0.7407 -0.2126 -0.0458
 2056SOL    HW117804   3.925   1.126   7.320  0.2441  0.6157  0.6824
 2056SOL    HW217805   3.854   1.248   7.268 -0.9925 -0.0533 -2.0380
 2057SOL     OW17806   0.348   2.962   1.430  0.1230 -0.2060  0.1204
 2057SOL    HW117807   0.438   2.964   1.398 -0.1171  0.2263 -0.5430
 2057SOL    HW217808   0.307   3.047   1.411 -2.6029 -1.9066 -1.6094
 2058SOL     OW17809   3.715   0.187  14.055 -0.3233  0.4400 -0.0273
 2058SOL    HW117810   3.800   0.145  14.047  0.8189  2.8612 -0.3288
 2058SOL    HW217811   3.674   0.154  14.135 -3.1988  0.1270 -1.5993
 2059SOL     OW17812   2.625   1.957   9.884 -0.7188  0.0056  0.1499
 2059SOL    HW117813   2.538   1.922   9.867 -0.8394  0.4897 -0.2207
 2059SOL    HW217814   2.611   2.044   9.847  1.3147  0.5339  0.6114
 2060SOL     OW17815   0.471   2.664   6.128  0.5565 -0.3227 -0.6694
 2060SOL    HW117816   0.529   2.620   6.191  3.3444  4.0619 -0.1750
 2060SOL    HW217817   0.453   2.743   6.179  0.1257 -0.6884 -0.2491
 2061SOL     OW17818   0.485   1.773   4.783 -0.1923  0.1564  0.2923
 2061SOL    HW117819   0.509   1.839   4.848  2.0768 -1.9011  1.5490
 2061SOL    HW217820   0.520   1.693   4.823  0.3102 -0.3865 -1.2450
 2062SOL     OW17821   1.882   2.014   2.741 -0.3475 -0.8273  0.4763
 2062SOL    HW117822   1.855   1.967   2.819  0.5592  2.4527  2.7873
 2062SOL    HW217823   1.964   2.053   2.772 -1.0990  0.2964  1.0818
 2063SOL     OW17824   1.404   4.176   4.381  0.4255  0.1843  0.1303
 2063SOL    HW117825   1.338   4.243   4.395  1.6098  1.0532  1.6148
 2063SOL    HW217826   1.370   4.108   4.440 -1.6263  1.2778  0.1891
 2064SOL     OW17827   0.369   4.072   6.514 -0.1131  0.0118  0.0936
 2064SOL    HW117828   0.325   4.083   6.430 -1.3611  1.3909  0.9236
 2064SOL    HW217829   0.463   4.077   6.498 -0.6156  1.7991 -2.2996
 2065SOL     OW17830   1.562   0.422   1.886  0.2836  0.6049 -0.5416
 2065SOL    HW117831   1.590   0.514   1.887  0.6602  0.4667  1.1774
 2065SOL    HW217832   1.563   0.396   1.978  1.5983 -0.8530 -0.9605
 2066SOL     OW17833   3.002   4.358   1.637 -0.3884  0.2138  0.2144
 2066SOL    HW117834   2.951   4.320   1.708 -0.5689 -0.1825 -0.1291
 2066SOL    HW217835   3.005   4.289   1.571 -2.6895 -1.3201  1.7215
 2067SOL     OW17836   1.708   1.971   2.105  0.5017 -0.1080  0.0212
 2067SOL    HW117837   1.743   1.941   2.189  1.7447  1.3927  0.0475
 2067SOL    HW217838   1.777   2.016   2.057 -1.0741 -2.2096 -4.1962
 2068SOL     OW17839   1.302   0.893  11.793 -0.3412 -0.6248 -0.5547
 2068SOL    HW117840   1.328   0.835  11.865  0.3232  0.0030 -0.2843
 2068SOL    HW217841   1.210   0.878  11.771 -0.5364  0.6163 -0.6071
 2069SOL     OW17842   4.697   1.584   8.378 -0.4422 -0.2179  0.1440
 2069SOL    HW117843   0.002   1.512   8.423 -1.4499  1.1772  3.4269
 2069SOL    HW217844   4.603   1.565   8.384 -0.6101  0.6234  0.1449
 2070SOL     OW17845   0.641   1.127   2.731 -0.3541  0.4542  0.0493
 2070SOL    HW117846   0.666   1.207   2.777  2.3152  0.6270 -1.6978
 2070SOL    HW217847   0.558   1.098   2.769 -0.5789  2.3325  0.9878
 2071SOL     OW17848   4.673   3.560   4.828 -0.7356 -0.3947  0.2092
 2071SOL    HW117849   4.622   3.490   4.869 -0.2506 -0.9258 -0.0923
 2071SOL    HW217850   4.725   3.514   4.762  0.2213 -0.8260  1.2736
 2072SOL     OW17851   3.347   1.279  11.048  0.3885 -0.1551 -0.0423
 2072SOL    HW117852   3.376   1.322  11.128  0.0864  1.2615 -0.7017
 2072SOL    HW217853   3.338   1.190  11.083  2.3403 -0.8753 -1.3870
 2073SOL     OW17854   1.264   1.158   5.962  0.1130  0.0963  0.6321
 2073SOL    HW117855   1.347   1.201   5.945  0.7262 -1.5098 -0.4710
 2073SOL    HW217856   1.294   1.080   6.008  0.5812 -0.8264 -1.2308
 2074SOL     OW17857   2.582   2.664   9.307 -0.1183 -0.4256 -0.2137
 2074SOL    HW117858   2.593   2.755   9.279  0.3865 -1.0453 -2.0262
 2074SOL    HW217859   2.542   2.627   9.228 -0.7492 -0.4542  0.1153
 2075SOL     OW17860   4.022   1.703   6.121 -0.2445 -0.8022  0.1244
 2075SOL    HW117861   4.068   1.759   6.059 -2.4962  0.1430 -0.7110
 2075SOL    HW217862   3.943   1.754   6.140  0.7894  0.2474  1.5822
 2076SOL     OW17863   0.858   3.810   8.478 -0.2476  0.0923 -0.1042
 2076SOL    HW117864   0.862   3.783   8.570 -0.8138  0.6006  0.0697
 2076SOL    HW217865   0.830   3.900   8.492 -0.3692  0.0331  0.0390
 2077SOL     OW17866   4.256   2.616   7.816  0.3075 -0.2719  0.0456
 2077SOL    HW117867   4.217   2.579   7.894  0.6305 -0.3577  0.1660
 2077SOL    HW217868   4.240   2.710   7.830  1.7561 -0.4857  3.0213
 2078SOL     OW17869   0.950   2.586   4.481 -0.0993  0.6447 -0.6527
 2078SOL    HW117870   0.953   2.495   4.512 -0.9541  1.2379  1.1299
 2078SOL    HW217871   0.944   2.615   4.572  2.6906 -0.0700 -0.2321
 2079SOL     OW17872   4.447   3.947   8.810 -0.0533 -0.1233 -0.1465
 2079SOL    HW117873   4.469   4.038   8.828  0.1521 -0.3939  0.9776
 2079SOL    HW217874   4.530   3.901   8.796  0.5192  1.3490 -1.4969
 2080SOL     OW17875   2.861   0.436   6.778 -0.2731 -0.2076 -0.0646
 2080SOL    HW117876   2.837   0.502   6.713  1.0264 -0.3474 -0.6751
 2080SOL    HW217877   2.940   0.397   6.742 -0.7424 -2.1152  0.9633
 2081SOL     OW17878   4.437   1.535   4.361  0.3886  0.1028  0.1981
 2081SOL    HW117879   4.517   1.500   4.320 -0.3910 -0.3949 -0.8807
 2081SOL    HW217880   4.387   1.562   4.284  2.4177  0.7698 -0.9142
 2082SOL     OW17881   4.356   3.421   7.230  0.0042  0.1460  0.1128
 2082SOL    HW117882   4.416   3.482   7.273 -0.1522  0.1527  0.3221
 2082SOL    HW217883   4.341   3.469   7.148  0.0187  0.9161  0.5550
 2083SOL     OW17884   1.936   2.159   0.988  0.5190 -0.7766  0.1971
 2083SOL    HW117885   1.979   2.099   0.926  0.8200  0.1737 -0.5069
 2083SOL    HW217886   1.991   2.143   1.065  1.3268  0.0672 -0.2030
 2084SOL     OW17887   0.840   0.345   8.758 -0.0507 -0.7860 -0.3455
 2084SOL    HW117888   0.831   0.393   8.840  0.3983  0.2532 -0.9074
 2084SOL    HW217889   0.837   0.419   8.697  0.0051 -1.7841 -1.5580
 2085SOL     OW17890   2.456   4.070  14.637  0.0555  0.0112  0.6772
 2085SOL    HW117891   2.493   4.080  14.549 -2.0860  0.8547 -0.1537
 2085SOL    HW217892   2.374   4.116  14.619  0.7564  1.2078  0.5807
 2086SOL     OW17893   2.375   3.381  15.818  0.2862  0.0611 -0.0915
 2086SOL    HW117894   2.462   3.416  15.841  0.8763 -0.0811 -2.1244
 2086SOL    HW217895   2.370   3.407  15.726  0.8733 -1.8092 -0.6583
 2087SOL     OW17896   2.078   2.372   5.458  0.9179  0.2656  0.0414
 2087SOL    HW117897   2.092   2.279   5.440 -0.3113  0.5954 -2.5676
 2087SOL    HW217898   1.986   2.388   5.436  0.8774 -0.2358 -0.1394
 2088SOL     OW17899   3.855   2.646  11.589  0.5847  0.2594 -0.5650
 2088SOL    HW117900   3.766   2.681  11.595  0.2966 -0.8249  1.3622
 2088SOL    HW217901   3.873   2.600  11.671 -0.5194 -0.0198 -0.4841
 2089SOL     OW17902   4.650   0.662   0.158  0.3753 -0.1804 -0.4852
 2089SOL    HW117903   4.717   0.643   0.224 -0.1095 -1.0521 -0.2411
 2089SOL    HW217904   4.698   0.673   0.077  0.4812 -0.3186 -0.4394
 2090SOL     OW17905   3.514   2.885  14.734 -0.2287 -0.2587  0.3709
 2090SOL    HW117906   3.488   2.960  14.682  0.3662 -0.3950 -0.1174
 2090SOL    HW217907   3.495   2.814  14.672 -0.8415  1.0422 -0.9093
 2091SOL     OW17908   3.949   3.006  14.630  0.2550  0.3464  0.0621
 2091SOL    HW117909   3.871   3.017  14.684 -1.1713 -3.0289 -1.3481
 2091SOL    HW217910   3.908   3.031  14.547 -0.0555 -0.3254  0.0164
 2092SOL     OW17911   2.833   1.716   2.800  0.0894 -0.5059 -0.5340
 2092SOL    HW117912   2.926   1.708   2.782  0.5146  1.0985  1.0561
 2092SOL    HW217913   2.818   1.783   2.867  0.6950  0.3450 -1.2509
 2093SOL     OW17914   1.496   3.406   7.122 -0.3867 -0.1152 -0.2249
 2093SOL    HW117915   1.436   3.467   7.079 -0.8979 -0.2178  0.3282
 2093SOL    HW217916   1.438   3.334   7.145 -0.0606 -0.3072  0.0008
 2094SOL     OW17917   1.725   3.420   2.797  0.7119 -0.4866 -0.4836
 2094SOL    HW117918   1.785   3.464   2.857  0.6645  0.1912 -0.9435
 2094SOL    HW217919   1.732   3.480   2.724  2.6093  0.1638  0.2279
 2095SOL     OW17920   2.052   3.860   2.164 -0.3722 -0.1964  0.3635
 2095SOL    HW117921   2.021   3.842   2.075 -0.0660 -1.7639  0.5665
 2095SOL    HW217922   2.128   3.914   2.144 -0.0814 -0.9281 -0.5334
 2096SOL     OW17923   3.776   0.832   6.185 -0.0174 -0.2193  0.0828
 2096SOL    HW117924   3.736   0.836   6.271  1.1941  0.1209  0.6293
 2096SOL    HW217925   3.815   0.745   6.184  1.3150  0.3663  0.1501
 2097SOL     OW17926   3.910   3.504   4.925 -0.1872  0.7532  0.7251
 2097SOL    HW117927   3.938   3.476   5.012 -0.6280 -0.0139  0.6144
 2097SOL    HW217928   3.943   3.435   4.869 -0.5319  1.3994 -0.2673
 2098SOL     OW17929   2.212   1.005   1.241  0.3258 -0.0492  0.3856
 2098SOL    HW117930   2.159   0.997   1.320  0.6338 -2.5817  0.3375
 2098SOL    HW217931   2.273   0.933   1.259 -0.5147 -0.8363  0.0717
 2099SOL     OW17932   0.164   1.470  16.014 -0.4783 -0.2370 -0.0001
 2099SOL    HW117933   0.231   1.539  16.019  2.1559 -2.8392  0.1344
 2099SOL    HW217934   0.219   1.394  15.999  1.7599  1.3892 -0.0905
 2100SOL     OW17935   2.237   0.053  14.168 -0.0313 -0.3528 -0.3698
 2100SOL    HW117936   2.215   0.004  14.089 -0.4039 -0.3305 -0.2754
 2100SOL    HW217937   2.298   0.119  14.134 -2.9348  2.0808 -0.8907
 2101SOL     OW17938   4.347   1.164  17.669  0.2738  0.5512 -0.3979
 2101SOL    HW117939   4.393   1.080  17.674  2.5572  1.8421 -0.0230
 2101SOL    HW217940   4.327   1.189   0.001 -0.3946 -0.3144 -0.2967
 2102SOL     OW17941   0.560   0.246  13.818 -0.1431 -0.2806  0.5611
 2102SOL    HW117942   0.557   0.246  13.914  0.1871  0.7943  0.5761
 2102SOL    HW217943   0.654   0.256  13.811 -0.1229 -2.2875 -1.9277
 2103SOL     OW17944   4.478   0.845  13.051 -0.4135  0.1204 -0.0279
 2103SOL    HW117945   4.535   0.920  13.033 -0.1019 -0.6166 -2.1229
 2103SOL    HW217946   4.530   0.799  13.116 -0.4897  0.4613  0.2727
 2104SOL     OW17947   2.028   1.364   2.095 -0.8288  0.1559 -0.3862
 2104SOL    HW117948   2.049   1.390   2.184  0.8164 -1.7932 -0.2162
 2104SOL    HW217949   2.106   1.397   2.050  0.4916 -0.2210  1.6232
 2105SOL     OW17950   4.323   1.656  14.575 -0.3049  0.5505 -0.1290
 2105SOL    HW117951   4.287   1.597  14.641 -0.9144  2.0442  0.8910
 2105SOL    HW217952   4.311   1.604  14.496  0.6436 -0.3027  0.2997
 2106SOL     OW17953   1.104   0.727   7.010 -0.0413 -0.1119 -0.4472
 2106SOL    HW117954   1.047   0.668   6.961 -0.0736 -1.2850  1.0148
 2106SOL    HW217955   1.075   0.705   7.098  0.9138  1.2956  0.2225
 2107SOL     OW17956   2.032   1.410   0.368 -0.1924  0.4591  0.1064
 2107SOL    HW117957   2.053   1.480   0.431  0.9271 -0.5251  0.8163
 2107SOL    HW217958   2.115   1.364   0.374 -1.1615 -1.4126 -0.8629
 2108SOL     OW17959   1.348   3.155   2.776  0.9531  0.4600 -0.0715
 2108SOL    HW117960   1.314   3.072   2.744  0.3390  0.4764  0.5350
 2108SOL    HW217961   1.442   3.140   2.786  0.1935 -3.5320  1.0986
 2109SOL     OW17962   2.187   1.872   1.476 -0.5430  0.5969 -0.2475
 2109SOL    HW117963   2.118   1.869   1.409 -0.5356  0.1957 -0.2372
 2109SOL    HW217964   2.172   1.963   1.501 -0.2633  0.9365 -1.2940
 2110SOL     OW17965   2.483   0.174   5.934 -0.0691 -0.2858  0.1042
 2110SOL    HW117966   2.458   0.265   5.919 -0.5053  0.0545  2.8839
 2110SOL    HW217967   2.413   0.136   5.882 -0.5190 -0.3445  0.7452
 2111SOL     OW17968   3.483   4.235   7.226  0.1984  0.3338  0.1484
 2111SOL    HW117969   3.448   4.317   7.261 -0.1083 -1.0432  3.0566
 2111SOL    HW217970   3.473   4.267   7.136  1.8938  0.8390  0.1305
 2112SOL     OW17971   0.349   2.298   6.228 -0.3691 -0.2188 -0.4958
 2112SOL    HW117972   0.377   2.361   6.294  1.4358  0.0667 -1.5267
 2112SOL    HW217973   0.306   2.347   6.158  0.3876  0.1945 -0.6685
 2113SOL     OW17974   1.634   2.284   9.261  0.2070  0.6594  0.2189
 2113SOL    HW117975   1.653   2.376   9.275 -1.7951  1.1791 -0.4905
 2113SOL    HW217976   1.601   2.282   9.171 -0.9657  1.6434  0.6381
 2114SOL     OW17977   1.949   1.686   0.281  0.6291 -0.0833  0.5123
 2114SOL    HW117978   1.934   1.679   0.187  1.9398  1.6648  0.1859
 2114SOL    HW217979   2.035   1.727   0.292  1.9713 -2.6426 -0.4223
 2115SOL     OW17980   2.896   2.965   6.612  0.3041 -0.3423  0.0864
 2115SOL    HW117981   2.894   2.942   6.519 -0.4703  3.2157 -0.8155
 2115SOL    HW217982   2.809   2.939   6.642  1.2386 -1.5949  1.6649
 2116SOL     OW17983   0.996   1.463  16.831  0.1869  0.3641  0.4328
 2116SOL    HW117984   1.071   1.412  16.799  0.9488  0.6449  1.7694
 2116SOL    HW217985   0.959   1.507  16.754 -1.6497  1.8060  2.1370
 2117SOL     OW17986   3.520   2.314   3.358 -0.1409  0.2147  0.3837
 2117SOL    HW117987   3.526   2.265   3.441  0.5526  0.0158  0.2174
 2117SOL    HW217988   3.525   2.405   3.390  1.7112 -0.0895  0.9706
 2118SOL     OW17989   0.129   2.156   8.572  0.1361  0.4988 -0.2158
 2118SOL    HW117990   0.147   2.144   8.665 -0.3502  1.2885 -0.0136
 2118SOL    HW217991   0.035   2.136   8.574  0.6174 -1.6073  0.4679
 2119SOL     OW17992   3.790   3.402   4.522  0.2268  0.3192  0.8556
 2119SOL    HW117993   3.804   3.319   4.477 -0.6934  0.0621  1.0270
 2119SOL    HW217994   3.879   3.419   4.551  0.2747  0.4634  0.6180
 2120SOL     OW17995   0.375   1.176   4.651 -0.5752 -0.2206 -0.7011
 2120SOL    HW117996   0.339   1.185   4.739 -1.0859  0.7340 -0.9982
 2120SOL    HW217997   0.457   1.129   4.669 -0.3925  1.0763  1.9326
 2121SOL     OW17998   2.055   3.833   9.396 -0.4665  0.0590 -0.9095
 2121SOL    HW117999   2.059   3.923   9.430  0.8316 -0.4819  0.3734
 2121SOL    HW218000   2.125   3.837   9.332 -0.7700 -2.2691 -1.3797
 2122SOL     OW18001   0.690   1.077  14.640  0.2894 -0.2134 -0.5173
 2122SOL    HW118002   0.628   1.064  14.713 -0.2870  2.7529 -0.4862
 2122SOL    HW218003   0.773   1.055  14.683  0.2086 -1.2404 -0.8761
 2123SOL     OW18004   3.231   2.094   7.029  0.0619  0.2649 -0.2597
 2123SOL    HW118005   3.171   2.052   6.967 -0.2838  0.0527  0.2172
 2123SOL    HW218006   3.200   2.184   7.034  1.6316  0.8370 -0.8072
 2124SOL     OW18007   2.136   2.561   4.495  0.1569  0.1338 -0.2035
 2124SOL    HW118008   2.041   2.549   4.496  0.0693  0.6258 -2.4260
 2124SOL    HW218009   2.164   2.469   4.492 -0.6525 -0.0909 -0.8276
 2125SOL     OW18010   2.189   2.151   4.773 -0.9294 -0.0468  0.2203
 2125SOL    HW118011   2.222   2.065   4.798 -1.4219 -0.1381  0.5504
 2125SOL    HW218012   2.276   2.178   4.742 -0.4841  1.2320  2.6688
 2126SOL     OW18013   2.616   0.567   4.468  0.0649  0.3976 -0.0846
 2126SOL    HW118014   2.650   0.571   4.378  0.4355 -0.0765  0.0360
 2126SOL    HW218015   2.648   0.479   4.488 -1.0345 -0.4557 -2.1303
 2127SOL     OW18016   1.844   1.755   1.481  0.3684 -0.0215  0.1460
 2127SOL    HW118017   1.903   1.820   1.442 -0.5795  1.6680  1.4960
 2127SOL    HW218018   1.791   1.740   1.403  1.0710 -0.8450 -0.1717
 2128SOL     OW18019   2.881   2.294   1.318 -0.0783 -1.2368 -0.1924
 2128SOL    HW118020   2.949   2.319   1.255  0.9997  0.1930  1.5331
 2128SOL    HW218021   2.927   2.288   1.402  2.6793  0.1748 -1.5871
 2129SOL     OW18022   0.294   3.009   2.342  0.2017  0.3817  0.3587
 2129SOL    HW118023   0.233   3.080   2.321  2.8185  2.4560 -0.2484
 2129SOL    HW218024   0.257   2.977   2.425  0.8886  0.2479  0.6081
 2130SOL     OW18025   1.042   1.161  12.925  0.2538 -0.6897  0.2276
 2130SOL    HW118026   0.970   1.102  12.901  0.1717 -1.0750  1.4391
 2130SOL    HW218027   1.100   1.089  12.950  1.3519  0.3148  0.5561
 2131SOL     OW18028   2.990   1.963   6.083 -0.1553 -0.3981 -0.0004
 2131SOL    HW118029   3.085   1.970   6.075  0.1084 -1.9686  1.6737
 2131SOL    HW218030   2.966   2.054   6.098  2.0399  0.1868 -0.0424
 2132SOL     OW18031   0.404   1.452   6.925 -0.1662  0.3134  0.4165
 2132SOL    HW118032   0.335   1.385   6.923 -2.0565  2.2411  1.8356
 2132SOL    HW218033   0.419   1.464   7.018 -0.6454 -0.2527  0.5692
 2133SOL     OW18034   0.616   0.545  12.470  0.1076 -0.5607 -0.0048
 2133SOL    HW118035   0.597   0.624  12.521  2.0369  0.6721 -1.1611
 2133SOL    HW218036   0.546   0.489  12.504 -0.6946  0.1338 -0.5119
 2134SOL     OW18037   0.953   2.754   5.275 -0.0647  0.2908 -0.0736
 2134SOL    HW118038   0.965   2.825   5.212  0.7549 -1.2478 -1.6483
 2134SOL    HW218039   0.934   2.814   5.347  1.7029  1.7952 -0.8525
 2135SOL     OW18040   4.054   3.955   3.283 -0.0891 -0.0376  0.0791
 2135SOL    HW118041   4.080   3.863   3.288  0.4446  0.1685  1.0912
 2135SOL    HW218042   3.964   3.960   3.315  0.1282 -0.2742  0.7085
 2136SOL     OW18043   1.866   3.658   9.467 -0.6583 -0.2934  0.1872
 2136SOL    HW118044   1.869   3.607   9.386 -1.5685 -2.0083  1.2334
 2136SOL    HW218045   1.919   3.732   9.437  1.2121 -2.4357 -1.7820
 2137SOL     OW18046   1.411   1.447   4.812 -0.1893 -0.4909  0.2024
 2137SOL    HW118047   1.338   1.475   4.867 -0.5371  3.8209 -2.4350
 2137SOL    HW218048   1.377   1.413   4.729 -0.6882 -0.5927  0.4453
 2138SOL     OW18049   2.623   1.742  11.539 -0.0934  0.2514 -0.1667
 2138SOL    HW118050   2.666   1.695  11.467  1.7723 -0.6034  1.4853
 2138SOL    HW218051   2.633   1.678  11.610  0.6482  0.4777 -0.0644
 2139SOL     OW18052   1.491   4.426   6.653 -0.6955 -0.3585  0.1638
 2139SOL    HW118053   1.461   4.418   6.563 -1.9918 -0.3450  0.6002
 2139SOL    HW218054   1.469   4.511   6.691 -2.7505  0.1513 -2.1648
 2140SOL     OW18055   2.625   2.620   6.545  0.1539 -0.1073 -0.2835
 2140SOL    HW118056   2.564   2.548   6.526 -1.1177  1.4887 -2.1573
 2140SOL    HW218057   2.671   2.569   6.612  0.7667 -0.8869 -1.3079
 2141SOL     OW18058   0.130   4.615  10.032  0.0808  0.2334  0.1932
 2141SOL    HW118059   0.223   4.594  10.036 -0.0370  0.1244  2.1154
 2141SOL    HW218060   0.124   4.701   9.991  2.1237 -0.2569 -1.1089
 2142SOL     OW18061   2.989   2.288   8.709  0.3480 -0.4125  0.2240
 2142SOL    HW118062   2.930   2.346   8.661  1.1435  1.1555  1.1418
 2142SOL    HW218063   2.993   2.220   8.641 -0.2336 -0.1786 -0.0457
 2143SOL     OW18064   3.970   0.424   2.718 -0.2918 -0.0362 -0.0116
 2143SOL    HW118065   4.012   0.383   2.793  0.5530  1.4416  0.3201
 2143SOL    HW218066   3.895   0.367   2.704  0.2595 -0.5769 -0.7275
 2144SOL     OW18067   0.742   3.428   1.154  0.5809 -0.4449  0.3414
 2144SOL    HW118068   0.822   3.401   1.110 -0.4119 -0.2479 -1.5533
 2144SOL    HW218069   0.685   3.395   1.085  1.9432 -2.0199 -0.0187
 2145SOL     OW18070   0.581   3.234   5.411  0.4825  0.1000 -0.7225
 2145SOL    HW118071   0.644   3.277   5.470  0.3782  0.6413 -1.0100
 2145SOL    HW218072   0.522   3.185   5.469 -1.0751  0.8482 -1.6955
 2146SOL     OW18073   0.742   3.839   2.006  0.3290  0.2668  0.7235
 2146SOL    HW118074   0.711   3.765   2.058  1.3339 -0.9898 -0.4921
 2146SOL    HW218075   0.732   3.909   2.071  0.8783 -1.2783  2.4596
 2147SOL     OW18076   2.247   2.011  10.842 -0.1938 -0.0937 -0.4477
 2147SOL    HW118077   2.320   2.070  10.861  0.7019 -1.0550 -0.8817
 2147SOL    HW218078   2.292   1.953  10.780 -0.2803  0.1460 -0.7347
 2148SOL     OW18079   3.047   3.854  13.903 -0.7682 -0.6437 -0.5238
 2148SOL    HW118080   3.044   3.947  13.879 -0.0084 -0.3157  0.6803
 2148SOL    HW218081   3.115   3.847  13.971 -0.6866 -0.5075 -0.5916
 2149SOL     OW18082   3.940   2.404  16.292 -0.5016  0.9077  0.0670
 2149SOL    HW118083   3.848   2.429  16.294 -1.5016 -2.9414  1.3310
 2149SOL    HW218084   3.979   2.485  16.258  0.2269  1.3303  1.9281
 2150SOL     OW18085   1.303   3.464   4.389  0.5944  0.6647 -0.1442
 2150SOL    HW118086   1.264   3.483   4.304 -0.3051  1.8141  0.5336
 2150SOL    HW218087   1.390   3.501   4.377  0.5107  0.3083 -1.9690
 2151SOL     OW18088   1.137   0.068   7.071 -0.9433  0.3595 -0.0656
 2151SOL    HW118089   1.137   0.118   6.990  1.3863 -1.4576 -1.2054
 2151SOL    HW218090   1.195   0.122   7.125  0.9991  0.2609 -2.0511
 2152SOL     OW18091   0.121   3.447   4.689 -0.7506  0.9165 -0.7706
 2152SOL    HW118092   0.142   3.394   4.612 -0.8066  2.4140 -1.8336
 2152SOL    HW218093   0.213   3.468   4.708 -1.0748 -0.4233  2.1750
 2153SOL     OW18094   1.127   3.916   6.500  0.5865 -0.0247 -0.4466
 2153SOL    HW118095   1.112   3.857   6.574 -0.5713  0.3887 -0.3428
 2153SOL    HW218096   1.089   3.856   6.437  0.1190 -0.4853  0.2674
 2154SOL     OW18097   0.755   3.365   0.742  0.3343 -0.2339  0.2702
 2154SOL    HW118098   0.693   3.425   0.701 -2.1435  0.2018  4.7421
 2154SOL    HW218099   0.702   3.344   0.819  2.3313 -1.2603  1.3669
 2155SOL     OW18100   1.757   2.496   2.398  0.4127 -0.1919 -0.5690
 2155SOL    HW118101   1.770   2.591   2.402 -1.1447  0.0865 -2.0986
 2155SOL    HW218102   1.810   2.477   2.476  0.2964  0.4525 -0.3323
 2156SOL     OW18103   4.191   1.441   3.263 -0.1539  0.0574 -0.0132
 2156SOL    HW118104   4.208   1.531   3.234 -1.5973 -0.2531 -1.8090
 2156SOL    HW218105   4.277   1.403   3.243  1.0919  1.0195  3.5175
 2157SOL     OW18106   4.510   3.716  12.261 -0.5674  0.6720  0.5900
 2157SOL    HW118107   4.602   3.721  12.287 -0.9272  0.0230  1.9906
 2157SOL    HW218108   4.503   3.623  12.240 -0.8675  0.6710  0.6802
 2158SOL     OW18109   0.282   1.224  13.712 -0.8384 -0.3871  0.2880
 2158SOL    HW118110   0.195   1.213  13.673 -0.5564  1.2267 -0.8173
 2158SOL    HW218111   0.325   1.142  13.687 -0.1760 -0.5185  1.8552
 2159SOL     OW18112   4.289   1.574   2.868  0.2496 -0.4583 -0.1193
 2159SOL    HW118113   4.313   1.624   2.790  0.3809  2.1463  1.5984
 2159SOL    HW218114   4.321   1.627   2.941  0.5754 -1.5228  0.4933
 2160SOL     OW18115   1.428   2.450   5.924 -0.1671  0.0514 -0.1132
 2160SOL    HW118116   1.470   2.534   5.945  0.5300  0.0909 -1.6644
 2160SOL    HW218117   1.428   2.406   6.010  1.0149 -1.4301 -0.8726
 2161SOL     OW18118   1.484   4.372  15.986  0.3656  0.3788 -0.0581
 2161SOL    HW118119   1.419   4.347  15.921 -0.5477 -0.9737  1.3983
 2161SOL    HW218120   1.434   4.425  16.048  0.0413 -0.2345  0.1973
 2162SOL     OW18121   2.104   1.980   8.621 -0.6863  0.3130  0.2042
 2162SOL    HW118122   2.195   1.957   8.602 -0.2086  1.9181  0.5565
 2162SOL    HW218123   2.072   1.905   8.673 -0.5210 -0.1955 -0.4260
 2163SOL     OW18124   2.151   3.362   2.697 -0.1305 -0.8276  0.2832
 2163SOL    HW118125   2.234   3.325   2.726  0.8422  1.4322  0.3921
 2163SOL    HW218126   2.098   3.336   2.772 -4.4041 -1.6100 -3.0376
 2164SOL     OW18127   0.597   3.846   3.584  0.5305 -0.5588  0.1011
 2164SOL    HW118128   0.654   3.906   3.632 -0.9607  1.2324 -0.3685
 2164SOL    HW218129   0.534   3.896   3.534  1.1135 -0.1979 -0.2728
 2165SOL     OW18130   3.781   2.396  15.984 -0.1264 -0.0818 -0.3987
 2165SOL    HW118131   3.766   2.491  15.990  0.2286 -0.0838  0.4955
 2165SOL    HW218132   3.705   2.380  15.928 -2.0643 -1.7025  2.6668
 2166SOL     OW18133   2.766   1.275   7.488  0.4589  0.1641 -0.4248
 2166SOL    HW118134   2.757   1.219   7.565 -0.5783 -0.0877 -0.7370
 2166SOL    HW218135   2.855   1.255   7.458  0.3677  0.0924 -0.6469
 2167SOL     OW18136   1.639   3.147   2.451  0.4802 -0.1921  0.1641
 2167SOL    HW118137   1.718   3.098   2.431 -0.5043 -1.9009  0.4767
 2167SOL    HW218138   1.654   3.238   2.423 -1.8040 -0.0496 -0.6462
 2168SOL     OW18139   2.457   1.088  10.354 -0.2315 -0.0379  0.0837
 2168SOL    HW118140   2.496   1.001  10.360  0.0122 -0.0346 -1.4823
 2168SOL    HW218141   2.363   1.069  10.353 -0.0859 -0.7279 -0.1667
 2169SOL     OW18142   4.264   1.037   6.197 -0.7042  0.4136  0.2544
 2169SOL    HW118143   4.208   1.091   6.140  3.0489  1.8984 -1.9893
 2169SOL    HW218144   4.278   1.091   6.274  0.8262  0.5901 -0.1658
 2170SOL     OW18145   2.316   2.854   2.371 -0.5583  0.1102 -0.1931
 2170SOL    HW118146   2.328   2.763   2.398  0.6858  0.1871 -0.5327
 2170SOL    HW218147   2.360   2.859   2.287  0.4407  1.6233  0.4170
 2171SOL     OW18148   3.776   2.727   6.007  0.4200  0.5517 -0.5462
 2171SOL    HW118149   3.810   2.654   5.955 -0.3354  0.7870 -1.3763
 2171SOL    HW218150   3.686   2.734   5.976  0.2038  1.9325  0.4385
 2172SOL     OW18151   3.045   0.665   3.317  0.2283  0.3400  0.5121
 2172SOL    HW118152   3.055   0.698   3.406  2.5240 -0.4283  0.5297
 2172SOL    HW218153   3.096   0.739   3.282  1.4377 -1.0614 -0.7195
 2173SOL     OW18154   2.413   0.603   2.618 -0.8078  0.1193 -0.2195
 2173SOL    HW118155   2.418   0.585   2.711  2.8840  0.4775 -0.3738
 2173SOL    HW218156   2.436   0.696   2.619 -1.0481  0.1668  0.6891
 2174SOL     OW18157   0.698   2.187   7.828  0.0588  0.0647  0.0202
 2174SOL    HW118158   0.674   2.156   7.915 -2.2200  0.7322 -0.3770
 2174SOL    HW218159   0.610   2.201   7.794 -0.0166  0.3884  0.3516
 2175SOL     OW18160   2.292   1.761   5.620  0.0756  0.0211  0.1685
 2175SOL    HW118161   2.233   1.787   5.550 -1.7897 -1.2284  1.2930
 2175SOL    HW218162   2.307   1.670   5.595 -1.1173 -0.4536  1.1876
 2176SOL     OW18163   3.646   4.490   8.061  0.1968 -0.1091  0.0021
 2176SOL    HW118164   3.644   4.580   8.027  1.4862  0.0474  0.3706
 2176SOL    HW218165   3.554   4.468   8.043  0.0196 -0.1562  0.9683
 2177SOL     OW18166   1.460   3.639   7.979  0.0288  0.1831 -0.5132
 2177SOL    HW118167   1.405   3.619   7.903 -1.8245  1.6745  0.4446
 2177SOL    HW218168   1.541   3.600   7.944 -0.3465  0.1731 -1.3764
 2178SOL     OW18169   2.344   1.110   5.129 -0.4243  0.4818 -0.2721
 2178SOL    HW118170   2.437   1.132   5.126 -0.2247 -0.4344 -0.7799
 2178SOL    HW218171   2.307   1.182   5.079  1.4661  2.2773  0.8765
 2179SOL     OW18172   1.634   1.446  13.706  0.3081  0.4992 -0.1264
 2179SOL    HW118173   1.603   1.375  13.762 -0.6451  0.7576 -0.3283
 2179SOL    HW218174   1.627   1.521  13.764 -0.2274  0.6188 -0.3387
 2180SOL     OW18175   4.230   2.976   5.942 -0.1023 -0.0221 -0.1359
 2180SOL    HW118176   4.184   2.992   5.859  1.7449 -2.8493 -1.7064
 2180SOL    HW218177   4.173   2.910   5.981 -0.5424 -0.3392 -1.2983
 2181SOL     OW18178   2.143   4.513   6.381 -0.2319  0.0750 -0.6178
 2181SOL    HW118179   2.146   4.557   6.466  0.8821 -1.3779  0.0910
 2181SOL    HW218180   2.049   4.507   6.366 -0.5169 -0.7293  1.5134
 2182SOL     OW18181   4.424   4.614  15.691  0.0000  0.3762 -0.1575
 2182SOL    HW118182   4.329   4.606  15.677  0.1943  1.1156 -1.9569
 2182SOL    HW218183   4.437   4.592  15.783 -2.0518  0.1043  0.0657
 2183SOL     OW18184   0.461   1.268   3.019  0.6024  0.0119 -0.2255
 2183SOL    HW118185   0.499   1.192   3.063 -0.2676  1.2054  2.5743
 2183SOL    HW218186   0.533   1.331   3.024  1.2115 -0.5887 -1.3063
 2184SOL     OW18187   3.076   0.352   7.011  0.6154 -0.1738  0.5599
 2184SOL    HW118188   3.149   0.325   6.955  0.5951 -0.1031  0.5005
 2184SOL    HW218189   3.043   0.263   7.027  1.7196 -0.3794  1.7292
 2185SOL     OW18190   3.156   3.534   3.177 -0.0680  0.1920 -0.0195
 2185SOL    HW118191   3.080   3.560   3.228 -0.1916 -1.5677  0.6989
 2185SOL    HW218192   3.113   3.532   3.091 -0.7451 -0.6887  0.3429
 2186SOL     OW18193   0.123   0.338   6.375 -0.2595  0.1907  0.4315
 2186SOL    HW118194   0.214   0.319   6.353 -0.3827  1.3498 -1.0972
 2186SOL    HW218195   0.107   0.288   6.455  0.5087  0.6276  0.8534
 2187SOL     OW18196   1.236   2.484   7.592 -0.7026  0.4448  0.3069
 2187SOL    HW118197   1.323   2.515   7.616  0.5598 -1.1723 -2.1472
 2187SOL    HW218198   1.249   2.463   7.499 -3.5840 -1.0776  0.2427
 2188SOL     OW18199   1.920   0.089   2.174 -0.0509  0.2725 -0.1774
 2188SOL    HW118200   1.921   0.168   2.121  0.5662  1.1327  1.1161
 2188SOL    HW218201   1.830   0.091   2.206  0.4513 -1.4784  1.3710
 2189SOL     OW18202   1.279   1.361  13.812  0.8761  0.5936 -0.9913
 2189SOL    HW118203   1.329   1.402  13.742  0.5126 -0.4316 -1.8418
 2189SOL    HW218204   1.296   1.413  13.891  1.5275 -1.0689 -0.0302
 2190SOL     OW18205   1.403   4.638   1.864  0.1933  0.2153 -1.1024
 2190SOL    HW118206   1.456   4.576   1.914 -0.1068 -0.9539 -2.2250
 2190SOL    HW218207   1.383   4.708   1.926 -0.2907 -1.0006  0.1315
 2191SOL     OW18208   1.814   2.120  11.770 -0.3230  0.3060  0.0799
 2191SOL    HW118209   1.762   2.115  11.850  0.1480 -0.5774  0.3228
 2191SOL    HW218210   1.761   2.187  11.725 -2.8906 -0.5152  1.9196
 2192SOL     OW18211   3.872   3.074   8.149 -0.6122  0.0623  0.4995
 2192SOL    HW118212   3.785   3.090   8.185 -0.8140 -0.6022  0.3146
 2192SOL    HW218213   3.912   3.159   8.163  1.2343 -0.8809  0.9655
 2193SOL     OW18214   3.642   2.257  16.226 -0.1219  0.8409 -0.5751
 2193SOL    HW118215   3.569   2.212  16.184  1.1611 -2.2782  0.5872
 2193SOL    HW218216   3.705   2.273  16.155  1.3587  2.1431  1.0454
 2194SOL     OW18217   2.407   4.350   1.924  0.2482  0.1926  0.2813
 2194SOL    HW118218   2.377   4.434   1.958 -0.2059  1.2772 -2.8171
 2194SOL    HW218219   2.413   4.293   2.001  2.1686  0.1615  0.0943
 2195SOL     OW18220   3.458   3.181  17.296  0.7619 -0.7080 -0.2256
 2195SOL    HW118221   3.462   3.099  17.344  1.8722 -0.4891  0.0531
 2195SOL    HW218222   3.508   3.158  17.217  0.5342 -3.7890  0.5472
 2196SOL     OW18223   3.230   2.670   6.831 -0.9626  0.1605  0.3206
 2196SOL    HW118224   3.256   2.719   6.909 -1.8023 -1.9740  1.9369
 2196SOL    HW218225   3.296   2.602   6.820  1.2421  2.3026  0.2859
 2197SOL     OW18226   0.862   2.057  13.542 -0.1793 -0.1645  0.4459
 2197SOL    HW118227   0.837   2.022  13.627  1.3117  0.9294  1.3361
 2197SOL    HW218228   0.883   2.148  13.561 -1.4212  0.1200  0.4538
 2198SOL     OW18229   4.628   1.064  10.505  0.2200 -0.2030 -0.2161
 2198SOL    HW118230   4.692   1.048  10.575  1.5434  0.3276 -1.2957
 2198SOL    HW218231   4.626   1.160  10.509 -0.3420 -0.2260 -0.0391
 2199SOL     OW18232   2.410   0.135  15.376  0.0262  0.4345 -0.1735
 2199SOL    HW118233   2.367   0.080  15.310 -2.4271  0.7776  1.1588
 2199SOL    HW218234   2.346   0.200  15.405 -0.1720  0.2796 -0.2569
 2200SOL     OW18235   4.041   3.750   1.727 -0.0184  0.1164 -0.0214
 2200SOL    HW118236   4.081   3.734   1.813  0.9585  0.8584 -0.3378
 2200SOL    HW218237   4.065   3.676   1.671 -0.6690 -1.2610  1.4941
 2201SOL     OW18238   3.585   2.939  12.844 -0.7127 -0.4960 -0.7662
 2201SOL    HW118239   3.627   3.025  12.831  2.8195 -2.0583  0.2523
 2201SOL    HW218240   3.596   2.929  12.939  0.2958  1.7043 -0.6371
 2202SOL     OW18241   0.397   1.950   4.218  0.5076  0.0107  0.2691
 2202SOL    HW118242   0.387   1.910   4.304 -1.5912 -0.7999 -0.3681
 2202SOL    HW218243   0.421   1.875   4.164 -0.7792 -2.4273  3.1329
 2203SOL     OW18244   1.163   3.531  13.816 -0.0883  0.3027  0.2617
 2203SOL    HW118245   1.186   3.474  13.889 -1.6332  0.7160  1.0595
 2203SOL    HW218246   1.070   3.511  13.805  0.0817 -1.7846  2.7571
 2204SOL     OW18247   1.460   1.332   6.297  0.4797 -0.5175  0.1863
 2204SOL    HW118248   1.503   1.308   6.378  1.4585 -4.4661 -1.4939
 2204SOL    HW218249   1.522   1.388   6.250 -1.0094 -0.0087 -1.2126
 2205SOL     OW18250   0.536   4.694   8.635 -0.1843 -1.1089  0.2719
 2205SOL    HW118251   0.465   0.007   8.669  1.3905 -0.8235  3.0938
 2205SOL    HW218252   0.612   4.738   8.674 -1.8723  2.1166 -0.0617
 2206SOL     OW18253   3.626   0.829   7.806  0.1060 -0.4819  0.3365
 2206SOL    HW118254   3.570   0.792   7.874  0.0522 -2.3502 -0.7136
 2206SOL    HW218255   3.578   0.904   7.769 -0.5990 -0.8641  0.4807
 2207SOL     OW18256   0.032   2.551  14.628  0.7306  0.0569 -0.0168
 2207SOL    HW118257   4.731   2.470  14.599  1.7517  0.1568 -1.6872
 2207SOL    HW218258   4.700   2.608  14.653  2.9090  1.9548  2.0334
 2208SOL     OW18259   3.342   3.658   9.200  0.1951 -0.1355 -0.4187
 2208SOL    HW118260   3.280   3.693   9.265 -0.4778  0.5964 -1.4513
 2208SOL    HW218261   3.363   3.573   9.238 -1.4271 -0.6847 -0.7677
 2209SOL     OW18262   0.147   3.693   4.249  0.5276 -0.1973 -0.0682
 2209SOL    HW118263   0.165   3.785   4.231  0.8765 -0.1212  0.6635
 2209SOL    HW218264   0.137   3.697   4.344 -1.1222  0.7584 -0.2849
 2210SOL     OW18265   1.637   1.331   0.213 -0.1535 -0.0577  0.5049
 2210SOL    HW118266   1.662   1.349   0.303  0.6827 -2.6941  0.7800
 2210SOL    HW218267   1.579   1.255   0.222 -0.1928  0.1211  1.7577
 2211SOL     OW18268   4.204   0.926   8.270 -0.0056 -0.4071  0.2809
 2211SOL    HW118269   4.255   0.863   8.321  3.2599  0.7952 -1.4739
 2211SOL    HW218270   4.153   0.973   8.337  1.0729 -2.3551  2.4668
 2212SOL     OW18271   0.050   4.504  12.358 -0.0326 -0.2902 -0.1117
 2212SOL    HW118272   0.144   4.513  12.344  0.3030 -0.3006  2.0123
 2212SOL    HW218273   0.007   4.540  12.281 -1.0661 -0.0396  0.5758
 2213SOL     OW18274   1.680   3.206  17.335  0.0172  0.4018  0.2769
 2213SOL    HW118275   1.729   3.137  17.379  0.5442 -0.0654 -1.0455
 2213SOL    HW218276   1.599   3.204  17.387  1.0343  0.7089  1.8723
 2214SOL     OW18277   3.154   0.606   2.660 -0.5801 -0.1333 -0.2959
 2214SOL    HW118278   3.228   0.579   2.713 -1.7126  0.3069  1.5217
 2214SOL    HW218279   3.110   0.664   2.722  0.2900  0.4488 -0.2147
 2215SOL     OW18280   4.250   4.357   7.947  0.0563 -0.3444  0.3467
 2215SOL    HW118281   4.276   4.265   7.939 -1.6965 -0.7364 -0.8036
 2215SOL    HW218282   4.160   4.349   7.915 -0.3097  1.9310  0.8160
 2216SOL     OW18283   2.310   4.040  14.985 -0.6787 -0.5450  0.2955
 2216SOL    HW118284   2.276   4.016  15.071 -1.5179  0.3569  0.2126
 2216SOL    HW218285   2.226   4.064  14.945 -0.5350  0.3431  0.5464
 2217SOL     OW18286   1.939   4.338   2.677  0.1432  0.3209 -0.2610
 2217SOL    HW118287   1.987   4.364   2.756 -0.7878  0.7672  0.1604
 2217SOL    HW218288   1.866   4.295   2.722  0.2696  0.5838  0.1894
 2218SOL     OW18289   3.051   2.836  11.214 -0.1476 -0.3409  0.1780
 2218SOL    HW118290   3.004   2.753  11.199  0.4041 -0.5429 -0.4289
 2218SOL    HW218291   3.142   2.806  11.206 -0.6320 -2.3678  2.3580
 2219SOL     OW18292   1.730   3.862  10.023  0.0858 -0.5335 -0.4943
 2219SOL    HW118293   1.792   3.935  10.022 -1.7801  1.0430 -0.2673
 2219SOL    HW218294   1.683   3.873   9.941  0.1934  2.9888 -0.0903
 2220SOL     OW18295   2.364   1.900  15.182  0.1594  0.1284 -0.2511
 2220SOL    HW118296   2.369   1.887  15.277 -0.5686  3.1414  0.2208
 2220SOL    HW218297   2.426   1.838  15.144  0.4482  0.4841 -0.3582
 2221SOL     OW18298   3.300   1.694   5.775 -0.6723  0.1902 -0.0505
 2221SOL    HW118299   3.330   1.655   5.693 -0.5840  1.1691 -0.4856
 2221SOL    HW218300   3.207   1.703   5.755 -0.4142  0.4982 -1.1210
 2222SOL     OW18301   2.917   0.184   7.670 -0.5258  0.9805 -0.8562
 2222SOL    HW118302   2.880   0.188   7.758 -1.3693 -0.4886 -1.1474
 2222SOL    HW218303   3.004   0.146   7.680 -0.8968  0.0147 -1.3501
 2223SOL     OW18304   1.708   4.088   6.658 -0.4980 -0.1591 -0.4054
 2223SOL    HW118305   1.617   4.094   6.687 -0.4068  1.5480 -0.4481
 2223SOL    HW218306   1.754   4.028   6.717  0.6237  0.6083 -0.4893
 2224SOL     OW18307   4.544   3.801   6.955  0.6145 -0.4934 -0.2642
 2224SOL    HW118308   4.470   3.822   7.012  0.9079  1.8656 -0.7499
 2224SOL    HW218309   4.601   3.787   7.029  1.4691 -1.5433 -1.1269
 2225SOL     OW18310   1.215   2.109   9.093 -0.1781 -0.3735 -0.2258
 2225SOL    HW118311   1.172   2.030   9.060 -1.1997 -0.8004  2.1428
 2225SOL    HW218312   1.143   2.169   9.112 -0.0850 -0.2838 -0.1575
 2226SOL     OW18313   1.868   2.591   4.519 -0.0831 -0.3191  0.2947
 2226SOL    HW118314   1.786   2.542   4.524 -0.9413  1.0173 -0.6943
 2226SOL    HW218315   1.869   2.633   4.605  3.0340 -2.6467  1.4032
 2227SOL     OW18316   3.858   2.757   8.918  0.0635 -0.2500 -0.0169
 2227SOL    HW118317   3.842   2.851   8.926  0.9939  0.0023 -0.9445
 2227SOL    HW218318   3.911   2.767   8.838 -0.2639 -0.7751 -0.3020
 2228SOL     OW18319   4.515   1.547   2.276 -0.0199 -0.3604 -0.4230
 2228SOL    HW118320   4.445   1.494   2.237  0.8582 -1.2317 -0.7905
 2228SOL    HW218321   4.589   1.486   2.273  0.9469  0.6871  2.3687
 2229SOL     OW18322   0.289   4.210   3.620  0.1116  0.0277  0.1620
 2229SOL    HW118323   0.318   4.173   3.704  0.3996 -0.4604 -0.1519
 2229SOL    HW218324   0.315   4.302   3.619 -0.9772  0.3396 -0.0938
 2230SOL     OW18325   3.296   0.540   8.120 -0.9257  0.5677  0.0089
 2230SOL    HW118326   3.320   0.528   8.212  1.3049  0.2842 -0.6105
 2230SOL    HW218327   3.240   0.616   8.134  0.0047  1.3492 -0.5649
 2231SOL     OW18328   0.514   0.585   2.885  0.6316 -0.2072  0.0851
 2231SOL    HW118329   0.561   0.629   2.956 -0.4255  0.5838  0.2920
 2231SOL    HW218330   0.426   0.596   2.922  0.6334 -0.1237  0.0638
 2232SOL     OW18331   2.471   1.718   4.550  0.0031  0.2125  0.1660
 2232SOL    HW118332   2.390   1.679   4.582  0.4211 -0.9369 -0.1905
 2232SOL    HW218333   2.473   1.681   4.462  0.3587  1.4163 -0.3241
 2233SOL     OW18334   3.881   1.980   8.242 -0.0400 -0.3306  0.2662
 2233SOL    HW118335   3.949   2.016   8.300 -0.4313 -0.5809  0.8769
 2233SOL    HW218336   3.862   2.055   8.185  3.1360  1.8852  2.0903
 2234SOL     OW18337   2.918   0.035  13.870 -0.2928  0.1912 -1.1665
 2234SOL    HW118338   3.010   0.013  13.879 -0.5989 -0.1796  0.8977
 2234SOL    HW218339   2.882   4.718  13.937 -0.4023  1.1816 -0.3748
 2235SOL     OW18340   3.468   1.702  16.630 -0.7043 -0.6366 -0.2955
 2235SOL    HW118341   3.500   1.752  16.555  1.4224 -0.8964  0.4385
 2235SOL    HW218342   3.462   1.612  16.598  0.3369 -1.0572  0.6896
 2236SOL     OW18343   2.068   1.268   1.021 -0.3024  0.0507  0.0700
 2236SOL    HW118344   2.044   1.195   1.078 -3.8590  0.6395 -0.6771
 2236SOL    HW218345   2.140   1.303   1.074 -0.1866 -2.2004  1.3936
 2237SOL     OW18346   2.073   4.487  15.856  0.2880 -0.0588  0.8352
 2237SOL    HW118347   2.046   4.437  15.779  2.2601  0.5761 -0.2523
 2237SOL    HW218348   2.047   4.424  15.924 -0.3590 -0.3593  0.3060
 2238SOL     OW18349   2.079   1.308   3.273  0.4171  0.5128 -0.3371
 2238SOL    HW118350   1.989   1.282   3.291  1.0072 -1.4504 -0.2026
 2238SOL    HW218351   2.123   1.237   3.227 -0.1013 -0.5445  0.7885
 2239SOL     OW18352   1.260   1.820  16.197 -0.8845  0.3282  0.1588
 2239SOL    HW118353   1.262   1.731  16.162 -0.0169  0.3978  0.0316
 2239SOL    HW218354   1.275   1.792  16.287 -0.4406 -0.0216 -0.0198
 2240SOL     OW18355   3.932   3.177   5.385 -0.2956  0.5837  0.1622
 2240SOL    HW118356   4.026   3.194   5.377 -0.3550  0.5053 -0.6883
 2240SOL    HW218357   3.932   3.091   5.426 -2.3710 -0.8515 -2.8922
 2241SOL     OW18358   3.788   4.115  11.011 -0.2628  0.0032 -0.4009
 2241SOL    HW118359   3.797   4.030  10.968  0.2345  0.3470 -0.9656
 2241SOL    HW218360   3.857   4.171  10.976  1.7641 -1.6566  0.9728
 2242SOL     OW18361   4.003   4.360  11.169 -0.1540 -0.6216 -0.1088
 2242SOL    HW118362   4.076   4.379  11.110  0.8997 -2.6171  0.5341
 2242SOL    HW218363   4.027   4.281  11.218 -0.3144  1.1987  2.9173
 2243SOL     OW18364   2.674   0.771  16.034 -0.1635  0.1593  0.8244
 2243SOL    HW118365   2.657   0.846  16.091 -0.9889 -0.4518  1.3687
 2243SOL    HW218366   2.588   0.754  15.996  0.5508 -0.4894 -0.5261
 2244SOL     OW18367   2.052   4.562   2.495 -0.3577 -0.3174  0.4852
 2244SOL    HW118368   2.113   4.507   2.545  0.6081 -0.9328 -1.3630
 2244SOL    HW218369   1.968   4.526   2.521 -0.6138 -1.1447 -1.4580
 2245SOL     OW18370   0.152   1.287   7.204 -0.0243 -0.0335 -0.2676
 2245SOL    HW118371   0.161   1.323   7.115 -2.4821 -0.4850 -0.6965
 2245SOL    HW218372   0.085   1.221   7.187  1.1254 -0.9667 -1.1533
 2246SOL     OW18373   2.256   4.377   6.981  0.3066 -0.0389 -0.4756
 2246SOL    HW118374   2.318   4.323   6.931 -1.1486 -2.2215  0.1083
 2246SOL    HW218375   2.207   4.317   7.036  1.4721  0.4320  1.0663
 2247SOL     OW18376   3.242   0.162   5.069  0.4671 -0.1008  0.1188
 2247SOL    HW118377   3.282   0.168   4.982 -0.3890  0.5601 -0.2321
 2247SOL    HW218378   3.257   0.246   5.113  1.2890  1.5583 -3.2853
 2248SOL     OW18379   2.742   0.762   8.925 -0.1966 -0.1058  0.1205
 2248SOL    HW118380   2.713   0.712   9.002 -1.7386  2.0034  0.9165
 2248SOL    HW218381   2.668   0.749   8.865  0.6958 -0.8148 -0.8361
 2249SOL     OW18382   0.690   2.214   4.196  0.3187 -0.2123 -0.2017
 2249SOL    HW118383   0.701   2.129   4.239  1.9205 -0.2436 -0.6808
 2249SOL    HW218384   0.598   2.229   4.220  0.7276  1.3691  0.3948
 2250SOL     OW18385   1.867   3.007   2.461  0.5786  0.0378 -0.2119
 2250SOL    HW118386   1.932   3.001   2.391 -0.4062  3.0635 -1.3791
 2250SOL    HW218387   1.928   3.030   2.530 -0.4692  3.4456 -0.4032
 2251SOL     OW18388   4.109   0.289  13.928  0.0442 -0.4054 -0.5312
 2251SOL    HW118389   4.068   0.262  13.845  0.4389 -0.0897 -0.8327
 2251SOL    HW218390   4.135   0.199  13.947 -0.2118 -0.5285 -0.7536
 2252SOL     OW18391   2.660   0.140   3.387 -0.0775  0.1550  0.1536
 2252SOL    HW118392   2.731   0.113   3.329 -1.9538  0.7939 -2.4371
 2252SOL    HW218393   2.685   0.087   3.463 -1.3574 -0.3018  0.2648
 2253SOL     OW18394   4.680   2.590  13.206 -0.7085  0.3851 -0.0429
 2253SOL    HW118395   4.642   2.531  13.141 -0.7974 -1.2743  1.5190
 2253SOL    HW218396   4.657   2.541  13.285  0.9336 -2.0945 -1.0864
 2254SOL     OW18397   0.542   0.564   8.559  0.1597 -0.1341 -0.1934
 2254SOL    HW118398   0.462   0.564   8.610  0.5788 -0.5124  0.4651
 2254SOL    HW218399   0.589   0.625   8.616  1.0212 -0.9268 -0.0490
 2255SOL     OW18400   2.444   0.388   3.077 -0.4162  0.1009 -0.0057
 2255SOL    HW118401   2.478   0.341   3.001  1.4586 -0.9023  1.4343
 2255SOL    HW218402   2.408   0.318   3.131 -0.6432  1.4127  1.5545
 2256SOL     OW18403   2.048   1.853   4.174 -0.1049 -0.1764  0.4624
 2256SOL    HW118404   2.139   1.822   4.172  0.4870  1.5147  1.0744
 2256SOL    HW218405   2.010   1.803   4.102  2.5416  0.7795 -1.6153
 2257SOL     OW18406   2.905   4.567  11.707 -0.1697 -0.2012 -0.1654
 2257SOL    HW118407   2.964   4.640  11.726 -1.6838  1.4131 -1.6810
 2257SOL    HW218408   2.908   4.520  11.791  1.0926 -0.3963 -0.3172
 2258SOL     OW18409   3.426   3.933   5.075 -0.6051 -0.0851 -0.2097
 2258SOL    HW118410   3.396   4.014   5.116  2.7811  0.1060  1.9228
 2258SOL    HW218411   3.418   3.956   4.983 -2.8229 -1.8161 -0.4605
 2259SOL     OW18412   4.212   0.109  16.924 -0.0573  0.8391 -0.1337
 2259SOL    HW118413   4.191   0.113  17.017  2.1212  1.6790  0.3155
 2259SOL    HW218414   4.138   0.058  16.891 -0.8344  1.0814  1.2175
 2260SOL     OW18415   0.830   0.501   4.370  0.2858 -0.6493  1.0086
 2260SOL    HW118416   0.752   0.487   4.317 -0.4697 -0.9281  2.1730
 2260SOL    HW218417   0.887   0.505   4.294 -1.3994 -0.9082 -0.2610
 2261SOL     OW18418   2.641   0.792   1.551  0.3171  0.0773  0.5861
 2261SOL    HW118419   2.631   0.747   1.634 -2.5681  2.3365  1.4630
 2261SOL    HW218420   2.616   0.731   1.482  0.1493  1.1170 -0.2832
 2262SOL     OW18421   1.264   2.980   0.848  0.2726  0.1609 -0.1860
 2262SOL    HW118422   1.351   2.941   0.835 -0.5382 -1.9061  0.6573
 2262SOL    HW218423   1.211   2.907   0.880  0.7177 -0.6756 -1.3637
 2263SOL     OW18424   1.089   0.657   3.944 -0.1840  0.3512 -0.2593
 2263SOL    HW118425   1.046   0.589   3.893  2.5438 -1.4921 -0.0693
 2263SOL    HW218426   1.141   0.701   3.877  1.0842 -3.5805 -1.8117
 2264SOL     OW18427   3.427   1.086  17.324 -0.2669 -0.0475 -0.0629
 2264SOL    HW118428   3.481   1.069  17.247  0.1215  0.8347  0.0207
 2264SOL    HW218429   3.488   1.056  17.391  0.0368 -0.7146 -0.6310
 2265SOL     OW18430   0.096   0.843   9.797  0.1157 -0.0397 -0.8317
 2265SOL    HW118431   0.031   0.773   9.805 -0.4931  0.5376 -0.6774
 2265SOL    HW218432   0.110   0.858   9.891  0.3904 -1.4433 -0.6442
 2266SOL     OW18433   2.897   2.932  10.411 -0.7091  0.1992 -0.4171
 2266SOL    HW118434   2.837   2.948  10.338  1.4659 -0.4800 -2.3596
 2266SOL    HW218435   2.836   2.901  10.478  0.1818 -1.1454 -0.2118
 2267SOL     OW18436   2.099   4.120  11.914 -0.4394  0.0925 -0.2923
 2267SOL    HW118437   2.153   4.049  11.880 -1.3971 -1.5145  1.4757
 2267SOL    HW218438   2.166   4.172  11.958 -0.2318 -0.5081  0.1094
 2268SOL     OW18439   4.183   3.890  11.426 -0.0391 -0.1062  0.2529
 2268SOL    HW118440   4.252   3.874  11.362 -0.9128  2.1201 -1.2543
 2268SOL    HW218441   4.145   3.802  11.427 -1.3618  0.4428 -1.6454
 2269SOL     OW18442   1.885   3.210   5.393  0.5343  0.2077  0.6226
 2269SOL    HW118443   1.857   3.297   5.367 -1.2164 -0.6487 -0.3504
 2269SOL    HW218444   1.948   3.222   5.464  1.6507 -0.8200 -0.1907
 2270SOL     OW18445   1.633   1.391   5.641  0.1454 -0.0752 -0.2099
 2270SOL    HW118446   1.653   1.484   5.642 -2.1502  0.4096  0.6959
 2270SOL    HW218447   1.542   1.385   5.612  0.3428  1.7317 -1.1978
 2271SOL     OW18448   0.725   4.716  14.863  0.2886 -0.2225  0.3990
 2271SOL    HW118449   0.707   0.070  14.866  1.3899 -0.0414  1.1345
 2271SOL    HW218450   0.675   4.683  14.937  0.1181  1.0495  0.8547
 2272SOL     OW18451   0.240   1.698   5.438  0.2968 -0.0279 -0.0181
 2272SOL    HW118452   0.264   1.768   5.498 -1.7023  0.8100 -0.2040
 2272SOL    HW218453   0.240   1.751   5.359 -1.3600  0.0350  0.0199
 2273SOL     OW18454   0.088   1.278   8.950 -0.0731  0.7635  0.0694
 2273SOL    HW118455   0.168   1.226   8.949 -0.7070 -0.2229  2.0760
 2273SOL    HW218456   0.076   1.309   9.040  1.8147  2.1208 -0.1503
 2274SOL     OW18457   0.224   2.124  13.554  0.5346 -0.3803 -0.0131
 2274SOL    HW118458   0.287   2.195  13.567  0.5526 -0.4239  0.1385
 2274SOL    HW218459   0.164   2.136  13.627 -2.1963 -0.0043 -2.3386
 2275SOL     OW18460   1.453   4.329   5.209 -0.0079  0.0240 -0.2504
 2275SOL    HW118461   1.466   4.307   5.117 -2.5036  0.9103 -0.8066
 2275SOL    HW218462   1.425   4.421   5.200 -2.3062 -0.5872  0.8578
 2276SOL     OW18463   1.123   4.125   3.246 -0.0846 -0.5574  0.2558
 2276SOL    HW118464   1.056   4.077   3.296  1.9741 -1.6779  1.9726
 2276SOL    HW218465   1.129   4.206   3.296 -1.7087 -0.7815  0.8193
 2277SOL     OW18466   2.300   1.699   1.272  0.2009 -0.5912  0.0466
 2277SOL    HW118467   2.256   1.765   1.326  1.1757 -0.2778  0.4644
 2277SOL    HW218468   2.233   1.674   1.208  0.2676 -0.0082 -0.2531
 2278SOL     OW18469   2.241   1.783   8.802 -0.0391 -0.3639  0.2427
 2278SOL    HW118470   2.281   1.792   8.715  1.7819  0.3151  1.1630
 2278SOL    HW218471   2.292   1.716   8.846  1.1622  0.1360 -0.4043
 2279SOL     OW18472   3.444   3.030  14.530  0.2927  0.0319 -0.1666
 2279SOL    HW118473   3.515   2.992  14.479  1.6332 -0.4879  2.0620
 2279SOL    HW218474   3.437   3.112  14.482 -0.5929  0.1637  0.1751
 2280SOL     OW18475   4.694   2.717   7.096 -0.0099 -0.4717  0.2824
 2280SOL    HW118476   4.725   2.640   7.143  0.1214 -1.1909 -0.9697
 2280SOL    HW218477   4.684   2.694   7.004  0.2931  0.1902  0.0835
 2281SOL     OW18478   1.943   3.376   6.209 -0.0996  0.0846 -0.2438
 2281SOL    HW118479   1.962   3.332   6.292 -0.6821  1.4579  0.6055
 2281SOL    HW218480   1.848   3.387   6.207  0.0380  1.2917 -0.2863
 2282SOL     OW18481   0.055   3.206   3.444  0.6429  0.1286  0.2197
 2282SOL    HW118482   4.717   3.155   3.467  1.9711 -1.6213  0.8706
 2282SOL    HW218483   0.095   3.141   3.386  0.2599  1.4791 -1.5593
 2283SOL     OW18484   4.135   1.550   3.659 -0.0784 -0.2564 -0.4146
 2283SOL    HW118485   4.151   1.641   3.684 -1.9246  0.1404 -0.6647
 2283SOL    HW218486   4.067   1.559   3.592  1.0946 -0.5596 -1.6660
 2284SOL     OW18487   2.053   1.427   7.845  0.8229  0.6381 -0.1848
 2284SOL    HW118488   2.129   1.486   7.848  1.2148  0.0399  1.7373
 2284SOL    HW218489   2.058   1.376   7.926 -0.6545 -0.0009 -0.4989
 2285SOL     OW18490   1.420   4.359   4.943  0.0831 -0.2259  0.6606
 2285SOL    HW118491   1.449   4.434   4.891 -2.1903  0.4020  0.3078
 2285SOL    HW218492   1.447   4.276   4.903  1.3050 -0.2913  1.6243
 2286SOL     OW18493   0.092   1.424   8.078  0.4434  0.1209 -0.3734
 2286SOL    HW118494   4.736   1.417   8.076  0.2470  2.2889  1.6227
 2286SOL    HW218495   0.107   1.463   7.992 -1.1464 -0.4303 -0.8982
 2287SOL     OW18496   3.578   0.354   0.136 -1.3816 -0.2011 -0.0134
 2287SOL    HW118497   3.583   0.268   0.094 -1.1026 -0.1425 -0.0941
 2287SOL    HW218498   3.627   0.410   0.077  0.8777 -0.7477  1.3585
 2288SOL     OW18499   4.462   0.149  15.597 -0.0844  0.4450  0.2265
 2288SOL    HW118500   4.478   0.056  15.612  0.2743  0.3673 -0.5790
 2288SOL    HW218501   4.492   0.166  15.686  1.4002  0.0998 -0.1970
 2289SOL     OW18502   4.687   2.176   2.638 -0.1025 -0.1017  0.1298
 2289SOL    HW118503   4.670   2.267   2.614 -1.6791 -0.1087  1.2460
 2289SOL    HW218504   4.596   2.151   2.652  0.4215 -3.6834 -2.9665
 2290SOL     OW18505   3.436   3.916   4.788 -0.5356 -0.1501  0.3155
 2290SOL    HW118506   3.351   3.885   4.756  0.0471 -0.6370 -0.7392
 2290SOL    HW218507   3.494   3.854   4.744  1.9234  0.9980  1.9798
 2291SOL     OW18508   2.228   0.979   5.337 -0.3163 -0.4309  0.4261
 2291SOL    HW118509   2.271   1.044   5.281 -0.0454  0.3220  1.4940
 2291SOL    HW218510   2.306   0.931   5.364 -0.4862  0.3419  2.2978
 2292SOL     OW18511   1.566   1.657  13.898 -0.1302  0.4899 -0.1797
 2292SOL    HW118512   1.492   1.709  13.929  0.6949  0.6685  1.4625
 2292SOL    HW218513   1.626   1.727  13.871  1.3459 -0.2249  1.2654
 2293SOL     OW18514   2.470   0.388   1.917 -0.3383  0.2563 -0.0331
 2293SOL    HW118515   2.391   0.339   1.938 -0.5945  0.4424 -0.5617
 2293SOL    HW218516   2.538   0.332   1.953 -0.2983 -1.0341 -2.0631
 2294SOL     OW18517   0.599   1.409   3.400 -0.2178 -0.0976 -0.2084
 2294SOL    HW118518   0.574   1.345   3.467 -1.8411  1.3550  0.5740
 2294SOL    HW218519   0.533   1.476   3.416 -0.7067 -0.8813  1.1431
 2295SOL     OW18520   2.241   0.801  16.663 -0.1495 -0.0218 -0.6940
 2295SOL    HW118521   2.310   0.786  16.599 -0.3150 -0.5342 -0.7598
 2295SOL    HW218522   2.262   0.734  16.728  1.9654  0.6751 -0.6664
 2296SOL     OW18523   0.245   3.883   2.395 -0.4141 -0.6954 -0.2111
 2296SOL    HW118524   0.157   3.849   2.378 -0.9436 -0.6415  2.4243
 2296SOL    HW218525   0.289   3.841   2.321  3.4533 -2.2526  2.9859
 2297SOL     OW18526   0.180   2.081   4.832  0.5874  0.3584 -0.4755
 2297SOL    HW118527   0.186   1.993   4.871  1.0916  0.6023 -0.0016
 2297SOL    HW218528   0.087   2.100   4.845  0.3232 -1.0009 -0.3546
 2298SOL     OW18529   4.055   0.634   1.890 -0.0124 -0.2139 -0.2856
 2298SOL    HW118530   3.965   0.614   1.863  0.1604  0.6503 -1.4745
 2298SOL    HW218531   4.017   0.695   1.953  1.7552  0.9855 -0.3933
 2299SOL     OW18532   2.503   3.939   0.064  0.1751  0.5522 -0.4724
 2299SOL    HW118533   2.433   4.001   0.084  0.1577  0.5825 -0.6273
 2299SOL    HW218534   2.517   3.899   0.150  0.2319  1.5653 -0.0095
 2300SOL     OW18535   4.337   3.090   7.394 -0.0635  0.0603  0.1340
 2300SOL    HW118536   4.256   3.091   7.342  0.3795  0.2982 -0.5397
 2300SOL    HW218537   4.314   3.042   7.473 -0.5766  0.3180  0.1447
 2301SOL     OW18538   2.535   1.010   3.347  0.2202 -0.5124 -0.2791
 2301SOL    HW118539   2.475   0.935   3.351 -1.0294  0.5943  1.7167
 2301SOL    HW218540   2.604   0.960   3.303 -1.1325 -1.7628 -1.0152
 2302SOL     OW18541   4.156   2.151   2.929  0.0148  0.1092  0.3126
 2302SOL    HW118542   4.074   2.193   2.902 -0.7869 -0.8009  1.3380
 2302SOL    HW218543   4.144   2.060   2.903 -2.5611  1.1860 -2.2643
 2303SOL     OW18544   4.211   2.743   5.674 -0.3285 -0.3485  0.2946
 2303SOL    HW118545   4.284   2.738   5.612 -1.9291 -3.0290 -1.3535
 2303SOL    HW218546   4.206   2.839   5.678  0.0129 -0.3975  1.6800
 2304SOL     OW18547   1.586   2.742   9.152  0.5771  0.2647 -0.0363
 2304SOL    HW118548   1.653   2.721   9.087  2.1952 -4.4065  3.1059
 2304SOL    HW218549   1.599   2.669   9.213 -0.9086 -0.7287 -0.9243
 2305SOL     OW18550   2.566   1.400   7.853 -0.3665 -0.2460  0.5153
 2305SOL    HW118551   2.592   1.378   7.943 -3.0768 -1.1512  1.0687
 2305SOL    HW218552   2.642   1.454   7.832 -1.8019  2.2260  1.6250
 2306SOL     OW18553   4.593   3.445  10.408 -0.1143  0.1947  0.2066
 2306SOL    HW118554   4.566   3.443  10.500  1.8213  0.1303  0.7927
 2306SOL    HW218555   4.592   3.353  10.384  0.9152  0.9772 -2.8457
 2307SOL     OW18556   0.564   0.674   3.146 -0.1416  0.3467  0.4347
 2307SOL    HW118557   0.545   0.654   3.238  0.1702 -0.9601  0.2281
 2307SOL    HW218558   0.536   0.765   3.147 -1.9688 -0.1970 -1.0610
 2308SOL     OW18559   1.772   2.703   6.983  0.1306  0.6268 -0.1127
 2308SOL    HW118560   1.823   2.733   6.909 -1.4655  0.1036 -1.4331
 2308SOL    HW218561   1.681   2.709   6.954  0.6941 -2.3769 -2.4723
 2309SOL     OW18562   1.480   0.017   4.333 -0.1943  0.3110 -0.1641
 2309SOL    HW118563   1.431   0.088   4.376 -0.3271  0.6519 -0.8811
 2309SOL    HW218564   1.441   4.681   4.376 -2.2070  1.3443 -0.1457
 2310SOL     OW18565   1.733   2.022  12.663  0.1144 -0.2748 -0.6180
 2310SOL    HW118566   1.775   1.942  12.695  1.3465 -0.2934 -2.3227
 2310SOL    HW218567   1.713   1.992  12.575 -0.0473 -1.2377 -0.2575
 2311SOL     OW18568   0.819   1.844  17.010 -0.6300  0.1231  0.4209
 2311SOL    HW118569   0.760   1.794  16.953  0.2528 -0.6841  0.2352
 2311SOL    HW218570   0.890   1.781  17.007 -0.9823 -0.2984  0.9986
 2312SOL     OW18571   3.431   2.859   4.349  0.3711 -0.2116 -0.1564
 2312SOL    HW118572   3.445   2.765   4.351  0.1690 -0.2231  0.5507
 2312SOL    HW218573   3.398   2.876   4.260 -0.3711 -0.6122  0.0498
 2313SOL     OW18574   0.791   0.006  15.262 -0.3198  0.4276 -0.0667
 2313SOL    HW118575   0.707   4.707  15.285 -0.6648  1.1594 -0.0677
 2313SOL    HW218576   0.766   0.078  15.203 -0.0966  0.8492  0.3577
 2314SOL     OW18577   3.720   4.597  17.714  0.2244 -0.1898 -0.3458
 2314SOL    HW118578   3.704   4.503  17.708 -1.3521 -0.0169  1.0070
 2314SOL    HW218579   3.739   4.622  17.624  2.5087 -0.5940  0.0232
 2315SOL     OW18580   3.982   1.908   7.115  0.0585  0.5692 -0.0453
 2315SOL    HW118581   3.931   1.828   7.103  1.7147 -0.7229  1.4909
 2315SOL    HW218582   3.975   1.930   7.208  2.2622  1.0606  0.0179
 2316SOL     OW18583   1.747   0.396   5.147 -0.3254  0.2104 -0.0846
 2316SOL    HW118584   1.669   0.371   5.097 -1.5941 -0.5670  2.2868
 2316SOL    HW218585   1.697   0.458   5.201 -2.0421 -1.0856 -0.2016
 2317SOL     OW18586   0.110   4.367   8.778 -0.0029 -0.3226  0.4751
 2317SOL    HW118587   0.127   4.451   8.735  0.1323 -0.0230  1.1044
 2317SOL    HW218588   0.107   4.315   8.698  0.8622 -2.3446  1.7707
 2318SOL     OW18589   1.509   0.217   0.890  0.4567  0.0844  0.0301
 2318SOL    HW118590   1.499   0.154   0.819  1.0742  1.5657 -1.3900
 2318SOL    HW218591   1.595   0.254   0.870  1.4955 -1.6626  1.3434
 2319SOL     OW18592   2.395   1.397   5.038 -0.2878  0.3889 -0.1093
 2319SOL    HW118593   2.382   1.479   4.990  1.7006  0.9035  0.2532
 2319SOL    HW218594   2.354   1.408   5.123 -0.6145  0.2078 -0.2410
 2320SOL     OW18595   4.476   1.154   6.413 -0.1470 -0.2316 -0.3938
 2320SOL    HW118596   4.388   1.158   6.450 -0.0717 -0.9930 -0.1281
 2320SOL    HW218597   4.524   1.227   6.451  1.3648 -1.5780  0.2938
 2321SOL     OW18598   1.426   0.480  16.961  0.2009  0.1138  0.0469
 2321SOL    HW118599   1.464   0.550  17.014  2.6960  0.2076 -1.8224
 2321SOL    HW218600   1.331   0.477  16.969  0.3035  0.0721  1.2497
 2322SOL     OW18601   2.197   0.891   4.017 -0.1563 -0.3544 -0.5736
 2322SOL    HW118602   2.110   0.853   4.034  0.0192 -0.0515  0.9513
 2322SOL    HW218603   2.244   0.810   3.995  1.6178  0.2334  1.1435
 2323SOL     OW18604   3.441   1.126   6.232 -0.1690 -0.7009  0.1173
 2323SOL    HW118605   3.390   1.077   6.296 -2.1014  1.0364 -0.0873
 2323SOL    HW218606   3.383   1.201   6.220  1.4333  1.1179  4.0148
 2324SOL     OW18607   1.406   2.356   7.086  0.6723  0.2563 -0.3502
 2324SOL    HW118608   1.468   2.410   7.134  2.7147 -1.1436 -1.4134
 2324SOL    HW218609   1.357   2.417   7.030 -0.1850  1.0478  1.2722
 2325SOL     OW18610   3.795   3.902   6.038  0.2240  0.2492 -0.1808
 2325SOL    HW118611   3.822   3.966   6.104  2.5548  1.1321 -1.9757
 2325SOL    HW218612   3.802   3.811   6.066  0.7186 -0.5109 -2.7693
 2326SOL     OW18613   2.025   1.613  15.101  0.5603 -0.8924 -0.3082
 2326SOL    HW118614   2.058   1.538  15.053  2.6960  0.3202 -0.7234
 2326SOL    HW218615   2.026   1.580  15.191 -1.7696  0.4361  0.2132
 2327SOL     OW18616   1.537   3.559   4.356  0.4305 -0.6096 -0.1575
 2327SOL    HW118617   1.607   3.496   4.338  0.3875 -0.3058 -1.3736
 2327SOL    HW218618   1.576   3.622   4.415  2.2181  1.7317 -3.8346
 2328SOL     OW18619   4.520   4.424   5.719  0.5042  0.0988 -0.3861
 2328SOL    HW118620   4.457   4.355   5.738  1.1586 -0.4021 -0.0464
 2328SOL    HW218621   4.475   4.501   5.754 -0.3625 -0.4997 -0.1833
 2329SOL     OW18622   0.466   4.394   9.642  0.0369  0.7288 -0.0497
 2329SOL    HW118623   0.544   4.357   9.601 -0.0704 -0.6936  1.0350
 2329SOL    HW218624   0.436   4.308   9.673  1.6098  0.7270  1.4367
 2330SOL     OW18625   2.940   0.836  14.665  0.0342 -0.1898 -0.3300
 2330SOL    HW118626   2.990   0.783  14.727  2.0468 -0.0749 -1.8509
 2330SOL    HW218627   2.892   0.767  14.620 -1.3078  0.2505  0.4108
 2331SOL     OW18628   1.200   2.146  16.602  0.2986 -0.3500 -0.4097
 2331SOL    HW118629   1.161   2.075  16.549  1.1238 -0.2185 -1.2031
 2331SOL    HW218630   1.125   2.201  16.624  0.3948 -0.6516  0.6757
 2332SOL     OW18631   0.759   3.238   6.593  0.4641 -0.0659  0.8009
 2332SOL    HW118632   0.764   3.246   6.497  2.3855  2.4806  1.1168
 2332SOL    HW218633   0.815   3.161   6.602  0.4759 -0.2141 -0.5333
 2333SOL     OW18634   0.958   4.639  16.240 -0.6998 -0.0078 -0.2084
 2333SOL    HW118635   0.884   4.586  16.271  1.8578 -1.2001  3.8309
 2333SOL    HW218636   0.999   4.599  16.163 -1.7011 -1.2033 -0.1299
 2334SOL     OW18637   2.396   0.756   3.653 -0.0583  0.1141 -0.2460
 2334SOL    HW118638   2.469   0.792   3.704  0.7731 -0.3520 -1.1150
 2334SOL    HW218639   2.435   0.765   3.567 -1.2736  1.9231 -0.5960
 2335SOL     OW18640   1.335   1.394   9.470 -0.1222  0.1276  0.3316
 2335SOL    HW118641   1.430   1.406   9.480  0.1882 -1.5418 -0.5943
 2335SOL    HW218642   1.302   1.395   9.560 -0.2342 -1.7867  0.3170
 2336SOL     OW18643   0.384   0.183   2.800 -0.1268  0.3630  0.4735
 2336SOL    HW118644   0.324   0.227   2.860 -0.6823  0.0384  0.1562
 2336SOL    HW218645   0.464   0.235   2.810  0.0358  0.1147  0.4406
 2337SOL     OW18646   3.356   0.801   3.335  0.3289  0.3754 -0.4479
 2337SOL    HW118647   3.384   0.753   3.413 -0.4164 -1.1352 -1.1179
 2337SOL    HW218648   3.421   0.872   3.340 -1.8633  2.2898  0.7971
 2338SOL     OW18649   1.549   1.871   1.807 -0.0447  0.1527 -0.0932
 2338SOL    HW118650   1.604   1.822   1.868  0.8296  0.7358 -0.4110
 2338SOL    HW218651   1.616   1.926   1.767 -0.7817  1.5687  0.6183
 2339SOL     OW18652   3.851   3.847   8.385  0.3157 -0.3418  0.3711
 2339SOL    HW118653   3.919   3.888   8.332  0.4378 -1.6591 -0.4698
 2339SOL    HW218654   3.816   3.769   8.343 -2.0905  1.5322 -1.1610
 2340SOL     OW18655   4.136   1.961  16.289 -0.2528 -0.0400 -0.2151
 2340SOL    HW118656   4.130   1.896  16.219  1.4055 -0.4307  0.0117
 2340SOL    HW218657   4.175   2.036  16.245  0.5740  1.0430  2.3638
 2341SOL     OW18658   3.330   0.902   6.714  0.5379 -0.5796  0.3471
 2341SOL    HW118659   3.315   0.937   6.801  2.1224  0.9054  0.0076
 2341SOL    HW218660   3.261   0.835   6.718 -0.6182  0.6838  1.2199
 2342SOL     OW18661   0.264   3.407  16.149 -0.3114 -0.3605  0.0247
 2342SOL    HW118662   0.349   3.450  16.135  0.9340 -2.6776  0.3611
 2342SOL    HW218663   0.207   3.483  16.152  1.1753  0.7571 -0.2051
 2343SOL     OW18664   3.064   1.437  15.807  0.6568 -0.2992 -0.0476
 2343SOL    HW118665   3.085   1.517  15.760 -2.0976  1.6447  2.0276
 2343SOL    HW218666   2.994   1.395  15.757  0.4112  1.5629 -1.2436
 2344SOL     OW18667   3.389   0.264   1.669 -0.1447  0.2704 -0.5243
 2344SOL    HW118668   3.325   0.245   1.738 -0.2147  1.5463 -0.2437
 2344SOL    HW218669   3.462   0.264   1.731 -1.2386 -1.3087  0.7730
 2345SOL     OW18670   4.697   1.235  17.565 -0.6373  0.3109 -0.1233
 2345SOL    HW118671   4.722   1.163  17.622 -1.0662  0.4683  0.2667
 2345SOL    HW218672   4.601   1.229  17.563 -0.8999  3.7051  1.3419
 2346SOL     OW18673   2.370   2.106   8.947  0.6209  0.0325 -0.1582
 2346SOL    HW118674   2.447   2.071   8.902  0.6301  0.2814 -0.3368
 2346SOL    HW218675   2.406   2.148   9.025  0.8174  0.4755 -0.4885
 2347SOL     OW18676   2.044   4.374   1.965  0.2571  0.7388  0.4137
 2347SOL    HW118677   2.008   4.312   2.029 -0.4617  0.2328 -0.4942
 2347SOL    HW218678   2.091   4.440   2.017 -1.9877  1.1369  1.9320
 2348SOL     OW18679   1.293   3.944   1.617 -0.0964  0.4369  0.2774
 2348SOL    HW118680   1.281   3.865   1.670  1.0146 -1.1005 -1.7674
 2348SOL    HW218681   1.381   3.977   1.632  0.5807 -1.0464 -0.3998
 2349SOL     OW18682   1.548   1.397  11.584 -0.1361 -0.0191  0.1470
 2349SOL    HW118683   1.467   1.350  11.604  1.2939 -2.8875 -0.7779
 2349SOL    HW218684   1.582   1.409  11.673  0.5087 -1.5872  0.1155
 2350SOL     OW18685   2.336   4.190  11.238 -0.3306  0.1615  0.1218
 2350SOL    HW118686   2.303   4.153  11.320 -1.6366 -0.9801 -0.9179
 2350SOL    HW218687   2.431   4.190  11.248 -0.5551 -0.7277  2.3373
 2351SOL     OW18688   2.471   3.683   3.602 -0.2403 -0.3525 -0.4020
 2351SOL    HW118689   2.458   3.594   3.571  0.9999  0.0163 -2.0349
 2351SOL    HW218690   2.398   3.732   3.563 -0.8554  0.0988  1.3050
 2352SOL     OW18691   3.454   0.806   4.405 -0.3738 -0.0684 -0.0768
 2352SOL    HW118692   3.416   0.789   4.492 -1.7758 -0.0931 -0.6896
 2352SOL    HW218693   3.375   0.836   4.361 -0.2712 -2.5813 -1.9807
 2353SOL     OW18694   0.616   0.381  12.237 -0.4456  0.3485 -0.4191
 2353SOL    HW118695   0.618   0.444  12.164  0.1767 -2.1857 -2.5784
 2353SOL    HW218696   0.605   0.448  12.305  1.0556 -0.9606  1.1110
 2354SOL     OW18697   2.247   1.463  12.342 -0.4933 -0.2135  0.1475
 2354SOL    HW118698   2.294   1.399  12.288  0.5400 -0.6008  1.4905
 2354SOL    HW218699   2.160   1.461  12.302  0.3614 -0.0643 -1.6994
 2355SOL     OW18700   4.364   3.933   9.218  0.2154 -0.2105 -0.1892
 2355SOL    HW118701   4.288   3.955   9.165  0.5206 -2.5063 -1.5946
 2355SOL    HW218702   4.432   3.969   9.160  0.9420 -2.5102 -0.7622
 2356SOL     OW18703   2.071   4.707   5.682  0.6026 -0.1531  0.2506
 2356SOL    HW118704   1.981   4.729   5.707  0.6791  2.2784 -1.6026
 2356SOL    HW218705   2.083   4.612   5.685  0.7444 -0.1596 -0.4588
 2357SOL     OW18706   0.727   3.130   8.064 -0.3235  0.0367  0.1660
 2357SOL    HW118707   0.646   3.169   8.033 -0.7321 -1.4861 -0.6421
 2357SOL    HW218708   0.713   3.037   8.047  1.1599 -0.3331  0.9453
 2358SOL     OW18709   1.896   2.634   1.929 -0.3133  0.2475 -0.1615
 2358SOL    HW118710   1.958   2.591   1.870  0.1106  0.6920 -0.0409
 2358SOL    HW218711   1.905   2.591   2.014 -0.7316 -2.3853 -1.4555
 2359SOL     OW18712   4.732   4.625   8.885 -0.1611 -0.1690  0.1148
 2359SOL    HW118713   4.671   4.564   8.844  1.6785 -1.2041 -1.0647
 2359SOL    HW218714   0.067   4.629   8.825  0.1585  0.8503  0.5711
 2360SOL     OW18715   3.029   4.542   4.350 -0.1742  0.7526 -0.2633
 2360SOL    HW118716   3.028   4.621   4.295 -0.6802 -1.7537 -3.8425
 2360SOL    HW218717   2.936   4.538   4.373 -0.0379  1.0924  0.3556
 2361SOL     OW18718   1.213   1.111   9.390  0.7307 -0.4522  0.2027
 2361SOL    HW118719   1.251   1.197   9.407  1.9559 -0.9158 -0.2267
 2361SOL    HW218720   1.156   1.121   9.466 -0.5705 -1.5878 -0.6221
 2362SOL     OW18721   0.542   3.168   6.220  0.0572  0.1836  0.3378
 2362SOL    HW118722   0.632   3.164   6.253  0.6989  1.1973 -1.2891
 2362SOL    HW218723   0.481   3.193   6.289 -0.2982  0.9797 -0.2686
 2363SOL     OW18724   3.359   2.839   8.588  0.9227 -0.1561  0.3462
 2363SOL    HW118725   3.391   2.757   8.625  0.6511  0.3842  1.7890
 2363SOL    HW218726   3.389   2.835   8.498  1.5647 -0.2283  0.5595
 2364SOL     OW18727   1.225   3.595   2.571  0.1002  0.1654  0.1533
 2364SOL    HW118728   1.170   3.583   2.493  1.5340  1.1227 -1.0090
 2364SOL    HW218729   1.310   3.560   2.546 -0.2242  0.2783 -1.1298
 2365SOL     OW18730   0.745   4.079  12.040  0.2434 -0.0082 -0.5838
 2365SOL    HW118731   0.793   4.162  12.032 -1.6024  1.2153  0.8007
 2365SOL    HW218732   0.805   4.031  12.098 -0.8685  0.2227  0.7762
 2366SOL     OW18733   3.071   1.789  10.520 -0.3882  0.4712 -0.0156
 2366SOL    HW118734   3.098   1.881  10.525  0.0949  0.4153 -1.5603
 2366SOL    HW218735   3.070   1.765  10.427 -4.5831  2.9863 -0.6341
 2367SOL     OW18736   4.549   2.095   4.556  0.3758  0.5883  0.4689
 2367SOL    HW118737   4.471   2.072   4.505  0.5188  1.3605 -0.1112
 2367SOL    HW218738   4.618   2.086   4.491 -1.1217  0.0495 -1.0465
 2368SOL     OW18739   4.695   0.545   1.911  0.3327  0.0878  0.4165
 2368SOL    HW118740   4.712   0.639   1.907  0.7794 -0.0200 -0.2807
 2368SOL    HW218741   4.659   0.537   1.823  1.5180  1.7401 -0.2199
 2369SOL     OW18742   4.434   2.007   3.563 -0.5456 -0.1251 -0.0768
 2369SOL    HW118743   4.367   2.023   3.496  0.1931  2.7220 -0.1232
 2369SOL    HW218744   4.514   1.975   3.521 -0.1588  0.8639 -0.0908
 2370SOL     OW18745   2.088   3.905   7.004  0.0108 -0.6491 -0.2108
 2370SOL    HW118746   2.004   3.935   6.968  0.1750  0.1014  0.0319
 2370SOL    HW218747   2.143   3.908   6.925  0.7417  0.4632  0.3577
 2371SOL     OW18748   3.286   3.087   6.944 -0.5705  0.1209  0.2453
 2371SOL    HW118749   3.242   3.077   6.860  0.9447 -0.6120 -0.4708
 2371SOL    HW218750   3.339   3.163   6.922 -1.8190  0.3719 -1.9429
 2372SOL     OW18751   3.024   0.602  17.243  0.2691 -0.3709  0.4044
 2372SOL    HW118752   3.035   0.556  17.160 -0.7204  0.5994 -0.2558
 2372SOL    HW218753   3.104   0.655  17.245 -1.0719  1.6736  0.2935
 2373SOL     OW18754   4.283   1.099   2.570  0.1186 -0.0752  0.0708
 2373SOL    HW118755   4.358   1.043   2.550 -1.2429 -0.2717 -4.3818
 2373SOL    HW218756   4.212   1.057   2.522  1.4005  0.7321 -2.5502
 2374SOL     OW18757   1.119   2.356   1.699 -0.7505 -0.2940  0.0293
 2374SOL    HW118758   1.163   2.284   1.743 -2.0657 -0.2596  1.4263
 2374SOL    HW218759   1.066   2.405   1.762 -2.1320 -1.1676 -0.4477
 2375SOL     OW18760   2.547   2.613   9.653  0.4974 -0.3166 -0.1834
 2375SOL    HW118761   2.605   2.670   9.603 -0.7906  0.7487 -0.4781
 2375SOL    HW218762   2.610   2.562   9.704  0.0765  0.7999  1.4511
 2376SOL     OW18763   2.988   1.779   9.305 -0.0291  0.3842  0.8385
 2376SOL    HW118764   2.944   1.822   9.232 -0.4271  1.6188  1.8078
 2376SOL    HW218765   2.952   1.818   9.384  1.6130  1.6927  0.9394
 2377SOL     OW18766   4.435   0.527   6.458 -0.1564 -0.2668 -1.3253
 2377SOL    HW118767   4.523   0.556   6.434 -0.1528  0.3048 -0.6149
 2377SOL    HW218768   4.392   0.609   6.483  1.2133  0.4601 -1.3658
 2378SOL     OW18769   4.156   2.227   3.854  0.2985  0.4267  0.0573
 2378SOL    HW118770   4.245   2.245   3.825  0.6339  1.2533  1.6043
 2378SOL    HW218771   4.130   2.201   3.765  1.2095  0.8760 -0.3333
 2379SOL     OW18772   1.871   4.254  12.903 -0.0002  0.3262 -0.2410
 2379SOL    HW118773   1.805   4.216  12.844  2.1748 -2.9794 -0.5116
 2379SOL    HW218774   1.861   4.191  12.974 -0.9236 -0.2366 -0.8625
 2380SOL     OW18775   4.178   0.981   4.339 -0.2469  0.2598 -0.1132
 2380SOL    HW118776   4.198   1.069   4.370  4.5966 -0.1901 -1.9240
 2380SOL    HW218777   4.253   0.930   4.370 -0.9224  0.0808  1.2322
 2381SOL     OW18778   1.833   3.354  16.776 -0.3286  0.1134 -0.1939
 2381SOL    HW118779   1.815   3.358  16.682 -1.9648 -0.1061  0.1118
 2381SOL    HW218780   1.740   3.341  16.795 -0.4819  1.3166 -0.0950
 2382SOL     OW18781   4.276   1.119   6.816  0.3427 -0.1406 -0.8170
 2382SOL    HW118782   4.224   1.176   6.872 -1.2492 -0.5291 -1.9007
 2382SOL    HW218783   4.356   1.169   6.801  0.8891 -0.3826  1.3327
 2383SOL     OW18784   0.742   1.792  16.344  0.0651  0.0906 -0.6549
 2383SOL    HW118785   0.672   1.812  16.282  0.1045 -0.4125 -0.8629
 2383SOL    HW218786   0.802   1.862  16.322  0.5919 -0.4289 -0.8665
 2384SOL     OW18787   3.680   1.537  15.440  0.3574 -0.0530 -0.1532
 2384SOL    HW118788   3.589   1.563  15.453  0.7266  1.3340 -0.3638
 2384SOL    HW218789   3.691   1.499  15.527 -2.2269 -2.6444 -0.9663
 2385SOL     OW18790   0.814   4.032  11.742  0.3672  0.1017 -0.0109
 2385SOL    HW118791   0.758   4.087  11.797  0.5702  2.0397 -1.7556
 2385SOL    HW218792   0.802   4.071  11.656  1.1518  1.8335  0.6713
 2386SOL     OW18793   2.914   4.170   8.589 -0.3335  0.4789  0.0508
 2386SOL    HW118794   2.871   4.135   8.667 -0.9473 -0.4282 -0.6921
 2386SOL    HW218795   3.006   4.151   8.607 -0.8893 -1.7680  0.5729
 2387SOL     OW18796   2.097   3.443   4.333 -0.2938  0.5922  0.6461
 2387SOL    HW118797   2.160   3.513   4.352  0.6151  0.0785 -0.4237
 2387SOL    HW218798   2.046   3.484   4.263  1.3906 -2.2213 -2.2629
 2388SOL     OW18799   4.215   0.871   3.392 -0.0322 -0.0566  0.3750
 2388SOL    HW118800   4.272   0.939   3.429  1.5291 -2.2476  1.9661
 2388SOL    HW218801   4.192   0.822   3.470  0.9396 -1.2890 -0.1057
 2389SOL     OW18802   2.841   0.136   8.042 -0.5492 -0.2499  0.3887
 2389SOL    HW118803   2.772   0.196   8.069 -0.9233 -0.1103 -0.9014
 2389SOL    HW218804   2.917   0.193   8.028  0.1574 -1.4547 -0.6825
 2390SOL     OW18805   4.073   0.132   0.519  0.0456 -0.0853  0.1831
 2390SOL    HW118806   4.106   0.044   0.498  0.0903 -0.4589  1.8380
 2390SOL    HW218807   4.045   0.174   0.437  3.2951  2.7812  0.5596
 2391SOL     OW18808   2.223   4.165  14.519  0.6187 -0.2113 -0.2032
 2391SOL    HW118809   2.225   4.128  14.431  0.5943 -0.7091  0.0069
 2391SOL    HW218810   2.134   4.200  14.524 -0.0899 -2.0881  0.3175
 2392SOL     OW18811   1.899   1.711   7.358 -0.7710 -0.1325 -0.1284
 2392SOL    HW118812   1.877   1.706   7.265 -0.0923  0.2138 -0.3121
 2392SOL    HW218813   1.862   1.797   7.377  2.3433  1.2396 -0.2739
 2393SOL     OW18814   0.977   3.691  16.690  0.0383  0.0795  0.1148
 2393SOL    HW118815   0.991   3.606  16.650 -0.8806  0.6319 -1.3698
 2393SOL    HW218816   0.963   3.750  16.616  1.9431  0.2508 -0.1120
 2394SOL     OW18817   1.893   3.265   6.490  0.0794 -0.0368  0.2282
 2394SOL    HW118818   1.903   3.236   6.581 -0.9379  0.4099  0.4868
 2394SOL    HW218819   1.930   3.353   6.484  3.6742 -1.6802 -1.1384
 2395SOL     OW18820   0.565   0.767   8.181 -0.0570 -0.6059  0.1501
 2395SOL    HW118821   0.532   0.839   8.129  1.5334  0.2798  0.3897
 2395SOL    HW218822   0.569   0.804   8.269  0.8009 -1.4866  0.4896
 2396SOL     OW18823   4.255   3.650  12.901 -0.2479 -0.1718  0.2468
 2396SOL    HW118824   4.231   3.701  12.823 -0.2191 -0.7937 -0.1738
 2396SOL    HW218825   4.347   3.677  12.906 -0.8154  1.9970 -1.2125
 2397SOL     OW18826   4.036   2.159   4.880  0.3761 -0.0277  0.6944
 2397SOL    HW118827   3.963   2.157   4.942 -1.6730  0.8509 -1.6927
 2397SOL    HW218828   4.036   2.067   4.854 -2.2997  0.7438 -2.0791
 2398SOL     OW18829   4.711   0.690   6.180 -0.5643  0.7287 -0.4805
 2398SOL    HW118830   0.054   0.725   6.215  0.0567 -0.9582 -0.2720
 2398SOL    HW218831   4.654   0.766   6.190 -0.1746  1.0726 -0.8587
 2399SOL     OW18832   4.094   0.310  17.393 -0.0048 -0.6877 -0.5442
 2399SOL    HW118833   4.110   0.404  17.395  3.6542 -1.2442 -2.8095
 2399SOL    HW218834   4.016   0.304  17.448  1.1056  0.2777  1.1677
 2400SOL     OW18835   4.500   0.838   9.095  0.0184  0.2358  0.4194
 2400SOL    HW118836   4.422   0.782   9.093  0.6049 -0.5328 -0.8798
 2400SOL    HW218837   4.455   0.920   9.116  0.4185 -0.1142  2.5868
 2401SOL     OW18838   4.007   2.169   5.425 -0.1714  0.2401  0.1103
 2401SOL    HW118839   3.924   2.208   5.396 -0.0658 -0.4331 -1.0992
 2401SOL    HW218840   4.064   2.167   5.347 -0.3300  1.6951 -0.0500
 2402SOL     OW18841   4.039   0.699   4.658  0.5062 -0.2152  0.1634
 2402SOL    HW118842   4.004   0.624   4.611 -0.3142  0.1846  0.1377
 2402SOL    HW218843   4.008   0.778   4.614 -0.3097 -0.0724  0.9814
 2403SOL     OW18844   3.178   4.131   8.716  0.3003 -0.2094 -0.4349
 2403SOL    HW118845   3.268   4.163   8.726  1.3431 -2.6153 -1.8877
 2403SOL    HW218846   3.147   4.120   8.806 -1.2304  1.0924 -0.8064
 2404SOL     OW18847   3.344   0.507  13.219  0.5011  0.0190 -0.0236
 2404SOL    HW118848   3.288   0.551  13.284  0.7175 -0.8903  0.7692
 2404SOL    HW218849   3.328   0.414  13.230 -0.2412 -0.0012 -1.3556
 2405SOL     OW18850   0.061   2.465   5.061  0.3279  0.0320  0.5198
 2405SOL    HW118851   0.096   2.398   5.120  2.3035  2.2914  1.9220
 2405SOL    HW218852   0.142   2.476   5.012 -0.2119 -0.1902 -0.4101
 2406SOL     OW18853   3.524   4.279   3.166  0.7468 -0.1676 -0.4593
 2406SOL    HW118854   3.591   4.346   3.154 -0.1458  0.5477 -1.3945
 2406SOL    HW218855   3.522   4.255   3.259 -0.7938  2.5530  0.2147
 2407SOL     OW18856   1.543   0.670   8.906  0.2940  0.2193  0.0267
 2407SOL    HW118857   1.463   0.704   8.945  0.3362  1.2807 -0.8135
 2407SOL    HW218858   1.615   0.718   8.946  1.2267 -2.2647  1.3163
 2408SOL     OW18859   0.533   3.996  13.965 -0.3512 -0.0484 -0.2228
 2408SOL    HW118860   0.560   4.085  13.941  0.6711 -0.7386 -1.5896
 2408SOL    HW218861   0.489   4.015  14.048 -0.7538 -1.4185 -0.1246
 2409SOL     OW18862   0.629   0.995   9.468  0.4985 -0.6762  0.0627
 2409SOL    HW118863   0.584   0.941   9.532 -1.2393  0.8829  0.1549
 2409SOL    HW218864   0.557   1.023   9.412  0.8388  1.4933  0.7059
 2410SOL     OW18865   4.097   0.297   5.028 -0.8704 -0.1743  1.1433
 2410SOL    HW118866   4.120   0.386   5.003 -0.9979 -0.4903 -0.1342
 2410SOL    HW218867   4.126   0.251   4.949  0.8936 -0.6854  2.0816
 2411SOL     OW18868   1.028   0.133  16.597 -0.3223 -0.1283  0.2569
 2411SOL    HW118869   1.082   0.061  16.563 -1.1733  0.2672 -1.9570
 2411SOL    HW218870   1.043   0.197  16.527  1.7269 -1.3494 -0.4431
 2412SOL     OW18871   3.138   1.884  12.815  0.2438  0.5590 -0.0012
 2412SOL    HW118872   3.142   1.813  12.879 -0.1841  1.3492  0.9061
 2412SOL    HW218873   3.220   1.858  12.773  0.3178  2.2612 -0.9177
 2413SOL     OW18874   2.307   1.772   4.188  0.1163  0.2797  0.1040
 2413SOL    HW118875   2.351   1.797   4.107  0.8252 -0.9891  0.0918
 2413SOL    HW218876   2.379   1.726   4.233 -0.9855  0.0170  1.5948
 2414SOL     OW18877   1.039   4.705  13.862 -0.4636 -0.1369  0.4576
 2414SOL    HW118878   1.020   0.026  13.791  2.9486  2.3739  1.6628
 2414SOL    HW218879   1.053   0.019  13.940  1.5775 -1.0514  0.7329
 2415SOL     OW18880   1.484   3.771  13.027  0.2330 -0.2840  0.1681
 2415SOL    HW118881   1.411   3.817  12.987  0.0692  0.1190  0.9388
 2415SOL    HW218882   1.447   3.744  13.111 -1.6838  1.4680 -0.1394
 2416SOL     OW18883   1.085   0.646   1.691 -0.4652  0.3693  0.0757
 2416SOL    HW118884   1.164   0.688   1.725 -0.1097 -1.4432  1.5229
 2416SOL    HW218885   1.022   0.662   1.761  1.7320  2.7371  1.5501
 2417SOL     OW18886   3.153   1.121   5.982 -0.4445 -0.5170  0.0923
 2417SOL    HW118887   3.064   1.131   6.016  0.8387  0.0850  3.2522
 2417SOL    HW218888   3.180   1.037   6.018 -0.6554 -0.2778  0.7965
 2418SOL     OW18889   1.655   3.923  12.629 -0.2127 -0.1910 -0.1094
 2418SOL    HW118890   1.595   3.849  12.644 -2.9920  1.3118 -3.7980
 2418SOL    HW218891   1.738   3.890  12.595 -0.2825  0.4590 -0.9097
 2419SOL     OW18892   1.799   1.570  15.456 -0.0736  0.4689  0.2462
 2419SOL    HW118893   1.878   1.525  15.428 -1.1539  0.6678 -3.1174
 2419SOL    HW218894   1.799   1.551  15.550 -1.7398  0.2945  0.2068
 2420SOL     OW18895   2.406   0.814   1.237  0.2046 -0.0821 -0.4367
 2420SOL    HW118896   2.477   0.811   1.172  2.1892  0.7591  1.7241
 2420SOL    HW218897   2.440   0.743   1.291 -1.1907 -0.5323 -0.1381
 2421SOL     OW18898   0.367   3.906   2.040 -0.0080 -0.0519  0.1432
 2421SOL    HW118899   0.376   3.883   1.948 -1.3470  1.3276 -0.3293
 2421SOL    HW218900   0.421   3.985   2.042 -2.1247  1.4795 -3.7929
 2422SOL     OW18901   1.855   0.134   5.519 -0.3527  0.0105 -0.6211
 2422SOL    HW118902   1.861   0.048   5.477 -1.0557 -1.1977  1.7561
 2422SOL    HW218903   1.908   0.187   5.458  0.9891 -1.0491 -0.3856
 2423SOL     OW18904   0.406   0.587   1.724  0.0452  0.3839  0.4084
 2423SOL    HW118905   0.377   0.501   1.757 -1.6797  0.6832 -0.2922
 2423SOL    HW218906   0.496   0.558   1.708 -0.2858 -1.3966  1.7415
 2424SOL     OW18907   4.270   0.995   7.932  0.5531  0.3818 -0.7179
 2424SOL    HW118908   4.219   1.064   7.975  0.8237  1.5278 -2.2277
 2424SOL    HW218909   4.264   0.934   8.006  0.8149  1.0706 -0.1259
 2425SOL     OW18910   2.626   1.612  12.529  0.1231  0.1526 -0.1737
 2425SOL    HW118911   2.584   1.636  12.446 -1.7929  0.6962  0.9684
 2425SOL    HW218912   2.554   1.573  12.579 -0.4283 -0.1508 -1.2078
 2426SOL     OW18913   2.269   0.782   4.657  0.5150  0.1994 -0.0065
 2426SOL    HW118914   2.321   0.710   4.692  0.7877 -0.1212 -1.0747
 2426SOL    HW218915   2.296   0.853   4.716 -0.4386  1.0250 -0.5713
 2427SOL     OW18916   1.176   3.238   4.849  0.3427  0.5642 -0.5080
 2427SOL    HW118917   1.252   3.198   4.891 -0.3217  1.0033  1.0921
 2427SOL    HW218918   1.107   3.220   4.912  2.6648  0.6891  2.0915
 2428SOL     OW18919   3.428   3.098   5.520  0.3304 -0.2515 -0.4548
 2428SOL    HW118920   3.497   3.157   5.490  1.1211 -1.9772 -2.0110
 2428SOL    HW218921   3.441   3.023   5.462  1.7055  0.4720 -1.0956
 2429SOL     OW18922   2.647   1.287  16.650  0.3484  0.0679  0.6109
 2429SOL    HW118923   2.708   1.220  16.680 -0.5845 -0.1228  2.0617
 2429SOL    HW218924   2.611   1.323  16.731 -2.7627 -0.5223 -0.5481
 2430SOL     OW18925   1.551   1.361   4.475 -0.0155  0.3047  0.0053
 2430SOL    HW118926   1.552   1.266   4.463  0.1120  0.6124 -2.4384
 2430SOL    HW218927   1.463   1.367   4.512 -0.5569  1.6740 -1.5055
 2431SOL     OW18928   4.432   2.209   6.115 -0.3479 -0.9137 -0.2653
 2431SOL    HW118929   4.454   2.255   6.034 -1.5595 -1.4084 -0.8807
 2431SOL    HW218930   4.478   2.126   6.123  0.6107 -0.6922 -3.5148
 2432SOL     OW18931   1.264   1.307  16.388  0.4646  0.2634  0.5480
 2432SOL    HW118932   1.185   1.264  16.422  0.9079 -0.7917  0.2326
 2432SOL    HW218933   1.291   1.232  16.335 -1.4920 -0.4183  0.5145
 2433SOL     OW18934   2.225   2.029  11.504 -0.1321  0.1120 -0.3035
 2433SOL    HW118935   2.235   1.936  11.484  0.0840  0.3347 -1.2549
 2433SOL    HW218936   2.209   2.029  11.598  1.0075 -0.0459 -0.1128
 2434SOL     OW18937   3.432   1.785  16.133  0.2541  0.4791 -0.2187
 2434SOL    HW118938   3.441   1.815  16.042  0.7708  0.7011 -0.0916
 2434SOL    HW218939   3.516   1.813  16.169 -0.7447  2.0744  0.9019
 2435SOL     OW18940   3.464   4.708  16.035  0.7843  0.6616 -0.2928
 2435SOL    HW118941   3.398   4.724  15.968  0.5357  4.3482  0.8200
 2435SOL    HW218942   3.413   4.702  16.116 -0.2673  0.7888 -0.9459
 2436SOL     OW18943   1.251   1.320   6.513 -0.5138  0.1922  1.0393
 2436SOL    HW118944   1.180   1.357   6.565 -0.9675  0.3097  0.3337
 2436SOL    HW218945   1.234   1.353   6.425  0.1639 -0.5419  0.6295
 2437SOL     OW18946   2.071   3.250   2.029 -0.5962 -0.2022 -0.4344
 2437SOL    HW118947   2.139   3.192   1.994 -0.9155 -1.3638  0.8511
 2437SOL    HW218948   2.007   3.188   2.064 -1.8268  0.2803 -1.8593
 2438SOL     OW18949   2.498   1.261   3.232  0.2148 -0.7665  0.1977
 2438SOL    HW118950   2.587   1.273   3.199  0.3940 -1.0182  0.5911
 2438SOL    HW218951   2.519   1.188   3.290 -0.6692 -0.8511  0.4135
 2439SOL     OW18952   2.574   4.324  14.729 -0.5695 -0.4420 -0.0144
 2439SOL    HW118953   2.549   4.233  14.715  0.3973 -0.9909  1.8892
 2439SOL    HW218954   2.556   4.358  14.641 -0.6822  2.6050  1.1700
 2440SOL     OW18955   3.805   0.000   0.667  0.5112  0.0187 -0.1313
 2440SOL    HW118956   3.795   4.666   0.726 -0.9791 -0.0782 -0.5080
 2440SOL    HW218957   3.870   4.711   0.603 -1.0283 -1.4487 -1.0216
 2441SOL     OW18958   0.929   3.879   8.991 -0.0476  0.0632  0.2791
 2441SOL    HW118959   0.910   3.838   9.075  0.5067 -3.0562 -1.0942
 2441SOL    HW218960   0.868   3.953   9.000  1.0648  1.2504 -1.9457
 2442SOL     OW18961   2.834   3.473   6.911 -0.0783  0.4429 -0.2294
 2442SOL    HW118962   2.860   3.554   6.954 -2.0445  0.5900  0.6881
 2442SOL    HW218963   2.802   3.421   6.985  0.2027 -0.7444 -0.9449
 2443SOL     OW18964   4.197   1.683   8.341  0.0124 -0.3819 -0.5444
 2443SOL    HW118965   4.234   1.635   8.415  0.3202 -0.4962 -0.7685
 2443SOL    HW218966   4.116   1.718   8.378  0.5460  0.5848 -0.2807
 2444SOL     OW18967   3.575   3.367   5.899  0.6620  0.4375 -0.8323
 2444SOL    HW118968   3.524   3.372   5.980  0.7782  1.1500 -0.8036
 2444SOL    HW218969   3.501   3.366   5.839 -0.3280 -0.3618  0.3930
 2445SOL     OW18970   4.712   4.389  14.845 -0.1095  0.0560  0.7097
 2445SOL    HW118971   4.707   4.357  14.755 -0.0506  0.4625  0.5601
 2445SOL    HW218972   4.638   4.346  14.886  0.1961 -2.1212 -1.0418
 2446SOL     OW18973   1.552   1.929   4.896  0.3266  0.0201  0.2853
 2446SOL    HW118974   1.520   1.845   4.928 -3.5684  2.1014  1.7710
 2446SOL    HW218975   1.470   1.961   4.859  1.0812  2.2236  0.5209
 2447SOL     OW18976   1.234   4.165   6.191  0.1072  0.1503  0.2092
 2447SOL    HW118977   1.180   4.197   6.264  0.8639 -1.8898  1.6340
 2447SOL    HW218978   1.242   4.255   6.159 -1.1986  0.0192 -0.4773
 2448SOL     OW18979   4.664   3.960   5.219  0.2827 -0.2267  0.4771
 2448SOL    HW118980   4.692   3.889   5.276  0.0922 -2.1277 -1.8239
 2448SOL    HW218981   4.649   3.908   5.140 -0.5854  2.1517 -0.9558
 2449SOL     OW18982   4.258   2.748  17.649  0.3119  0.2304 -0.3178
 2449SOL    HW118983   4.271   2.706  17.734 -3.8749  0.8653  0.6143
 2449SOL    HW218984   4.272   2.675  17.588 -1.2506 -0.0370 -0.3660
 2450SOL     OW18985   2.016   0.735   1.696  0.4265 -0.1157  0.5134
 2450SOL    HW118986   1.946   0.694   1.746 -1.0222 -0.3547 -1.7342
 2450SOL    HW218987   2.098   0.715   1.741  0.8632  0.9331  0.1965
 2451SOL     OW18988   0.985   3.254   5.777 -0.0830  0.4981  0.0833
 2451SOL    HW118989   0.974   3.348   5.792 -0.1861  0.3366  0.9785
 2451SOL    HW218990   1.025   3.222   5.858  1.3995  1.3034 -0.3306
 2452SOL     OW18991   1.313   2.011   8.326 -0.0580  0.1096 -0.4172
 2452SOL    HW118992   1.341   2.101   8.344  0.4525  0.1783 -1.5273
 2452SOL    HW218993   1.399   1.970   8.337 -1.4518 -1.5208  4.0112
 2453SOL     OW18994   3.360   2.847   3.798 -0.3772 -0.2769  0.1851
 2453SOL    HW118995   3.365   2.871   3.705  1.0471  1.6682  0.7636
 2453SOL    HW218996   3.264   2.846   3.792 -0.3343 -0.6244 -0.4575
 2454SOL     OW18997   0.189   2.440   8.528 -0.1270 -0.5696 -0.2819
 2454SOL    HW118998   0.263   2.492   8.559 -0.6159 -0.3689  0.5615
 2454SOL    HW218999   0.200   2.353   8.566 -1.4962  0.3062  2.0841
 2455SOL     OW19000   4.091   3.343   3.727 -0.3662  0.7289  1.1154
 2455SOL    HW119001   4.131   3.267   3.685  1.0478  2.2542 -0.2897
 2455SOL    HW219002   4.148   3.416   3.703 -3.4075  3.4738  2.2052
 2456SOL     OW19003   2.321   2.685  12.610  0.1105  0.3817  0.1441
 2456SOL    HW119004   2.362   2.768  12.588  4.7169 -1.8268  0.3701
 2456SOL    HW219005   2.257   2.704  12.678 -0.4494  1.2700 -0.6329
 2457SOL     OW19006   1.491   1.129   0.296 -0.2095  0.0711  0.1656
 2457SOL    HW119007   1.427   1.061   0.317 -0.6106  0.2448 -0.5009
 2457SOL    HW219008   1.454   1.202   0.347  1.6523  1.0316  0.1307
 2458SOL     OW19009   3.345   1.233   8.901  0.1447  0.1695  0.1765
 2458SOL    HW119010   3.267   1.178   8.900 -0.0893  0.4661  1.9570
 2458SOL    HW219011   3.311   1.310   8.946  1.0762  0.8263 -0.2421
 2459SOL     OW19012   2.532   2.617  11.342 -0.2969  0.2095 -0.0901
 2459SOL    HW119013   2.540   2.658  11.256 -0.8171  0.6190  0.0574
 2459SOL    HW219014   2.510   2.693  11.396 -1.1952 -1.0015  1.2604
 2460SOL     OW19015   2.229   2.788   5.447 -0.2438 -0.9807  0.1072
 2460SOL    HW119016   2.220   2.722   5.379 -2.0917  1.4089 -1.9982
 2460SOL    HW219017   2.262   2.854   5.386 -3.2115 -1.1915 -1.6977
 2461SOL     OW19018   3.909   0.455   6.932 -0.0887  0.1102 -0.3470
 2461SOL    HW119019   3.835   0.447   6.872 -0.2718  1.9218 -0.3577
 2461SOL    HW219020   3.881   0.394   7.001 -2.4871  0.2793 -1.1860
 2462SOL     OW19021   2.100   2.002   6.720 -0.1028 -0.3070 -0.2096
 2462SOL    HW119022   2.131   2.067   6.782 -0.0278 -0.8147  0.2908
 2462SOL    HW219023   2.050   2.055   6.658  1.0801  0.3887 -0.5622
 2463SOL     OW19024   1.714   0.347   3.349  0.3061 -0.2329 -0.1665
 2463SOL    HW119025   1.792   0.403   3.352  0.9774 -1.1769 -0.0639
 2463SOL    HW219026   1.744   0.287   3.281 -0.9672 -1.7488  0.6217
 2464SOL     OW19027   0.685   0.320   8.484  0.2175  0.2887  0.0826
 2464SOL    HW119028   0.698   0.367   8.402 -2.5580  0.6425 -0.1562
 2464SOL    HW219029   0.624   0.383   8.523  0.7937 -0.2519  1.8929
 2465SOL     OW19030   3.088   2.317  17.229  0.0640  0.1671  0.0230
 2465SOL    HW119031   3.170   2.279  17.198 -0.5943 -0.4742 -0.9411
 2465SOL    HW219032   3.061   2.270  17.308 -0.8387 -0.1764 -0.4882
 2466SOL     OW19033   4.598   1.475   2.843 -0.1625 -0.0445 -0.1057
 2466SOL    HW119034   4.529   1.448   2.902 -0.1222  1.9008  0.8435
 2466SOL    HW219035   4.641   1.394   2.816 -1.0167 -0.1859 -1.0387
 2467SOL     OW19036   4.037   4.100   7.966 -0.0878 -0.4417  0.2019
 2467SOL    HW119037   4.012   4.084   7.875 -1.2841  1.5019  0.1893
 2467SOL    HW219038   3.978   4.171   7.993  0.9771 -0.0761  1.5809
 2468SOL     OW19039   3.356   0.182   4.807  0.4068  0.0161 -0.1612
 2468SOL    HW119040   3.381   0.148   4.721 -0.2862  0.9010 -0.7116
 2468SOL    HW219041   3.432   0.233   4.834 -0.7379  0.1346  2.7725
 2469SOL     OW19042   4.373   4.436   3.661  0.6364  0.4758  0.1433
 2469SOL    HW119043   4.336   4.435   3.749  1.5282  3.9177  0.5538
 2469SOL    HW219044   4.390   4.341   3.661 -0.9914  0.1893  0.3200
 2470SOL     OW19045   3.715   4.564   4.612 -0.3031 -0.2209  0.3981
 2470SOL    HW119046   3.695   4.597   4.700 -1.1479 -2.1228  0.9200
 2470SOL    HW219047   3.759   4.482   4.635  0.6831  0.0132 -0.7006
 2471SOL     OW19048   0.289   3.290   2.907  0.3644  0.4253 -0.0288
 2471SOL    HW119049   0.373   3.327   2.881  1.5393 -0.7748  2.1127
 2471SOL    HW219050   0.236   3.369   2.904 -0.5495 -0.1730  0.2151
 2472SOL     OW19051   4.298   3.966   8.069  0.8619  0.2348  0.3054
 2472SOL    HW119052   4.232   4.018   8.024  0.6556 -0.6916 -0.4626
 2472SOL    HW219053   4.332   4.035   8.125 -0.9882  1.8146 -0.5440
 2473SOL     OW19054   2.025   1.788   7.939  0.3346  0.3233 -0.3963
 2473SOL    HW119055   1.995   1.774   8.028  0.1229  0.5366 -0.4314
 2473SOL    HW219056   2.109   1.834   7.942  1.1407 -1.3020  1.4678
 2474SOL     OW19057   2.257   0.564  10.670  0.6097  0.1575 -0.0958
 2474SOL    HW119058   2.344   0.586  10.636  0.9319 -0.9882 -0.0036
 2474SOL    HW219059   2.261   0.596  10.760 -0.4506  0.7242 -0.2498
 2475SOL     OW19060   3.444   4.429  14.535 -0.0625  0.0008  0.7682
 2475SOL    HW119061   3.454   4.337  14.560  0.6449 -0.1417 -0.0221
 2475SOL    HW219062   3.395   4.465  14.608  0.9557  1.7957  0.5503
 2476SOL     OW19063   3.140   0.747   8.215 -0.5227 -0.4482 -0.1596
 2476SOL    HW119064   3.095   0.823   8.178  1.1985  1.1887  1.0391
 2476SOL    HW219065   3.106   0.749   8.305  1.0828  1.5327  0.3981
 2477SOL     OW19066   0.172   3.212   6.135 -0.5954  0.2832 -0.7124
 2477SOL    HW119067   0.201   3.208   6.226 -2.2397 -0.8906 -0.2292
 2477SOL    HW219068   0.100   3.149   6.139 -0.0582 -0.2158  1.5556
 2478SOL     OW19069   2.214   1.862   4.861 -0.3515  0.4953 -0.7042
 2478SOL    HW119070   2.277   1.795   4.887  1.6168  1.7912 -2.0885
 2478SOL    HW219071   2.172   1.828   4.782  3.1749  0.6093 -2.6508
 2479SOL     OW19072   0.720   4.105  12.744  0.2393  0.0453 -0.6708
 2479SOL    HW119073   0.632   4.104  12.783  1.5505  1.3307  2.3153
 2479SOL    HW219074   0.697   4.137  12.657  1.6740  2.6322 -0.0752
 2480SOL     OW19075   2.724   3.233   9.209  0.3917  0.8346 -0.0995
 2480SOL    HW119076   2.812   3.193   9.210 -0.0775 -0.1974 -0.3478
 2480SOL    HW219077   2.698   3.218   9.300 -1.9514  1.1892 -0.7158
 2481SOL     OW19078   3.951   3.281   7.855 -0.0955  0.0769  0.3404
 2481SOL    HW119079   4.028   3.333   7.877  0.0324 -1.1306  2.6896
 2481SOL    HW219080   3.997   3.212   7.806 -1.2076 -1.5678  1.6254
 2482SOL     OW19081   2.684   4.554  11.881 -0.0348  0.4009 -0.2812
 2482SOL    HW119082   2.716   4.464  11.888  1.1393  0.8440  0.0075
 2482SOL    HW219083   2.661   4.549  11.788  2.3740 -0.4058 -0.8461
 2483SOL     OW19084   3.552   1.523  13.304  0.3939  0.2826 -0.0945
 2483SOL    HW119085   3.540   1.512  13.210 -2.1062  1.5428  0.0847
 2483SOL    HW219086   3.538   1.617  13.313  0.5166  0.1894  1.1047
 2484SOL     OW19087   2.254   2.000   6.414 -0.3048 -0.2797 -0.4622
 2484SOL    HW119088   2.292   2.056   6.346 -0.5866  2.7168  1.8844
 2484SOL    HW219089   2.206   1.940   6.356  0.4023  0.1113 -1.4396
 2485SOL     OW19090   3.441   4.328   4.969 -0.3038  0.4307 -0.3700
 2485SOL    HW119091   3.495   4.262   4.926 -1.5579 -1.7578  1.3836
 2485SOL    HW219092   3.497   4.407   4.970 -0.7267  0.7340 -1.1545
 2486SOL     OW19093   3.484   4.715   5.039 -0.5337  0.0786 -0.2531
 2486SOL    HW119094   3.554   0.027   5.079 -0.7746  0.0600  0.1936
 2486SOL    HW219095   3.401   4.717   5.086  0.0823  2.9086  0.7163
 2487SOL     OW19096   0.106   0.977   4.980  0.4346  0.0566 -0.2703
 2487SOL    HW119097   0.056   1.047   4.938 -0.0392  0.1297  0.4046
 2487SOL    HW219098   0.057   0.897   4.958 -0.0530  0.0555  0.7869
 2488SOL     OW19099   0.580   3.527   6.126 -0.3480 -0.1736  0.3270
 2488SOL    HW119100   0.661   3.576   6.140 -0.0891 -0.7544  0.8638
 2488SOL    HW219101   0.577   3.527   6.030  0.8709  1.2848  0.2926
 2489SOL     OW19102   3.740   3.104   6.502  0.0532 -0.0804 -0.5286
 2489SOL    HW119103   3.718   3.084   6.411 -1.1591 -1.0291 -0.0254
 2489SOL    HW219104   3.707   3.191   6.522  2.1816  0.6397 -0.0902
 2490SOL     OW19105   4.095   1.761   7.582  0.6431  0.2225 -0.0706
 2490SOL    HW119106   4.101   1.757   7.678  1.2163 -0.9046 -0.1666
 2490SOL    HW219107   4.187   1.774   7.561  0.1692  1.9220 -1.1366
 2491SOL     OW19108   0.685   2.005   4.392 -0.2417 -0.5203  0.1915
 2491SOL    HW119109   0.713   2.036   4.478  0.8951  0.8852 -0.6726
 2491SOL    HW219110   0.612   1.951   4.422  0.2584 -1.0380  0.4655
 2492SOL     OW19111   4.606   4.568   0.970  0.0755  0.0238  0.1202
 2492SOL    HW119112   4.662   4.537   1.041  1.3042 -1.0722 -1.3323
 2492SOL    HW219113   4.538   4.599   1.030  0.2680  1.1461 -0.2253
 2493SOL     OW19114   0.854   1.182   3.533 -0.2569  1.2582  0.3384
 2493SOL    HW119115   0.819   1.217   3.615  0.9459  2.8936  0.1457
 2493SOL    HW219116   0.780   1.165   3.475 -0.8622 -0.2145  1.5417
 2494SOL     OW19117   1.447   4.241   4.071 -0.8143  0.4612 -0.3866
 2494SOL    HW119118   1.491   4.208   4.149 -1.2676  0.4774 -0.1250
 2494SOL    HW219119   1.530   4.273   4.035 -1.0791  0.0307 -1.3738
 2495SOL     OW19120   2.997   3.533  15.232 -0.2706  0.0043 -0.1660
 2495SOL    HW119121   3.007   3.563  15.142  1.0758 -0.8507 -0.3065
 2495SOL    HW219122   3.073   3.477  15.252  0.3323  1.0017  0.3001
 2496SOL     OW19123   1.184   0.149   1.198 -0.5548 -0.7889 -0.1446
 2496SOL    HW119124   1.250   0.153   1.267 -2.9745  1.7259  2.0161
 2496SOL    HW219125   1.162   0.056   1.195 -0.7886 -0.7964  1.6447
 2497SOL     OW19126   1.740   3.178   3.207 -0.5613 -0.3229 -0.2024
 2497SOL    HW119127   1.658   3.218   3.179 -0.9082 -0.3523  0.7963
 2497SOL    HW219128   1.763   3.126   3.130  0.1003 -0.2154 -0.0747
 2498SOL     OW19129   3.931   1.361   8.665  0.0048 -0.5528  0.2164
 2498SOL    HW119130   3.948   1.291   8.728  0.3464 -0.6768 -0.0098
 2498SOL    HW219131   3.881   1.319   8.594  3.1196 -1.6307 -1.3437
 2499SOL     OW19132   4.536   2.758  10.622 -0.0536  0.1618 -0.1709
 2499SOL    HW119133   4.516   2.846  10.652  0.0808  0.3356 -0.5927
 2499SOL    HW219134   4.589   2.723  10.694  1.0920 -0.5602 -1.3544
 2500SOL     OW19135   3.922   3.461  14.660  0.1476  0.8129  0.1634
 2500SOL    HW119136   3.843   3.433  14.614  0.0790 -0.5321  1.1166
 2500SOL    HW219137   3.959   3.379  14.691  1.4873  0.9303 -1.1076
 2501SOL     OW19138   1.894   1.277   5.596  0.3627 -0.2911  0.2188
 2501SOL    HW119139   1.860   1.224   5.668  1.8330 -0.9284  0.4441
 2501SOL    HW219140   1.823   1.341   5.597  0.4559 -0.1592 -2.1348
 2502SOL     OW19141   4.436   3.935  15.994  0.2114  0.6159 -0.5043
 2502SOL    HW119142   4.422   4.021  15.956 -0.0470 -0.4796 -2.9041
 2502SOL    HW219143   4.495   3.898  15.928  1.0600  0.0706  0.5461
 2503SOL     OW19144   3.703   2.767   3.850  0.3535 -0.1452 -0.2786
 2503SOL    HW119145   3.794   2.753   3.827  1.5418  2.3044  2.9308
 2503SOL    HW219146   3.664   2.684   3.821  0.6923 -0.5196  0.3244
 2504SOL     OW19147   2.755   0.703   3.832 -0.3965 -0.7925  0.4934
 2504SOL    HW119148   2.768   0.751   3.750 -0.3800  1.6426  1.9505
 2504SOL    HW219149   2.703   0.628   3.804 -1.6238  0.5064 -0.6903
 2505SOL     OW19150   0.326   3.485   0.907 -0.0216 -0.6131  0.3885
 2505SOL    HW119151   0.302   3.449   0.821 -0.8043 -0.8112  0.6869
 2505SOL    HW219152   0.244   3.460   0.951 -0.1163 -0.6177  0.2078
 2506SOL     OW19153   1.845   0.711  14.811 -0.2463  0.2805  0.0589
 2506SOL    HW119154   1.828   0.765  14.734 -1.3534 -0.8116 -0.4579
 2506SOL    HW219155   1.793   0.635  14.784  0.3121 -1.4657  3.8074
 2507SOL     OW19156   3.242   3.730   8.253  0.2060 -0.5491  0.4444
 2507SOL    HW119157   3.290   3.685   8.323 -1.2728 -2.8545 -0.0179
 2507SOL    HW219158   3.316   3.781   8.222 -0.2929  0.1263  0.3526
 2508SOL     OW19159   2.436   1.814   5.183  0.1697 -0.2406  0.0219
 2508SOL    HW119160   2.502   1.842   5.119  0.3998  0.9173  0.7682
 2508SOL    HW219161   2.502   1.798   5.251 -0.1462 -0.4136  0.2852
 2509SOL     OW19162   1.712   1.247   7.603 -0.0559  0.3296  0.1097
 2509SOL    HW119163   1.803   1.226   7.584  0.0729 -0.9302  2.0267
 2509SOL    HW219164   1.660   1.215   7.529  2.6206 -2.8136 -0.4264
 2510SOL     OW19165   0.825   2.663   8.699 -0.4091  0.0264  0.3818
 2510SOL    HW119166   0.835   2.759   8.696  2.6327 -0.3108  0.0835
 2510SOL    HW219167   0.758   2.659   8.631  1.4231  0.7010 -1.4452
 2511SOL     OW19168   4.674   2.914   7.303 -0.3825  0.0263  0.1957
 2511SOL    HW119169   4.593   2.863   7.301  0.2826 -1.0826  1.9224
 2511SOL    HW219170   4.708   2.877   7.222  1.2108  0.7445  0.5294
 2512SOL     OW19171   2.973   0.516   8.145  0.5837 -0.0011  0.0877
 2512SOL    HW119172   2.888   0.558   8.157 -0.0494 -1.2683  0.0187
 2512SOL    HW219173   3.036   0.586   8.163  0.4954  0.2312 -0.5227
 2513SOL     OW19174   3.079   2.084   9.472 -0.4758 -0.2323 -0.4929
 2513SOL    HW119175   3.125   2.060   9.552 -2.2485  1.1301  0.9304
 2513SOL    HW219176   2.999   2.114   9.515  0.7740  1.9424  0.3430
 2514SOL     OW19177   2.390   0.320   5.470 -0.1749  0.8871 -0.2402
 2514SOL    HW119178   2.296   0.330   5.483 -0.1154  1.2959 -0.1282
 2514SOL    HW219179   2.393   0.309   5.375  0.1002 -0.3874 -0.0806
 2515SOL     OW19180   3.843   0.081  17.203 -0.3884  0.0362  0.1560
 2515SOL    HW119181   3.811   0.038  17.124  0.1775 -1.1222  0.5527
 2515SOL    HW219182   3.779   0.152  17.211 -0.1622  0.1683  0.7998
 2516SOL     OW19183   3.556   2.218  16.490  0.5861  0.2831 -0.0215
 2516SOL    HW119184   3.638   2.237  16.443  1.2817  0.4697  1.2579
 2516SOL    HW219185   3.497   2.266  16.433  1.9430  2.8892  0.7863
 2517SOL     OW19186   3.680   3.415  15.269 -0.9536 -0.3511  0.0544
 2517SOL    HW119187   3.672   3.429  15.363  2.2811 -3.7578  0.8192
 2517SOL    HW219188   3.589   3.409  15.239 -1.4887  1.1508  1.4244
 2518SOL     OW19189   2.217   4.213  13.238  0.3038 -0.4970  0.2398
 2518SOL    HW119190   2.147   4.153  13.213 -2.3355  2.3686  0.6559
 2518SOL    HW219191   2.183   4.301  13.221 -0.0387 -0.3980  1.4534
 2519SOL     OW19192   3.168   0.524   1.835  0.0826 -0.2122  0.2922
 2519SOL    HW119193   3.188   0.483   1.918 -2.0185 -0.2723  0.7833
 2519SOL    HW219194   3.111   0.599   1.855  1.7108  0.9651  0.4653
 2520SOL     OW19195   4.060   1.420   2.834 -0.1324  0.1572 -0.6544
 2520SOL    HW119196   4.132   1.476   2.863 -1.0744  1.0972 -0.1222
 2520SOL    HW219197   4.092   1.388   2.749  1.5853  2.1359 -0.7476
 2521SOL     OW19198   1.919   1.809   4.416  0.3616 -0.2727 -0.1270
 2521SOL    HW119199   1.968   1.825   4.336  0.6394  1.3608  0.3764
 2521SOL    HW219200   1.886   1.726   4.381 -4.1305  1.4835 -0.1143
 2522SOL     OW19201   2.275   1.558   6.103  0.4771  0.5560 -0.6028
 2522SOL    HW119202   2.203   1.544   6.042 -1.1538  1.2402  1.1741
 2522SOL    HW219203   2.317   1.634   6.063  0.6267  0.6229 -0.3167
 2523SOL     OW19204   0.895   1.043  13.404 -0.7015  0.5828  0.1993
 2523SOL    HW119205   0.962   1.111  13.403  2.1138 -2.2260 -0.3532
 2523SOL    HW219206   0.813   1.093  13.410  0.8702  2.9793  1.6353
 2524SOL     OW19207   2.960   4.574   2.464  0.0577  0.3233  1.0420
 2524SOL    HW119208   2.943   4.633   2.390  3.0635  0.2049  0.2293
 2524SOL    HW219209   3.044   4.535   2.438 -0.4071 -0.0938  0.1782
 2525SOL     OW19210   2.140   0.208   5.559 -0.4512 -0.1544  0.4105
 2525SOL    HW119211   2.099   0.130   5.594 -0.9945  0.8807  2.1033
 2525SOL    HW219212   2.094   0.275   5.611 -3.1365 -1.5756 -0.1566
 2526SOL     OW19213   3.027   0.635   9.193  0.2385  0.1765  0.2541
 2526SOL    HW119214   2.989   0.662   9.276 -1.1838 -1.3143  0.0932
 2526SOL    HW219215   3.121   0.648   9.205  0.2007  0.1470  0.5816
 2527SOL     OW19216   2.459   1.062   2.030 -0.0904 -0.0997  0.6145
 2527SOL    HW119217   2.446   1.074   2.124 -1.9548  2.7126  0.0230
 2527SOL    HW219218   2.372   1.025   2.013 -0.2842 -0.1903  1.8148
 2528SOL     OW19219   1.965   2.398   2.097 -0.4233  0.9112 -0.1719
 2528SOL    HW119220   1.873   2.387   2.124 -1.0709  1.4890 -2.1572
 2528SOL    HW219221   2.009   2.453   2.162  0.3896  1.6742 -1.3762
 2529SOL     OW19222   3.624   3.809   7.974 -0.2191  0.2344 -0.2224
 2529SOL    HW119223   3.545   3.803   7.920 -0.8021 -0.3062  0.6741
 2529SOL    HW219224   3.632   3.904   7.985 -0.7557  0.2329  0.1983
 2530SOL     OW19225   3.161   4.211   7.056 -0.4687  0.0572  0.1571
 2530SOL    HW119226   3.079   4.163   7.053 -0.2031 -0.4687  1.2619
 2530SOL    HW219227   3.147   4.279   7.121 -0.0320  1.1440 -0.8682
 2531SOL     OW19228   0.905   2.532  12.472 -0.0132  0.6930  0.6020
 2531SOL    HW119229   0.881   2.610  12.422 -0.9163  0.4172  0.6019
 2531SOL    HW219230   0.866   2.560  12.555 -0.3883  0.2617  0.5682
 2532SOL     OW19231   1.810   4.197   3.275  0.4323  0.2758  0.3601
 2532SOL    HW119232   1.773   4.139   3.208  3.3522  0.4865 -1.4062
 2532SOL    HW219233   1.731   4.249   3.294 -1.1183 -1.3472 -1.6349
 2533SOL     OW19234   1.274   2.374  10.621  0.2675 -0.3415  0.0064
 2533SOL    HW119235   1.241   2.303  10.676 -1.9061 -0.6708 -1.7304
 2533SOL    HW219236   1.200   2.404  10.568  0.4711 -0.7502 -0.5096
 2534SOL     OW19237   0.842   2.816   4.012 -0.5945 -0.4952 -0.5342
 2534SOL    HW119238   0.818   2.757   4.083 -2.2389 -1.9314 -2.2871
 2534SOL    HW219239   0.798   2.777   3.937 -0.1081 -0.6287 -0.7551
 2535SOL     OW19240   3.177   4.326   2.346  0.1652 -0.4675 -0.2828
 2535SOL    HW119241   3.216   4.399   2.298 -1.2487  0.3957 -0.1152
 2535SOL    HW219242   3.099   4.313   2.292  0.9355 -1.4146 -1.1856
 2536SOL     OW19243   3.497   3.711   4.105 -0.1789  0.4094 -0.0650
 2536SOL    HW119244   3.570   3.757   4.146 -0.4962  1.0603 -0.2303
 2536SOL    HW219245   3.521   3.728   4.014  1.2431 -0.7905  0.0712
 2537SOL     OW19246   4.585   4.242  12.277 -0.1234 -1.0786 -0.4315
 2537SOL    HW119247   4.616   4.262  12.366 -3.3757 -0.7611  0.6099
 2537SOL    HW219248   4.584   4.329  12.237  0.3395 -0.4343  0.9608
 2538SOL     OW19249   4.591   3.161  13.231  0.0569  0.6591 -0.6345
 2538SOL    HW119250   4.550   3.234  13.277  0.3855 -0.2141  1.0745
 2538SOL    HW219251   4.523   3.105  13.193 -0.6810  0.4054  1.0199
 2539SOL     OW19252   3.887   3.676   2.106  0.7023  0.0584 -0.1276
 2539SOL    HW119253   3.873   3.624   2.185  1.2496 -0.0061 -0.0752
 2539SOL    HW219254   3.815   3.737   2.121 -0.4225 -1.2712 -0.0901
 2540SOL     OW19255   2.750   2.860  10.626 -0.1861 -0.3173 -0.1824
 2540SOL    HW119256   2.770   2.803  10.701  1.7374  0.2520 -0.2498
 2540SOL    HW219257   2.670   2.900  10.659 -0.6535 -0.1571 -1.5455
 2541SOL     OW19258   0.020   2.000   5.734 -0.5483 -0.6269  0.2005
 2541SOL    HW119259   4.736   1.908   5.724 -0.2018 -0.8029  0.9766
 2541SOL    HW219260   0.039   1.996   5.827  0.4890 -0.9249 -0.0254
 2542SOL     OW19261   1.816   1.704   2.492 -0.0631 -0.0731 -0.0247
 2542SOL    HW119262   1.746   1.671   2.548 -0.6638  0.7206 -0.2999
 2542SOL    HW219263   1.884   1.727   2.555 -0.9432 -0.1602  0.9481
 2543SOL     OW19264   1.195   0.924  10.882  0.6888 -0.6018  0.1938
 2543SOL    HW119265   1.186   0.908  10.788  0.4568 -2.4453  0.5347
 2543SOL    HW219266   1.288   0.906  10.896  1.0937  0.6268 -0.8529
 2544SOL     OW19267   1.497   3.897   5.574 -0.1460 -0.6335 -0.4107
 2544SOL    HW119268   1.454   3.965   5.522 -1.8455 -2.4184 -1.3229
 2544SOL    HW219269   1.548   3.951   5.635  0.0162 -0.9078 -0.3051
 2545SOL     OW19270   2.295   2.716   4.638 -0.0997 -0.3817  0.0156
 2545SOL    HW119271   2.368   2.664   4.672 -0.1246  0.2410  1.0194
 2545SOL    HW219272   2.237   2.645   4.610 -0.8369  0.9838 -1.8727
 2546SOL     OW19273   3.657   0.988   4.497 -0.0230  0.4380 -0.1682
 2546SOL    HW119274   3.616   0.985   4.584 -0.3900 -0.8060 -0.3768
 2546SOL    HW219275   3.577   0.982   4.445  0.6735 -1.9353 -0.9927
 2547SOL     OW19276   4.192   2.712   1.813 -0.0391 -0.0407  0.2887
 2547SOL    HW119277   4.175   2.750   1.899 -0.3631  2.2450 -0.7912
 2547SOL    HW219278   4.125   2.649   1.789 -0.6575  1.1291 -1.0900
 2548SOL     OW19279   3.926   2.956   1.831  0.4009 -0.1167 -0.2623
 2548SOL    HW119280   3.918   2.929   1.923 -1.8356 -2.1210 -1.0776
 2548SOL    HW219281   3.891   3.045   1.838  1.6809  0.1858  2.7685
 2549SOL     OW19282   1.761   4.592   4.055  0.2458 -0.8698  0.1074
 2549SOL    HW119283   1.802   4.626   4.135 -0.6286  0.3341  0.0529
 2549SOL    HW219284   1.743   4.677   4.016  0.1864 -0.1537  1.6617
 2550SOL     OW19285   2.669   3.637   3.364  0.5755  0.5460  0.6320
 2550SOL    HW119286   2.626   3.680   3.438 -1.6708 -1.2859  0.3672
 2550SOL    HW219287   2.660   3.547   3.396 -1.2876  1.0771  1.5773
 2551SOL     OW19288   3.676   1.639   2.515  0.6834 -0.2098 -0.2584
 2551SOL    HW119289   3.653   1.623   2.606 -0.5896  0.9528 -0.3820
 2551SOL    HW219290   3.702   1.552   2.487 -1.9306 -0.6749 -1.1739
 2552SOL     OW19291   1.852   0.497   8.692 -0.0911  0.0895  0.3694
 2552SOL    HW119292   1.767   0.521   8.656 -0.2834 -0.2416  0.6043
 2552SOL    HW219293   1.881   0.427   8.633  2.3892  1.1551  0.3262
 2553SOL     OW19294   3.565   4.671   6.959 -0.0402 -1.1768  0.6032
 2553SOL    HW119295   3.525   4.654   6.873  1.3325 -1.7633  0.0725
 2553SOL    HW219296   3.490   4.704   7.008 -0.9710 -0.5569 -1.2254
 2554SOL     OW19297   2.793   4.736   9.028 -0.1961  0.0147 -0.4526
 2554SOL    HW119298   2.769   0.031   9.114 -2.5254  0.5956 -1.3357
 2554SOL    HW219299   2.781   4.641   9.025 -0.2901  0.0688 -1.8997
 2555SOL     OW19300   3.079   1.244   3.782  0.4122 -0.2946  0.3033
 2555SOL    HW119301   3.141   1.261   3.711  1.5104 -2.1769  0.8279
 2555SOL    HW219302   3.134   1.272   3.856  0.7950  0.0990 -0.1315
 2556SOL     OW19303   1.838   2.392  11.927  0.1949 -0.3618  0.7543
 2556SOL    HW119304   1.858   2.476  11.885 -0.2215 -1.2800 -1.2679
 2556SOL    HW219305   1.782   2.364  11.855  2.2429  1.0613 -1.3855
 2557SOL     OW19306   1.983   0.314   5.316  0.0358  0.3977  0.4394
 2557SOL    HW119307   2.037   0.392   5.307 -0.9926  0.9998 -0.4403
 2557SOL    HW219308   1.928   0.331   5.240 -2.4125  3.2088  2.8621
 2558SOL     OW19309   2.221   2.295  12.011  0.3624  0.7066 -0.1100
 2558SOL    HW119310   2.219   2.206  12.045  0.6001  1.0640  0.8509
 2558SOL    HW219311   2.150   2.288  11.947 -0.4248  0.1753  0.8150
 2559SOL     OW19312   1.779   4.092  14.567  0.1525 -0.1566 -0.1763
 2559SOL    HW119313   1.800   4.030  14.497  1.5896 -0.7638  0.7789
 2559SOL    HW219314   1.712   4.037  14.607  2.1095 -1.7840  0.8843
 2560SOL     OW19315   3.045   1.835   8.678 -0.2758  0.5309 -0.3652
 2560SOL    HW119316   3.097   1.755   8.673 -0.0246  0.5517  2.1752
 2560SOL    HW219317   3.039   1.853   8.772 -0.4376  2.6709 -0.7775
 2561SOL     OW19318   4.183   3.759   4.695 -0.3398 -0.3908 -0.4776
 2561SOL    HW119319   4.266   3.798   4.721 -0.8968 -0.8319  2.0213
 2561SOL    HW219320   4.204   3.666   4.701 -0.1389 -0.2267  1.3858
 2562SOL     OW19321   3.336   1.657   3.088  0.0771 -0.1907 -0.0907
 2562SOL    HW119322   3.248   1.692   3.103  0.3055 -1.1298  3.3957
 2562SOL    HW219323   3.328   1.613   3.003  0.5931 -0.5634  0.0522
 2563SOL     OW19324   2.511   1.919   7.646  0.4168 -0.2010  0.2500
 2563SOL    HW119325   2.565   1.900   7.569  0.5692  2.9939 -0.4279
 2563SOL    HW219326   2.550   1.847   7.696 -0.1429  0.7373  2.0594
 2564SOL     OW19327   0.273   1.677   1.962  0.0186  0.1541  0.0487
 2564SOL    HW119328   0.313   1.672   2.049 -1.5868  0.5471  0.8207
 2564SOL    HW219329   0.222   1.758   1.968  0.4804  0.6085 -2.3891
 2565SOL     OW19330   3.957   4.247   3.665  0.3450  0.2854 -0.4109
 2565SOL    HW119331   3.996   4.334   3.655 -2.0052  1.5143  1.2637
 2565SOL    HW219332   3.957   4.239   3.761 -1.2561 -0.8497 -0.5006
 2566SOL     OW19333   0.663   0.381   1.395 -0.5561 -0.1231  0.0762
 2566SOL    HW119334   0.711   0.310   1.353  2.0909  1.1302  0.9841
 2566SOL    HW219335   0.589   0.335   1.435 -1.9241  0.8615 -1.3456
 2567SOL     OW19336   0.694   0.126   8.785 -0.5674  0.6047 -0.2531
 2567SOL    HW119337   0.712   0.208   8.738 -0.5719  1.8079  1.8516
 2567SOL    HW219338   0.769   0.117   8.842 -1.3770 -0.2927  0.6559
 2568SOL     OW19339   0.589   0.598   2.623  0.5849  0.2441  0.1147
 2568SOL    HW119340   0.515   0.636   2.575  0.3316  1.6764  1.6899
 2568SOL    HW219341   0.560   0.619   2.711  0.1534 -0.8570  0.2443
 2569SOL     OW19342   2.760   2.056   7.117  0.0458 -0.2396  0.1717
 2569SOL    HW119343   2.672   2.064   7.154  1.0255 -1.3364  2.7497
 2569SOL    HW219344   2.786   1.965   7.127 -0.2098 -0.1321  1.8219
 2570SOL     OW19345   2.831   4.543   3.495  0.2265 -0.1369 -0.0497
 2570SOL    HW119346   2.921   4.522   3.472  0.0971 -2.4223  1.4942
 2570SOL    HW219347   2.844   4.624   3.544  4.6935 -0.5538 -0.5090
 2571SOL     OW19348   1.108   0.155  14.249  0.0429  0.5732  0.2985
 2571SOL    HW119349   1.175   0.204  14.201  0.7195  0.3822  1.0435
 2571SOL    HW219350   1.163   0.082  14.279 -0.6171 -0.9498 -2.2270
 2572SOL     OW19351   0.984   3.681   6.331 -0.2264  0.2954 -0.6780
 2572SOL    HW119352   0.921   3.732   6.382 -1.6519 -1.5696 -0.5893
 2572SOL    HW219353   0.966   3.728   6.249 -1.1784 -1.7704 -1.6361
 2573SOL     OW19354   2.881   3.284   5.685 -0.2777  0.4272 -0.2998
 2573SOL    HW119355   2.910   3.290   5.594  2.0095 -2.0016  0.2539
 2573SOL    HW219356   2.957   3.255   5.736  1.2190  0.3738 -2.5472
 2574SOL     OW19357   4.291   3.030   7.805  0.0635  0.4871  0.1948
 2574SOL    HW119358   4.217   2.969   7.814  1.4258 -1.0553  0.9023
 2574SOL    HW219359   4.315   3.034   7.897  0.9308 -3.5120  0.1282
 2575SOL     OW19360   4.384   4.173   8.218 -0.2164  0.4532 -0.0449
 2575SOL    HW119361   4.333   4.254   8.221  0.2252  0.7420 -0.2244
 2575SOL    HW219362   4.476   4.199   8.209 -0.5612  1.4349 -0.6479
 2576SOL     OW19363   0.309   0.876   5.659 -0.0485 -0.2226  0.1904
 2576SOL    HW119364   0.318   0.956   5.607  0.6566  0.2784  1.0690
 2576SOL    HW219365   0.396   0.863   5.698 -0.5838  1.7606  2.1127
 2577SOL     OW19366   2.196   2.975   4.165  0.3276  0.7514 -0.6705
 2577SOL    HW119367   2.103   2.965   4.148  0.9227 -1.5313 -2.5322
 2577SOL    HW219368   2.203   2.933   4.251  0.6840  0.0647 -1.0379
 2578SOL     OW19369   4.062   1.725  17.104 -0.0236 -0.5459 -0.8178
 2578SOL    HW119370   4.064   1.820  17.093  1.3299 -0.5066 -0.2708
 2578SOL    HW219371   4.129   1.695  17.043  0.2853  0.6524 -1.0714
 2579SOL     OW19372   1.523   0.044   9.248  0.3527 -0.5818 -0.6820
 2579SOL    HW119373   1.569   0.117   9.206 -1.0040  0.0321 -1.1139
 2579SOL    HW219374   1.456   0.090   9.299  1.9731  1.6455 -0.5569
 2580SOL     OW19375   1.738   4.202   8.630  0.3108  0.0087 -0.2237
 2580SOL    HW119376   1.745   4.120   8.678 -1.1901 -0.0528 -0.1042
 2580SOL    HW219377   1.729   4.175   8.539  1.4198  1.5520 -0.7776
 2581SOL     OW19378   2.438   3.101   1.311 -0.1888 -0.1767  0.1463
 2581SOL    HW119379   2.354   3.114   1.354 -0.2286 -0.3958  0.1348
 2581SOL    HW219380   2.465   3.010   1.327 -0.0971  0.0347  1.1815
 2582SOL     OW19381   1.430   1.421   6.695 -0.0867 -0.3305 -0.0683
 2582SOL    HW119382   1.477   1.476   6.633 -0.5966 -0.8251 -0.8854
 2582SOL    HW219383   1.389   1.365   6.630  0.6602 -2.1912  1.0761
 2583SOL     OW19384   1.327   0.854   9.403  0.5751 -0.6730 -0.2769
 2583SOL    HW119385   1.282   0.938   9.396  0.5612 -0.6581 -0.0159
 2583SOL    HW219386   1.408   0.883   9.361 -1.1235  2.1924 -1.5808
 2584SOL     OW19387   0.420   1.260   9.611 -0.2658  0.0146 -0.2797
 2584SOL    HW119388   0.423   1.208   9.691 -1.0065 -1.9715 -1.5401
 2584SOL    HW219389   0.510   1.293   9.611 -0.4752  0.5322  3.4441
 2585SOL     OW19390   2.033   1.057   8.213  0.0697 -0.2866 -0.2141
 2585SOL    HW119391   2.044   1.096   8.126  0.7654  0.7220  0.3386
 2585SOL    HW219392   1.938   1.065   8.221 -0.2204 -0.0578 -3.6419
 2586SOL     OW19393   3.114   1.574  14.177 -0.2652 -0.3612 -0.2760
 2586SOL    HW119394   3.175   1.608  14.112  0.3935  0.6091  0.8317
 2586SOL    HW219395   3.028   1.574  14.135 -0.7464 -0.3692  0.7110
 2587SOL     OW19396   2.233   4.126   9.034 -0.9156 -0.0500  0.8976
 2587SOL    HW119397   2.192   4.124   8.948  1.1137  0.1167 -0.0825
 2587SOL    HW219398   2.295   4.053   9.024 -0.9743  0.1580 -0.9971
 2588SOL     OW19399   1.302   0.496   2.589 -0.4489  0.2913  0.8228
 2588SOL    HW119400   1.223   0.480   2.537  1.2438 -3.4860 -0.5793
 2588SOL    HW219401   1.283   0.573   2.643  0.4652  0.7166  0.5377
 2589SOL     OW19402   1.917   3.602   1.710 -0.7085  0.1827 -0.7509
 2589SOL    HW119403   1.994   3.566   1.754 -2.7806 -2.2893  0.8038
 2589SOL    HW219404   1.956   3.664   1.649  2.8440 -0.3315  0.9955
 2590SOL     OW19405   2.938   4.014   6.362  1.0267  0.3312 -0.5041
 2590SOL    HW119406   2.907   3.977   6.279 -1.0927 -1.6076  1.1439
 2590SOL    HW219407   2.855   4.025   6.408 -0.9327  0.6517 -4.0634
 2591SOL     OW19408   3.643   1.843  16.287  0.4901 -0.4708 -0.3574
 2591SOL    HW119409   3.718   1.903  16.285  0.5285 -0.5096  0.0162
 2591SOL    HW219410   3.682   1.758  16.308  0.8539  0.0220  0.9596
 2592SOL     OW19411   4.723   2.511   3.956 -0.2000 -0.1970 -0.1064
 2592SOL    HW119412   4.722   2.415   3.947 -1.7641  0.0401 -2.3898
 2592SOL    HW219413   0.061   2.518   3.902 -0.6789 -2.3814 -1.1090
 2593SOL     OW19414   3.598   3.335   5.100  0.1256 -0.5000 -0.2775
 2593SOL    HW119415   3.504   3.340   5.120 -0.0046  2.2275 -1.6332
 2593SOL    HW219416   3.635   3.401   5.159 -0.3323 -2.0558  1.7532
 2594SOL     OW19417   1.853   1.057   4.023  0.1141  0.2245 -0.6624
 2594SOL    HW119418   1.797   1.133   4.039 -2.0536 -1.5841  0.4360
 2594SOL    HW219419   1.930   1.079   4.076 -1.5280  0.1514  1.7760
 2595SOL     OW19420   1.678   0.085   6.284  0.9591  0.0014 -0.5551
 2595SOL    HW119421   1.753   0.137   6.256  2.3061 -0.9668  1.2341
 2595SOL    HW219422   1.662   0.132   6.367 -0.1896 -0.5076 -0.4936
 2596SOL     OW19423   1.817   0.370  13.939 -0.3089  0.5135  0.1454
 2596SOL    HW119424   1.848   0.350  14.027 -3.2766 -1.1891  0.8135
 2596SOL    HW219425   1.874   0.444  13.920  0.5470 -0.4229 -0.9894
 2597SOL     OW19426   1.630   1.587  13.394  0.4383  0.0409  0.0896
 2597SOL    HW119427   1.644   1.652  13.463  1.8742  0.0925 -0.2501
 2597SOL    HW219428   1.711   1.586  13.342  1.0081  1.4305  0.9601
 2598SOL     OW19429   0.211   2.716   7.949  0.0333  0.0160  0.7686
 2598SOL    HW119430   0.265   2.787   7.982 -0.2156  2.2662 -3.6536
 2598SOL    HW219431   0.254   2.680   7.872  1.3414 -1.1196  2.0304
 2599SOL     OW19432   4.008   2.040   9.120 -0.3867  0.2346  0.5058
 2599SOL    HW119433   3.985   1.967   9.178 -0.6774 -0.2443 -0.1968
 2599SOL    HW219434   4.060   2.099   9.174  1.0762 -2.1504  1.6882
 2600SOL     OW19435   3.055   3.152  16.267  0.2755  0.0776 -0.0831
 2600SOL    HW119436   3.079   3.131  16.177  0.1611  0.1750 -0.1360
 2600SOL    HW219437   3.085   3.073  16.313  2.9843  2.7322  2.7998
 2601SOL     OW19438   2.384   0.766   6.535 -0.0694  0.1864 -0.2958
 2601SOL    HW119439   2.385   0.691   6.594 -1.5157 -1.0563 -1.8358
 2601SOL    HW219440   2.312   0.815   6.575  0.9465  1.8323 -0.4805
 2602SOL     OW19441   1.504   4.726   6.677 -0.1972  0.4965 -0.0201
 2602SOL    HW119442   1.596   4.713   6.700 -0.5983 -1.0013  0.7204
 2602SOL    HW219443   1.470   0.049   6.739 -0.5919 -1.9157  2.2199
 2603SOL     OW19444   0.084   3.264   8.611 -0.2958  0.4003  0.8921
 2603SOL    HW119445   0.138   3.338   8.583  0.0532 -0.4967 -0.7994
 2603SOL    HW219446   0.089   3.267   8.706  0.4070  1.5378  0.8255
 2604SOL     OW19447   4.159   3.962   9.579  0.2272 -0.0092  0.4807
 2604SOL    HW119448   4.233   3.922   9.626 -0.1424 -3.1141 -1.5808
 2604SOL    HW219449   4.135   3.895   9.515 -0.5479  1.4381 -0.7424
 2605SOL     OW19450   3.099   0.441  12.534  0.3715 -0.5182  0.1468
 2605SOL    HW119451   3.089   0.517  12.477  1.1063 -1.1453 -0.8216
 2605SOL    HW219452   3.023   0.389  12.508 -0.5808  0.5090  0.9086
 2606SOL     OW19453   3.107   4.401   3.441 -0.1361  0.2723  0.0307
 2606SOL    HW119454   3.161   4.464   3.393 -1.0411  1.9935  1.2632
 2606SOL    HW219455   3.164   4.325   3.437  0.3598  0.7440 -2.0177
 2607SOL     OW19456   1.498   2.846   0.848 -0.1716 -0.1959 -0.1545
 2607SOL    HW119457   1.531   2.764   0.886  0.7273 -0.3463 -1.2556
 2607SOL    HW219458   1.541   2.845   0.762 -1.4680  1.6992 -0.8308
 2608SOL     OW19459   2.066   3.243   2.384 -0.3159  0.9336  0.4900
 2608SOL    HW119460   2.090   3.209   2.471 -0.6788  0.9382  0.5904
 2608SOL    HW219461   2.040   3.159   2.347  1.7367 -0.4497  2.2170
 2609SOL     OW19462   3.808   0.945  10.376 -0.0975 -0.3768  0.0802
 2609SOL    HW119463   3.749   0.959  10.303  0.7124  1.5162 -0.2224
 2609SOL    HW219464   3.752   0.962  10.452  0.3796 -3.0684  1.0510
 2610SOL     OW19465   0.126   0.845  17.437  0.7589 -0.4142  0.2337
 2610SOL    HW119466   0.211   0.802  17.446  0.2679 -1.4171  0.0832
 2610SOL    HW219467   0.073   0.768  17.458  0.1002 -0.1641 -0.5284
 2611SOL     OW19468   1.861   1.479  12.914 -0.2097  0.2814 -0.4415
 2611SOL    HW119469   1.902   1.557  12.950  0.2598 -2.3519  4.6147
 2611SOL    HW219470   1.767   1.487  12.929 -0.1631 -0.6478  0.3062
 2612SOL     OW19471   3.937   0.662   5.055  0.0385 -0.4914  0.5462
 2612SOL    HW119472   3.973   0.660   5.144  0.0185  0.5443  0.5678
 2612SOL    HW219473   3.845   0.675   5.078 -0.0959  0.0982 -0.3562
 2613SOL     OW19474   2.701   3.714   1.296  0.1300  0.1686 -0.4660
 2613SOL    HW119475   2.658   3.755   1.371 -3.0704 -3.4490 -0.2806
 2613SOL    HW219476   2.692   3.620   1.314 -1.1217  0.5041  0.6466
 2614SOL     OW19477   1.020   3.588   9.215 -0.5753 -0.1776  0.3356
 2614SOL    HW119478   0.950   3.652   9.217  0.7978  1.3084  1.0421
 2614SOL    HW219479   0.990   3.547   9.134  0.5274  2.1081 -1.2266
 2615SOL     OW19480   2.644   3.169  15.230 -0.0770  0.5194 -0.2242
 2615SOL    HW119481   2.577   3.223  15.272 -2.3692 -2.1629 -0.4835
 2615SOL    HW219482   2.728   3.215  15.230 -0.0579  0.4616 -2.6986
 2616SOL     OW19483   4.219   0.489  13.748 -0.2623  0.8281  0.3488
 2616SOL    HW119484   4.220   0.442  13.831  1.5576  0.1082 -0.0790
 2616SOL    HW219485   4.127   0.493  13.722 -0.2613  1.9972  0.5590
 2617SOL     OW19486   4.561   1.773   9.299  0.0159  0.1117 -0.0726
 2617SOL    HW119487   4.467   1.759   9.313 -0.1541  0.2127 -1.1061
 2617SOL    HW219488   4.593   1.725   9.375  1.0486  0.6116 -0.1986
 2618SOL     OW19489   3.059   3.889  12.172 -0.5268  0.0735  0.2249
 2618SOL    HW119490   3.067   3.847  12.087 -3.6999 -1.1888  0.5463
 2618SOL    HW219491   3.069   3.810  12.225 -1.0610 -0.9161 -1.1502
 2619SOL     OW19492   2.998   1.182   6.656 -0.8063  0.1589  0.1317
 2619SOL    HW119493   3.054   1.110   6.683 -0.9998  0.0005  0.1158
 2619SOL    HW219494   3.030   1.203   6.569 -0.5287 -0.9197 -0.0254
 2620SOL     OW19495   4.418   3.489   8.733  0.1604 -0.4912 -1.0525
 2620SOL    HW119496   4.460   3.417   8.781  1.7104  0.2927 -1.2261
 2620SOL    HW219497   4.492   3.509   8.675  0.3282  0.2632 -0.5822
 2621SOL     OW19498   0.025   0.134   8.753 -0.1609  0.3405 -0.0893
 2621SOL    HW119499   4.735   0.136   8.662  1.2764 -2.2333 -0.6106
 2621SOL    HW219500   4.712   0.067   8.795 -0.5193  0.4386 -0.3811
 2622SOL     OW19501   4.578   4.085   0.816 -0.0972  0.1915  0.5097
 2622SOL    HW119502   4.579   4.179   0.799  1.3680 -0.0549 -0.6874
 2622SOL    HW219503   4.651   4.074   0.877  0.0713 -0.4171  0.1941
 2623SOL     OW19504   1.907   0.990   5.379  0.2539  0.1146 -0.1833
 2623SOL    HW119505   1.956   1.062   5.339  1.6322 -0.9671 -0.4396
 2623SOL    HW219506   1.815   1.010   5.361 -0.0085 -0.6803  0.3054
 2624SOL     OW19507   1.774   1.395   0.449 -0.1423  0.1954  0.3315
 2624SOL    HW119508   1.864   1.412   0.421  0.3597 -0.0457  1.8395
 2624SOL    HW219509   1.788   1.306   0.480 -0.0213 -0.2683 -1.0357
 2625SOL     OW19510   0.992   3.007   7.319 -0.1891  0.3841 -0.3703
 2625SOL    HW119511   0.914   2.952   7.305 -1.3288  1.6918  0.8295
 2625SOL    HW219512   0.986   3.074   7.250  0.8399 -1.1906 -1.9979
 2626SOL     OW19513   4.102   0.679   3.193 -0.5570 -0.3997 -0.1002
 2626SOL    HW119514   4.131   0.730   3.268  1.4969 -0.1059 -1.1003
 2626SOL    HW219515   4.041   0.623   3.240 -1.1999  1.0186  0.7606
 2627SOL     OW19516   2.497   0.167   8.325  0.2118  0.4027  0.8971
 2627SOL    HW119517   2.504   0.209   8.410  1.3672  1.1187  0.4529
 2627SOL    HW219518   2.500   0.075   8.352  0.4150  0.2625  0.4040
 2628SOL     OW19519   3.241   2.432   2.094  0.3161  0.1414  0.1376
 2628SOL    HW119520   3.215   2.496   2.027 -1.7998 -0.5951  0.2790
 2628SOL    HW219521   3.212   2.482   2.170 -0.4840  0.6379 -0.4873
 2629SOL     OW19522   4.724   4.537  10.234  0.4887  0.3682 -0.1252
 2629SOL    HW119523   0.042   4.577  10.169 -0.0060  0.4298 -0.5338
 2629SOL    HW219524   4.655   4.499  10.179 -0.0237 -0.4089  1.0477
 2630SOL     OW19525   2.575   2.128   8.350  0.2047 -0.2162 -0.1049
 2630SOL    HW119526   2.519   2.069   8.300 -0.1731  0.1637 -0.1349
 2630SOL    HW219527   2.625   2.173   8.282 -0.9810 -0.2883 -1.0387
 2631SOL     OW19528   1.543   4.643   8.480 -0.2809 -0.1416 -0.4429
 2631SOL    HW119529   1.467   4.623   8.425  0.7064 -0.2496 -1.7715
 2631SOL    HW219530   1.534   4.734   8.508 -1.1615 -1.4227  3.4168
 2632SOL     OW19531   2.268   3.829   6.476  0.1464  0.1715  0.5191
 2632SOL    HW119532   2.340   3.879   6.437 -0.2114 -0.1211 -0.5247
 2632SOL    HW219533   2.312   3.770   6.538  0.6522  0.9870  0.9328
 2633SOL     OW19534   1.725   0.455  14.369 -0.1045 -0.3352 -0.2151
 2633SOL    HW119535   1.669   0.395  14.320 -0.5971  1.6428 -2.1049
 2633SOL    HW219536   1.803   0.444  14.314  0.3366 -1.0172  0.5509
 2634SOL     OW19537   0.974   0.293  12.470  0.0299 -0.3151  0.3552
 2634SOL    HW119538   0.944   0.220  12.524 -2.4242  0.6396  0.3127
 2634SOL    HW219539   1.069   0.290  12.472  0.1074  1.9061  0.0453
 2635SOL     OW19540   0.641   3.375   9.575  0.1778 -0.0712 -0.0817
 2635SOL    HW119541   0.592   3.292   9.576 -3.1373  1.8862  0.7704
 2635SOL    HW219542   0.620   3.393   9.667  1.4313 -1.9292  0.5683
 2636SOL     OW19543   0.048   3.168  13.075 -0.0445 -0.2901 -0.0409
 2636SOL    HW119544   0.026   3.243  13.020 -1.1380 -0.1992  0.5284
 2636SOL    HW219545   4.708   3.153  13.126  0.1317 -0.9755  0.0410
 2637SOL     OW19546   0.064   4.132   3.913 -0.3164  0.0232 -0.0727
 2637SOL    HW119547   0.048   4.126   3.819 -2.7617  0.3243  0.3169
 2637SOL    HW219548   4.719   4.152   3.953 -1.0154 -1.0053 -1.0726
 2638SOL     OW19549   2.247   0.391  15.397 -0.0158 -0.6767  0.0717
 2638SOL    HW119550   2.291   0.409  15.313  2.3154  0.7074  1.5734
 2638SOL    HW219551   2.220   0.479  15.425 -0.1766 -1.3916  2.1268
 2639SOL     OW19552   1.856   2.246  16.269 -0.4596 -0.6589  0.3367
 2639SOL    HW119553   1.777   2.254  16.216 -1.7654  0.5179  2.4655
 2639SOL    HW219554   1.920   2.293  16.216 -1.0754 -0.4426 -0.2210
 2640SOL     OW19555   1.436   2.163  17.218  0.3967 -0.5833  0.8147
 2640SOL    HW119556   1.387   2.179  17.138 -0.4026  1.3890  1.6979
 2640SOL    HW219557   1.359   2.139  17.271 -0.0027  0.4912  0.7171
 2641SOL     OW19558   0.951   4.092   1.346 -0.1916  0.0764  0.1761
 2641SOL    HW119559   0.968   4.014   1.400 -0.1440 -0.4676 -0.6309
 2641SOL    HW219560   0.923   4.150   1.417 -2.4897 -1.0614  0.1996
 2642SOL     OW19561   4.541   3.252   8.277  0.2733 -0.4512 -0.2791
 2642SOL    HW119562   4.595   3.331   8.271 -0.5866  0.1305 -0.3973
 2642SOL    HW219563   4.584   3.204   8.348 -0.9978  0.1104  0.8757
 2643SOL     OW19564   1.749   0.243   3.704 -0.5391  0.3107  0.0284
 2643SOL    HW119565   1.824   0.268   3.758 -0.8950 -1.7376  1.4989
 2643SOL    HW219566   1.732   0.323   3.656 -0.7001  0.1600 -0.1648
 2644SOL     OW19567   2.688   4.179   4.059 -0.1024 -0.2963  0.3174
 2644SOL    HW119568   2.661   4.087   4.059  0.0969 -0.3539  0.2851
 2644SOL    HW219569   2.779   4.151   4.048  0.2823  0.5073  1.3249
 2645SOL     OW19570   4.575   2.029   7.934 -0.5578  0.2948  0.0804
 2645SOL    HW119571   4.574   1.997   8.024 -1.2084  1.0109  0.3339
 2645SOL    HW219572   4.660   2.074   7.933 -0.1441 -0.4434  1.8862
 2646SOL     OW19573   0.788   1.277   3.790  0.6875  0.1456  0.1859
 2646SOL    HW119574   0.789   1.362   3.834 -1.2803  0.0123  0.4737
 2646SOL    HW219575   0.750   1.222   3.858  0.3138  0.5644  0.3120
 2647SOL     OW19576   4.370   2.006  11.387  0.0486  0.2971  0.5810
 2647SOL    HW119577   4.366   2.098  11.412 -0.8442  0.7512 -1.2408
 2647SOL    HW219578   4.288   1.978  11.427 -1.0362 -1.0493 -2.5785
 2648SOL     OW19579   4.628   0.845   8.198 -0.2695 -0.0685 -0.0239
 2648SOL    HW119580   4.660   0.781   8.135  1.5961  0.1034  0.7255
 2648SOL    HW219581   4.695   0.908   8.171 -1.7010  1.2707 -0.4532
 2649SOL     OW19582   1.233   1.302   2.012  0.1373 -0.1046 -0.1940
 2649SOL    HW119583   1.270   1.360   1.946  0.7030  0.7672  0.8806
 2649SOL    HW219584   1.249   1.352   2.093  0.9249  0.6230 -0.8013
 2650SOL     OW19585   3.282   1.365  15.939  0.3262 -0.4685  0.3582
 2650SOL    HW119586   3.319   1.440  15.893 -2.9074  0.5538 -0.5811
 2650SOL    HW219587   3.200   1.368  15.889  0.5021 -2.9688 -0.0972
 2651SOL     OW19588   4.061   0.288   2.956 -0.1897  0.0475  0.0453
 2651SOL    HW119589   4.136   0.279   2.897 -0.1385 -0.4363  0.1776
 2651SOL    HW219590   4.061   0.196   2.984  2.1035  0.2177  0.5607
 2652SOL     OW19591   3.330   1.621  17.591  0.2025 -0.2421  0.0478
 2652SOL    HW119592   3.330   1.688  17.522  1.4745  0.0162  0.3038
 2652SOL    HW219593   3.242   1.587  17.573  0.0221 -0.0976  0.6531
 2653SOL     OW19594   2.959   3.701   5.947 -0.2906  0.1597  0.5716
 2653SOL    HW119595   2.944   3.796   5.943 -1.2326 -0.0007  0.3743
 2653SOL    HW219596   3.050   3.686   5.971 -0.6826 -3.0680  0.0171
 2654SOL     OW19597   0.889   1.441  15.443 -0.1636 -0.3247  0.1419
 2654SOL    HW119598   0.918   1.364  15.493 -1.8083 -0.2905  1.1608
 2654SOL    HW219599   0.944   1.511  15.478  1.0052 -0.2026 -1.9955
 2655SOL     OW19600   1.837   4.136   7.376  0.1482  0.3774 -0.4639
 2655SOL    HW119601   1.742   4.126   7.383  0.2214  0.6256  0.8901
 2655SOL    HW219602   1.842   4.209   7.438 -0.8755  0.4508 -0.4673
 2656SOL     OW19603   1.454   2.252   9.484  0.2257  0.2041 -0.4055
 2656SOL    HW119604   1.526   2.285   9.431 -0.6895  1.7883 -0.6369
 2656SOL    HW219605   1.497   2.230   9.567 -1.2645 -3.4555 -0.6099
 2657SOL     OW19606   4.204   1.383   4.963  0.9248 -0.3381  0.0436
 2657SOL    HW119607   4.182   1.332   5.041  2.3129 -0.7860  0.1413
 2657SOL    HW219608   4.121   1.429   4.950  1.8866  1.2703 -0.4380
 2658SOL     OW19609   1.206   1.601   7.562 -0.0140  0.1817  0.5153
 2658SOL    HW119610   1.111   1.589   7.559  0.1783 -1.4385  1.0390
 2658SOL    HW219611   1.225   1.579   7.471 -0.7144 -2.4446  1.0021
 2659SOL     OW19612   2.527   3.477   1.906 -0.2881 -0.4541 -0.3670
 2659SOL    HW119613   2.514   3.415   1.977  0.8856  0.1151  0.3386
 2659SOL    HW219614   2.457   3.538   1.926 -0.5017 -0.4565 -1.0838
 2660SOL     OW19615   4.190   0.133   4.622 -0.1472  0.0110  0.0470
 2660SOL    HW119616   4.127   0.096   4.683  1.5889  0.4084  2.0993
 2660SOL    HW219617   4.192   0.225   4.648  0.4144 -0.5778  2.0598
 2661SOL     OW19618   4.287   1.454   9.269  0.3531  0.3035 -0.0377
 2661SOL    HW119619   4.371   1.430   9.231  0.3581 -0.8350  0.6764
 2661SOL    HW219620   4.222   1.434   9.201  1.1664  0.4249 -0.8469
 2662SOL     OW19621   0.143   2.085   6.053  0.2349 -0.6635  0.1182
 2662SOL    HW119622   0.234   2.058   6.066  0.5029  0.3946  0.4097
 2662SOL    HW219623   0.155   2.159   5.993 -2.2415  1.1008  1.8197
 2663SOL     OW19624   1.384   1.781   9.533  0.2729  0.4123 -0.0190
 2663SOL    HW119625   1.352   1.868   9.510 -1.5867 -0.2535  0.1176
 2663SOL    HW219626   1.361   1.772   9.625  0.5140  1.9097  0.1934
 2664SOL     OW19627   2.182   3.913   3.663 -0.2856 -0.6597  0.2060
 2664SOL    HW119628   2.124   3.838   3.671  0.5553 -1.0183  3.0163
 2664SOL    HW219629   2.145   3.981   3.720 -2.0682  0.8155 -2.7245
 2665SOL     OW19630   1.839   0.900   2.428  0.1783 -0.3939 -0.1567
 2665SOL    HW119631   1.926   0.861   2.441  0.4498  0.3418  0.2470
 2665SOL    HW219632   1.791   0.833   2.478 -2.0440  0.2375 -1.4569
 2666SOL     OW19633   0.831   3.831   2.595 -0.6900  0.3390  0.6998
 2666SOL    HW119634   0.764   3.766   2.576  1.0757 -1.0369 -0.7454
 2666SOL    HW219635   0.839   3.881   2.514  2.0599 -0.2052  0.6359
 2667SOL     OW19636   3.734   1.030   4.005 -0.1958  0.1505  0.3251
 2667SOL    HW119637   3.738   1.103   3.943 -1.9287  0.2319  0.3032
 2667SOL    HW219638   3.822   1.035   4.042  0.3264  0.6053 -0.9821
 2668SOL     OW19639   2.020   3.207   2.886 -0.0298  0.6816  0.5372
 2668SOL    HW119640   1.932   3.168   2.887 -0.2555  1.1653 -3.1550
 2668SOL    HW219641   2.021   3.254   2.969 -1.9197  0.3721  0.7486
 2669SOL     OW19642   4.437   0.352   7.409 -0.3264 -0.1788  0.3973
 2669SOL    HW119643   4.496   0.407   7.356 -1.0279 -1.0635 -1.3036
 2669SOL    HW219644   4.387   0.422   7.452  1.1729 -0.0519  1.9585
 2670SOL     OW19645   1.092   4.085   4.711 -0.2568 -0.1179  0.1585
 2670SOL    HW119646   1.123   4.155   4.768  1.4242  0.9773 -2.1218
 2670SOL    HW219647   1.073   4.010   4.766  0.0920  0.6862  1.3779
 2671SOL     OW19648   1.421   0.509   1.542 -0.5068  0.3799 -0.2699
 2671SOL    HW119649   1.444   0.517   1.450  2.0112 -1.6099  0.1690
 2671SOL    HW219650   1.492   0.558   1.585 -0.4553 -0.4367  0.5746
 2672SOL     OW19651   3.799   0.178   7.648 -0.7972 -0.2208  0.1360
 2672SOL    HW119652   3.862   0.187   7.719 -1.3549 -0.0322  0.6061
 2672SOL    HW219653   3.840   0.122   7.582  0.2081  0.0699  0.5187
 2673SOL     OW19654   4.569   1.258   2.478 -0.5021  0.0505 -0.2557
 2673SOL    HW119655   4.625   1.185   2.503 -0.0514  0.3512 -0.3894
 2673SOL    HW219656   4.629   1.323   2.514 -0.6089  0.7874 -1.3908
 2674SOL     OW19657   4.629   1.350   3.994 -0.2551 -0.7145  0.2288
 2674SOL    HW119658   4.660   1.344   4.084  2.2157  0.5484 -0.5421
 2674SOL    HW219659   4.622   1.259   3.965  0.5456 -0.3291 -1.2038
 2675SOL     OW19660   1.555   0.476  12.477  0.1707 -0.1497  0.5607
 2675SOL    HW119661   1.539   0.428  12.558  1.2471  1.1774  1.5567
 2675SOL    HW219662   1.597   0.404  12.429 -0.5197 -0.8399  0.9882
 2676SOL     OW19663   2.173   1.424   7.235  0.2826 -0.2355  0.1209
 2676SOL    HW119664   2.165   1.508   7.280  1.5067  0.6308 -1.2715
 2676SOL    HW219665   2.107   1.371   7.280  0.5677  0.3155  1.1805
 2677SOL     OW19666   3.782   1.376   2.386 -0.1638  0.0124 -0.8497
 2677SOL    HW119667   3.809   1.293   2.426 -0.2466  0.3831 -0.0116
 2677SOL    HW219668   3.869   1.417   2.385  0.9083 -2.3297 -2.5215
 2678SOL     OW19669   1.074   2.031  13.160  0.2781 -0.3214 -0.7628
 2678SOL    HW119670   1.068   1.982  13.078  1.3012 -0.4735 -0.7401
 2678SOL    HW219671   1.009   2.096  13.133 -1.2236 -0.8153  1.6101
 2679SOL     OW19672   1.450   4.361  10.115  0.4571 -0.0430 -0.0275
 2679SOL    HW119673   1.509   4.298  10.156 -0.3338 -0.0981  1.0218
 2679SOL    HW219674   1.512   4.434  10.112  0.8996 -0.4344 -0.3480
 2680SOL     OW19675   2.010   0.087  10.031 -0.1108  0.1745  0.2593
 2680SOL    HW119676   1.986   0.083  10.124 -0.6757 -0.4164  0.0857
 2680SOL    HW219677   2.093   0.134  10.041 -0.9520  1.4375  1.2694
 2681SOL     OW19678   2.490   0.602   9.678  0.3244 -0.0259  0.1448
 2681SOL    HW119679   2.471   0.677   9.622  2.3702  1.4875  1.4597
 2681SOL    HW219680   2.564   0.554   9.640  1.1838  0.2741  1.4191
 2682SOL     OW19681   0.348   0.384   1.864 -0.1452  0.0190  0.6176
 2682SOL    HW119682   0.282   0.397   1.933 -0.0697 -0.3391  0.7540
 2682SOL    HW219683   0.390   0.305   1.897  2.7431  0.8678 -1.0783
 2683SOL     OW19684   2.811   2.981   1.872 -0.3445  0.0259 -1.1435
 2683SOL    HW119685   2.745   3.023   1.816 -3.2517 -1.0717  1.4197
 2683SOL    HW219686   2.868   3.057   1.874  0.9571 -0.9454 -1.0034
 2684SOL     OW19687   0.565   0.530   0.483 -0.1625 -0.0130 -0.0137
 2684SOL    HW119688   0.611   0.546   0.565  0.9584 -2.9932 -0.0940
 2684SOL    HW219689   0.548   0.436   0.483  0.4744 -0.1247  2.2738
 2685SOL     OW19690   4.105   0.014   0.867 -0.3938  0.6988 -0.4927
 2685SOL    HW119691   4.102   0.100   0.825 -2.0831  0.5980 -0.5752
 2685SOL    HW219692   4.037   0.025   0.934 -0.9278 -1.1078 -0.7540
 2686SOL     OW19693   2.873   3.342   7.541 -0.2263 -0.7313 -0.7843
 2686SOL    HW119694   2.876   3.270   7.604  3.1498 -0.2144 -0.3526
 2686SOL    HW219695   2.937   3.403   7.577 -0.8625  0.0817 -1.0275
 2687SOL     OW19696   4.155   1.153  12.193  0.1856 -0.1007  0.4164
 2687SOL    HW119697   4.228   1.131  12.251  1.8636  1.9804 -0.9037
 2687SOL    HW219698   4.215   1.189  12.127  0.1086  0.1742  0.4973
 2688SOL     OW19699   4.474   0.516   7.708 -0.1359  0.0203 -0.4015
 2688SOL    HW119700   4.506   0.601   7.741  0.9986  0.1184 -1.7612
 2688SOL    HW219701   4.399   0.539   7.654 -0.9607 -2.4469 -0.2788
 2689SOL     OW19702   1.185   2.763  11.958  0.3766 -0.1266  0.1230
 2689SOL    HW119703   1.277   2.787  11.945 -0.0312 -0.6224 -3.5553
 2689SOL    HW219704   1.169   2.690  11.899 -0.7868 -1.6943  2.3706
 2690SOL     OW19705   3.914   1.530   4.640 -0.0340 -0.1305 -0.7576
 2690SOL    HW119706   3.916   1.440   4.607 -1.3511 -0.8350  1.1233
 2690SOL    HW219707   3.984   1.577   4.595 -1.1025  2.7397  0.5817
 2691SOL     OW19708   3.875   1.599   0.081  0.1665  0.0503  0.0846
 2691SOL    HW119709   3.917   1.621   0.164 -0.5746 -0.5273  0.6099
 2691SOL    HW219710   3.866   1.504   0.084 -0.1849  0.1109  0.9778
 2692SOL     OW19711   1.675   2.364   2.898  0.4008  0.0172  0.2567
 2692SOL    HW119712   1.595   2.312   2.886 -1.1583  2.4762 -0.1913
 2692SOL    HW219713   1.658   2.379   2.991  0.4230  0.5555  0.1779
 2693SOL     OW19714   1.173   1.543   4.032 -0.5584 -0.1543  0.3225
 2693SOL    HW119715   1.147   1.462   3.989  1.3205  0.1358 -1.3476
 2693SOL    HW219716   1.087   1.580   4.052 -0.1118 -0.0873  2.1394
 2694SOL     OW19717   1.302   2.641  15.949  0.0386  0.2120 -0.1586
 2694SOL    HW119718   1.343   2.555  15.937 -0.5836 -0.1409  0.1879
 2694SOL    HW219719   1.379   2.695  15.964  0.1396  0.3488 -1.1998
 2695SOL     OW19720   1.752   1.020   2.736 -0.5597 -0.1259  0.5310
 2695SOL    HW119721   1.673   0.973   2.710 -0.4872 -0.5310  1.0489
 2695SOL    HW219722   1.818   0.951   2.732  0.7143  1.0936  0.3707
 2696SOL     OW19723   4.434   1.946   8.445  0.5980  0.4958 -0.1139
 2696SOL    HW119724   4.426   1.853   8.467 -1.9366  0.8127  0.2418
 2696SOL    HW219725   4.486   1.961   8.524  2.2838 -0.0254 -1.1234
 2697SOL     OW19726   1.331   0.147   6.829 -0.5974  0.2328  0.8164
 2697SOL    HW119727   1.265   0.149   6.760 -1.9050 -1.8404  1.9940
 2697SOL    HW219728   1.300   0.226   6.874 -1.9757 -1.3283  2.6225
 2698SOL     OW19729   3.647   3.448  14.850 -0.3217  0.0805  0.1210
 2698SOL    HW119730   3.647   3.512  14.779  1.1135  1.1077  1.0474
 2698SOL    HW219731   3.602   3.373  14.812 -0.7174  0.1097  0.5369
 2699SOL     OW19732   0.892   4.010   7.454 -0.0932 -0.3441  0.1454
 2699SOL    HW119733   0.965   3.948   7.446  2.1328  1.9789  2.5083
 2699SOL    HW219734   0.822   3.944   7.451 -1.0166  0.6440  0.2526
 2700SOL     OW19735   1.209   1.471   2.936  0.0760  0.0724  0.2398
 2700SOL    HW119736   1.156   1.393   2.919 -1.5988  1.7109 -2.0912
 2700SOL    HW219737   1.217   1.459   3.031 -0.5037 -1.8313  0.0422
 2701SOL     OW19738   2.678   3.220   9.480 -0.1099  0.3290  0.3645
 2701SOL    HW119739   2.623   3.291   9.514  0.5062  1.9122 -1.8988
 2701SOL    HW219740   2.634   3.140   9.507  1.0796 -1.1091 -1.9239
 2702SOL     OW19741   2.689   4.547   4.353  0.2496 -0.1078 -0.0369
 2702SOL    HW119742   2.687   4.452   4.368  1.6962 -0.0309  0.6444
 2702SOL    HW219743   2.637   4.550   4.273  1.1598  0.8070 -0.5934
 2703SOL     OW19744   4.179   2.412  17.663  0.0748  0.3142 -0.5580
 2703SOL    HW119745   4.209   2.448  17.580  0.6238 -1.6869 -1.2333
 2703SOL    HW219746   4.203   2.321  17.644  1.4348  0.3556  0.9886
 2704SOL     OW19747   0.821   3.243   3.898 -0.4955 -0.0005  0.4789
 2704SOL    HW119748   0.736   3.281   3.920 -0.4039  0.2921  0.3168
 2704SOL    HW219749   0.845   3.198   3.979 -1.9956  0.7861  1.3608
 2705SOL     OW19750   4.358   1.117  16.346 -0.4917 -0.1448 -0.5677
 2705SOL    HW119751   4.289   1.181  16.363  1.0458  1.4527 -0.2811
 2705SOL    HW219752   4.416   1.171  16.292  2.7835 -1.2696  1.8561
 2706SOL     OW19753   2.145   2.065  13.131  0.8764  0.0985 -0.1715
 2706SOL    HW119754   2.172   2.145  13.085 -2.4642  2.1358  1.4176
 2706SOL    HW219755   2.096   2.024  13.059  0.1116 -1.8724  1.4763
 2707SOL     OW19756   1.636   3.838   2.791 -0.4312  0.2826  0.1946
 2707SOL    HW119757   1.562   3.781   2.771  0.5511 -0.7024 -0.6073
 2707SOL    HW219758   1.585   3.908   2.832 -1.1286 -0.2179  0.1745
 2708SOL     OW19759   4.505   2.247   2.939 -0.1983  0.4247  0.3811
 2708SOL    HW119760   4.555   2.264   2.860 -3.6120 -2.3880 -2.3644
 2708SOL    HW219761   4.418   2.231   2.903 -0.5596  0.6352  1.1592
 2709SOL     OW19762   3.486   4.370   2.577  0.5618 -0.0433  0.2688
 2709SOL    HW119763   3.546   4.398   2.508 -0.0126  0.8964  0.1553
 2709SOL    HW219764   3.554   4.348   2.640 -1.3315 -0.2725  2.2317
 2710SOL     OW19765   4.475   2.788   3.074  0.4727  0.4716 -0.5107
 2710SOL    HW119766   4.449   2.736   2.998 -1.9738  3.5957 -1.7929
 2710SOL    HW219767   4.560   2.823   3.049  0.4543  0.6943 -0.2663
 2711SOL     OW19768   2.816   4.631   5.105  0.2488 -0.1330 -0.0946
 2711SOL    HW119769   2.816   4.653   5.198 -3.4060  0.8810 -0.3172
 2711SOL    HW219770   2.908   4.641   5.083 -0.3872  0.4069 -2.6215
 2712SOL     OW19771   4.674   3.408  12.321  0.1424 -0.0910  0.0675
 2712SOL    HW119772   4.711   3.493  12.346  1.6754 -0.9199  0.5984
 2712SOL    HW219773   0.005   3.346  12.303  0.3040 -0.0996  0.7308
 2713SOL     OW19774   3.803   4.137   9.388 -0.6773  0.0784  0.3502
 2713SOL    HW119775   3.869   4.160   9.453 -0.3776  4.3554 -1.4554
 2713SOL    HW219776   3.838   4.162   9.302  2.3795 -1.9225  1.0068
 2714SOL     OW19777   3.187   2.060   4.329  0.8163  0.2510  0.4815
 2714SOL    HW119778   3.271   2.096   4.302  0.8115  0.0791  0.2307
 2714SOL    HW219779   3.213   1.975   4.366  2.6289  0.3894 -0.5121
 2715SOL     OW19780   0.753   1.940   6.006  0.1554 -0.0531 -0.1070
 2715SOL    HW119781   0.722   1.993   6.080 -0.0468 -1.6118  0.9259
 2715SOL    HW219782   0.739   1.858   6.054 -0.0896 -0.3686 -0.7133
 2716SOL     OW19783   1.647   2.624   8.234 -0.3610  0.4562  0.0297
 2716SOL    HW119784   1.668   2.689   8.301  1.9851  1.1693 -1.3828
 2716SOL    HW219785   1.554   2.646   8.232  0.0208  1.9326 -0.9175
 2717SOL     OW19786   0.799   1.618   3.721  0.1598  0.0585 -0.2628
 2717SOL    HW119787   0.892   1.611   3.700 -0.1463  2.2328 -2.3092
 2717SOL    HW219788   0.769   1.679   3.653  0.5749  0.9348  0.3281
 2718SOL     OW19789   0.398   0.400  12.570 -0.0799  0.5128  0.6237
 2718SOL    HW119790   0.413   0.307  12.550  0.6756  0.5467  1.0182
 2718SOL    HW219791   0.312   0.381  12.608 -0.8330  3.0389  0.1406
 2719SOL     OW19792   3.361   3.278   5.734 -0.2914  0.0000  0.1758
 2719SOL    HW119793   3.394   3.220   5.665  1.1745  0.9326  0.0733
 2719SOL    HW219794   3.296   3.332   5.690 -1.7810 -1.6193  0.4169
 2720SOL     OW19795   1.885   2.170   4.461  0.2353  0.0269 -0.5696
 2720SOL    HW119796   1.915   2.089   4.502  0.5893  0.7968  0.6699
 2720SOL    HW219797   1.849   2.137   4.379  0.4821 -0.6013 -0.4241
 2721SOL     OW19798   0.437   2.529   8.070 -0.3039 -0.1857  0.0772
 2721SOL    HW119799   0.354   2.534   8.117 -0.5575 -1.4755 -0.2266
 2721SOL    HW219800   0.501   2.579   8.120 -1.2069 -0.3182  1.3543
 2722SOL     OW19801   2.238   3.094   7.489 -0.4227 -0.3570 -0.2967
 2722SOL    HW119802   2.210   3.034   7.557 -0.8587  0.9527  0.6822
 2722SOL    HW219803   2.240   3.033   7.415 -1.1702 -0.0282 -0.5923
 2723SOL     OW19804   2.783   2.458   6.243 -0.6093  0.0655 -0.4249
 2723SOL    HW119805   2.777   2.385   6.304 -2.4386 -0.5045 -1.2964
 2723SOL    HW219806   2.689   2.471   6.231 -1.1010  0.3275  3.6420
 2724SOL     OW19807   2.162   1.819   3.259 -0.4080 -0.3147 -0.2599
 2724SOL    HW119808   2.092   1.883   3.249  1.1275  1.4437  0.3048
 2724SOL    HW219809   2.193   1.812   3.169 -4.1169 -1.3059 -1.4548
 2725SOL     OW19810   3.180   3.785   9.400  0.6154 -0.0648  0.0298
 2725SOL    HW119811   3.149   3.717   9.459  0.4022 -1.2594 -1.4752
 2725SOL    HW219812   3.100   3.818   9.358 -0.3650 -1.3103  0.9147
 2726SOL     OW19813   2.883   0.684   4.167 -0.3848  0.3037  0.4821
 2726SOL    HW119814   2.944   0.730   4.225  0.7033  1.3496 -1.4369
 2726SOL    HW219815   2.915   0.726   4.086  2.7203 -0.3492  1.3782
 2727SOL     OW19816   1.145   1.676  14.567  0.2586  0.7849 -0.2415
 2727SOL    HW119817   1.066   1.646  14.521  1.1960 -1.3934 -0.4349
 2727SOL    HW219818   1.125   1.670  14.660  2.8487  0.9345  0.3177
 2728SOL     OW19819   2.952   3.023   0.790  0.3117  0.0683 -0.2256
 2728SOL    HW119820   2.914   3.030   0.878  0.5355  0.9517 -0.2038
 2728SOL    HW219821   2.908   3.100   0.753  0.3772 -1.6185 -3.7710
 2729SOL     OW19822   3.201   0.667   5.826 -0.3583 -0.2283  0.1553
 2729SOL    HW119823   3.277   0.639   5.775  1.0099  1.2486  1.3929
 2729SOL    HW219824   3.192   0.591   5.883  0.0832  0.4882  1.1793
 2730SOL     OW19825   0.691   3.031  16.635 -0.0665 -0.9196 -0.5848
 2730SOL    HW119826   0.683   2.971  16.709  3.5213 -1.2096 -0.4090
 2730SOL    HW219827   0.617   3.000  16.583 -0.4491  3.4425 -2.6579
 2731SOL     OW19828   2.310   2.450   5.594  0.0977  0.3572  0.0055
 2731SOL    HW119829   2.242   2.417   5.536 -0.7193  0.2986  0.9857
 2731SOL    HW219830   2.398   2.431   5.562  0.0732 -1.7958  1.2075
 2732SOL     OW19831   4.560   0.898   4.475 -0.2900 -0.4794  0.5209
 2732SOL    HW119832   4.528   0.871   4.562  0.3073 -1.1278  0.5369
 2732SOL    HW219833   4.624   0.832   4.450  0.0992 -0.4039  1.3148
 2733SOL     OW19834   1.124   3.233  15.502 -0.3692  0.7673 -0.0244
 2733SOL    HW119835   1.199   3.292  15.497  0.6367 -0.3410  2.2955
 2733SOL    HW219836   1.092   3.257  15.589 -1.8854 -1.2198 -0.0516
 2734SOL     OW19837   1.650   1.311   2.527  0.3087 -0.6338  0.3738
 2734SOL    HW119838   1.598   1.288   2.604 -0.4367 -2.8907 -0.7974
 2734SOL    HW219839   1.593   1.281   2.457 -0.2201  0.2711  0.4243
 2735SOL     OW19840   2.194   4.344   0.172 -0.1243 -0.7752 -0.2936
 2735SOL    HW119841   2.257   4.306   0.233  1.4021  2.7646  0.3391
 2735SOL    HW219842   2.109   4.323   0.209 -0.5436 -1.8976 -1.8880
 2736SOL     OW19843   1.914   3.989  12.116  0.1892 -0.6419  0.6392
 2736SOL    HW119844   1.974   4.057  12.085 -1.6075  1.1963  1.1681
 2736SOL    HW219845   1.840   4.042  12.085 -0.0819 -0.9235  0.8062
 2737SOL     OW19846   2.984   2.893   7.200 -0.0950 -0.1117 -0.5299
 2737SOL    HW119847   3.035   2.951   7.256  0.2266 -1.9353  1.0665
 2737SOL    HW219848   2.980   2.944   7.118 -1.0853 -0.0075 -0.4160
 2738SOL     OW19849   4.398   4.254   1.700  0.1390 -0.2187  0.1675
 2738SOL    HW119850   4.321   4.250   1.643  2.4042 -0.3754 -2.8755
 2738SOL    HW219851   4.450   4.178   1.673  1.4254  0.4412  0.7770
 2739SOL     OW19852   0.490   0.326   7.773  0.4146 -0.2071 -0.0982
 2739SOL    HW119853   0.430   0.334   7.698  0.7779 -1.7088 -0.5404
 2739SOL    HW219854   0.429   0.335   7.846  0.7789 -0.6491  0.2577
 2740SOL     OW19855   0.404   0.655  10.314 -0.4902 -0.3840 -0.1533
 2740SOL    HW119856   0.380   0.592  10.246  0.4568 -1.4747  0.5311
 2740SOL    HW219857   0.498   0.658  10.299 -0.3809  1.1678  0.8110
 2741SOL     OW19858   0.540   3.277   5.730 -0.1760 -0.1174  0.2612
 2741SOL    HW119859   0.517   3.278   5.823 -0.3032  0.8517  0.2185
 2741SOL    HW219860   0.610   3.342   5.720 -0.1654 -0.4380 -1.8409
 2742SOL     OW19861   3.906   3.524   2.746 -0.7448 -0.2831 -0.6285
 2742SOL    HW119862   3.922   3.442   2.792  0.9690  1.1364  1.3142
 2742SOL    HW219863   3.845   3.503   2.675 -0.4405  2.3288 -1.6526
 2743SOL     OW19864   4.611   1.329   0.614 -0.1050 -0.1177 -0.8618
 2743SOL    HW119865   4.608   1.418   0.578 -1.6739  0.6307  1.0676
 2743SOL    HW219866   4.568   1.341   0.699  1.3169  0.8603 -0.2797
 2744SOL     OW19867   2.268   3.066  12.653 -0.4025  0.0446  0.2520
 2744SOL    HW119868   2.359   3.037  12.651 -0.3098  0.2823  0.8789
 2744SOL    HW219869   2.239   3.033  12.738  1.4214  1.5821  1.4597
 2745SOL     OW19870   3.015   0.316   1.649  0.1038  0.1268 -0.1297
 2745SOL    HW119871   3.039   0.409   1.649  1.8852 -0.3300  0.1246
 2745SOL    HW219872   3.052   0.285   1.732 -0.6745  1.9089  0.8906
 2746SOL     OW19873   0.671   4.334   2.270  0.3330  0.3731 -0.3703
 2746SOL    HW119874   0.750   4.379   2.239 -0.1728  1.6069  0.1373
 2746SOL    HW219875   0.683   4.335   2.365  1.0263 -0.8271 -0.4444
 2747SOL     OW19876   2.067   0.735   7.455  0.0995  0.2474  0.4491
 2747SOL    HW119877   2.080   0.664   7.391  0.2779 -0.9860  1.8484
 2747SOL    HW219878   2.152   0.728   7.498  1.8587  1.6531 -2.8550
 2748SOL     OW19879   0.562   4.007   6.869  0.1446 -0.2750 -0.1618
 2748SOL    HW119880   0.641   4.057   6.849  0.7073 -1.3268 -0.5633
 2748SOL    HW219881   0.607   3.961   6.940  1.1870 -1.1108 -1.3769
 2749SOL     OW19882   0.022   3.538   2.464 -0.5353  0.0876  0.2672
 2749SOL    HW119883   0.039   3.606   2.399 -0.4500 -1.9545 -1.8556
 2749SOL    HW219884   4.668   3.553   2.477 -0.6267  1.1514 -1.7072
 2750SOL     OW19885   2.903   2.515   5.245 -0.4513 -0.3833  0.5703
 2750SOL    HW119886   2.858   2.455   5.304  0.9747 -1.2162  0.8030
 2750SOL    HW219887   2.989   2.477   5.261 -0.2799  0.0063  0.5918
 2751SOL     OW19888   0.745   3.686   9.709 -0.3263 -0.1872 -0.3898
 2751SOL    HW119889   0.747   3.637   9.792 -0.6130 -0.3646 -0.4861
 2751SOL    HW219890   0.661   3.732   9.715  0.4436  1.1831 -0.1460
 2752SOL     OW19891   2.620   2.296   1.280 -0.1985 -0.4595  0.4102
 2752SOL    HW119892   2.599   2.243   1.357  0.6601 -1.0453  0.2349
 2752SOL    HW219893   2.716   2.297   1.281 -0.2019  0.7572  0.6674
 2753SOL     OW19894   2.643   0.563   0.481  0.0006  0.2180 -0.3034
 2753SOL    HW119895   2.732   0.542   0.508 -0.2386  0.6497  0.8331
 2753SOL    HW219896   2.621   0.491   0.423  0.6652  0.8284 -1.3108
 2754SOL     OW19897   3.488   1.305   3.818  0.6537 -0.1239 -0.3446
 2754SOL    HW119898   3.437   1.226   3.797 -0.7062  1.6609 -3.6904
 2754SOL    HW219899   3.480   1.363   3.743 -0.5440  1.8000  1.2831
 2755SOL     OW19900   3.759   3.560   5.823  0.1985 -0.4930  0.6286
 2755SOL    HW119901   3.838   3.528   5.865 -1.2434 -1.9700  2.2449
 2755SOL    HW219902   3.690   3.503   5.858 -1.1259  1.0474  0.5209
 2756SOL     OW19903   3.391   1.223   8.373  0.1090 -0.2775  0.0566
 2756SOL    HW119904   3.388   1.190   8.463 -0.1919 -2.2997 -0.6993
 2756SOL    HW219905   3.331   1.296   8.385 -0.9626 -1.3270  1.0711
 2757SOL     OW19906   3.808   4.523  11.289 -0.1476 -0.5275  0.5503
 2757SOL    HW119907   3.832   4.485  11.374 -1.8387  0.8382  1.6478
 2757SOL    HW219908   3.883   4.491  11.239 -0.5964  1.4575 -1.3667
 2758SOL     OW19909   1.989   2.727   4.213 -0.3596  0.3031 -0.1629
 2758SOL    HW119910   1.906   2.722   4.260 -0.6226 -0.2698 -0.6894
 2758SOL    HW219911   1.974   2.787   4.140 -2.1961  0.5429  0.3907
 2759SOL     OW19912   3.199   4.642   7.434  0.4944 -0.1060 -0.1906
 2759SOL    HW119913   3.152   4.679   7.509  1.8243  0.2703  0.4727
 2759SOL    HW219914   3.143   4.680   7.367 -0.0635  1.1844  1.0147
 2760SOL     OW19915   1.991   1.942  11.899  0.2123  0.8198 -0.4057
 2760SOL    HW119916   1.925   1.908  11.959  0.8285  0.0920 -0.1410
 2760SOL    HW219917   1.934   1.995  11.843 -0.4771  0.4659 -0.0325
 2761SOL     OW19918   1.264   1.488  12.127 -0.4314 -0.1558 -0.7852
 2761SOL    HW119919   1.249   1.394  12.123 -2.9451  0.2164 -0.5075
 2761SOL    HW219920   1.246   1.506  12.220  3.5779  0.1767 -0.0678
 2762SOL     OW19921   3.089   1.805   2.506 -0.1185 -0.0382  0.0066
 2762SOL    HW119922   3.084   1.759   2.590  0.6212 -0.7424 -0.3387
 2762SOL    HW219923   3.163   1.864   2.519  0.5774 -1.2124  1.3597
 2763SOL     OW19924   1.294   4.738   3.330 -0.0089 -0.0056 -0.7286
 2763SOL    HW119925   1.324   0.086   3.307 -0.4887  0.4284  0.2946
 2763SOL    HW219926   1.201   0.014   3.345 -0.0256 -1.3387  0.5380
 2764SOL     OW19927   1.898   2.742   7.854  0.2402 -0.1378 -0.3018
 2764SOL    HW119928   1.915   2.701   7.939  0.9185 -0.0096 -0.3781
 2764SOL    HW219929   1.956   2.818   7.862 -2.6335  1.9280  0.6046
 2765SOL     OW19930   4.014   3.876  17.087 -0.1649  0.3163  0.4898
 2765SOL    HW119931   4.051   3.889  17.174  0.3214 -0.1089  0.3512
 2765SOL    HW219932   4.029   3.782  17.077  1.0708  0.3500  1.9675
 2766SOL     OW19933   2.172   2.162   7.950 -0.5641 -0.2945  0.4064
 2766SOL    HW119934   2.242   2.228   7.948 -1.1874  0.3632  0.1785
 2766SOL    HW219935   2.097   2.219   7.966  1.2552  2.4914 -1.0581
 2767SOL     OW19936   1.137   1.251   4.373  0.1124 -0.5293  0.1926
 2767SOL    HW119937   1.213   1.200   4.402  0.5514  0.3051  0.4943
 2767SOL    HW219938   1.163   1.340   4.397  0.9216 -0.2997 -1.5428
 2768SOL     OW19939   3.565   0.391   6.892 -0.4427  0.0461  0.0508
 2768SOL    HW119940   3.586   0.448   6.818  0.1842 -1.6417 -1.0761
 2768SOL    HW219941   3.642   0.335   6.900  0.1854  0.9469  0.2253
 2769SOL     OW19942   1.350   3.065  11.798 -0.2491 -0.4034  0.5001
 2769SOL    HW119943   1.255   3.070  11.797 -0.0873  3.0901  1.5732
 2769SOL    HW219944   1.369   3.070  11.892 -0.9155 -0.9275  0.6604
 2770SOL     OW19945   4.428   3.672   8.373 -0.1116  0.1284 -0.1687
 2770SOL    HW119946   4.380   3.751   8.397  1.3429  0.6758  0.9547
 2770SOL    HW219947   4.503   3.705   8.423 -0.7830  0.1453  0.8277
 2771SOL     OW19948   2.764   3.848  14.869  0.3780  0.1353 -0.2373
 2771SOL    HW119949   2.717   3.832  14.787 -1.9319  1.4319  0.8308
 2771SOL    HW219950   2.745   3.940  14.888 -1.4445 -0.2151 -0.3278
 2772SOL     OW19951   3.047   4.688   5.032 -0.0265  0.6638 -0.0483
 2772SOL    HW119952   3.113   4.740   5.077  1.2391 -1.3331  0.3829
 2772SOL    HW219953   3.100   4.655   4.959  1.5332 -1.6495  2.1387
 2773SOL     OW19954   0.741   0.727   6.867  0.4279 -0.4408  0.0097
 2773SOL    HW119955   0.726   0.715   6.773 -0.6715  0.9784  0.0162
 2773SOL    HW219956   0.776   0.815   6.871  0.4522 -0.4090 -0.8997
 2774SOL     OW19957   2.082   2.395   6.425 -0.3325 -0.1608 -0.6181
 2774SOL    HW119958   2.057   2.391   6.518 -0.3018 -2.0628 -0.6897
 2774SOL    HW219959   2.065   2.304   6.401  1.0223 -0.7005  0.4392
 2775SOL     OW19960   1.578   2.349   0.368  0.4013  0.1267 -0.0021
 2775SOL    HW119961   1.524   2.383   0.297  1.3047 -0.6405 -1.0607
 2775SOL    HW219962   1.622   2.431   0.393 -2.4458  1.3950  0.8821
 2776SOL     OW19963   3.808   1.345   5.048  0.3284 -0.1463  0.3290
 2776SOL    HW119964   3.817   1.440   5.035  1.2359 -0.2604  0.1385
 2776SOL    HW219965   3.766   1.331   5.133  2.4397 -3.8217  0.7668
 2777SOL     OW19966   3.050   3.607   8.120 -0.5721  0.5368 -0.0007
 2777SOL    HW119967   3.127   3.646   8.161  0.5308 -2.8314  1.1556
 2777SOL    HW219968   3.049   3.530   8.177  2.3493  1.2344  1.0110
 2778SOL     OW19969   0.414   2.269   3.889  0.3678 -0.2193  0.4172
 2778SOL    HW119970   0.387   2.182   3.919 -0.3643  0.2791  1.1994
 2778SOL    HW219971   0.508   2.267   3.908  0.6345  0.7572 -0.8207
 2779SOL     OW19972   0.540   4.631   1.312  0.3506  0.3599  0.0384
 2779SOL    HW119973   0.587   4.619   1.229 -0.0168 -3.1329  0.3401
 2779SOL    HW219974   0.589   4.707   1.343  3.0446 -1.8717  1.3066
 2780SOL     OW19975   2.602   4.185   7.236  0.2218  0.3652 -0.3261
 2780SOL    HW119976   2.511   4.199   7.264  0.4644  1.0996  0.1077
 2780SOL    HW219977   2.597   4.242   7.159 -0.4517 -0.6430 -1.0347
 2781SOL     OW19978   0.884   0.685   9.889  0.4026  0.1682  0.6278
 2781SOL    HW119979   0.964   0.650   9.929  0.1243 -2.3434 -0.9435
 2781SOL    HW219980   0.914   0.699   9.799  0.4292 -0.9890  0.4541
 2782SOL     OW19981   3.091   3.225   8.817 -0.4250 -0.1763 -1.1673
 2782SOL    HW119982   3.133   3.165   8.755  0.6751 -1.9135  1.2738
 2782SOL    HW219983   3.025   3.267   8.762 -0.6808  0.6010 -0.2717
 2783SOL     OW19984   1.629   3.338   3.627  0.1883  0.1020 -0.8547
 2783SOL    HW119985   1.717   3.312   3.654 -0.4509 -1.7880 -0.6460
 2783SOL    HW219986   1.635   3.430   3.655 -0.0412 -0.2895  0.4425
 2784SOL     OW19987   1.375   4.614   5.115  0.7907 -0.0445 -0.2398
 2784SOL    HW119988   1.400   4.605   5.023  1.2118 -1.3692  0.0102
 2784SOL    HW219989   1.331   4.699   5.113  0.0929 -0.3334  2.8399
 2785SOL     OW19990   3.043   1.501   2.786 -0.5418 -0.4430 -0.0117
 2785SOL    HW119991   3.100   1.574   2.762 -2.9117  1.6231  0.6646
 2785SOL    HW219992   3.090   1.432   2.739  1.3402  0.7615  0.0977
 2786SOL     OW19993   2.350   0.611  16.865  0.2738 -0.3192  0.2882
 2786SOL    HW119994   2.379   0.644  16.950  0.3186  0.9632 -0.2172
 2786SOL    HW219995   2.399   0.533  16.839 -0.6429 -0.5302 -0.7931
 2787SOL     OW19996   2.060   4.068   9.229  0.0690 -0.1380 -0.2797
 2787SOL    HW119997   2.120   4.118   9.173  0.7630  0.1439  0.7297
 2787SOL    HW219998   2.116   3.991   9.239 -1.0344 -0.5399  2.6370
 2788SOL     OW19999   2.514   1.335   8.863  0.1263  0.4885 -0.1206
 2788SOL    HW120000   2.421   1.324   8.842 -0.3499  0.4020  2.0074
 2788SOL    HW220001   2.557   1.259   8.823  1.4753  0.5355  1.2616
 2789SOL     OW20002   0.796   0.237  16.968  0.4679  0.0730  0.4816
 2789SOL    HW120003   0.720   0.236  17.027 -0.3682 -2.1707 -0.6421
 2789SOL    HW220004   0.862   0.188  17.018  2.1853  0.6558 -1.2286
 2790SOL     OW20005   2.204   2.669  11.616  0.6043  0.0664  0.2852
 2790SOL    HW120006   2.265   2.732  11.655  1.0452 -0.4454  0.4117
 2790SOL    HW220007   2.260   2.598  11.584  0.4359 -0.1147  0.3953
 2791SOL     OW20008   2.293   3.497   6.380 -0.1724 -0.1184  0.1463
 2791SOL    HW120009   2.306   3.589   6.401 -1.4680 -0.3663  2.0663
 2791SOL    HW220010   2.349   3.454   6.444 -1.2452 -0.6130  0.7510
 2792SOL     OW20011   2.397   1.322   5.910  0.7998 -0.4543 -0.4307
 2792SOL    HW120012   2.412   1.346   5.819 -0.6764  1.8107 -0.0683
 2792SOL    HW220013   2.478   1.345   5.954 -1.3248  0.0401  3.2499
 2793SOL     OW20014   4.022   4.168   5.466  0.4547 -0.0415  0.0847
 2793SOL    HW120015   3.985   4.152   5.379  1.0978 -1.1288  0.0044
 2793SOL    HW220016   3.940   4.178   5.514 -1.1077 -0.7240 -2.4242
 2794SOL     OW20017   4.470   2.717   6.879  0.3447  0.1861  0.1411
 2794SOL    HW120018   4.443   2.739   6.968 -2.0338 -2.2929  0.0560
 2794SOL    HW220019   4.502   2.805   6.859  1.8497 -0.4405 -0.1639
 2795SOL     OW20020   0.078   3.040  10.160 -0.4414  0.0834 -0.7227
 2795SOL    HW120021   0.020   2.995  10.099 -1.0805  0.1914 -0.1884
 2795SOL    HW220022   0.151   3.040  10.098 -0.5033 -1.8433 -0.7953
 2796SOL     OW20023   4.178   3.874   7.184 -0.0697  0.5486  0.0756
 2796SOL    HW120024   4.202   3.936   7.115 -0.7879  0.8911  0.1290
 2796SOL    HW220025   4.113   3.924   7.234 -1.1540 -0.0606 -0.7173
 2797SOL     OW20026   2.887   3.289   0.811 -0.1625 -0.1874  0.1567
 2797SOL    HW120027   2.906   3.341   0.889  0.8584 -0.5950  0.1820
 2797SOL    HW220028   2.888   3.354   0.740 -1.3883 -0.6651 -0.2917
 2798SOL     OW20029   4.191   3.366   2.116 -0.6429 -0.2047 -0.5545
 2798SOL    HW120030   4.233   3.292   2.161 -0.6668 -0.4419 -0.9246
 2798SOL    HW220031   4.110   3.326   2.085 -1.8834  0.2341  2.1718
 2799SOL     OW20032   2.279   4.247   5.466 -0.1554  0.1387  0.3522
 2799SOL    HW120033   2.221   4.296   5.524  1.4188  2.7613 -0.2606
 2799SOL    HW220034   2.320   4.310   5.406  3.1917 -1.1351  1.2645
 2800SOL     OW20035   1.919   3.185  12.502 -0.2833 -0.2903  0.2372
 2800SOL    HW120036   1.961   3.178  12.416 -1.0977  0.2398 -0.1970
 2800SOL    HW220037   1.831   3.217  12.482 -1.0705 -2.2039  0.6385
 2801SOL     OW20038   4.051   2.293  15.997 -1.3228  0.2973 -0.3684
 2801SOL    HW120039   3.961   2.321  16.013 -1.5248 -0.4354 -0.2393
 2801SOL    HW220040   4.093   2.297  16.082  1.9985  2.7053 -2.1050
 2802SOL     OW20041   3.057   0.085   7.016 -0.0169  0.1698 -0.0420
 2802SOL    HW120042   2.967   0.060   7.038  0.3667  0.8717  2.3458
 2802SOL    HW220043   3.064   0.034   6.936 -1.5552 -0.0970 -0.0067
 2803SOL     OW20044   0.660   0.636   2.325 -0.2459  0.2137  0.1485
 2803SOL    HW120045   0.714   0.664   2.399  1.1774 -0.9371 -0.4552
 2803SOL    HW220046   0.637   0.723   2.293  0.2621 -1.3508 -4.3894
 2804SOL     OW20047   0.373   3.890   4.497 -0.5722  0.1676  0.6331
 2804SOL    HW120048   0.363   3.796   4.514  0.9094  0.1000  1.1841
 2804SOL    HW220049   0.359   3.902   4.403  2.7809 -0.3229  0.0562
 2805SOL     OW20050   3.090   2.104   5.237  0.1636  0.4102 -0.2233
 2805SOL    HW120051   2.997   2.087   5.250  0.5730  0.3167  2.6403
 2805SOL    HW220052   3.111   2.125   5.328 -1.6010 -3.1605  1.0221
 2806SOL     OW20053   0.071   0.721   5.607  0.0103 -0.3123 -0.0873
 2806SOL    HW120054   0.106   0.737   5.520 -1.8893 -2.2708 -1.2016
 2806SOL    HW220055   0.145   0.747   5.663  0.4865 -0.1442 -0.8027
 2807SOL     OW20056   3.647   3.876   0.231  0.5365  0.2067  0.4076
 2807SOL    HW120057   3.613   3.911   0.313 -1.1543  0.0467 -0.2369
 2807SOL    HW220058   3.576   3.813   0.214 -0.5831  0.8958  2.6085
 2808SOL     OW20059   2.121   4.376   1.455 -0.1712 -0.4457  0.2399
 2808SOL    HW120060   2.128   4.377   1.550 -0.1197  2.2329  0.2130
 2808SOL    HW220061   2.205   4.336   1.435  0.2731 -0.1314  1.5183
 2809SOL     OW20062   1.682   4.419   8.087 -0.1536  0.6069 -0.2609
 2809SOL    HW120063   1.665   4.466   8.006 -2.1124 -0.3992 -0.4409
 2809SOL    HW220064   1.712   4.343   8.036 -1.0857 -0.1546  0.3204
 2810SOL     OW20065   3.864   2.327  10.098 -0.5213  0.4800  0.5518
 2810SOL    HW120066   3.866   2.328  10.193  2.5951 -0.5607  0.4924
 2810SOL    HW220067   3.956   2.345  10.079 -0.4729  2.4113  2.6730
 2811SOL     OW20068   4.431   0.151   2.754  0.3020  0.2342  0.1027
 2811SOL    HW120069   4.337   0.137   2.746  0.2478  0.0762  1.0045
 2811SOL    HW220070   4.449   0.062   2.786  3.9120  0.3728 -1.5570
 2812SOL     OW20071   3.020   3.721  12.386  0.7581  0.3381  0.0820
 2812SOL    HW120072   2.930   3.751  12.377 -0.1880 -2.9949 -1.7003
 2812SOL    HW220073   3.023   3.689  12.477 -0.7448 -1.7141 -0.5915
 2813SOL     OW20074   0.425   1.472   7.187  0.5620 -0.1577  0.1682
 2813SOL    HW120075   0.352   1.516   7.231  0.7989  0.6021 -0.1945
 2813SOL    HW220076   0.499   1.492   7.245 -0.0645  0.8200  0.6261
 2814SOL     OW20077   3.369   2.946   3.536 -0.0337  0.2468 -0.3965
 2814SOL    HW120078   3.369   3.040   3.521  0.5328  0.4592  0.9146
 2814SOL    HW220079   3.429   2.909   3.472 -0.4011  0.4363 -0.8486
 2815SOL     OW20080   0.784   2.760   2.731 -0.1308 -0.4373 -0.3825
 2815SOL    HW120081   0.765   2.783   2.640  2.8620  1.8236 -0.4194
 2815SOL    HW220082   0.715   2.810   2.774  0.5275  1.5312 -1.6428
 2816SOL     OW20083   2.369   3.473   5.213 -0.0569  0.6224  0.3663
 2816SOL    HW120084   2.394   3.381   5.219  0.2484  0.7196  0.5898
 2816SOL    HW220085   2.289   3.477   5.265 -1.2694 -0.0637 -1.4489
 2817SOL     OW20086   0.809   2.066  16.802  0.1331  0.2789 -0.2081
 2817SOL    HW120087   0.856   2.055  16.719 -0.7615  0.3423 -0.7223
 2817SOL    HW220088   0.864   2.024  16.868  0.4114 -0.0123 -0.6249
 2818SOL     OW20089   1.049   0.642   4.591 -0.6347 -0.1543  0.5260
 2818SOL    HW120090   1.075   0.555   4.560  0.3359  1.0782 -2.1183
 2818SOL    HW220091   0.973   0.603   4.633 -1.9434  1.8094 -0.0297
 2819SOL     OW20092   1.326   4.585  17.391  0.1210 -0.4441 -0.2795
 2819SOL    HW120093   1.351   4.591  17.483  0.0785 -2.9354 -0.0965
 2819SOL    HW220094   1.295   4.674  17.374  1.4529  0.7856  3.6590
 2820SOL     OW20095   4.169   0.113   2.738  0.0523  0.0006 -0.7267
 2820SOL    HW120096   4.119   0.103   2.657 -0.0504  2.5072 -0.9798
 2820SOL    HW220097   4.166   0.029   2.783  0.2714  0.9196  1.0295
 2821SOL     OW20098   3.787   2.207   8.667 -0.0188 -0.3583 -0.1905
 2821SOL    HW120099   3.789   2.301   8.683  2.7095 -0.4581  0.0224
 2821SOL    HW220100   3.694   2.187   8.673 -0.3129  0.9421 -0.4342
 2822SOL     OW20101   4.444   1.260   8.250  0.5451  0.2439  0.2606
 2822SOL    HW120102   4.386   1.323   8.293  0.4322  0.8797 -0.8250
 2822SOL    HW220103   4.416   1.183   8.299 -0.0110 -0.5761 -1.3437
 2823SOL     OW20104   3.553   1.350   6.991 -0.6115 -0.1469  0.2395
 2823SOL    HW120105   3.528   1.379   6.904  0.4825  1.2929  0.4037
 2823SOL    HW220106   3.614   1.280   6.969 -1.8446 -1.6613  1.6530
 2824SOL     OW20107   4.550   4.190  11.898  0.1921 -0.1271 -0.6489
 2824SOL    HW120108   4.626   4.191  11.840  2.0290  1.3228  1.7688
 2824SOL    HW220109   4.583   4.114  11.947 -1.8065 -0.0868  0.7462
 2825SOL     OW20110   4.067   2.527   0.284 -0.0749 -0.4074 -0.3221
 2825SOL    HW120111   4.068   2.454   0.346  0.4466  0.5674  0.8295
 2825SOL    HW220112   4.018   2.589   0.339  0.7623  1.7131 -1.9770
 2826SOL     OW20113   1.421   0.692   7.545  0.4607 -0.1858  0.2340
 2826SOL    HW120114   1.496   0.751   7.553 -0.4950  1.0588  0.0905
 2826SOL    HW220115   1.450   0.627   7.608  2.1361  0.3934  0.0498
 2827SOL     OW20116   2.683   1.102   3.611  0.5654 -0.1479 -0.3822
 2827SOL    HW120117   2.609   1.073   3.557 -1.3490  1.2663  1.4771
 2827SOL    HW220118   2.722   1.016   3.628 -3.0031 -1.7065  0.0410
 2828SOL     OW20119   1.934   2.820   0.641 -0.2332  0.2707 -0.0577
 2828SOL    HW120120   2.006   2.783   0.693  0.6102  2.6656  0.4525
 2828SOL    HW220121   1.942   2.763   0.564 -0.0508 -0.3797  0.4424
 2829SOL     OW20122   0.062   1.293   7.525 -0.0261  0.2056  0.8329
 2829SOL    HW120123   0.004   1.245   7.584  2.3256  0.4304  3.3307
 2829SOL    HW220124   4.724   1.328   7.481  0.8773  0.5390 -0.5014
 2830SOL     OW20125   0.062   1.517   2.236  0.3455 -0.2066 -0.2261
 2830SOL    HW120126   0.112   1.437   2.251  0.0785 -0.6403 -1.6495
 2830SOL    HW220127   0.101   1.574   2.302 -0.0882 -2.1217  1.6729
 2831SOL     OW20128   1.600   3.807  16.249  0.3220  0.2427  0.2216
 2831SOL    HW120129   1.673   3.869  16.254  0.8415 -0.4333  1.0969
 2831SOL    HW220130   1.565   3.817  16.161 -2.4065 -0.0658  1.2768
 2832SOL     OW20131   1.644   3.367   8.683  0.3887  0.4244 -0.6041
 2832SOL    HW120132   1.622   3.455   8.711  0.8312  0.6112 -0.8348
 2832SOL    HW220133   1.706   3.385   8.612  0.9775 -0.9427 -0.4470
 2833SOL     OW20134   3.635   0.477   2.084  0.0443  0.1802  0.1114
 2833SOL    HW120135   3.662   0.453   2.173 -0.9065 -0.1040  0.3273
 2833SOL    HW220136   3.662   0.396   2.041  2.9283  0.6517  1.0479
 2834SOL     OW20137   1.704   1.715   8.529 -0.3682  0.2828  0.2660
 2834SOL    HW120138   1.674   1.756   8.610  1.7391  2.5550 -0.0944
 2834SOL    HW220139   1.799   1.729   8.527 -0.3788  0.2913 -0.1684
 2835SOL     OW20140   4.057   0.153   2.353  0.2423  0.2753 -0.5761
 2835SOL    HW120141   4.132   0.182   2.406  0.2640  0.5853 -0.7761
 2835SOL    HW220142   4.073   0.059   2.362  1.7770  0.4757 -1.2055
 2836SOL     OW20143   3.695   0.695   8.916 -0.1856 -0.4645  0.3663
 2836SOL    HW120144   3.692   0.758   8.845 -3.6402 -0.9528  0.0977
 2836SOL    HW220145   3.677   0.758   8.986  4.2968  1.0685  0.1846
 2837SOL     OW20146   3.472   3.380   8.975  0.0620 -0.1736  0.1848
 2837SOL    HW120147   3.527   3.456   8.996 -0.3970 -0.4962  2.4808
 2837SOL    HW220148   3.426   3.427   8.906 -0.3450 -0.2696  0.3888
 2838SOL     OW20149   2.168   3.827   2.617 -0.0495 -0.3228  0.7760
 2838SOL    HW120150   2.174   3.763   2.546  1.1253  0.0647  0.5152
 2838SOL    HW220151   2.076   3.848   2.606 -0.0767 -0.4812  0.7008
 2839SOL     OW20152   0.154   1.043  10.022  0.6289  0.2585 -0.1766
 2839SOL    HW120153   0.230   1.068  10.074  0.8231  0.0093 -0.3370
 2839SOL    HW220154   0.102   1.000  10.089  1.0285 -0.1043 -0.0991
 2840SOL     OW20155   3.777   0.582   7.225  0.0265  0.4813  0.1984
 2840SOL    HW120156   3.713   0.524   7.266  1.7233 -1.4888  0.0502
 2840SOL    HW220157   3.724   0.645   7.177 -1.7724 -1.7205 -0.7135
 2841SOL     OW20158   2.718   4.595   7.907 -0.0042 -0.1890 -0.5093
 2841SOL    HW120159   2.798   4.626   7.950 -0.4067  1.0282 -0.6353
 2841SOL    HW220160   2.704   4.672   7.852 -0.8266 -0.4254 -0.6288
 2842SOL     OW20161   4.339   2.631   2.791  0.3230 -0.7315 -0.0099
 2842SOL    HW120162   4.261   2.677   2.821 -0.1505 -2.9097  2.0501
 2842SOL    HW220163   4.310   2.543   2.768  0.5589 -1.4583  2.5253
 2843SOL     OW20164   0.303   2.782   6.727 -0.2996  0.1665  0.3921
 2843SOL    HW120165   0.324   2.844   6.797  0.0966  1.2290 -0.6762
 2843SOL    HW220166   0.372   2.717   6.727 -0.3297  0.1464 -1.8043
 2844SOL     OW20167   0.131   1.777   2.689  0.1361 -0.3012  0.2260
 2844SOL    HW120168   0.146   1.753   2.780 -0.8946  0.4222  0.5824
 2844SOL    HW220169   0.119   1.872   2.695 -0.1656 -0.2619 -1.0521
 2845SOL     OW20170   0.072   1.039  14.126 -0.4220 -0.0153  0.3001
 2845SOL    HW120171   0.097   1.131  14.135 -1.2618  0.1665  0.7319
 2845SOL    HW220172   0.049   1.018  14.217 -1.7973  0.1387 -0.0104
 2846SOL     OW20173   2.513   4.254   8.403  0.2281  0.1344 -0.8645
 2846SOL    HW120174   2.431   4.301   8.419 -1.4760 -2.2583 -2.4772
 2846SOL    HW220175   2.491   4.161   8.412  1.3096  0.0491  0.8031
 2847SOL     OW20176   1.102   2.066  11.703  0.1742 -0.5348  0.6741
 2847SOL    HW120177   1.025   2.120  11.687  0.3921  0.2410  2.3152
 2847SOL    HW220178   1.119   2.038  11.613 -0.5890  0.8155  0.0993
 2848SOL     OW20179   1.774   3.505   5.686  0.2976  0.3139 -0.1489
 2848SOL    HW120180   1.822   3.577   5.647 -1.8007  2.1329  0.5751
 2848SOL    HW220181   1.725   3.466   5.614  0.2752  1.9301 -1.0085
 2849SOL     OW20182   3.496   1.631   6.331  0.7005  0.1707 -0.5825
 2849SOL    HW120183   3.553   1.707   6.341 -1.0631  1.3733  0.2891
 2849SOL    HW220184   3.411   1.673   6.343  0.7936  0.3805 -0.6681
 2850SOL     OW20185   0.156   4.520  15.030  0.2403 -1.1195 -0.0864
 2850SOL    HW120186   0.077   4.492  14.982 -0.8066  1.3702  0.2211
 2850SOL    HW220187   0.185   4.583  14.965 -0.9604  0.1141  0.5825
 2851SOL     OW20188   3.021   0.201   4.484  0.4455 -0.3158  0.2007
 2851SOL    HW120189   3.037   0.287   4.445  1.1285  0.1021  1.4275
 2851SOL    HW220190   2.950   0.167   4.429  0.2071  0.1360  0.2312
 2852SOL     OW20191   0.451   2.871  13.301  0.0188  0.3843 -0.5562
 2852SOL    HW120192   0.490   2.953  13.270  1.7778 -0.7582 -1.4042
 2852SOL    HW220193   0.369   2.907  13.334 -0.9520 -2.4157  0.0824
 2853SOL     OW20194   4.242   0.636   0.448 -0.1943 -0.2639  0.5754
 2853SOL    HW120195   4.221   0.636   0.355 -1.3030  0.1948  0.8147
 2853SOL    HW220196   4.265   0.545   0.468  0.8113 -0.3446 -0.9679
 2854SOL     OW20197   4.325   0.671   4.628  0.3648 -0.0611  0.4634
 2854SOL    HW120198   4.234   0.677   4.656 -0.0653 -0.3619 -0.8709
 2854SOL    HW220199   4.362   0.752   4.664  1.9291 -0.5844  0.0334
 2855SOL     OW20200   4.095   0.257  16.098  0.3101 -0.3374  0.8150
 2855SOL    HW120201   4.141   0.339  16.079 -0.2888  0.7881  4.2289
 2855SOL    HW220202   4.121   0.213  16.017  0.0835  0.8848  0.0816
 2856SOL     OW20203   1.596   3.981   2.035 -0.2095 -0.3439 -0.2804
 2856SOL    HW120204   1.647   4.055   2.069 -1.8915  0.7723 -0.1827
 2856SOL    HW220205   1.600   3.996   1.941 -0.0406 -1.2219 -0.4158
 2857SOL     OW20206   4.065   2.738   3.627  0.3862  0.2117 -0.3612
 2857SOL    HW120207   4.074   2.829   3.599  0.8442 -0.4044 -2.1982
 2857SOL    HW220208   4.141   2.698   3.584 -0.4626 -2.8655  0.9499
 2858SOL     OW20209   0.935   1.115   2.826  0.5613 -0.0709  0.7116
 2858SOL    HW120210   0.907   1.189   2.771  2.2314 -0.9535 -1.3354
 2858SOL    HW220211   0.963   1.054   2.757  1.3662  1.6594 -0.4853
 2859SOL     OW20212   1.849   1.202   4.643 -0.1654  0.3984  0.1117
 2859SOL    HW120213   1.865   1.286   4.599  1.6165 -0.6707 -1.2896
 2859SOL    HW220214   1.769   1.227   4.689  0.9554  1.4470  1.4964
 2860SOL     OW20215   3.928   0.812   6.862 -0.4078 -0.0543  0.0573
 2860SOL    HW120216   3.876   0.845   6.788 -1.0349  0.5830  0.7833
 2860SOL    HW220217   3.914   0.719   6.849  1.6428 -0.3660  0.0758
 2861SOL     OW20218   4.366   3.989   5.903 -0.4666 -0.3628  0.3152
 2861SOL    HW120219   4.286   3.952   5.865  1.1970 -0.8344 -2.6976
 2861SOL    HW220220   4.383   3.929   5.976  2.5231 -0.0892 -0.1597
 2862SOL     OW20221   3.250   4.164   8.434 -0.3505  0.1281 -0.3264
 2862SOL    HW120222   3.231   4.165   8.528 -0.0738 -1.3003 -0.2458
 2862SOL    HW220223   3.309   4.089   8.428 -0.9515 -0.4883  1.5672
 2863SOL     OW20224   2.111   1.646  14.299 -0.1586 -0.3377 -0.4257
 2863SOL    HW120225   2.194   1.649  14.250  0.0817  0.4929  0.0342
 2863SOL    HW220226   2.055   1.696  14.240  0.4573 -0.4571 -1.1154
 2864SOL     OW20227   0.859   3.693   7.983  0.2706 -0.4820 -0.3912
 2864SOL    HW120228   0.884   3.676   8.074 -0.1752  0.5391 -0.0757
 2864SOL    HW220229   0.890   3.782   7.970 -1.9336  0.6204  1.7353
 2865SOL     OW20230   1.347   4.221  15.178 -0.3015  0.7952 -0.1260
 2865SOL    HW120231   1.438   4.213  15.150 -1.3099  0.2281 -3.2899
 2865SOL    HW220232   1.342   4.317  15.172  0.1571  0.7207 -1.7176
 2866SOL     OW20233   2.760   2.186  15.712  0.5835  0.5002  0.3189
 2866SOL    HW120234   2.783   2.221  15.798 -1.2807  2.8282 -0.1326
 2866SOL    HW220235   2.839   2.136  15.694 -0.5510 -0.3559 -2.2680
 2867SOL     OW20236   0.775   0.803   5.536 -0.2274 -1.1550 -0.6159
 2867SOL    HW120237   0.775   0.841   5.448 -3.7265 -0.4278 -0.2995
 2867SOL    HW220238   0.868   0.797   5.559 -0.8014  0.0325  2.0592
 2868SOL     OW20239   2.763   2.501   6.753 -0.1413 -0.6530 -0.0415
 2868SOL    HW120240   2.701   2.436   6.787 -1.2081  2.3488  3.8255
 2868SOL    HW220241   2.769   2.568   6.821  0.3657 -1.5777  0.8254
 2869SOL     OW20242   0.234   2.388  14.164 -0.3723 -0.0795  0.3253
 2869SOL    HW120243   0.271   2.430  14.242  0.1993  1.1433 -0.6055
 2869SOL    HW220244   0.155   2.441  14.164 -0.6723 -0.5292  1.3845
 2870SOL     OW20245   3.131   0.461   6.673  0.0611 -0.2651  0.2056
 2870SOL    HW120246   3.113   0.420   6.588 -1.4750  0.0132  0.4050
 2870SOL    HW220247   3.218   0.429   6.696  0.6929  1.7407  0.5905
 2871SOL     OW20248   2.456   3.438   3.526 -0.0967 -0.1550 -0.4273
 2871SOL    HW120249   2.434   3.372   3.592 -2.0281  1.3425  0.4383
 2871SOL    HW220250   2.437   3.395   3.443  1.7861  0.2627 -1.0905
 2872SOL     OW20251   4.181   0.568   5.445 -0.5541  0.9352  0.6145
 2872SOL    HW120252   4.235   0.647   5.438  1.3902 -0.6493 -2.5060
 2872SOL    HW220253   4.202   0.527   5.528 -0.6846  0.0475  0.2048
 2873SOL     OW20254   1.627   3.170   0.755 -0.5221  0.1001  0.0351
 2873SOL    HW120255   1.533   3.172   0.777 -0.8073  3.8110 -1.4817
 2873SOL    HW220256   1.630   3.110   0.681 -2.1970 -2.7510  2.2877
 2874SOL     OW20257   1.746   2.657   7.645  0.4085  0.1509  0.3002
 2874SOL    HW120258   1.727   2.747   7.618 -0.4771  0.2830  1.3433
 2874SOL    HW220259   1.826   2.679   7.692  1.0516  0.2613 -0.8460
 2875SOL     OW20260   3.917   4.453   4.286  0.3929  0.5272  0.2513
 2875SOL    HW120261   3.948   4.431   4.373  0.1846  0.0533  0.2069
 2875SOL    HW220262   3.851   4.383   4.280  1.4701 -0.3396 -1.6443
 2876SOL     OW20263   4.166   4.114  13.830 -0.0492 -0.0777  0.2845
 2876SOL    HW120264   4.220   4.175  13.880  1.5898  0.2052 -1.8349
 2876SOL    HW220265   4.147   4.166  13.752  0.1723 -0.4509 -0.0143
 2877SOL     OW20266   2.034   3.748   7.247  0.0555  0.0529  0.3264
 2877SOL    HW120267   2.051   3.799   7.168 -1.9769  1.5663  0.8776
 2877SOL    HW220268   1.941   3.769   7.253 -0.0150 -0.3868  0.7743
 2878SOL     OW20269   2.086   2.275  12.920 -0.1577  0.5401 -0.0418
 2878SOL    HW120270   1.997   2.242  12.904 -0.4278  1.5930 -0.7465
 2878SOL    HW220271   2.125   2.277  12.832 -2.6495  1.0474 -1.1486
 2879SOL     OW20272   0.534   2.763  16.424 -0.5079  0.6132 -0.2183
 2879SOL    HW120273   0.504   2.843  16.467 -0.6662  1.0269 -1.1097
 2879SOL    HW220274   0.503   2.774  16.334  0.6287  2.7871 -0.3420
 2880SOL     OW20275   1.112   0.940   8.915  0.1758 -0.2114 -0.3561
 2880SOL    HW120276   1.146   1.024   8.882 -0.1061  0.1887  0.3733
 2880SOL    HW220277   1.118   0.956   9.009 -1.9370  0.6893 -0.3799
 2881SOL     OW20278   4.473   1.107   4.917  0.1118 -0.5278  0.1177
 2881SOL    HW120279   4.499   1.093   5.008 -0.4974  0.3068  0.4250
 2881SOL    HW220280   4.553   1.148   4.884 -0.2635  1.0308  1.1430
 2882SOL     OW20281   3.512   1.748   4.362 -0.3809  0.2694  0.1664
 2882SOL    HW120282   3.469   1.673   4.321  0.2444  0.7948 -1.4426
 2882SOL    HW220283   3.532   1.799   4.284 -2.6414  0.7315 -0.1229
 2883SOL     OW20284   0.823   1.856   4.175 -0.0781 -0.9954  0.2722
 2883SOL    HW120285   0.769   1.895   4.243  0.6000 -1.8675  1.2994
 2883SOL    HW220286   0.892   1.923   4.172 -2.1958  1.1338 -1.6898
 2884SOL     OW20287   2.708   1.127  17.339 -0.4394 -0.0991  0.2544
 2884SOL    HW120288   2.737   1.037  17.322  0.5033 -0.0122  1.4185
 2884SOL    HW220289   2.665   1.106  17.422 -0.1680  1.4947  0.7980
 2885SOL     OW20290   3.004   4.083  12.451 -0.4287  0.3259  0.2854
 2885SOL    HW120291   2.928   4.096  12.394 -0.2173 -0.3255 -0.1464
 2885SOL    HW220292   3.004   4.167  12.498  1.6783  0.6362 -0.2712
 2886SOL     OW20293   0.126   1.033   7.457  0.1684  0.0160  0.0491
 2886SOL    HW120294   0.046   1.013   7.408  0.9824  0.4080 -1.4048
 2886SOL    HW220295   0.107   1.126   7.466  0.9398  0.1088  0.6623
 2887SOL     OW20296   1.014   2.327   4.522  0.2480 -0.1004 -0.1900
 2887SOL    HW120297   0.935   2.312   4.575  0.6879  0.1662  0.5502
 2887SOL    HW220298   0.975   2.326   4.435 -1.6993 -1.1250  0.6968
 2888SOL     OW20299   0.313   0.978   2.980  0.1810 -0.2755 -0.3709
 2888SOL    HW120300   0.394   1.007   3.022 -0.1439 -0.4745  0.3899
 2888SOL    HW220301   0.294   0.916   3.050  0.7835  0.7916  0.7307
 2889SOL     OW20302   1.314   3.771  13.259  0.0021  0.4462  0.3971
 2889SOL    HW120303   1.308   3.865  13.275 -0.3483  0.0997  2.3281
 2889SOL    HW220304   1.243   3.730  13.308  0.3941 -0.3266  0.3364
 2890SOL     OW20305   2.018   4.244   3.103  0.3363  0.2203  0.3449
 2890SOL    HW120306   1.936   4.233   3.151  0.6188 -0.4430  0.6719
 2890SOL    HW220307   2.043   4.152   3.103  0.5567  0.2783 -3.7129
 2891SOL     OW20308   1.368   3.152   5.040  0.0848 -0.5710 -0.1513
 2891SOL    HW120309   1.373   3.231   5.093 -1.3301 -0.0082 -0.8685
 2891SOL    HW220310   1.375   3.079   5.102  1.9931  0.0601  0.3807
 2892SOL     OW20311   4.293   2.992   8.102 -0.0263 -0.0491 -0.3074
 2892SOL    HW120312   4.385   2.976   8.125  0.2413  0.5923 -0.9086
 2892SOL    HW220313   4.254   2.911   8.134 -1.3708 -0.1994 -2.3219
 2893SOL     OW20314   2.813   1.023  13.505 -0.2531  0.0829 -0.3266
 2893SOL    HW120315   2.772   0.948  13.462 -0.8442  0.4633 -0.4267
 2893SOL    HW220316   2.746   1.043  13.571 -0.0705  0.4411 -0.2529
 2894SOL     OW20317   0.417   4.694   1.932 -0.4111  0.2621  0.2647
 2894SOL    HW120318   0.481   0.019   1.961  0.5823  0.6551 -2.8336
 2894SOL    HW220319   0.348   4.721   1.992  0.1607  0.1277  0.9906
 2895SOL     OW20320   0.328   4.413   0.561  0.3589 -0.1909  0.4110
 2895SOL    HW120321   0.308   4.354   0.489 -2.3331 -0.0780  1.0464
 2895SOL    HW220322   0.412   4.379   0.592 -0.0669 -0.6035  1.1165
 2896SOL     OW20323   4.302   2.423  13.746 -0.5762 -0.9452  0.2341
 2896SOL    HW120324   4.300   2.361  13.818 -2.8956 -0.9519  0.1626
 2896SOL    HW220325   4.225   2.472  13.774  0.9500  2.0135 -0.6985
 2897SOL     OW20326   2.099   0.267   2.302 -0.3294  0.3818 -0.4593
 2897SOL    HW120327   2.028   0.204   2.314  1.1775 -1.3937 -0.6841
 2897SOL    HW220328   2.105   0.314   2.385 -1.0305 -0.9363  0.3451
 2898SOL     OW20329   0.828   4.109   6.798 -0.4145 -0.6364  0.6955
 2898SOL    HW120330   0.834   4.174   6.868 -0.3550  0.7711 -0.6200
 2898SOL    HW220331   0.915   4.070   6.807 -0.3015 -0.8264 -1.2417
 2899SOL     OW20332   2.587   0.383   2.292  0.7034 -0.0334  0.0076
 2899SOL    HW120333   2.507   0.334   2.274 -0.4659  2.1863 -0.8161
 2899SOL    HW220334   2.631   0.350   2.213  0.2609  0.1828 -0.3314
 2900SOL     OW20335   0.414   0.807   7.069  0.7355  0.0795  0.3450
 2900SOL    HW120336   0.449   0.875   7.126  2.2953 -0.8290  0.4727
 2900SOL    HW220337   0.419   0.848   6.982 -1.1029  0.2834  0.3302
 2901SOL     OW20338   2.152   2.041   9.697  0.5624  0.0377 -0.0572
 2901SOL    HW120339   2.107   2.098   9.759 -0.1337 -0.8780  0.2771
 2901SOL    HW220340   2.186   1.980   9.762 -1.2198 -0.7547  0.1304
 2902SOL     OW20341   4.303   2.600   4.443 -0.2182  0.3943  0.2265
 2902SOL    HW120342   4.378   2.653   4.417 -1.8192  1.4045 -2.3794
 2902SOL    HW220343   4.264   2.653   4.512 -0.9142  1.3213 -0.8682
 2903SOL     OW20344   1.886   1.629   5.860 -0.0092 -0.4505 -0.1338
 2903SOL    HW120345   1.969   1.582   5.852 -1.1817 -2.4412 -0.5638
 2903SOL    HW220346   1.831   1.552   5.871 -0.6169  0.2603  1.8354
 2904SOL     OW20347   3.725   0.938   3.128 -0.3941  0.4605 -0.2964
 2904SOL    HW120348   3.691   0.853   3.153  1.0405 -0.4267 -1.3869
 2904SOL    HW220349   3.801   0.921   3.072 -1.7742 -0.0748 -2.0238
 2905SOL     OW20350   4.551   3.051   6.647  0.0158 -0.1543 -0.1917
 2905SOL    HW120351   4.557   3.126   6.706 -1.3328 -1.0490  1.1048
 2905SOL    HW220352   4.455   3.050   6.640  0.0639  1.0252 -1.0824
 2906SOL     OW20353   3.229   4.642   5.943 -0.1509 -0.6023  0.9591
 2906SOL    HW120354   3.167   4.574   5.916 -1.0028  1.4459 -2.3793
 2906SOL    HW220355   3.201   4.712   5.883 -1.1355 -1.2529  0.6555
 2907SOL     OW20356   2.679   4.421   4.715 -0.4850  0.3089  0.0065
 2907SOL    HW120357   2.605   4.414   4.776  2.5389 -2.5499  3.4184
 2907SOL    HW220358   2.634   4.415   4.631 -0.1223 -0.5751 -0.1299
 2908SOL     OW20359   3.710   4.100   2.956  0.3725  0.4534  0.6863
 2908SOL    HW120360   3.686   4.154   3.032  1.4600  1.9276 -0.0223
 2908SOL    HW220361   3.806   4.091   2.961  0.1047 -2.6149  0.2722
 2909SOL     OW20362   4.313   4.431   3.392  0.2683 -0.2536  0.3478
 2909SOL    HW120363   4.238   4.373   3.406  0.1822 -0.6941 -1.9133
 2909SOL    HW220364   4.337   4.451   3.482 -1.1058 -0.5630  0.7805
 2910SOL     OW20365   4.121   1.787   9.569  0.0222 -0.4739 -0.1229
 2910SOL    HW120366   4.144   1.718   9.630  1.0006 -0.8092 -0.8702
 2910SOL    HW220367   4.065   1.850   9.615 -1.0684 -2.4942  1.3067
 2911SOL     OW20368   2.228   1.476   3.430  0.3045 -0.3303  0.1874
 2911SOL    HW120369   2.299   1.469   3.367  1.3908 -3.1554  1.7072
 2911SOL    HW220370   2.183   1.402   3.390 -0.0679  0.6808 -1.2495
 2912SOL     OW20371   2.976   2.512   6.594  0.0145  0.0438  0.3775
 2912SOL    HW120372   3.023   2.449   6.647 -0.7600 -0.0599  0.9354
 2912SOL    HW220373   2.894   2.515   6.643 -1.4451  0.5079 -2.0944
 2913SOL     OW20374   4.201   2.652   9.949  0.1298 -0.3237  0.3538
 2913SOL    HW120375   4.115   2.688   9.925  1.1917  0.8848 -1.6391
 2913SOL    HW220376   4.178   2.573   9.999 -0.1849  0.0390  0.7818
 2914SOL     OW20377   2.967   4.127   7.270  0.1602  0.1821 -0.0161
 2914SOL    HW120378   3.016   4.147   7.350 -0.7797 -3.7939  1.5693
 2914SOL    HW220379   2.880   4.155   7.299 -0.3866 -0.6298 -0.8467
 2915SOL     OW20380   4.482   3.581   3.167  0.2251 -0.5358  0.1183
 2915SOL    HW120381   4.505   3.564   3.259  2.7148 -0.9835 -0.5801
 2915SOL    HW220382   4.534   3.516   3.120 -0.6164 -2.5540  1.9812
 2916SOL     OW20383   2.323   3.145   6.077 -0.5436 -0.2839 -0.0906
 2916SOL    HW120384   2.397   3.113   6.025 -0.8649 -1.0810 -0.0564
 2916SOL    HW220385   2.360   3.222   6.121 -1.2136  0.2601 -0.4995
 2917SOL     OW20386   1.585   4.452  15.699 -0.2755 -0.0632 -0.3034
 2917SOL    HW120387   1.562   4.542  15.675 -1.8695  0.6543  3.7594
 2917SOL    HW220388   1.568   4.457  15.794  0.4519  0.1534 -0.1883
 2918SOL     OW20389   1.300   3.530  13.053 -0.3632  0.4754 -0.3925
 2918SOL    HW120390   1.376   3.475  13.072  1.5231  2.8740 -0.9764
 2918SOL    HW220391   1.299   3.602  13.116 -1.6482  0.9731 -1.0003
 2919SOL     OW20392   1.712   0.693  12.004  0.1404 -0.2483  0.2674
 2919SOL    HW120393   1.787   0.708  11.947 -0.3412 -1.0867 -0.5786
 2919SOL    HW220394   1.670   0.779  12.016 -0.6430 -0.6500  0.4322
 2920SOL     OW20395   0.438   4.010   7.580  0.4445  0.1160  0.5373
 2920SOL    HW120396   0.394   4.052   7.654 -2.3812  0.8907 -1.5918
 2920SOL    HW220397   0.444   3.922   7.619  0.1946 -0.0182  0.2714
 2921SOL     OW20398   0.394   1.094   1.112  0.0301 -0.6990 -0.2281
 2921SOL    HW120399   0.377   1.167   1.172  0.7158 -0.2756 -0.5473
 2921SOL    HW220400   0.488   1.084   1.125 -0.0887  1.4062  2.5374
 2922SOL     OW20401   1.862   3.844   2.962 -0.2179 -0.1461  0.1475
 2922SOL    HW120402   1.796   3.828   2.894 -0.0063 -0.9768  0.1298
 2922SOL    HW220403   1.928   3.780   2.936  1.4934  2.2938 -1.5166
 2923SOL     OW20404   0.966   4.137   9.724 -0.7103 -0.2495 -0.0755
 2923SOL    HW120405   0.992   4.208   9.783 -1.6314  0.4260 -0.4862
 2923SOL    HW220406   1.033   4.080   9.763 -1.3273 -0.4398  0.7125
 2924SOL     OW20407   1.143   0.622   3.315 -0.5527 -0.1218 -0.5439
 2924SOL    HW120408   1.174   0.710   3.337  0.9143 -1.3905  2.4846
 2924SOL    HW220409   1.203   0.605   3.241  0.0327 -1.1665  0.1594
 2925SOL     OW20410   0.780   4.387   9.031  0.3514  0.1306 -0.1952
 2925SOL    HW120411   0.712   4.410   9.094  0.5908  2.2517 -0.7165
 2925SOL    HW220412   0.726   4.372   8.954 -0.2047 -0.4290  0.3103
 2926SOL     OW20413   0.897   2.754   3.507  0.6894 -0.2823  0.1615
 2926SOL    HW120414   0.965   2.790   3.564 -1.3883  1.4659  1.5319
 2926SOL    HW220415   0.829   2.821   3.504  1.1699  0.0862 -2.1990
 2927SOL     OW20416   3.325   1.159   7.197 -0.3973 -0.0203 -0.0699
 2927SOL    HW120417   3.308   1.111   7.278  2.2110  0.9317  1.0125
 2927SOL    HW220418   3.281   1.244   7.205 -2.9349 -1.3908  0.3837
 2928SOL     OW20419   3.240   3.252  14.847  0.5563 -0.1008  0.2743
 2928SOL    HW120420   3.191   3.334  14.840 -0.0673 -0.3961  1.1296
 2928SOL    HW220421   3.172   3.188  14.828  1.7111 -1.2249 -0.0291
 2929SOL     OW20422   4.647   4.615  15.528  0.3085 -0.5961  0.0172
 2929SOL    HW120423   4.700   4.538  15.547 -0.7505 -1.2086  0.4451
 2929SOL    HW220424   4.566   4.581  15.566 -1.9136  1.7158 -2.6487
 2930SOL     OW20425   2.086   0.089   8.028 -0.1404  0.5117 -0.1999
 2930SOL    HW120426   2.020   0.156   8.046 -0.7701  0.0806 -0.8988
 2930SOL    HW220427   2.159   0.125   8.079 -0.8703  0.2576  1.0129
 2931SOL     OW20428   0.736   3.210  10.958  0.1328  0.4157  0.2852
 2931SOL    HW120429   0.820   3.252  10.976  0.7463  0.2121 -2.1896
 2931SOL    HW220430   0.683   3.285  10.987 -0.2357 -0.0612  0.8562
 2932SOL     OW20431   3.902   4.073   2.250 -0.2123 -0.2755 -0.0164
 2932SOL    HW120432   3.966   4.009   2.281 -0.0023  1.0625  2.3104
 2932SOL    HW220433   3.835   4.073   2.318  2.2100  1.5178  2.3680
 2933SOL     OW20434   2.445   2.670  16.402  0.5041  0.1327 -0.3521
 2933SOL    HW120435   2.353   2.657  16.425  1.0951 -1.5215  1.0059
 2933SOL    HW220436   2.473   2.750  16.447 -0.1925  0.0318  0.2670
 2934SOL     OW20437   2.268   0.626   1.788  0.1287 -0.3357  0.1815
 2934SOL    HW120438   2.359   0.645   1.811 -0.1844  1.2773  0.0849
 2934SOL    HW220439   2.270   0.535   1.759  1.0856  0.2896 -1.7502
 2935SOL     OW20440   1.818   0.486   4.396  0.5583  0.1008  0.1030
 2935SOL    HW120441   1.814   0.465   4.303  0.0756 -0.2681  0.2045
 2935SOL    HW220442   1.910   0.499   4.420  0.5804 -2.5066  1.5078
 2936SOL     OW20443   0.403   2.956   6.903 -0.5316  0.2692 -0.1995
 2936SOL    HW120444   0.458   3.029   6.872  0.5794 -0.5100 -0.0680
 2936SOL    HW220445   0.341   3.007   6.955  0.8012 -1.2939  2.8972
 2937SOL     OW20446   2.109   3.355  16.797  0.5855 -0.1747 -0.0641
 2937SOL    HW120447   2.016   3.345  16.775  1.2069 -1.6118 -2.0142
 2937SOL    HW220448   2.114   3.445  16.766 -1.5743  0.1588  0.5171
 2938SOL     OW20449   4.603   4.186  17.168  0.3350 -0.4096 -0.3559
 2938SOL    HW120450   4.578   4.234  17.088 -1.4690  0.7949  0.9242
 2938SOL    HW220451   4.544   4.232  17.227  0.6756 -0.6656  0.1792
 2939SOL     OW20452   1.587   4.577   5.569 -0.3237  0.0327 -0.0580
 2939SOL    HW120453   1.496   4.598   5.588  0.0228 -0.5298  2.2480
 2939SOL    HW220454   1.594   4.601   5.477 -2.1059  0.3482 -0.1143
 2940SOL     OW20455   2.588   0.610   9.101  0.3028  0.0499  0.2515
 2940SOL    HW120456   2.595   0.523   9.139 -4.7159 -0.9917 -1.1601
 2940SOL    HW220457   2.508   0.614   9.049  1.3420  0.4211 -1.2924
 2941SOL     OW20458   4.120   3.841   5.336  0.2955 -0.0099  0.4049
 2941SOL    HW120459   4.082   3.859   5.250 -0.7382  0.1953  0.9071
 2941SOL    HW220460   4.200   3.794   5.316  0.3976  0.3218  0.0256
 2942SOL     OW20461   4.084   2.130   8.344  0.3410  0.1969  0.7231
 2942SOL    HW120462   4.174   2.132   8.311  0.5364 -1.1144  1.1802
 2942SOL    HW220463   4.112   2.128   8.436  0.5772 -2.2948  0.5910
 2943SOL     OW20464   1.402   0.067   3.799 -0.4085 -0.2248 -0.2108
 2943SOL    HW120465   1.428   0.069   3.891  0.4615 -0.4437 -0.4524
 2943SOL    HW220466   1.338   0.138   3.805 -0.0783  0.0243  0.3466
 2944SOL     OW20467   0.080   3.449   6.322  0.1125  0.2548  0.5843
 2944SOL    HW120468   0.174   3.456   6.310  0.0288  0.0517 -0.1599
 2944SOL    HW220469   0.071   3.374   6.382 -0.8091  0.7005  1.0102
 2945SOL     OW20470   2.057   1.972   9.425 -0.6215 -0.1607 -0.6410
 2945SOL    HW120471   1.973   1.935   9.454 -1.2485  0.6144 -1.4706
 2945SOL    HW220472   2.091   2.004   9.509  0.1731  2.3484 -1.9253
 2946SOL     OW20473   3.567   2.718  11.602 -0.1645  0.0031  0.0144
 2946SOL    HW120474   3.472   2.722  11.590  0.1496 -1.3856 -2.8686
 2946SOL    HW220475   3.582   2.787  11.666  0.0620 -2.7567  2.9681
 2947SOL     OW20476   3.721   3.912   5.331  0.6658  0.4818 -0.5152
 2947SOL    HW120477   3.653   3.961   5.377  3.1948  1.8583  1.7448
 2947SOL    HW220478   3.673   3.856   5.269 -0.5809  0.9861  0.0008
 2948SOL     OW20479   1.557   2.576   4.240 -0.4950  0.8373 -0.7636
 2948SOL    HW120480   1.617   2.504   4.220 -1.5236  0.1251 -1.3129
 2948SOL    HW220481   1.517   2.557   4.325  1.8290  1.4783  0.4845
 2949SOL     OW20482   2.785   0.064   4.400  0.2886 -0.4031 -0.2306
 2949SOL    HW120483   2.750   4.723   4.363 -1.1303  0.1608 -0.1208
 2949SOL    HW220484   2.808   0.037   4.489 -1.7496 -1.8499 -0.1451
 2950SOL     OW20485   0.622   1.116   7.808 -0.8803  0.4857 -0.9657
 2950SOL    HW120486   0.573   1.073   7.878  1.3762  1.7970  1.4004
 2950SOL    HW220487   0.641   1.206   7.835 -0.0003 -0.4123  1.4087
 2951SOL     OW20488   2.839   2.836  14.216  0.1426  0.8995  0.3937
 2951SOL    HW120489   2.847   2.774  14.144 -2.1704 -1.6374  2.3125
 2951SOL    HW220490   2.777   2.794  14.276  1.1927 -1.5598 -0.2531
 2952SOL     OW20491   2.035   2.651  11.387 -0.4014 -0.1196  0.3693
 2952SOL    HW120492   2.088   2.583  11.346 -0.7941 -0.8817  1.1340
 2952SOL    HW220493   2.055   2.635  11.479 -0.9501 -0.4787  0.4220
 2953SOL     OW20494   4.101   3.591   5.792 -0.4486  0.3939  0.2944
 2953SOL    HW120495   4.074   3.523   5.729 -2.1510  4.2916 -3.1668
 2953SOL    HW220496   4.055   3.574   5.874  1.1856 -1.9291  0.7325
 2954SOL     OW20497   3.139   4.043   8.991 -0.1984 -0.7139 -0.1099
 2954SOL    HW120498   3.191   3.963   8.993  0.8507 -0.0325 -0.1893
 2954SOL    HW220499   3.052   4.004   8.981 -1.7754  2.6498  0.6444
 2955SOL     OW20500   4.297   2.443  15.235 -0.2685  0.1830  0.0524
 2955SOL    HW120501   4.313   2.349  15.235  0.6173  0.3300 -0.2224
 2955SOL    HW220502   4.277   2.451  15.142  1.3237 -1.1076 -0.4042
 2956SOL     OW20503   0.417   0.265   2.303  0.0073  0.1322 -0.3038
 2956SOL    HW120504   0.490   0.203   2.297  0.9239  1.1396  0.2514
 2956SOL    HW220505   0.383   0.234   2.387  2.1130  0.7615  0.7903
 2957SOL     OW20506   4.015   1.455   7.913 -0.4928  0.1623 -0.1481
 2957SOL    HW120507   3.986   1.524   7.973  0.8621 -0.3461  1.0757
 2957SOL    HW220508   4.085   1.510   7.878 -0.7978  1.0280  0.6251
 2958SOL     OW20509   4.116   1.203   5.196  0.2729 -0.0970 -0.7588
 2958SOL    HW120510   4.097   1.118   5.158 -1.3541 -0.2256  0.2884
 2958SOL    HW220511   4.026   1.232   5.213 -0.0463 -0.1794 -2.3785
 2959SOL     OW20512   1.900   2.916  17.282 -0.0436 -0.4102 -0.0866
 2959SOL    HW120513   1.891   2.822  17.299  0.2280 -0.4054  0.0908
 2959SOL    HW220514   1.850   2.956  17.353 -0.2602 -0.7245 -0.0638
 2960SOL     OW20515   4.706   4.443   2.142 -0.2755 -0.0926 -0.6455
 2960SOL    HW120516   0.050   4.421   2.100  1.5488 -0.6424  3.3542
 2960SOL    HW220517   4.695   4.378   2.211 -0.0017  2.6912  2.0022
 2961SOL     OW20518   1.562   0.569  13.752  0.0621  0.0633  0.0131
 2961SOL    HW120519   1.483   0.613  13.783  0.3079  1.1955 -0.9660
 2961SOL    HW220520   1.631   0.614  13.801 -0.3706  0.1886  0.5006
 2962SOL     OW20521   4.352   1.875   3.799  0.5434  0.1967  0.1033
 2962SOL    HW120522   4.405   1.806   3.760  1.3267  0.2464  1.0728
 2962SOL    HW220523   4.370   1.946   3.737 -1.3545  1.2697  0.7730
 2963SOL     OW20524   3.913   3.183   6.934 -0.3445 -0.4998  0.2214
 2963SOL    HW120525   3.945   3.248   6.997  2.7268 -1.3925 -0.4322
 2963SOL    HW220526   3.864   3.240   6.874  1.1754  1.3312  0.7113
 2964SOL     OW20527   4.326   3.091   9.831 -0.0972 -0.0899  0.6843
 2964SOL    HW120528   4.252   3.127   9.783  0.1922 -0.8144 -0.2984
 2964SOL    HW220529   4.323   3.001   9.800  0.1514  0.4602 -0.9005
 2965SOL     OW20530   3.678   1.167   6.519  0.8061 -0.3694 -0.4034
 2965SOL    HW120531   3.658   1.126   6.435 -2.6201  0.2050  0.1587
 2965SOL    HW220532   3.745   1.229   6.489  0.9594 -2.3636 -4.2076
 2966SOL     OW20533   0.648   4.359  17.361  0.4862  0.1235  1.4176
 2966SOL    HW120534   0.621   4.322  17.277 -1.0872  1.4829  1.3189
 2966SOL    HW220535   0.727   4.405  17.331  0.4836  0.1021  1.3777
 2967SOL     OW20536   3.580   3.749   3.854 -0.3549  0.0375  0.0679
 2967SOL    HW120537   3.646   3.680   3.851 -1.2895 -0.9005  1.0270
 2967SOL    HW220538   3.597   3.789   3.769  0.8305 -2.9249 -1.0766
 2968SOL     OW20539   1.329   0.062  13.225  0.4736  0.1856  0.1684
 2968SOL    HW120540   1.420   0.054  13.253 -0.1374 -1.4139  1.7338
 2968SOL    HW220541   1.291   0.092  13.307  0.0532  3.1558 -1.1292
 2969SOL     OW20542   2.881   2.696   3.197 -0.5047  0.0240  0.7356
 2969SOL    HW120543   2.819   2.766   3.178 -0.4228 -0.3869 -1.0062
 2969SOL    HW220544   2.959   2.741   3.228  0.4713 -0.7906 -0.5407
 2970SOL     OW20545   4.298   3.258   8.116  0.1178  0.0315  0.0315
 2970SOL    HW120546   4.289   3.166   8.091 -1.1063  0.0281  0.4493
 2970SOL    HW220547   4.361   3.256   8.188  1.2368 -2.6573 -1.0329
 2971SOL     OW20548   1.742   2.802   4.316 -0.4691  0.2462 -0.0391
 2971SOL    HW120549   1.683   2.730   4.291 -0.7061  0.0490  1.0511
 2971SOL    HW220550   1.708   2.808   4.406  1.4999  0.0828  0.7110
 2972SOL     OW20551   2.614   3.183  16.078  0.1316  0.0625  0.1352
 2972SOL    HW120552   2.601   3.275  16.057  0.7096  0.2115  0.4099
 2972SOL    HW220553   2.522   3.158  16.074  0.0733  0.4645 -0.8523
 2973SOL     OW20554   3.403   1.604   9.459 -0.7411 -0.6899 -0.4327
 2973SOL    HW120555   3.351   1.572   9.386 -2.5437  2.3346 -0.4791
 2973SOL    HW220556   3.407   1.697   9.438 -0.2403 -0.8721 -1.1285
 2974SOL     OW20557   0.287   0.507   2.344 -0.3687 -0.0026  0.0211
 2974SOL    HW120558   0.331   0.426   2.370  2.1574  1.4991  0.4159
 2974SOL    HW220559   0.313   0.570   2.411  0.2634  2.1135 -2.2121
 2975SOL     OW20560   1.877   3.367   3.770 -0.3061 -0.0109 -0.3428
 2975SOL    HW120561   1.855   3.459   3.786 -0.6102 -0.4912  2.1036
 2975SOL    HW220562   1.852   3.328   3.854  0.3762 -1.6340 -0.8896
 2976SOL     OW20563   2.093   0.598   2.785  0.2691  0.0424  0.9617
 2976SOL    HW120564   2.075   0.519   2.836 -0.3559 -1.2006 -1.1856
 2976SOL    HW220565   2.184   0.613   2.809  0.5837 -1.0167  0.4232
 2977SOL     OW20566   0.064   0.436   8.517  0.0074  0.0571 -0.3097
 2977SOL    HW120567   0.088   0.524   8.489  2.3156 -1.0195 -1.6663
 2977SOL    HW220568   0.088   0.388   8.438  0.2343 -0.2618 -0.0448
 2978SOL     OW20569   2.008   1.932  12.871  0.2819  0.5397  0.1553
 2978SOL    HW120570   2.049   1.976  12.796 -0.2832  0.3497 -0.2659
 2978SOL    HW220571   1.926   1.905  12.830  0.4674  1.0949 -0.6025
 2979SOL     OW20572   1.247   3.112   3.978  0.3823  0.0427 -0.3942
 2979SOL    HW120573   1.314   3.151   4.035 -1.4061  0.5520  1.3554
 2979SOL    HW220574   1.181   3.154   4.033  0.5443 -0.7892  0.4299
 2980SOL     OW20575   3.611   2.624   3.508  0.8973 -0.7180 -0.2365
 2980SOL    HW120576   3.608   2.718   3.491  1.7302 -0.7161 -0.3906
 2980SOL    HW220577   3.704   2.609   3.529  0.7462 -0.8151  0.3657
 2981SOL     OW20578   1.065   1.962  11.955 -0.3048  0.1764  0.1899
 2981SOL    HW120579   0.983   2.008  11.971  0.1441  0.7484  0.8487
 2981SOL    HW220580   1.086   2.001  11.870  1.8503  2.8762  1.9578
 2982SOL     OW20581   0.666   4.440   6.098  0.1442 -0.2660  0.3766
 2982SOL    HW120582   0.603   4.449   6.027 -1.0393  0.9808  1.5856
 2982SOL    HW220583   0.631   4.365   6.147 -1.0527 -0.2818 -0.4926
 2983SOL     OW20584   0.482   4.393   8.657 -0.7747  0.2184  0.1899
 2983SOL    HW120585   0.397   4.407   8.698 -1.5800  0.1258 -1.4348
 2983SOL    HW220586   0.503   4.483   8.632 -0.0902  0.5058  1.7986
 2984SOL     OW20587   2.602   3.091   2.865 -0.3310 -0.6470  0.7512
 2984SOL    HW120588   2.688   3.051   2.849 -0.6243 -0.5716 -0.9925
 2984SOL    HW220589   2.614   3.148   2.941 -1.4282 -0.5014  0.8156
 2985SOL     OW20590   2.435   3.364   6.599 -0.0712  0.1035 -0.4006
 2985SOL    HW120591   2.364   3.302   6.617 -1.6256  1.4413 -1.9354
 2985SOL    HW220592   2.458   3.383   6.690 -3.0969  1.2187  0.1174
 2986SOL     OW20593   1.475   1.649   0.713  0.0617 -0.3612 -0.3340
 2986SOL    HW120594   1.547   1.590   0.737 -0.6722 -0.6490  1.1801
 2986SOL    HW220595   1.517   1.733   0.734  1.1646 -1.6781  2.7231
 2987SOL     OW20596   2.274   1.334   8.750  0.1515 -0.0098  0.1211
 2987SOL    HW120597   2.265   1.427   8.770  0.1667 -0.6568  3.0384
 2987SOL    HW220598   2.181   1.313   8.744 -0.5372  2.7753  1.2417
 2988SOL     OW20599   2.003   0.316   0.739  0.3285 -0.0258 -0.0104
 2988SOL    HW120600   2.054   0.322   0.820 -0.6293  0.5158  0.5494
 2988SOL    HW220601   1.940   0.251   0.769  2.5260 -2.6943 -1.1286
 2989SOL     OW20602   3.903   0.289  17.587 -0.4343  0.0324 -0.5059
 2989SOL    HW120603   3.813   0.256  17.579  0.5297 -3.5372  2.9539
 2989SOL    HW220604   3.903   0.336  17.671 -0.4584 -0.4880 -0.2102
 2990SOL     OW20605   2.936   2.694  13.980  0.3108  0.4043  0.0885
 2990SOL    HW120606   2.882   2.619  14.006  0.9997 -0.4077 -0.8137
 2990SOL    HW220607   2.992   2.635  13.929  1.3762  2.4549 -1.1199
 2991SOL     OW20608   0.337   2.361   7.060 -0.1823 -0.2015 -0.1012
 2991SOL    HW120609   0.277   2.308   7.007  0.9324 -1.1913 -0.3988
 2991SOL    HW220610   0.341   2.301   7.134 -1.9008 -0.0054  0.1549
 2992SOL     OW20611   1.950   2.902   5.578  0.3136  0.4120 -0.0149
 2992SOL    HW120612   2.041   2.880   5.558 -0.0900 -1.7243  0.4502
 2992SOL    HW220613   1.906   2.876   5.497 -1.0035  2.4307  0.0619
 2993SOL     OW20614   3.978   1.158   2.209  0.8789 -0.1452  0.8479
 2993SOL    HW120615   4.028   1.239   2.209  0.5751  0.0351 -0.6119
 2993SOL    HW220616   3.885   1.179   2.222  0.1315 -3.3181  0.6868
 2994SOL     OW20617   0.151   0.364  17.153 -0.0353 -0.4288  0.6189
 2994SOL    HW120618   0.226   0.372  17.211 -0.0336  3.6874  0.0371
 2994SOL    HW220619   0.110   0.450  17.146  0.2277 -0.3526  0.0917
 2995SOL     OW20620   0.327   1.030   4.394  0.7081 -0.7168  0.3029
 2995SOL    HW120621   0.361   1.073   4.472 -4.4715 -0.7997  2.5535
 2995SOL    HW220622   0.382   0.952   4.383  0.0272 -1.3060  1.1532
 2996SOL     OW20623   3.307   0.911  12.821  0.0800 -0.5093 -0.4678
 2996SOL    HW120624   3.346   0.844  12.877  0.2938 -1.6053 -1.9388
 2996SOL    HW220625   3.219   0.876  12.805  0.7669 -2.4032 -0.0843
 2997SOL     OW20626   4.270   1.951  14.859 -0.0509 -0.0136  0.3400
 2997SOL    HW120627   4.299   1.881  14.799 -2.6636 -0.9826  0.2227
 2997SOL    HW220628   4.314   1.925  14.940  1.3250 -0.0557 -0.4194
 2998SOL     OW20629   2.052   4.207   2.176 -0.1268 -0.5954  0.2204
 2998SOL    HW120630   2.107   4.128   2.171  0.6910 -0.0347  0.3621
 2998SOL    HW220631   2.037   4.227   2.268 -0.3300 -0.5682  0.1801
 2999SOL     OW20632   2.470   2.850  16.189 -0.0526 -0.0966 -0.2208
 2999SOL    HW120633   2.456   2.775  16.246  0.0852  0.1512  0.1407
 2999SOL    HW220634   2.394   2.901  16.218 -0.4276 -0.3665 -0.7485
 3000SOL     OW20635   1.777   4.130  16.371 -0.6922  0.1531 -0.0480
 3000SOL    HW120636   1.848   4.123  16.435 -1.1135  1.5905  0.5646
 3000SOL    HW220637   1.771   4.224  16.355  2.0404  0.3731  0.1238
 3001SOL     OW20638   3.126   0.117   5.711  0.3688 -0.3957  0.3282
 3001SOL    HW120639   3.104   0.210   5.703  2.6986  0.0788 -0.5560
 3001SOL    HW220640   3.102   0.099   5.802  1.2764  1.2424  0.8962
 3002SOL     OW20641   1.050   2.965   1.769  0.3827  0.2006 -0.2170
 3002SOL    HW120642   1.113   2.897   1.745  2.0044  1.2633  1.0268
 3002SOL    HW220643   1.079   2.999   1.853  0.7090  1.3196 -0.7864
 3003SOL     OW20644   2.307   1.780   7.949 -0.4557 -0.2347 -0.0336
 3003SOL    HW120645   2.347   1.822   7.873  0.1116 -1.9643 -0.7049
 3003SOL    HW220646   2.314   1.689   7.920 -0.0500 -0.3196  0.3238
 3004SOL     OW20647   4.286   4.471   3.916  0.4306  0.0753  0.5551
 3004SOL    HW120648   4.263   4.383   3.947  0.8334  0.4539  1.9313
 3004SOL    HW220649   4.290   4.519   3.999  1.9212  1.4918 -0.3385
 3005SOL     OW20650   0.188   1.244   2.262 -0.0614 -0.6932 -0.0254
 3005SOL    HW120651   0.236   1.231   2.180 -1.6754 -1.2398 -0.8777
 3005SOL    HW220652   0.116   1.185   2.241 -1.8727  0.8064  2.0238
 3006SOL     OW20653   2.186   4.222   4.546 -0.7193  0.7811 -0.0722
 3006SOL    HW120654   2.224   4.134   4.554 -0.5439  0.7704 -0.9574
 3006SOL    HW220655   2.178   4.244   4.453 -1.3785 -0.4010 -0.2911
 3007SOL     OW20656   4.190   3.972  15.642 -0.5648 -0.6070  0.7287
 3007SOL    HW120657   4.250   4.028  15.691 -1.6176  0.8301  0.3814
 3007SOL    HW220658   4.238   3.890  15.632 -1.8844 -1.3156  0.2008
 3008SOL     OW20659   3.275   0.875   5.996  0.2082 -0.3819  0.0911
 3008SOL    HW120660   3.277   0.821   5.917 -0.3835 -2.2972  1.3879
 3008SOL    HW220661   3.366   0.900   6.006 -0.0408  0.2959  0.7105
 3009SOL     OW20662   3.958   2.997  12.175 -0.2425 -0.1507 -0.0913
 3009SOL    HW120663   3.999   2.922  12.219 -1.9219 -0.9436  0.1523
 3009SOL    HW220664   4.034   3.044  12.141  1.7861 -2.2035  1.5374
 3010SOL     OW20665   2.528   4.401   5.759  0.0146 -0.4262  0.4790
 3010SOL    HW120666   2.467   4.420   5.830 -1.7559  2.0648 -1.7277
 3010SOL    HW220667   2.537   4.489   5.723  1.7891 -0.3226  1.1471
 3011SOL     OW20668   4.599   3.510   6.171  0.1044  0.3829 -0.5873
 3011SOL    HW120669   4.538   3.536   6.239  0.7407 -0.7831  0.4380
 3011SOL    HW220670   4.676   3.487   6.223 -1.9507  3.2339  3.6422
 3012SOL     OW20671   0.318   2.999  10.782 -0.3252  0.1312 -0.1930
 3012SOL    HW120672   0.328   2.983  10.689 -1.7829 -1.1770 -0.1279
 3012SOL    HW220673   0.262   2.925  10.805 -0.1012  0.7358  2.3040
 3013SOL     OW20674   4.733   2.582   4.564 -0.2600  0.8290 -0.4307
 3013SOL    HW120675   4.695   2.622   4.642  2.2660 -1.2176  1.8693
 3013SOL    HW220676   4.717   2.488   4.574 -0.1147  0.9157  0.5703
 3014SOL     OW20677   4.363   1.193   8.944  0.0361  0.1886  0.0149
 3014SOL    HW120678   4.346   1.280   8.980 -0.4162 -0.3049  0.9790
 3014SOL    HW220679   4.426   1.207   8.872 -1.4525 -0.4333 -1.3993
 3015SOL     OW20680   4.254   0.055   4.372 -0.3421  0.1724 -0.1454
 3015SOL    HW120681   4.227   0.093   4.455 -0.8872  0.5959 -0.5160
 3015SOL    HW220682   4.334   0.008   4.397  0.0913  0.8211 -0.2859
 3016SOL     OW20683   0.889   1.614   4.070  0.1464 -0.3362  0.3592
 3016SOL    HW120684   0.836   1.629   3.991  1.0066  1.5385  0.1423
 3016SOL    HW220685   0.869   1.695   4.117 -0.7763 -0.3009 -0.1007
 3017SOL     OW20686   1.119   0.953   6.386  0.4834  0.3055  0.1731
 3017SOL    HW120687   1.162   0.992   6.462 -2.5021  2.1469  0.8960
 3017SOL    HW220688   1.116   0.864   6.420  1.0470  0.9613  1.9237
 3018SOL     OW20689   0.152   3.533   3.149  0.5150  0.0784 -0.5327
 3018SOL    HW120690   0.208   3.465   3.188 -0.4004 -1.3059 -1.6167
 3018SOL    HW220691   0.229   3.579   3.116  1.6074  0.2330  2.2254
 3019SOL     OW20692   4.559   1.088  15.225  0.1719  0.1800  0.2927
 3019SOL    HW120693   4.559   1.050  15.314 -0.1210  0.7213  0.5220
 3019SOL    HW220694   4.505   1.022  15.181 -1.9148  2.0083  0.1152
 3020SOL     OW20695   4.627   3.734   8.786  0.2234 -0.4742  0.3406
 3020SOL    HW120696   4.556   3.670   8.788  0.8519 -1.2020 -0.7362
 3020SOL    HW220697   4.706   3.681   8.783 -0.4407 -1.7096  4.3183
 3021SOL     OW20698   2.765   4.710  16.630 -0.3484  0.8780  0.8355
 3021SOL    HW120699   2.831   4.682  16.693 -1.5257  0.7366  1.9966
 3021SOL    HW220700   2.808   4.709  16.544 -0.0735 -0.1090  0.9908
 3022SOL     OW20701   3.911   2.918   5.562  0.0029 -0.5452 -0.7227
 3022SOL    HW120702   3.920   2.875   5.647 -2.7340 -1.4418 -0.8774
 3022SOL    HW220703   3.832   2.874   5.532 -2.3475  1.0433  3.0943
 3023SOL     OW20704   2.649   0.176   7.505 -0.3520 -0.2268  0.2091
 3023SOL    HW120705   2.589   0.250   7.498 -1.4279 -1.1578 -0.4578
 3023SOL    HW220706   2.677   0.170   7.414 -1.6615 -1.7659 -0.0980
 3024SOL     OW20707   1.978   0.020   4.266  0.3616  0.1266  0.0564
 3024SOL    HW120708   1.898   0.051   4.309  0.0522 -0.1147 -0.3409
 3024SOL    HW220709   2.041   0.020   4.338 -1.1267 -1.1134  1.3616
 3025SOL     OW20710   0.240   4.501   9.723 -0.1373 -0.0859  0.1792
 3025SOL    HW120711   0.188   4.465   9.651 -1.2656  1.5594  0.1889
 3025SOL    HW220712   0.328   4.467   9.708 -0.3019  1.2018 -3.7038
 3026SOL     OW20713   0.760   0.182   4.741  0.6159  0.5553 -0.0604
 3026SOL    HW120714   0.705   0.167   4.819  0.1703  0.4421 -0.3973
 3026SOL    HW220715   0.735   0.111   4.682 -1.8593 -0.4532  2.1770
 3027SOL     OW20716   4.248   1.315   3.539 -0.7004 -0.3900 -0.5436
 3027SOL    HW120717   4.193   1.391   3.553  1.4825  1.0669  0.1863
 3027SOL    HW220718   4.190   1.258   3.589 -1.5502  1.2683  0.3222
 3028SOL     OW20719   0.551   3.722   4.299  0.0928 -0.0151  0.4217
 3028SOL    HW120720   0.510   3.805   4.274  1.0206  0.1872 -0.4041
 3028SOL    HW220721   0.605   3.704   4.222  1.2290 -1.7065  1.6079
 3029SOL     OW20722   2.502   0.789   8.785  0.2853  0.0660  0.2524
 3029SOL    HW120723   2.494   0.745   8.700  0.9871  2.2683 -0.9586
 3029SOL    HW220724   2.435   0.748   8.840  0.1396 -2.8365 -2.0615
 3030SOL     OW20725   2.752   2.688   8.179 -0.2202 -0.2363 -0.0767
 3030SOL    HW120726   2.833   2.670   8.131 -2.0378 -2.8564 -2.1783
 3030SOL    HW220727   2.779   2.649   8.262  0.5630  1.1057  0.2909
 3031SOL     OW20728   4.104   4.472   9.865 -0.3775  0.6797 -0.3623
 3031SOL    HW120729   4.027   4.499   9.915 -0.4590 -1.3838  0.6123
 3031SOL    HW220730   4.069   4.444   9.780 -2.4117  2.0986 -0.0010
 3032SOL     OW20731   1.574   2.607   2.733 -0.3988  0.0314 -0.5543
 3032SOL    HW120732   1.645   2.568   2.783  0.7765  0.7695 -1.6468
 3032SOL    HW220733   1.526   2.532   2.699  1.0699 -1.0026 -0.3476
 3033SOL     OW20734   2.194   0.448   8.354 -0.6229  0.6794  0.2088
 3033SOL    HW120735   2.266   0.446   8.418  1.1276 -0.3808 -1.7953
 3033SOL    HW220736   2.123   0.405   8.402  0.3875 -0.9017  0.2538
 3034SOL     OW20737   0.162   1.919   2.048 -0.2732  0.0823 -0.7854
 3034SOL    HW120738   0.089   1.889   2.102  0.1987  1.4624  0.6474
 3034SOL    HW220739   0.150   2.012   2.030  0.8755  0.4458  0.3264
 3035SOL     OW20740   3.131   3.964   6.738 -0.3393  0.0836  0.2481
 3035SOL    HW120741   3.151   3.961   6.832 -3.1488 -0.3088  0.8486
 3035SOL    HW220742   3.219   3.985   6.707  0.6989 -0.4110  2.8804
 3036SOL     OW20743   1.425   1.507   1.505 -0.0557 -0.3151  0.2155
 3036SOL    HW120744   1.491   1.526   1.571  1.5924  1.0381 -1.7922
 3036SOL    HW220745   1.465   1.436   1.454  0.8514 -0.5627  1.2740
 3037SOL     OW20746   3.827   1.133  14.866 -0.4746 -0.1281  0.0003
 3037SOL    HW120747   3.835   1.204  14.929  1.0153  0.2557 -0.6406
 3037SOL    HW220748   3.735   1.109  14.881 -0.5782 -1.4865 -2.7370
 3038SOL     OW20749   2.344   4.667   7.590 -0.2015  0.1751  0.3975
 3038SOL    HW120750   2.368   4.631   7.504  1.8864  0.5770  0.8363
 3038SOL    HW220751   2.385   4.616   7.660 -0.9015 -0.6769  0.1929
 3039SOL     OW20752   4.637   3.816  10.866  0.2738 -0.3965 -0.0857
 3039SOL    HW120753   4.571   3.882  10.844  0.7702  1.4610  3.9179
 3039SOL    HW220754   4.604   3.747  10.809 -0.0726 -1.7206  1.7356
 3040SOL     OW20755   3.620   1.160   8.976  0.0865 -0.0869 -0.6740
 3040SOL    HW120756   3.565   1.222   8.929 -0.7519  0.1379  0.6041
 3040SOL    HW220757   3.553   1.113   9.026  1.3646  0.0440  1.1620
 3041SOL     OW20758   2.659   1.990   2.225 -0.2453 -0.0733  0.1765
 3041SOL    HW120759   2.684   2.012   2.315  0.6730 -1.3962  0.2488
 3041SOL    HW220760   2.708   2.062   2.185  1.4263  0.6962  3.5669
 3042SOL     OW20761   1.015   0.983   6.132  0.0532  0.0617  0.6737
 3042SOL    HW120762   1.016   0.976   6.227  1.5784 -0.8009  0.5864
 3042SOL    HW220763   1.045   0.893   6.115 -1.0809  0.0323 -1.2397
 3043SOL     OW20764   4.382   0.371   6.244 -0.3051 -0.1061  0.1416
 3043SOL    HW120765   4.391   0.436   6.314 -1.4756 -0.0610  0.2557
 3043SOL    HW220766   4.474   0.344   6.237 -0.6634 -0.6796 -2.4020
 3044SOL     OW20767   4.086   3.639   3.400 -0.5224 -0.1934  0.1377
 3044SOL    HW120768   4.156   3.675   3.345  0.8703 -0.5069  1.7070
 3044SOL    HW220769   4.130   3.569   3.449  1.7466  0.8151 -0.4769
 3045SOL     OW20770   1.221   1.912  16.798  0.8154 -0.1747  0.7575
 3045SOL    HW120771   1.152   1.918  16.732  1.1806 -0.9546  0.3077
 3045SOL    HW220772   1.269   1.835  16.767 -1.3820 -0.5185 -1.7922
 3046SOL     OW20773   3.175   3.075   8.612 -0.3905 -0.1851  0.0686
 3046SOL    HW120774   3.109   3.073   8.542 -0.7164  1.3097  0.3200
 3046SOL    HW220775   3.251   3.037   8.570  1.3690  4.4955 -1.0421
 3047SOL     OW20776   2.621   0.933   6.547 -0.2516 -0.3046 -0.0441
 3047SOL    HW120777   2.525   0.931   6.539 -0.3895  2.0754  1.1107
 3047SOL    HW220778   2.646   0.961   6.460 -0.0541  2.1418  0.8066
 3048SOL     OW20779   1.526   1.335  12.178 -0.3435 -0.2017  0.0756
 3048SOL    HW120780   1.501   1.408  12.235 -0.0680 -0.0860  0.0458
 3048SOL    HW220781   1.441   1.321  12.136 -1.8150  1.0175  2.6424
 3049SOL     OW20782   2.412   4.412   5.302  0.0828  0.8852 -0.5458
 3049SOL    HW120783   2.446   4.472   5.368 -0.0146  0.3166  0.0199
 3049SOL    HW220784   2.382   4.464   5.227 -0.9138 -0.7500 -1.2741
 3050SOL     OW20785   3.102   0.518   5.387 -0.9240  0.6508 -0.6537
 3050SOL    HW120786   3.158   0.455   5.433  1.7955  2.2240 -1.8331
 3050SOL    HW220787   3.044   0.550   5.457  0.0166  0.5982  0.1567
 3051SOL     OW20788   1.622   1.858   5.403  0.4522 -0.1359  0.8852
 3051SOL    HW120789   1.535   1.894   5.387  1.2784  1.5157  0.2356
 3051SOL    HW220790   1.679   1.934   5.409 -0.4064  0.4954  1.0952
 3052SOL     OW20791   0.483   0.215  12.901 -0.0593  0.1335  0.4973
 3052SOL    HW120792   0.546   0.189  12.834 -1.5513  0.7444 -1.1568
 3052SOL    HW220793   0.413   0.149  12.892  0.4649 -0.2156 -1.0786
 3053SOL     OW20794   0.933   1.928   8.398 -0.4565 -0.0676 -0.0909
 3053SOL    HW120795   1.007   1.988   8.406  0.2317 -0.7800 -1.0064
 3053SOL    HW220796   0.984   1.849   8.380  0.4689  0.2560  1.1095
 3054SOL     OW20797   3.477   4.500   0.901  0.1448 -0.5107  0.6610
 3054SOL    HW120798   3.420   4.576   0.886  0.7665 -0.7015 -2.5744
 3054SOL    HW220799   3.557   4.530   0.858 -0.0968 -1.4296 -0.4139
 3055SOL     OW20800   3.729   1.262  17.289  0.6828  0.5324  0.4404
 3055SOL    HW120801   3.655   1.310  17.252 -0.0034 -0.9816 -0.1464
 3055SOL    HW220802   3.723   1.272  17.384 -0.7070 -0.5556  0.4817
 3056SOL     OW20803   0.753   0.817  13.425  0.1251  0.0677  0.0562
 3056SOL    HW120804   0.711   0.827  13.510 -1.1906  0.5465 -0.6580
 3056SOL    HW220805   0.803   0.899  13.426 -1.5199  1.0881 -1.5496
 3057SOL     OW20806   3.392   4.407   5.958 -0.0967 -0.3168  0.2063
 3057SOL    HW120807   3.343   4.473   6.008 -0.9822  0.5101 -1.7401
 3057SOL    HW220808   3.340   4.334   5.990  0.5995 -0.1511  1.7285
 3058SOL     OW20809   0.995   2.220   3.371 -0.4397 -0.2505 -0.0992
 3058SOL    HW120810   0.964   2.307   3.397  0.9471 -0.3036  1.7503
 3058SOL    HW220811   0.939   2.177   3.435  1.1157  0.3574  1.6844
 3059SOL     OW20812   4.592   2.912  17.224  0.4098 -0.3225  0.4735
 3059SOL    HW120813   4.610   2.913  17.318  0.7719 -1.5532  0.4169
 3059SOL    HW220814   4.678   2.919  17.182  0.8786 -0.4123  1.4279
 3060SOL     OW20815   1.334   1.935   1.613  0.0415 -0.0826  0.3622
 3060SOL    HW120816   1.403   1.882   1.654  0.1557 -0.3214 -0.1283
 3060SOL    HW220817   1.297   1.875   1.547  1.4209  0.1631 -0.6334
 3061SOL     OW20818   1.190   3.813   8.164  0.2582  0.3630 -0.0463
 3061SOL    HW120819   1.261   3.779   8.110  2.1088  1.7229  1.4982
 3061SOL    HW220820   1.168   3.880   8.099 -1.9672  0.4527  0.7888
 3062SOL     OW20821   3.835   2.821   4.192 -0.0742  0.0096  0.6003
 3062SOL    HW120822   3.804   2.744   4.145  0.0309  1.4175 -1.8139
 3062SOL    HW220823   3.920   2.787   4.219  0.3983 -0.2847 -1.2551
 3063SOL     OW20824   1.680   3.598  16.494 -0.4926 -0.8331 -0.3842
 3063SOL    HW120825   1.620   3.525  16.479 -0.4489 -0.9790  0.1486
 3063SOL    HW220826   1.620   3.670  16.477 -0.7626 -0.9384  0.1311
 3064SOL     OW20827   4.378   1.999   9.656  0.2861  0.6385 -0.0259
 3064SOL    HW120828   4.467   1.965   9.667  0.5203  0.7555 -1.6210
 3064SOL    HW220829   4.329   1.923   9.689  2.1688 -0.3015  0.5956
 3065SOL     OW20830   3.236   3.114   3.011 -0.3313 -0.6308  0.2343
 3065SOL    HW120831   3.205   3.160   3.089 -1.2954 -0.1243 -0.4454
 3065SOL    HW220832   3.215   3.023   3.028  0.5297 -0.4694  2.0896
 3066SOL     OW20833   1.982   3.835   1.606  0.8599 -0.2570  0.3220
 3066SOL    HW120834   2.023   3.921   1.593 -0.1054  0.0448 -0.8177
 3066SOL    HW220835   1.906   3.852   1.549  1.1697  0.7628  0.2071
 3067SOL     OW20836   1.354   0.307   6.186 -0.2100  0.8583  0.0715
 3067SOL    HW120837   1.294   0.358   6.132 -0.9974 -3.2915 -2.9668
 3067SOL    HW220838   1.425   0.366   6.210 -0.6987  1.8749 -0.9867
 3068SOL     OW20839   3.166   0.088   3.108  0.1349 -0.4187 -0.0727
 3068SOL    HW120840   3.199   0.159   3.053 -2.3620 -2.1848 -3.9096
 3068SOL    HW220841   3.248   0.056   3.145  1.3941  0.9029 -1.7394
 3069SOL     OW20842   1.821   3.984  16.135 -0.2664 -0.0807 -0.2974
 3069SOL    HW120843   1.830   4.042  16.210 -2.4105 -1.3486  0.9305
 3069SOL    HW220844   1.795   4.053  16.073  1.0012 -1.1914 -2.0890
 3070SOL     OW20845   1.087   0.095   6.434  0.3572  0.2481  0.2356
 3070SOL    HW120846   1.153   0.162   6.454 -0.0542  0.8795 -0.5023
 3070SOL    HW220847   1.147   0.026   6.408 -1.2692 -0.2437 -2.2757
 3071SOL     OW20848   4.423   0.703  17.473 -0.4421  0.4796 -0.2370
 3071SOL    HW120849   4.468   0.747  17.400 -0.0734 -0.7463 -0.7666
 3071SOL    HW220850   4.495   0.651  17.509 -0.3534  1.1871  0.5926
 3072SOL     OW20851   3.155   1.579   3.416  0.0485  0.3796 -1.1560
 3072SOL    HW120852   3.153   1.503   3.474  3.2446 -0.0564 -1.6151
 3072SOL    HW220853   3.117   1.537   3.339  2.9455 -0.9336 -1.8790
 3073SOL     OW20854   4.355   2.992   7.001  0.1031  0.4863 -0.2117
 3073SOL    HW120855   4.415   3.041   7.057 -0.8115 -0.3207  1.4676
 3073SOL    HW220856   4.325   2.935   7.072  0.6944  2.1886  1.3954
 3074SOL     OW20857   3.794   2.939   6.978  0.2897  0.4271  0.3646
 3074SOL    HW120858   3.830   3.028   6.977 -2.1366  1.3653 -2.2265
 3074SOL    HW220859   3.752   2.941   6.892  0.5120 -1.7763  0.2087
 3075SOL     OW20860   3.678   1.995   4.508  0.5845  0.2677  0.2210
 3075SOL    HW120861   3.660   1.971   4.599  0.4559 -0.4870 -0.0038
 3075SOL    HW220862   3.627   1.928   4.463  0.6770  0.0306  0.4674
 3076SOL     OW20863   0.344   3.249  15.943  0.0927 -0.9117 -0.2435
 3076SOL    HW120864   0.299   3.302  16.009  1.8244  0.6690 -0.3511
 3076SOL    HW220865   0.390   3.318  15.895 -0.2850 -1.1921 -1.0088
 3077SOL     OW20866   2.423   3.845  14.780 -0.8330  0.0292  0.0703
 3077SOL    HW120867   2.454   3.890  14.859  2.5734 -0.1931 -1.1011
 3077SOL    HW220868   2.427   3.916  14.715 -0.2434  1.0863  1.2468
 3078SOL     OW20869   4.640   3.774   8.510  0.6972 -0.1734  0.0900
 3078SOL    HW120870   4.654   3.866   8.489 -0.0938 -0.4782 -1.8035
 3078SOL    HW220871   4.648   3.775   8.605 -0.1533 -2.1214  0.1856
 3079SOL     OW20872   2.436   0.569   6.710 -0.3883  0.2590  0.2121
 3079SOL    HW120873   2.495   0.494   6.698 -1.5914 -1.0083  2.3166
 3079SOL    HW220874   2.464   0.598   6.797  1.1616 -0.0989 -0.1646
 3080SOL     OW20875   1.940   1.147   1.247  0.0443 -0.4165  0.3705
 3080SOL    HW120876   1.921   1.070   1.301  0.0222 -0.4779  0.2744
 3080SOL    HW220877   1.973   1.207   1.314 -0.7412  0.1297  0.2652
 3081SOL     OW20878   3.389   2.065   2.292 -0.0481 -0.0289  0.4655
 3081SOL    HW120879   3.439   2.142   2.264  0.8849 -1.7723 -2.6181
 3081SOL    HW220880   3.348   2.028   2.214  0.2073  0.8358 -0.0812
 3082SOL     OW20881   2.932   1.531   6.811 -0.7697  0.0706  0.2422
 3082SOL    HW120882   2.852   1.480   6.798 -1.3224  0.5173  1.8966
 3082SOL    HW220883   2.996   1.463   6.793  0.1864  0.2280  3.0726
 3083SOL     OW20884   0.101   0.998   5.232 -0.2003 -0.0391 -0.4640
 3083SOL    HW120885   0.101   0.983   5.137 -0.7652 -0.0128 -0.4649
 3083SOL    HW220886   0.093   1.093   5.237 -0.0801  0.0025 -1.0688
 3084SOL     OW20887   1.360   1.944   2.844 -0.0588  0.0356 -0.2269
 3084SOL    HW120888   1.304   1.875   2.809  0.2056 -0.7147  0.8289
 3084SOL    HW220889   1.425   1.896   2.895  1.5189  2.9139  0.4754
 3085SOL     OW20890   3.773   1.560   6.900  0.5822  0.9823  0.3519
 3085SOL    HW120891   3.807   1.610   6.826  1.5968  0.0642  0.2028
 3085SOL    HW220892   3.703   1.512   6.856  0.3268  1.0315  0.7041
 3086SOL     OW20893   3.276   1.083   5.713 -0.1339 -0.6465 -0.1246
 3086SOL    HW120894   3.237   1.083   5.800  0.1109 -1.3494 -0.0164
 3086SOL    HW220895   3.302   1.175   5.709 -1.8519 -0.1500  0.3353
 3087SOL     OW20896   4.563   3.427   5.248  0.5145  0.3161 -0.2823
 3087SOL    HW120897   4.603   3.360   5.304  1.2259  0.5038 -0.5689
 3087SOL    HW220898   4.496   3.457   5.309  0.4100  0.9567 -0.7117
 3088SOL     OW20899   2.371   4.497   0.039  0.2807 -0.4805 -0.1411
 3088SOL    HW120900   2.319   4.430   0.084 -0.5597 -2.0232 -3.3607
 3088SOL    HW220901   2.358   4.578   0.088 -2.0605 -2.7409  2.9632
 3089SOL     OW20902   0.060   2.721   1.330 -0.1692  0.3548  0.0661
 3089SOL    HW120903   0.058   2.702   1.424 -1.0568  0.3675  0.0540
 3089SOL    HW220904   4.720   2.681   1.295 -1.9883  1.8858  2.4588
 3090SOL     OW20905   2.369   3.689   8.831 -0.1322  0.9997  0.0844
 3090SOL    HW120906   2.290   3.655   8.872  0.4593  1.2859  1.4792
 3090SOL    HW220907   2.372   3.632   8.754 -1.2051  1.3314 -0.2062
 3091SOL     OW20908   3.425   3.549   2.783  0.2912 -0.3769  0.5940
 3091SOL    HW120909   3.509   3.515   2.815 -0.2572 -1.3940  0.9252
 3091SOL    HW220910   3.366   3.475   2.794  0.6531 -0.6778  0.5142
 3092SOL     OW20911   4.101   0.367   1.579  0.4087 -0.1874 -0.3707
 3092SOL    HW120912   4.006   0.374   1.569  0.2043 -2.4923 -0.0218
 3092SOL    HW220913   4.125   0.352   1.488  1.6956 -0.7549  0.0655
 3093SOL     OW20914   2.752   3.920  12.029  0.6617 -0.0401  0.2031
 3093SOL    HW120915   2.728   3.846  11.973 -0.1110  0.7618 -0.5053
 3093SOL    HW220916   2.830   3.936  11.976 -1.8446  1.0524 -3.1268
 3094SOL     OW20917   2.554   2.949   5.184  0.4485 -0.1107 -0.4349
 3094SOL    HW120918   2.639   2.939   5.141  0.0932  1.0536 -1.4055
 3094SOL    HW220919   2.577   3.000   5.262  0.6748 -1.4666  0.4016
 3095SOL     OW20920   1.587   1.765   4.445  0.2025  0.2583  0.0867
 3095SOL    HW120921   1.571   1.823   4.370 -3.4272 -0.1743  0.4969
 3095SOL    HW220922   1.680   1.784   4.455  0.1795  1.6882 -2.2795
 3096SOL     OW20923   3.708   0.560   6.706 -0.4111 -0.4437 -0.4523
 3096SOL    HW120924   3.707   0.577   6.612  1.5394  0.2904 -0.3345
 3096SOL    HW220925   3.637   0.621   6.727 -1.7999 -2.1059 -0.3291
 3097SOL     OW20926   0.656   4.287   8.814 -0.3944  0.3707 -0.2789
 3097SOL    HW120927   0.576   4.331   8.785 -0.7495  0.8948  1.5328
 3097SOL    HW220928   0.699   4.257   8.734 -1.2052  1.1389 -1.0033
 3098SOL     OW20929   0.941   0.457   4.896 -0.3328 -0.2479  0.2985
 3098SOL    HW120930   0.878   0.501   4.953 -0.4729 -2.1834  1.6445
 3098SOL    HW220931   0.896   0.465   4.812 -0.6912  0.2924  0.5419
 3099SOL     OW20932   1.990   2.804   9.328  0.0789 -0.1605  0.1602
 3099SOL    HW120933   1.923   2.820   9.395 -0.9061  0.9572 -1.1024
 3099SOL    HW220934   1.988   2.709   9.317  0.7365  0.1441 -2.5377
 3100SOL     OW20935   1.405   3.783   8.771  0.1299 -0.3469 -0.2693
 3100SOL    HW120936   1.424   3.876   8.760  1.1295 -0.6869 -1.4450
 3100SOL    HW220937   1.311   3.777   8.785  0.2060 -1.9923 -0.4366
 3101SOL     OW20938   0.892   2.123  12.550  0.7164 -0.0777 -0.5606
 3101SOL    HW120939   0.884   2.162  12.463  3.4948 -0.1376 -0.8276
 3101SOL    HW220940   0.852   2.193  12.603  4.0262  0.0846  1.7720
 3102SOL     OW20941   0.404   2.998  14.955  0.1102  0.3556 -0.4590
 3102SOL    HW120942   0.497   3.001  14.937  0.3269  0.8560  0.7381
 3102SOL    HW220943   0.415   2.975  15.048  0.9942  1.0540 -0.3972
 3103SOL     OW20944   4.710   3.282   9.532  0.2247 -0.1584 -0.5407
 3103SOL    HW120945   4.729   3.319   9.446  0.7607 -1.6845 -1.0704
 3103SOL    HW220946   4.654   3.346   9.575 -0.7831 -0.5048 -1.3500
 3104SOL     OW20947   0.201   0.388   4.408  0.3274 -0.3711 -0.0379
 3104SOL    HW120948   0.261   0.371   4.336  1.3016 -1.0300  0.9175
 3104SOL    HW220949   0.216   0.481   4.425 -2.1622 -0.0006  0.1529
 3105SOL     OW20950   2.974   3.377  14.974  0.9109  0.4620  0.0959
 3105SOL    HW120951   3.018   3.441  14.918  2.1648 -0.4140  0.0688
 3105SOL    HW220952   2.938   3.304  14.925 -1.1165  1.1962  0.5062
 3106SOL     OW20953   0.708   3.004  10.778 -0.2792 -0.5387 -0.1193
 3106SOL    HW120954   0.748   3.037  10.697  1.3027 -0.0491  0.8499
 3106SOL    HW220955   0.718   3.081  10.834 -0.9993 -0.1669 -0.4971
 3107SOL     OW20956   3.043   1.958   7.757  0.0192 -0.5275 -0.0815
 3107SOL    HW120957   3.089   1.895   7.701  1.0518  1.1865 -1.2059
 3107SOL    HW220958   3.006   2.011   7.686  1.0822  0.9274  0.4289
 3108SOL     OW20959   4.240   0.544  12.248 -0.0868 -0.2894  0.1195
 3108SOL    HW120960   4.244   0.493  12.329  1.5474 -0.9763 -0.4056
 3108SOL    HW220961   4.243   0.634  12.278 -0.6522 -0.7633  1.5842
 3109SOL     OW20962   1.791   3.765   9.721 -0.4680  0.3424 -0.2698
 3109SOL    HW120963   1.696   3.766   9.710 -0.3044 -0.4317 -1.7748
 3109SOL    HW220964   1.835   3.736   9.641 -1.2769 -1.2049 -0.1355
 3110SOL     OW20965   2.450   2.068  11.187 -0.2918  0.0965 -0.2385
 3110SOL    HW120966   2.497   2.145  11.218  1.3845  0.1510 -2.8762
 3110SOL    HW220967   2.444   2.021  11.271 -0.8737  0.2455 -0.2024
 3111SOL     OW20968   3.050   4.553  17.399 -0.0385 -0.4975  0.0770
 3111SOL    HW120969   3.110   4.539  17.472  0.3656 -1.6584 -0.4794
 3111SOL    HW220970   3.110   4.548  17.324  0.2473  0.1913  0.2653
 3112SOL     OW20971   3.737   1.951   5.245  0.2461 -0.0321 -0.1870
 3112SOL    HW120972   3.644   1.930   5.237  1.0281 -3.1773 -1.1868
 3112SOL    HW220973   3.776   1.869   5.216  3.0377  0.9094  0.8859
 3113SOL     OW20974   0.378   1.590   2.944  0.0421 -0.5223 -0.5779
 3113SOL    HW120975   0.461   1.588   2.897 -0.1378 -2.0642 -0.8360
 3113SOL    HW220976   0.407   1.575   3.034 -2.3454 -2.5342 -0.1437
 3114SOL     OW20977   2.116   1.154  11.172  0.0185 -0.9163 -0.4567
 3114SOL    HW120978   2.065   1.112  11.241 -2.0997 -0.0824 -1.5321
 3114SOL    HW220979   2.183   1.205  11.217 -2.4386  1.7497  0.1802
 3115SOL     OW20980   2.481   0.187   8.732  0.3039  0.2778  0.1812
 3115SOL    HW120981   2.540   0.139   8.675 -0.9768 -1.7214  0.5299
 3115SOL    HW220982   2.422   0.117   8.761 -0.3118  0.8327  0.2803
 3116SOL     OW20983   2.158   3.423  17.060 -0.6635  0.0191 -0.6711
 3116SOL    HW120984   2.196   3.344  17.099 -1.4896  0.9319  1.9768
 3116SOL    HW220985   2.145   3.407  16.966 -1.4539  0.0707 -0.5677
 3117SOL     OW20986   1.363   3.727   3.351  0.0067 -0.5808  0.4401
 3117SOL    HW120987   1.397   3.697   3.266 -0.5303  0.4033 -0.1197
 3117SOL    HW220988   1.273   3.698   3.339  0.2612 -0.4035 -1.9475
 3118SOL     OW20989   0.735   1.514  10.334  0.1617 -0.4612 -0.0441
 3118SOL    HW120990   0.739   1.419  10.325  0.2173 -0.4754  0.1291
 3118SOL    HW220991   0.740   1.526  10.429  0.8406 -3.1044  0.2516
 3119SOL     OW20992   4.279   0.756  12.418  0.6391  0.2616 -0.2750
 3119SOL    HW120993   4.308   0.840  12.383  2.6504 -1.8089 -3.6130
 3119SOL    HW220994   4.241   0.794  12.498  4.5333 -1.3528  2.3255
 3120SOL     OW20995   0.001   1.830   7.449  0.8717 -0.3222  0.0056
 3120SOL    HW120996   4.698   1.746   7.465  0.7748 -0.6862 -2.2486
 3120SOL    HW220997   0.064   1.836   7.522  0.8824 -1.7059  0.1133
 3121SOL     OW20998   1.032   3.702   6.665 -0.0902  0.4696 -0.0639
 3121SOL    HW120999   1.075   3.618   6.655 -1.5571 -0.1712 -0.9335
 3121SOL    HW221000   0.945   3.674   6.696  0.2236 -0.6713 -0.2267
 3122SOL     OW21001   2.789   2.688   2.796 -0.9468  0.3181  0.4824
 3122SOL    HW121002   2.794   2.626   2.723  1.9103 -0.0887  0.9994
 3122SOL    HW221003   2.729   2.642   2.854 -0.2029 -0.4755  0.6183
 3123SOL     OW21004   1.314   2.297   2.073  1.0658 -0.1568  0.2849
 3123SOL    HW121005   1.356   2.306   2.159  0.9949 -2.5719  0.5835
 3123SOL    HW221006   1.375   2.244   2.022  3.4615  0.2890  2.7118
 3124SOL     OW21007   0.199   0.762   5.364 -0.0537  0.0140 -0.4723
 3124SOL    HW121008   0.140   0.819   5.315  1.6369  1.2143 -1.1226
 3124SOL    HW221009   0.233   0.703   5.298 -0.1458  0.0158 -0.5216
 3125SOL     OW21010   4.398   0.518   4.192  0.1766  0.1683  0.0735
 3125SOL    HW121011   4.493   0.528   4.204  0.6398 -2.1202 -1.6435
 3125SOL    HW221012   4.372   0.482   4.276 -2.5224  0.1686 -0.7797
 3126SOL     OW21013   2.267   3.971   7.990 -0.3594  0.5506  1.1615
 3126SOL    HW121014   2.197   3.962   7.925  0.2606 -2.3691  0.8989
 3126SOL    HW221015   2.238   3.902   8.050 -1.4234  1.3833  1.6185
 3127SOL     OW21016   1.530   1.101   5.542  0.2243 -0.2371  0.6073
 3127SOL    HW121017   1.491   1.188   5.537  0.3671 -0.3162 -1.7157
 3127SOL    HW221018   1.529   1.086   5.637 -0.3524  0.9719  0.7916
 3128SOL     OW21019   0.617   0.269   5.194  0.4840 -0.3896 -0.0636
 3128SOL    HW121020   0.622   0.364   5.200  0.8692 -0.4887  1.2397
 3128SOL    HW221021   0.709   0.244   5.205  0.6372  0.3776  0.4441
 3129SOL     OW21022   2.712   2.426   7.894  0.0515 -0.2147 -0.6123
 3129SOL    HW121023   2.752   2.352   7.848  2.6702 -0.1835  1.6294
 3129SOL    HW221024   2.749   2.504   7.853  0.8427  0.1121  0.7278
 3130SOL     OW21025   2.537   2.061  12.086  0.8899  0.3763  0.4589
 3130SOL    HW121026   2.591   2.028  12.014 -0.5014  0.6702 -0.7111
 3130SOL    HW221027   2.561   2.000  12.156  0.1833  0.1134  0.4708
 3131SOL     OW21028   2.828   0.614  15.066  0.3308  0.4315  0.0703
 3131SOL    HW121029   2.903   0.658  15.107  0.2452 -0.5627  1.3052
 3131SOL    HW221030   2.868   0.544  15.014 -2.1771 -1.2559  0.4152
 3132SOL     OW21031   2.220   2.224   6.823  0.2979 -0.1634  0.2952
 3132SOL    HW121032   2.298   2.258   6.778  0.6134 -2.5313 -0.9905
 3132SOL    HW221033   2.158   2.254   6.757  0.8095 -2.2541 -1.1550
 3133SOL     OW21034   1.831   2.123   5.809 -0.1117 -0.2822  0.2072
 3133SOL    HW121035   1.927   2.131   5.810 -0.0004 -1.3372 -1.5862
 3133SOL    HW221036   1.809   2.036   5.843 -0.1842 -0.1485  0.5019
 3134SOL     OW21037   1.300   4.500   8.420  0.0361 -0.0348 -0.3739
 3134SOL    HW121038   1.347   4.460   8.494 -0.8964  0.3413  0.4182
 3134SOL    HW221039   1.245   4.551   8.479  0.6763 -0.1225  0.3159
 3135SOL     OW21040   2.674   1.318   2.147  0.2409 -0.4696 -0.1396
 3135SOL    HW121041   2.682   1.387   2.213  0.2849 -0.2091 -0.4205
 3135SOL    HW221042   2.757   1.322   2.099  1.0520 -2.0524  1.1401
 3136SOL     OW21043   0.065   1.017   5.527 -0.3888  0.1180 -0.3185
 3136SOL    HW121044   0.110   1.031   5.444  0.8839 -0.9905  0.1656
 3136SOL    HW221045   0.123   1.067   5.585  1.3327  1.7024 -3.4478
 3137SOL     OW21046   4.651   2.938   6.436 -0.0500  0.2135  0.1466
 3137SOL    HW121047   4.582   2.951   6.501  0.3526 -0.8821  0.7928
 3137SOL    HW221048   4.721   2.934   6.501  0.2282 -0.2561 -0.1883
 3138SOL     OW21049   4.708   1.543   8.870 -0.1161 -0.6909 -0.4074
 3138SOL    HW121050   0.010   1.583   8.793  1.6374 -0.7956  0.4861
 3138SOL    HW221051   0.026   1.470   8.894  0.8078 -0.8729 -3.1825
 3139SOL     OW21052   3.588   0.149  16.577  0.1496 -0.4233  0.1705
 3139SOL    HW121053   3.600   0.054  16.584 -2.1302 -0.7313 -0.1586
 3139SOL    HW221054   3.506   0.167  16.624 -0.1275 -0.6738 -0.2103
 3140SOL     OW21055   1.040   3.850   4.855  0.1188  0.2224 -0.1744
 3140SOL    HW121056   1.034   3.762   4.819 -0.8841 -0.4729  1.7463
 3140SOL    HW221057   1.033   3.843   4.950 -0.4203  2.1179 -0.0673
 3141SOL     OW21058   4.409   2.678   3.491  0.1149 -0.4927 -0.4988
 3141SOL    HW121059   4.440   2.595   3.528  0.2269 -0.7615 -1.2089
 3141SOL    HW221060   4.334   2.652   3.438  0.0201  1.0015 -1.0998
 3142SOL     OW21061   0.670   4.355   9.457  0.1761  0.1602  0.4405
 3142SOL    HW121062   0.735   4.408   9.411 -1.1998 -0.5990 -2.3496
 3142SOL    HW221063   0.716   4.272   9.458 -0.1252  0.0085  2.0740
 3143SOL     OW21064   0.193   2.571   2.760  0.5583 -0.3633  0.0453
 3143SOL    HW121065   0.136   2.518   2.815 -2.7412  2.0008 -1.1236
 3143SOL    HW221066   0.245   2.615   2.827  1.3601  0.4295 -1.1010
 3144SOL     OW21067   3.455   1.896   5.236  0.3069 -0.3559 -0.7776
 3144SOL    HW121068   3.474   1.854   5.319 -2.3376  0.1879  0.1086
 3144SOL    HW221069   3.374   1.853   5.207 -1.1226  0.3122  2.2140
 3145SOL     OW21070   3.542   2.442  10.184 -0.1341  0.0431 -0.8772
 3145SOL    HW121071   3.583   2.515  10.137  0.0578 -0.2317 -1.1309
 3145SOL    HW221072   3.603   2.405  10.247  0.5916 -0.4455 -1.8700
 3146SOL     OW21073   3.740   2.315   0.539 -0.2596  0.2905 -0.7216
 3146SOL    HW121074   3.650   2.327   0.510 -1.1487 -0.1975  1.7994
 3146SOL    HW221075   3.742   2.297   0.633 -0.2650 -1.6188 -1.0862
 3147SOL     OW21076   4.020   3.906   8.822 -0.4226  0.3594 -0.6239
 3147SOL    HW121077   3.987   3.834   8.875  0.1313 -0.1519 -0.9653
 3147SOL    HW221078   4.058   3.868   8.743 -1.9519 -0.2176 -1.0908
 3148SOL     OW21079   2.472   4.072   4.899 -1.0074  0.6596 -0.3281
 3148SOL    HW121080   2.500   4.110   4.982  0.0693 -1.7845  0.4056
 3148SOL    HW221081   2.526   3.993   4.897 -0.4097  1.0868 -0.9371
 3149SOL     OW21082   0.440   1.142   9.860  0.0582 -0.1134 -0.2705
 3149SOL    HW121083   0.446   1.067   9.920  0.4714  0.1939  0.0721
 3149SOL    HW221084   0.481   1.201   9.924 -0.8375  0.0802  0.1204
 3150SOL     OW21085   1.221   4.251   8.016 -0.2697 -0.6472 -0.2297
 3150SOL    HW121086   1.156   4.315   7.988 -1.2937 -1.7945 -0.4612
 3150SOL    HW221087   1.202   4.254   8.110  0.8052 -1.9787  0.0282
 3151SOL     OW21088   1.929   3.045   5.186 -0.5915 -0.1242 -0.2866
 3151SOL    HW121089   1.928   3.090   5.270 -0.2466  1.4842 -1.1425
 3151SOL    HW221090   1.974   3.103   5.125 -2.4624  0.0540 -1.5010
 3152SOL     OW21091   3.307   1.357   6.779 -0.0578 -0.5818  0.5432
 3152SOL    HW121092   3.343   1.277   6.740 -0.3417 -0.1968 -0.5033
 3152SOL    HW221093   3.336   1.416   6.710 -0.3529 -0.4857  0.4991
 3153SOL     OW21094   1.830   3.921   1.421  0.3875  0.0297 -0.2269
 3153SOL    HW121095   1.904   3.934   1.362 -0.1962 -2.7734 -1.5783
 3153SOL    HW221096   1.803   4.011   1.442 -1.1327 -1.0926  2.7570
 3154SOL     OW21097   0.619   3.020  10.051 -0.2186  0.0881 -0.1230
 3154SOL    HW121098   0.641   3.043   9.961  1.4703  1.5577  0.6686
 3154SOL    HW221099   0.583   2.932  10.040  0.3093 -0.2659  0.9530
 3155SOL     OW21100   2.066   0.272   9.125 -0.3422  0.6721  0.0235
 3155SOL    HW121101   2.111   0.192   9.099 -0.3910  0.9160 -0.8177
 3155SOL    HW221102   1.975   0.243   9.118 -0.7009  1.5146  1.2303
 3156SOL     OW21103   1.881   2.881   0.906 -0.2864  0.3408 -0.1547
 3156SOL    HW121104   1.881   2.841   0.819 -1.8401  2.1082 -0.9585
 3156SOL    HW221105   1.920   2.815   0.963 -0.2279  1.6211  1.2562
 3157SOL     OW21106   3.185   1.918  16.639  0.1408 -0.1131  0.1958
 3157SOL    HW121107   3.214   1.861  16.710  2.0474  1.7084  0.8950
 3157SOL    HW221108   3.092   1.925  16.660  0.4054 -0.7255  1.5626
 3158SOL     OW21109   2.231   2.416   9.567  0.1515  0.0386  0.0012
 3158SOL    HW121110   2.222   2.350   9.498 -0.2055  0.5442 -0.4329
 3158SOL    HW221111   2.212   2.361   9.643  1.1853 -0.2393  0.0586
 3159SOL     OW21112   4.364   4.593  14.043  0.3735 -0.0501 -0.4400
 3159SOL    HW121113   4.442   4.602  14.098 -2.0661  0.9643  2.8862
 3159SOL    HW221114   4.308   4.567  14.116  0.9853 -2.8084 -0.9591
 3160SOL     OW21115   0.459   0.339   4.263 -0.4834 -0.2063  0.0649
 3160SOL    HW121116   0.509   0.420   4.253 -0.5748 -0.3924 -1.8792
 3160SOL    HW221117   0.486   0.287   4.188 -0.5388  2.2146 -1.6349
 3161SOL     OW21118   4.325   2.748  13.255 -0.3939  0.1587 -0.1975
 3161SOL    HW121119   4.383   2.698  13.312 -2.8614 -0.1576  2.0145
 3161SOL    HW221120   4.392   2.781  13.195 -0.8886 -0.9081 -1.3300
 3162SOL     OW21121   0.962   0.050  12.668  0.4104 -0.3701  0.2734
 3162SOL    HW121122   1.016   4.713  12.647 -1.6838 -1.5640 -0.7256
 3162SOL    HW221123   1.019   0.084  12.737  0.1071  1.8759 -0.5859
 3163SOL     OW21124   1.519   4.389   4.653 -0.3404 -0.3585 -0.4093
 3163SOL    HW121125   1.601   4.397   4.702 -1.5518 -1.1304  1.7432
 3163SOL    HW221126   1.478   4.308   4.683  0.4440 -1.1757 -1.5307
 3164SOL     OW21127   3.977   1.390  11.966 -0.2852 -0.3086  0.0129
 3164SOL    HW121128   3.906   1.392  11.902  0.3288  3.1239 -0.5471
 3164SOL    HW221129   4.037   1.453  11.927 -2.3956  2.4027  1.1043
 3165SOL     OW21130   3.647   4.043   6.574  0.6343  0.1224 -0.2808
 3165SOL    HW121131   3.706   3.982   6.619 -0.3273 -2.4357 -2.4789
 3165SOL    HW221132   3.647   4.117   6.634 -1.9147 -0.8097  0.9098
 3166SOL     OW21133   3.038   1.537   2.380 -0.2045 -0.3187 -0.3918
 3166SOL    HW121134   3.064   1.627   2.401  4.5949 -1.3852 -1.5631
 3166SOL    HW221135   3.119   1.502   2.344 -0.5569 -1.1982 -0.3145
 3167SOL     OW21136   2.517   1.541  14.406  0.3631  0.2407  0.2537
 3167SOL    HW121137   2.560   1.492  14.336 -1.7487 -0.9511 -0.2107
 3167SOL    HW221138   2.469   1.607  14.356  0.5087 -1.2115 -1.8047
 3168SOL     OW21139   2.023   0.566   6.484 -0.9864 -0.1624 -0.1265
 3168SOL    HW121140   2.105   0.516   6.478 -1.3745 -0.6850 -1.0736
 3168SOL    HW221141   1.979   0.510   6.547 -0.3141 -0.0699  0.4244
 3169SOL     OW21142   2.699   1.078   8.420  0.0418 -0.0280 -0.5315
 3169SOL    HW121143   2.732   0.995   8.386  2.9548  0.8489  0.1639
 3169SOL    HW221144   2.611   1.077   8.384 -0.3625  0.0388  0.4561
 3170SOL     OW21145   1.913   0.699   6.705 -0.3219  0.3479 -0.0701
 3170SOL    HW121146   1.981   0.664   6.646  0.4455 -0.6670  1.4206
 3170SOL    HW221147   1.957   0.767   6.757  0.2474 -0.9497  1.1458
 3171SOL     OW21148   1.767   2.043   5.019 -0.5493 -0.3500 -0.6862
 3171SOL    HW121149   1.693   2.006   4.971  0.5116 -1.9141 -1.1172
 3171SOL    HW221150   1.758   1.987   5.096  0.5519 -2.1247 -1.8685
 3172SOL     OW21151   3.354   2.381   0.163 -0.0135  0.2460  0.7773
 3172SOL    HW121152   3.274   2.431   0.174  0.2939  1.0149 -0.4553
 3172SOL    HW221153   3.388   2.403   0.076  0.5980 -0.5135  0.8247
 3173SOL     OW21154   3.213   1.885   5.144 -0.0969 -0.0168  0.3426
 3173SOL    HW121155   3.235   1.919   5.057 -0.2140  0.1464  0.3776
 3173SOL    HW221156   3.193   1.969   5.186 -2.3378 -0.0606 -0.6454
 3174SOL     OW21157   3.189   3.081   2.111  0.4826  0.3316  0.1227
 3174SOL    HW121158   3.192   3.073   2.016  0.6608  1.5095  0.0309
 3174SOL    HW221159   3.225   3.169   2.122 -0.6885  0.7011  0.9475
 3175SOL     OW21160   1.327   4.317   2.125  0.2324  0.3663 -0.3261
 3175SOL    HW121161   1.281   4.394   2.160 -0.4939  0.0597 -0.6123
 3175SOL    HW221162   1.362   4.280   2.207 -0.7289 -1.2785 -0.6712
 3176SOL     OW21163   0.266   4.100   1.333  0.1688  0.2662  0.1812
 3176SOL    HW121164   0.296   4.097   1.243 -0.5210  0.0965 -0.0449
 3176SOL    HW221165   0.218   4.183   1.337  1.3043  0.9407 -0.4855
 3177SOL     OW21166   3.337   4.693  14.984 -0.0546  0.5926 -0.0297
 3177SOL    HW121167   3.350   4.645  15.065 -0.3546 -0.1646 -0.4289
 3177SOL    HW221168   3.265   0.006  15.018  0.1395  1.4731 -0.9870
 3178SOL     OW21169   2.161   4.193   9.936 -0.4820  0.1652 -0.1280
 3178SOL    HW121170   2.246   4.235   9.925 -0.8060  0.4698 -1.5432
 3178SOL    HW221171   2.109   4.243   9.872  0.7342  0.0967 -1.1680
 3179SOL     OW21172   0.452   1.281   8.145 -0.4324  0.4350 -0.3569
 3179SOL    HW121173   0.380   1.293   8.207 -0.0283  1.8260 -0.1696
 3179SOL    HW221174   0.521   1.294   8.209 -0.1328 -0.0810 -0.5674
 3180SOL     OW21175   3.933   0.908  12.569  0.6329 -0.2381  0.2914
 3180SOL    HW121176   4.022   0.928  12.599  0.3857  0.4881  0.5438
 3180SOL    HW221177   3.917   0.833  12.626  0.4681 -3.0120 -3.4648
 3181SOL     OW21178   2.144   4.644  17.656  0.2878 -0.2194 -0.8035
 3181SOL    HW121179   2.089   4.607  17.587 -0.0146  0.1373 -0.7582
 3181SOL    HW221180   2.202   4.572  17.679 -2.3521 -1.5491  1.7514
 3182SOL     OW21181   2.637   1.117   1.081 -0.3837 -0.5928  0.6342
 3182SOL    HW121182   2.559   1.132   1.027  0.3348 -2.1352 -0.8629
 3182SOL    HW221183   2.611   1.164   1.159 -2.3367 -2.9974  1.4421
 3183SOL     OW21184   4.562   1.499   7.737  0.2622 -0.4477  0.5378
 3183SOL    HW121185   4.479   1.522   7.780 -1.2234 -1.6978 -1.6580
 3183SOL    HW221186   4.625   1.555   7.782 -0.7053  2.0665 -1.2401
 3184SOL     OW21187   3.810   0.311   1.512 -0.2815 -0.1190  0.3514
 3184SOL    HW121188   3.730   0.302   1.459 -0.2639  0.4782  0.2195
 3184SOL    HW221189   3.856   0.383   1.469 -0.8955  0.7580  1.1762
 3185SOL     OW21190   4.395   0.046   0.819 -0.0222  0.2855  0.2244
 3185SOL    HW121191   4.421   0.049   0.911  0.8332 -1.7174  0.0594
 3185SOL    HW221192   4.299   0.050   0.819  0.0690  2.3516  2.3990
 3186SOL     OW21193   3.535   4.211   9.456 -0.2850 -0.5003 -0.3897
 3186SOL    HW121194   3.611   4.170   9.414 -0.3309 -0.5028 -0.4709
 3186SOL    HW221195   3.506   4.128   9.496  0.3576 -0.6123 -0.1501
 3187SOL     OW21196   1.200   2.823   2.971  0.3361 -0.2143  0.1521
 3187SOL    HW121197   1.114   2.787   2.950  0.8539 -0.2147 -1.9609
 3187SOL    HW221198   1.223   2.876   2.895 -0.6992 -0.7894 -0.5669
 3188SOL     OW21199   3.181   0.701   5.162  0.4340 -0.2740  0.3370
 3188SOL    HW121200   3.170   0.627   5.221  0.2315 -1.7198 -1.4911
 3188SOL    HW221201   3.138   0.665   5.084 -0.6862  0.4381  0.6313
 3189SOL     OW21202   1.081   2.733   7.272  0.0387 -0.1377  0.3715
 3189SOL    HW121203   1.088   2.821   7.307 -1.5957  0.1694 -0.0724
 3189SOL    HW221204   1.151   2.694   7.323  0.5385  0.9292  0.4848
 3190SOL     OW21205   2.030   4.519  17.414 -0.5108 -0.2198 -0.0080
 3190SOL    HW121206   2.000   4.483  17.330  1.2978  2.2578 -1.7272
 3190SOL    HW221207   2.121   4.542  17.395 -0.9840  0.8751 -0.9668
 3191SOL     OW21208   3.494   4.705   2.863 -0.4620  0.1682 -0.1476
 3191SOL    HW121209   3.499   0.021   2.940 -3.2326  0.7873 -0.4279
 3191SOL    HW221210   3.516   0.027   2.794 -1.9486  0.7994 -0.0495
 3192SOL     OW21211   1.636   4.190  12.717  0.3945 -0.1561  0.0404
 3192SOL    HW121212   1.650   4.225  12.629 -1.8701  1.4792  0.3258
 3192SOL    HW221213   1.647   4.097  12.697 -0.3660 -0.1648 -0.3569
 3193SOL     OW21214   2.971   0.570  12.830  0.0828 -0.1148  0.2077
 3193SOL    HW121215   3.050   0.516  12.836  1.2225  1.2889 -2.3076
 3193SOL    HW221216   2.966   0.601  12.739 -2.7140  0.1536  0.4624
 3194SOL     OW21217   0.341   2.007   1.815 -0.1790  0.9683 -0.2679
 3194SOL    HW121218   0.277   2.022   1.884 -0.4276  1.0106 -0.5081
 3194SOL    HW221219   0.291   2.049   1.745  1.0835  1.9755 -0.5626
 3195SOL     OW21220   3.883   3.277   1.144  0.4314 -0.4908  0.6000
 3195SOL    HW121221   3.965   3.229   1.158  0.6107 -0.1550  0.6933
 3195SOL    HW221222   3.826   3.244   1.214 -2.4702  2.6842 -0.3053
 3196SOL     OW21223   1.638   1.061   5.273 -0.3729  0.7383 -0.7280
 3196SOL    HW121224   1.578   1.021   5.211 -2.1495  0.7982  0.9411
 3196SOL    HW221225   1.587   1.070   5.353 -1.1542 -0.7034 -1.0813
 3197SOL     OW21226   1.611   3.050  17.727  0.2902 -0.6662 -0.3364
 3197SOL    HW121227   1.647   2.995   0.038 -2.3451  0.4309  1.9613
 3197SOL    HW221228   1.554   3.113   0.015  0.6077 -1.6330  1.3931
 3198SOL     OW21229   4.069   2.064   4.506  0.5672 -0.1104  0.0115
 3198SOL    HW121230   4.058   1.973   4.535  1.2727 -0.4043 -0.6322
 3198SOL    HW221231   4.161   2.079   4.530  0.6995 -1.9228  0.6900
 3199SOL     OW21232   4.493   0.468  14.753  0.5071 -0.0899 -0.3558
 3199SOL    HW121233   4.476   0.374  14.748 -0.7644  0.1625 -0.7484
 3199SOL    HW221234   4.550   0.455  14.829 -0.5594  0.5015  0.5391
 3200SOL     OW21235   1.974   0.143  10.313 -0.5553 -0.3040 -0.1486
 3200SOL    HW121236   1.942   0.096  10.390  1.0666 -2.6809 -0.9039
 3200SOL    HW221237   1.928   0.226  10.323  0.3988  0.4269 -1.7669
 3201SOL     OW21238   3.168   0.108   2.236  0.0199  0.0126 -0.0604
 3201SOL    HW121239   3.082   0.068   2.223 -0.4724 -0.0464  3.4968
 3201SOL    HW221240   3.144   0.194   2.271 -1.7399 -0.8789  0.8839
 3202SOL     OW21241   0.683   4.700   5.840  0.5081  0.7373 -0.1163
 3202SOL    HW121242   0.645   4.612   5.839  1.9143  0.1508 -0.8715
 3202SOL    HW221243   0.616   4.738   5.783  0.9672  3.3437  1.0879
 3203SOL     OW21244   4.562   4.326  15.568 -0.5231 -0.2749  0.4216
 3203SOL    HW121245   4.568   4.277  15.650 -1.5590 -1.1445 -0.0206
 3203SOL    HW221246   4.577   4.256  15.505 -0.4179 -0.3480  0.5276
 3204SOL     OW21247   3.125   0.148   3.924 -0.5077  0.6928 -0.2045
 3204SOL    HW121248   3.164   0.136   3.837  0.5343 -0.2222  0.3913
 3204SOL    HW221249   3.202   0.126   3.978 -0.9964 -1.8323 -0.5072
 3205SOL     OW21250   2.688   1.583   9.092  0.6307  0.6979 -0.0536
 3205SOL    HW121251   2.637   1.662   9.076  0.5286  1.0653  2.1011
 3205SOL    HW221252   2.717   1.600   9.181  2.4357  1.5169 -0.7913
 3206SOL     OW21253   0.457   4.489   4.846  0.5449 -0.1035  0.2859
 3206SOL    HW121254   0.531   4.446   4.889  2.2527  1.8563 -0.7153
 3206SOL    HW221255   0.425   4.557   4.904 -0.1591 -0.0369 -0.1790
 3207SOL     OW21256   1.286   2.899   8.183  0.0463 -0.1804  0.4445
 3207SOL    HW121257   1.213   2.898   8.121  1.7942  2.6692 -1.7071
 3207SOL    HW221258   1.320   2.811   8.168 -0.5371 -0.4145  0.5346
 3208SOL     OW21259   1.415   4.209   2.375  0.4995 -0.0648  0.2123
 3208SOL    HW121260   1.419   4.114   2.388  1.5053  0.0698  0.8787
 3208SOL    HW221261   1.458   4.234   2.457 -0.0357  0.9853  0.1679
 3209SOL     OW21262   1.052   3.922   4.173  0.0770 -0.5702  0.3327
 3209SOL    HW121263   1.043   3.933   4.267 -0.6855 -0.7949  0.2924
 3209SOL    HW221264   1.132   3.969   4.150  0.0303 -0.6130  0.0730
 3210SOL     OW21265   0.240   3.370   6.761  0.4155 -0.4060  0.4976
 3210SOL    HW121266   0.279   3.284   6.749  0.6445 -0.0436 -1.3426
 3210SOL    HW221267   0.147   3.353   6.744 -0.0157  0.5613  1.8736
 3211SOL     OW21268   0.570   3.891   8.740 -0.4947 -0.1188  0.8835
 3211SOL    HW121269   0.543   3.851   8.822 -2.3183  1.6227  1.1421
 3211SOL    HW221270   0.512   3.966   8.752  0.5925  1.1330 -1.6217
 3212SOL     OW21271   3.982   1.738   8.506  0.6186 -0.0187  0.2123
 3212SOL    HW121272   3.924   1.733   8.430  0.7249  3.5468 -0.0910
 3212SOL    HW221273   3.968   1.828   8.535  0.0062 -0.2261  0.5584
 3213SOL     OW21274   1.633   4.291   8.337  0.6652 -0.1723 -0.6271
 3213SOL    HW121275   1.627   4.349   8.262  2.1194  1.3046  0.4009
 3213SOL    HW221276   1.546   4.250   8.334  0.4616  0.3467 -1.8649
 3214SOL     OW21277   0.189   0.315   3.011  0.0864  0.0759 -0.4223
 3214SOL    HW121278   0.100   0.349   3.020  0.4159  1.3999 -2.2225
 3214SOL    HW221279   0.225   0.304   3.099  0.4084  0.4264 -0.5100
 3215SOL     OW21280   4.233   4.023   5.567  0.6539  0.0499  0.2717
 3215SOL    HW121281   4.191   3.966   5.631 -0.6326  0.7179  0.0299
 3215SOL    HW221282   4.163   4.070   5.521  0.6203  0.0331  0.3059
 3216SOL     OW21283   1.350   0.248   3.228 -0.2917  0.1190  0.7027
 3216SOL    HW121284   1.280   0.235   3.164 -1.6174  0.1280  2.1488
 3216SOL    HW221285   1.404   0.291   3.162 -2.3345 -0.1344 -1.1270
 3217SOL     OW21286   0.228   3.865   9.093  0.2019 -0.2293  0.4286
 3217SOL    HW121287   0.166   3.910   9.034  0.1696  1.7552  1.9865
 3217SOL    HW221288   0.243   3.925   9.165  0.3307  1.2271 -0.8142
 3218SOL     OW21289   0.146   2.110   6.605  0.3315 -0.4622  0.5210
 3218SOL    HW121290   0.068   2.104   6.660 -0.2218 -2.5682 -0.4722
 3218SOL    HW221291   0.134   2.195   6.563 -0.3385 -1.3732 -1.1668
 3219SOL     OW21292   3.957   0.703   5.362 -0.5278  0.1534  0.3469
 3219SOL    HW121293   4.038   0.656   5.380  1.0728  1.6832 -2.8297
 3219SOL    HW221294   3.939   0.734   5.450  0.7243  1.4467  0.1403
 3220SOL     OW21295   1.470   3.733   4.683  0.0864  0.5055  0.0678
 3220SOL    HW121296   1.504   3.790   4.613  1.9018  1.0943  1.4529
 3220SOL    HW221297   1.507   3.788   4.751 -0.3744 -1.0860  1.5885
 3221SOL     OW21298   0.403   3.019   4.253 -0.0896  0.2284 -0.0164
 3221SOL    HW121299   0.313   2.988   4.265  0.0039 -0.2602 -0.6040
 3221SOL    HW221300   0.455   2.939   4.251  0.8353  0.7669  2.3973
 3222SOL     OW21301   0.752   3.225   0.461  0.3539  0.0659  0.0712
 3222SOL    HW121302   0.838   3.205   0.424 -0.6009  1.0545 -2.6806
 3222SOL    HW221303   0.764   3.227   0.556  0.1287  0.4705  0.0884
 3223SOL     OW21304   1.053   0.651   7.294  0.0372  0.1269 -1.0368
 3223SOL    HW121305   0.988   0.685   7.356 -0.7356  0.0152 -1.7946
 3223SOL    HW221306   1.138   0.650   7.338 -0.9218  0.1861  0.8305
 3224SOL     OW21307   0.713   1.396   6.413 -0.4125  1.0834  0.5576
 3224SOL    HW121308   0.630   1.405   6.460 -1.3469 -1.6741 -0.5415
 3224SOL    HW221309   0.673   1.405   6.326 -2.5031  3.3152  1.7571
 3225SOL     OW21310   4.180   2.175  14.778 -0.0118 -0.2117  0.1350
 3225SOL    HW121311   4.265   2.184  14.734 -0.6070 -0.0840 -0.9811
 3225SOL    HW221312   4.203   2.089  14.813  2.7437  0.6738  0.5707
 3226SOL     OW21313   1.084   2.093   7.608 -0.5190 -0.0594 -0.2990
 3226SOL    HW121314   1.042   2.171   7.646  0.5604  0.6187 -0.4984
 3226SOL    HW221315   1.126   2.129   7.530  0.2340 -0.1333  0.0735
 3227SOL     OW21316   2.732   3.873  14.557 -0.7100  0.0779  0.3058
 3227SOL    HW121317   2.743   3.832  14.471 -1.9622  0.7284 -0.1717
 3227SOL    HW221318   2.684   3.952  14.532  0.8573  0.3995 -1.7188
 3228SOL     OW21319   0.524   2.947   5.081  0.2987  0.1103 -0.6683
 3228SOL    HW121320   0.497   2.949   5.173  0.4714 -1.6239 -0.5774
 3228SOL    HW221321   0.482   3.028   5.051 -1.3121 -0.4390  0.0960
 3229SOL     OW21322   3.005   1.669   9.949  0.3621  0.8368  0.3780
 3229SOL    HW121323   3.027   1.762   9.960  1.5815  0.7694 -1.4183
 3229SOL    HW221324   3.086   1.625   9.974  0.0065 -0.6764 -1.0988
 3230SOL     OW21325   4.653   3.794   5.012 -0.2083 -0.3458 -0.5286
 3230SOL    HW121326   0.000   3.824   4.988 -0.5603  1.1977  0.1479
 3230SOL    HW221327   4.665   3.704   4.980  0.5026 -0.9292  1.4111
 3231SOL     OW21328   1.315   3.572  12.756  0.3105 -0.3317 -0.5397
 3231SOL    HW121329   1.285   3.661  12.775  0.1267 -0.4933 -0.0847
 3231SOL    HW221330   1.259   3.516  12.809 -2.1074  1.0427 -1.6299
 3232SOL     OW21331   2.910   4.529   3.944  0.3184  0.3742  1.0223
 3232SOL    HW121332   2.995   4.573   3.939 -0.0790  1.1528  1.0801
 3232SOL    HW221333   2.944   4.461   4.003 -0.8902  0.0883  1.3822
 3233SOL     OW21334   4.044   4.074   9.224 -0.1295 -0.2895 -0.4645
 3233SOL    HW121335   4.061   3.988   9.184 -0.2592 -0.3701 -0.3419
 3233SOL    HW221336   3.984   4.119   9.165 -2.6101 -0.7879  1.7273
 3234SOL     OW21337   0.555   1.650  17.379 -0.2861  0.3198 -0.0532
 3234SOL    HW121338   0.461   1.656  17.396 -0.2002 -1.0921  1.0125
 3234SOL    HW221339   0.565   1.690  17.293 -3.7856 -1.3512 -1.2201
 3235SOL     OW21340   3.412   2.819   9.246  0.9849  0.1191  0.0744
 3235SOL    HW121341   3.364   2.868   9.179 -0.8683  0.4436  1.6547
 3235SOL    HW221342   3.431   2.741   9.194  0.0212  0.4875 -0.8363
 3236SOL     OW21343   2.745   1.494   5.000 -0.0374 -0.3852  0.3953
 3236SOL    HW121344   2.685   1.525   5.068  0.8917  0.2535  0.9294
 3236SOL    HW221345   2.813   1.452   5.052  0.2309 -0.8025 -0.2924
 3237SOL     OW21346   4.372   1.669   6.701 -0.5615 -0.0766 -0.0266
 3237SOL    HW121347   4.332   1.749   6.734 -1.3971 -0.8263  0.7622
 3237SOL    HW221348   4.321   1.606   6.751 -1.6130  0.4497 -0.4264
 3238SOL     OW21349   3.194   2.125   5.919 -0.3767  1.0470  0.1821
 3238SOL    HW121350   3.129   2.117   5.849  1.1135  0.0279 -1.0908
 3238SOL    HW221351   3.258   2.058   5.898  1.5445  2.3052  1.9902
 3239SOL     OW21352   3.121   2.964  15.473 -0.3065 -0.1158 -0.2986
 3239SOL    HW121353   3.084   2.907  15.540 -2.6367  1.0687 -0.6040
 3239SOL    HW221354   3.186   2.899  15.445  0.7852  1.2062 -0.8558
 3240SOL     OW21355   3.926   2.807   7.283  0.3257 -0.0226  0.5595
 3240SOL    HW121356   3.946   2.773   7.196  1.2161 -1.0317  1.1690
 3240SOL    HW221357   3.833   2.786   7.287  0.0589  1.0335  0.1472
 3241SOL     OW21358   3.492   0.923  11.478 -0.5250 -0.3633 -0.1947
 3241SOL    HW121359   3.545   0.886  11.408 -2.8066  1.1621 -2.7384
 3241SOL    HW221360   3.556   0.970  11.531 -1.0232  1.2110 -1.0057
 3242SOL     OW21361   2.421   4.185  15.271 -0.0552  0.1218 -0.3039
 3242SOL    HW121362   2.491   4.249  15.259 -0.6598  1.0676  1.2433
 3242SOL    HW221363   2.352   4.235  15.314  0.9009  1.9355 -0.8715
 3243SOL     OW21364   0.940   3.391  15.658 -0.1938 -0.8829 -0.5125
 3243SOL    HW121365   0.909   3.412  15.570  1.0813 -1.4711 -1.0864
 3243SOL    HW221366   0.893   3.313  15.687  0.2129 -0.6718  0.7348
 3244SOL     OW21367   3.357   2.500   5.595  0.0054  0.5178  0.0051
 3244SOL    HW121368   3.337   2.415   5.557  0.5323  0.6980 -0.6709
 3244SOL    HW221369   3.363   2.482   5.689 -2.0754  2.3333  0.4811
 3245SOL     OW21370   3.340   0.380   2.013  0.0702  0.4725 -0.0964
 3245SOL    HW121371   3.400   0.439   1.966  0.5837 -0.1689 -0.2483
 3245SOL    HW221372   3.402   0.308   2.026 -0.0394  0.6054  1.1991
 3246SOL     OW21373   1.190   1.397   8.373 -0.0332  0.4400 -0.3132
 3246SOL    HW121374   1.197   1.413   8.467  0.0408 -2.6383  0.1848
 3246SOL    HW221375   1.120   1.456   8.343  1.1972  1.9261 -0.2830
 3247SOL     OW21376   1.176   3.164   1.957 -0.3572 -0.6128 -0.1973
 3247SOL    HW121377   1.241   3.234   1.966 -0.5456 -0.4090 -0.4176
 3247SOL    HW221378   1.118   3.208   1.895 -1.8468 -1.7835  0.3468
 3248SOL     OW21379   4.691   4.159   2.553 -0.0156  0.1804  0.3014
 3248SOL    HW121380   0.046   4.163   2.554  0.0628 -1.5684  0.2094
 3248SOL    HW221381   4.674   4.168   2.459 -3.1748  1.5169  0.9761
 3249SOL     OW21382   4.432   2.213   6.887  0.3271  0.2059  0.3182
 3249SOL    HW121383   4.361   2.188   6.947  0.8380 -0.7696  0.5101
 3249SOL    HW221384   4.393   2.281   6.832 -2.0460 -0.1769  1.5110
 3250SOL     OW21385   2.693   4.708   6.396 -0.2354  0.0058  0.1198
 3250SOL    HW121386   2.614   4.729   6.346  0.4526 -1.7148 -1.6440
 3250SOL    HW221387   2.649   4.657   6.464 -0.3120  1.6298  1.2832
 3251SOL     OW21388   2.136   2.749   3.359  0.3742 -0.0331  0.0995
 3251SOL    HW121389   2.088   2.686   3.412 -1.7948  2.1852  0.7376
 3251SOL    HW221390   2.187   2.805   3.417 -1.6322  1.4958  0.3619
 3252SOL     OW21391   2.324   3.643   4.334 -0.0660  0.2151 -0.5237
 3252SOL    HW121392   2.393   3.685   4.282 -0.0903 -1.0772 -1.5921
 3252SOL    HW221393   2.256   3.710   4.330 -1.7396 -1.3783  1.4226
 3253SOL     OW21394   1.039   1.418   1.712  0.2486 -0.2392 -0.4245
 3253SOL    HW121395   1.086   1.467   1.779 -1.0433  1.9628 -1.1598
 3253SOL    HW221396   0.954   1.463   1.718  0.0828 -0.3853 -1.6845
 3254SOL     OW21397   3.987   2.375   3.412  0.2451  0.1501  0.3806
 3254SOL    HW121398   4.047   2.316   3.457  0.4215  0.2618  0.2929
 3254SOL    HW221399   4.008   2.385   3.319  3.3622  2.7643  1.3424
 3255SOL     OW21400   1.806   2.244   3.249  0.0241 -0.0118  0.2452
 3255SOL    HW121401   1.730   2.232   3.306  0.2025 -0.2888  0.4222
 3255SOL    HW221402   1.753   2.229   3.170 -0.4511  0.3410  0.4959
 3256SOL     OW21403   1.922   0.377   6.665 -0.2548 -0.2157 -0.2191
 3256SOL    HW121404   1.983   0.406   6.732  0.3686  0.3566 -1.0351
 3256SOL    HW221405   1.835   0.383   6.705 -0.1954 -2.9087  0.2778
 3257SOL     OW21406   1.124   2.265  17.178  0.7602 -0.4891 -0.1719
 3257SOL    HW121407   1.078   2.186  17.207 -0.3830  0.3021  0.1667
 3257SOL    HW221408   1.164   2.224  17.101  1.5960  0.8013 -0.4301
 3258SOL     OW21409   1.092   1.019   9.178 -0.3543 -0.3881 -0.1669
 3258SOL    HW121410   1.035   1.096   9.175  2.6748  1.8855  1.3307
 3258SOL    HW221411   1.135   1.044   9.259  0.5751  2.1521 -1.4652
 3259SOL     OW21412   3.628   0.358  10.550  0.1375 -0.2573  0.2245
 3259SOL    HW121413   3.623   0.440  10.501  1.5574  0.9264  2.0824
 3259SOL    HW221414   3.537   0.331  10.537  1.1315 -4.8685  3.1939
 3260SOL     OW21415   2.717   3.999   4.372 -0.4642  0.5311  0.3818
 3260SOL    HW121416   2.663   3.922   4.356  1.8789 -1.0138 -0.2056
 3260SOL    HW221417   2.804   3.979   4.337 -0.0141 -0.3089  1.9721
 3261SOL     OW21418   3.573   1.768   3.006 -0.1966 -0.0143  0.4583
 3261SOL    HW121419   3.632   1.744   3.077  1.5171  1.1297 -0.5834
 3261SOL    HW221420   3.488   1.751   3.048  0.0539 -2.2633  0.0341
 3262SOL     OW21421   2.804   0.875   5.139  0.1937 -0.9061 -0.7403
 3262SOL    HW121422   2.899   0.885   5.146 -0.2974  5.0789 -2.0318
 3262SOL    HW221423   2.792   0.787   5.175 -2.6576 -0.2999 -0.1823
 3263SOL     OW21424   1.795   1.097   6.247  0.0066 -0.1637 -0.2484
 3263SOL    HW121425   1.840   1.063   6.170 -0.7761  0.2712 -0.8956
 3263SOL    HW221426   1.706   1.090   6.211 -0.3234 -2.7896  1.0535
 3264SOL     OW21427   0.770   2.174   5.229  0.5779  0.8447 -0.3517
 3264SOL    HW121428   0.719   2.242   5.275 -2.5137 -0.8228 -1.3143
 3264SOL    HW221429   0.863   2.191   5.239  0.9896 -1.6126 -0.2743
 3265SOL     OW21430   0.625   0.427   3.911  0.1593  0.2070 -0.8735
 3265SOL    HW121431   0.559   0.360   3.927  0.0883  0.2199 -1.1158
 3265SOL    HW221432   0.679   0.373   3.854  3.9890  2.1041  0.9546
 3266SOL     OW21433   4.548   2.616   3.766 -0.4773 -0.7647  0.3147
 3266SOL    HW121434   4.588   2.636   3.851  0.8373  0.8704 -0.6911
 3266SOL    HW221435   4.620   2.566   3.728  1.9759  2.1557  1.0860
 3267SOL     OW21436   2.501   2.850   8.883  0.6400  0.1878  0.6931
 3267SOL    HW121437   2.574   2.824   8.939  0.4512 -1.7529  0.0227
 3267SOL    HW221438   2.532   2.939   8.865  1.2316  0.0479  1.0189
 3268SOL     OW21439   3.155   3.060   4.923 -0.5053  0.7672 -0.6759
 3268SOL    HW121440   3.131   2.969   4.908  1.3930 -0.1024  1.4613
 3268SOL    HW221441   3.231   3.071   4.865 -0.5164 -2.8642 -1.3804
 3269SOL     OW21442   4.121   3.873   5.797 -0.0169 -0.2801 -0.3241
 3269SOL    HW121443   4.031   3.889   5.827  0.6769  0.3474  1.4262
 3269SOL    HW221444   4.117   3.779   5.778  0.0466 -0.3216 -0.1270
 3270SOL     OW21445   1.813   1.690  17.067  0.1473 -0.0512  0.4765
 3270SOL    HW121446   1.876   1.629  17.029 -1.3501 -0.9931 -0.5194
 3270SOL    HW221447   1.791   1.754  17.000  0.7790 -1.2285 -0.8583
 3271SOL     OW21448   4.664   4.546   8.162 -0.4310 -0.0873 -0.0551
 3271SOL    HW121449   4.615   4.483   8.110 -1.3850 -0.8015  1.7639
 3271SOL    HW221450   4.634   4.628   8.121 -0.1041  0.5644  1.0154
 3272SOL     OW21451   0.511   0.760   5.138  0.0676  0.3231 -0.5595
 3272SOL    HW121452   0.443   0.698   5.113 -0.1443  0.5656 -0.5818
 3272SOL    HW221453   0.466   0.840   5.111 -1.1576  0.6408  2.3873
 3273SOL     OW21454   3.545   3.282   3.893  0.0091 -0.4136  0.1249
 3273SOL    HW121455   3.545   3.283   3.989 -2.0363 -0.8763  0.1381
 3273SOL    HW221456   3.593   3.206   3.859 -0.6191  0.1025 -1.8982
 3274SOL     OW21457   2.127   0.080   5.278  0.2211 -1.0426  0.4360
 3274SOL    HW121458   2.086   0.151   5.326 -1.5389 -0.9058 -1.2621
 3274SOL    HW221459   2.124   0.001   5.332  0.3958 -1.9757 -0.9347
 3275SOL     OW21460   2.978   3.229  11.746  0.1077 -0.3136  0.6977
 3275SOL    HW121461   3.009   3.248  11.657  0.1363 -2.0103  0.3477
 3275SOL    HW221462   2.955   3.138  11.728  1.6011 -0.3697 -0.9184
 3276SOL     OW21463   4.698   4.024   4.661  0.4288 -0.0978  0.0318
 3276SOL    HW121464   0.049   3.999   4.679  0.0750 -1.0040  0.5435
 3276SOL    HW221465   4.719   4.115   4.640 -2.1341  0.3132 -0.7692
 3277SOL     OW21466   3.502   2.709   5.940  0.0998 -0.2243  0.5910
 3277SOL    HW121467   3.458   2.624   5.929 -0.2922  0.3634 -2.5610
 3277SOL    HW221468   3.469   2.757   5.864  0.4434 -0.6520  0.1675
 3278SOL     OW21469   0.948   3.953  12.729  0.3412 -0.0180  0.1517
 3278SOL    HW121470   0.903   3.892  12.670  0.0618 -0.6491  1.0179
 3278SOL    HW221471   0.883   4.023  12.738  4.4074  3.6890  0.7397
 3279SOL     OW21472   0.970   3.255   0.822 -0.0263  0.4571  0.0322
 3279SOL    HW121473   0.974   3.273   0.916  0.0379  0.6376 -0.0059
 3279SOL    HW221474   0.885   3.291   0.797 -1.0739 -1.9879 -0.0034
 3280SOL     OW21475   3.775   0.116   3.080  0.1843  0.4000 -0.9068
 3280SOL    HW121476   3.773   0.178   3.007 -1.3345  1.5603  0.1190
 3280SOL    HW221477   3.869   0.096   3.084  0.0966  0.4994  1.3968
 3281SOL     OW21478   2.805   3.840  12.889 -0.0773  0.7256  0.0171
 3281SOL    HW121479   2.835   3.880  12.808 -0.3568 -2.3530 -1.6127
 3281SOL    HW221480   2.739   3.909  12.901 -1.1071 -0.1766 -0.4497
 3282SOL     OW21481   1.360   2.962   8.478  0.2722  0.2805 -0.6189
 3282SOL    HW121482   1.351   3.024   8.550 -0.3602  0.8825 -1.2131
 3282SOL    HW221483   1.272   2.959   8.439 -0.1851  1.0740  0.3685
 3283SOL     OW21484   1.446   0.092   0.650 -0.0694  0.3173  0.1662
 3283SOL    HW121485   1.450   0.002   0.681  0.2269  0.6295  1.0186
 3283SOL    HW221486   1.351   0.106   0.653 -0.0513  0.7249 -1.1139
 3284SOL     OW21487   1.567   0.815   5.463 -0.1592 -0.0375  0.3770
 3284SOL    HW121488   1.604   0.771   5.539  1.4212  0.7268  0.0531
 3284SOL    HW221489   1.585   0.907   5.485  1.7285  0.1031 -1.7258
 3285SOL     OW21490   3.718   1.003  10.805 -0.6080 -0.6116 -0.1894
 3285SOL    HW121491   3.800   0.979  10.763  1.1074  1.6596  1.8462
 3285SOL    HW221492   3.668   1.024  10.726 -0.8085  0.4897  0.2296
 3286SOL     OW21493   2.226   0.619   3.133 -0.4298 -0.0171  0.2590
 3286SOL    HW121494   2.211   0.666   3.216 -0.3884  1.6339 -0.6694
 3286SOL    HW221495   2.293   0.672   3.090  0.0466 -0.3516  0.5959
 3287SOL     OW21496   2.990   2.625   4.299  0.4510 -0.2140  0.2842
 3287SOL    HW121497   2.949   2.567   4.363 -3.2239  2.0774 -0.0192
 3287SOL    HW221498   3.035   2.562   4.243 -0.5042  1.2753 -2.1379
 3288SOL     OW21499   4.647   2.298   7.412 -0.1687 -0.4773  0.2965
 3288SOL    HW121500   4.628   2.236   7.482  1.1057 -1.4621 -0.2383
 3288SOL    HW221501   4.638   2.380   7.460  4.4428  1.4933 -2.1753
 3289SOL     OW21502   3.807   2.043  16.076 -0.1297  0.2101 -0.0790
 3289SOL    HW121503   3.790   2.041  16.170  0.8419  1.1739  0.1114
 3289SOL    HW221504   3.892   2.001  16.060 -0.5783 -1.0791  0.9236
 3290SOL     OW21505   4.610   1.985   6.504  0.4502  0.2753  0.4625
 3290SOL    HW121506   4.653   2.004   6.421  0.3097  2.0552  0.7953
 3290SOL    HW221507   4.520   2.011   6.482  1.0359  0.2034 -1.9946
 3291SOL     OW21508   1.824   0.655  10.478  0.1207 -0.3406 -0.0179
 3291SOL    HW121509   1.826   0.717  10.551  1.3555  0.0510 -0.3947
 3291SOL    HW221510   1.740   0.679  10.438  0.8242 -0.0909 -1.3318
 3292SOL     OW21511   0.047   0.927   2.038  0.5456  0.4493 -0.4069
 3292SOL    HW121512   0.026   0.913   1.946 -0.0148 -0.1936 -0.1811
 3292SOL    HW221513   4.737   1.003   2.067  1.8052  1.4808 -0.9611
 3293SOL     OW21514   2.823   3.139   4.902 -0.8619 -0.4444 -0.0762
 3293SOL    HW121515   2.765   3.113   4.831  1.2051 -0.5612 -1.7299
 3293SOL    HW221516   2.873   3.203   4.851 -0.7304 -0.1012  0.4730
 3294SOL     OW21517   4.345   4.719   1.808 -0.5191 -0.3001 -0.3817
 3294SOL    HW121518   4.286   0.053   1.799 -1.9666 -1.4738 -0.5842
 3294SOL    HW221519   4.291   4.665   1.866 -0.0574  1.1122  1.3558
 3295SOL     OW21520   4.314   4.463   4.686 -0.0646  0.0417  0.5391
 3295SOL    HW121521   4.260   4.542   4.683  0.3506  0.3942  2.4145
 3295SOL    HW221522   4.358   4.481   4.769  0.8052 -0.4591  0.1893
 3296SOL     OW21523   3.781   1.195  10.997 -0.0730  0.1740 -0.1552
 3296SOL    HW121524   3.857   1.236  10.955 -0.3330  0.6363 -0.1766
 3296SOL    HW221525   3.739   1.133  10.937  0.5815  1.5724 -2.0437
 3297SOL     OW21526   2.970   0.857   3.531 -0.0245  0.0508 -0.6897
 3297SOL    HW121527   3.053   0.897   3.559 -0.1973 -0.2166  0.1991
 3297SOL    HW221528   2.975   0.891   3.442 -0.9438 -2.4491 -1.6976
 3298SOL     OW21529   4.640   4.247  14.584  0.6409  0.1894 -0.1065
 3298SOL    HW121530   4.691   4.221  14.507  0.7651  0.4462 -0.1095
 3298SOL    HW221531   4.644   4.168  14.638  2.7247  0.2001 -0.2451
 3299SOL     OW21532   2.833   3.847   6.148 -0.4531  0.0372  0.1117
 3299SOL    HW121533   2.840   3.752   6.153 -0.4388  0.0828  1.1430
 3299SOL    HW221534   2.741   3.850   6.123 -0.7021 -1.9314  0.7725
 3300SOL     OW21535   1.515   0.767   0.465 -0.0914  0.3847 -0.0519
 3300SOL    HW121536   1.440   0.814   0.427 -0.8636  0.3011  1.3599
 3300SOL    HW221537   1.496   0.771   0.558 -1.3645 -1.8815 -0.2153
 3301SOL     OW21538   4.541   1.198  10.161 -0.0865  0.1146  0.0308
 3301SOL    HW121539   4.473   1.157  10.214  0.5554  0.0876  0.8365
 3301SOL    HW221540   4.579   1.122  10.117 -0.8856 -0.2038 -0.1037
 3302SOL     OW21541   3.240   2.241   8.420 -0.2576 -0.2638  0.0356
 3302SOL    HW121542   3.313   2.182   8.404 -0.3586 -0.6404  1.0174
 3302SOL    HW221543   3.172   2.185   8.456  0.4253 -1.6085 -0.7760
 3303SOL     OW21544   3.459   4.137  14.497 -0.1427 -0.0773  0.1729
 3303SOL    HW121545   3.510   4.128  14.416 -0.7401 -0.5043 -0.1542
 3303SOL    HW221546   3.483   4.053  14.535  2.0645  1.0061  1.1796
 3304SOL     OW21547   3.097   4.190  10.654  0.3974  0.2226 -0.1784
 3304SOL    HW121548   3.016   4.166  10.698  0.6926  1.2786  0.9601
 3304SOL    HW221549   3.158   4.204  10.727 -0.6492  0.5398  0.6440
 3305SOL     OW21550   0.075   4.714   1.538  0.3306  0.0171 -0.5305
 3305SOL    HW121551   0.021   0.034   1.590  0.3771 -0.8001  0.4667
 3305SOL    HW221552   0.142   4.692   1.602  0.3644  0.9855 -0.2404
 3306SOL     OW21553   1.233   1.334   3.523  0.0594 -0.4444 -0.4877
 3306SOL    HW121554   1.163   1.379   3.475  1.6764  1.7213 -0.7999
 3306SOL    HW221555   1.271   1.406   3.573  1.3632 -1.9130  0.6278
 3307SOL     OW21556   0.101   0.948   8.716 -0.3517 -0.0387  0.4619
 3307SOL    HW121557   0.043   0.967   8.643 -1.0161  0.9110  1.2361
 3307SOL    HW221558   0.043   0.910   8.782 -0.0110  0.9862  1.3670
 3308SOL     OW21559   3.407   1.242   7.916 -0.0172  0.0785 -0.3507
 3308SOL    HW121560   3.456   1.231   7.997  0.0800  0.9702 -0.2920
 3308SOL    HW221561   3.406   1.337   7.918 -2.9184  0.0302  0.9729
 3309SOL     OW21562   4.604   2.345   7.101 -0.0544  0.4638 -0.6090
 3309SOL    HW121563   4.645   2.260   7.120 -4.0487 -1.3059  0.0155
 3309SOL    HW221564   4.576   2.339   7.010 -0.7841  0.4981 -0.3871
 3310SOL     OW21565   2.841   3.250   4.129 -0.5603 -0.5275 -0.2250
 3310SOL    HW121566   2.918   3.271   4.182 -0.5785 -0.9222 -0.0445
 3310SOL    HW221567   2.773   3.265   4.196  1.7115  1.4357  1.6618
 3311SOL     OW21568   2.115   0.403  11.357 -0.4242 -0.6657  1.0478
 3311SOL    HW121569   2.201   0.405  11.315 -1.0713 -4.3773 -0.4895
 3311SOL    HW221570   2.057   0.438  11.290  0.0699 -0.7349  0.5884
 3312SOL     OW21571   3.028   4.484   8.799  0.2816 -0.5007  0.7335
 3312SOL    HW121572   3.063   4.400   8.829 -1.5605 -1.6543 -0.3641
 3312SOL    HW221573   3.076   4.551   8.848 -0.1160 -0.8707  1.6305
 3313SOL     OW21574   3.776   2.187   8.082 -0.7387 -0.2996 -0.4038
 3313SOL    HW121575   3.731   2.232   8.154  2.3052  0.1788  1.1972
 3313SOL    HW221576   3.792   2.258   8.019 -1.0043  0.7668  0.7247
 3314SOL     OW21577   2.423   2.387   7.860  0.3310 -1.0852  0.8642
 3314SOL    HW121578   2.425   2.345   7.774 -2.9752 -3.0344  1.7363
 3314SOL    HW221579   2.516   2.407   7.868  0.0628 -0.0201  1.3387
 3315SOL     OW21580   3.697   3.431  14.501 -0.0389  0.1252 -0.2982
 3315SOL    HW121581   3.609   3.399  14.517 -0.0875  0.2705 -0.2711
 3315SOL    HW221582   3.692   3.437  14.405  0.0436 -0.5373 -0.3456
 3316SOL     OW21583   1.434   4.264   7.851 -0.2002  0.3410  0.3136
 3316SOL    HW121584   1.514   4.227   7.888 -1.5312 -2.4125  0.4509
 3316SOL    HW221585   1.367   4.265   7.920  0.5359 -1.6221  1.0661
 3317SOL     OW21586   3.485   4.369   6.396  0.4802 -0.5114 -0.0749
 3317SOL    HW121587   3.398   4.359   6.356  0.2797  2.0422 -0.3239
 3317SOL    HW221588   3.518   4.443   6.344 -0.9801  0.1433 -0.0919
 3318SOL     OW21589   0.451   0.978   9.279  0.1965 -0.2397 -0.5930
 3318SOL    HW121590   0.409   0.894   9.297  0.1572 -0.2649 -0.7974
 3318SOL    HW221591   0.377   1.035   9.298 -0.7164 -2.1481  1.4918
 3319SOL     OW21592   2.262   0.194  10.063 -0.1331  0.1715  0.0294
 3319SOL    HW121593   2.288   0.149  10.144 -0.0285  0.4215  0.1332
 3319SOL    HW221594   2.320   0.147  10.004  0.8900  2.2481 -0.5876
 3320SOL     OW21595   2.886   3.622   4.833  0.1243  0.1817 -0.0359
 3320SOL    HW121596   2.834   3.576   4.767  0.9477 -1.8858  0.7461
 3320SOL    HW221597   2.973   3.585   4.819  1.3524  2.6367  1.0435
 3321SOL     OW21598   0.639   1.629   4.979 -0.0546 -0.0384  0.2283
 3321SOL    HW121599   0.693   1.707   4.993 -0.2937  0.2038 -0.2095
 3321SOL    HW221600   0.615   1.622   5.071  0.7511 -0.3098  0.4196
 3322SOL     OW21601   0.854   1.498   3.082 -0.3661  0.5231  0.2966
 3322SOL    HW121602   0.780   1.558   3.089 -0.9639 -0.3734  1.6981
 3322SOL    HW221603   0.896   1.503   3.169 -0.0391  0.5389  0.1375
 3323SOL     OW21604   0.846   3.568   6.057 -0.6806  0.3858 -0.3206
 3323SOL    HW121605   0.871   3.556   5.965  0.0515 -2.3744  0.2533
 3323SOL    HW221606   0.869   3.660   6.071  1.5190 -0.9785  4.9668
 3324SOL     OW21607   1.277   4.377   7.245 -0.4359 -0.4303  0.0242
 3324SOL    HW121608   1.272   4.383   7.341 -0.2453  0.9711 -0.0562
 3324SOL    HW221609   1.194   4.405   7.208 -0.9222  0.6388  1.9012
 3325SOL     OW21610   1.778   4.165   6.392 -0.1520 -0.6700 -0.6962
 3325SOL    HW121611   1.700   4.164   6.337 -1.2870 -0.4357  0.9075
 3325SOL    HW221612   1.736   4.135   6.472  0.1546 -0.1402 -0.3384
 3326SOL     OW21613   4.605   0.485   7.260 -0.5127  0.0322  0.2959
 3326SOL    HW121614   4.614   0.580   7.248 -2.3271  0.3602  1.5180
 3326SOL    HW221615   4.540   0.464   7.194 -0.8388 -0.2728  0.7220
 3327SOL     OW21616   1.792   1.961   6.448 -0.3583  0.1045  0.1611
 3327SOL    HW121617   1.761   2.020   6.516 -0.0474  0.7360 -0.2451
 3327SOL    HW221618   1.726   1.981   6.382 -1.0810 -0.6958  0.6392
 3328SOL     OW21619   2.876   2.976   3.398  0.0165 -0.2405 -0.0966
 3328SOL    HW121620   2.830   2.945   3.476  2.5619 -0.7046  1.1866
 3328SOL    HW221621   2.795   3.001   3.351 -0.5108 -0.2911  0.7892
 3329SOL     OW21622   4.035   0.157   3.834 -0.6232 -0.3950 -0.0392
 3329SOL    HW121623   4.079   0.087   3.882  2.1835  1.4302  0.0804
 3329SOL    HW221624   4.045   0.224   3.902 -0.2714  1.8232 -2.2638
 3330SOL     OW21625   3.651   2.425  17.221  0.2388 -0.0385  0.8875
 3330SOL    HW121626   3.560   2.401  17.238 -0.0252 -1.3161 -2.2197
 3330SOL    HW221627   3.690   2.413  17.307  0.9265  0.3059  0.6276
 3331SOL     OW21628   3.682   3.803   2.954  0.6871  0.2853 -0.5401
 3331SOL    HW121629   3.589   3.783   2.939  0.7438  0.5278 -1.2484
 3331SOL    HW221630   3.684   3.898   2.951  2.3673  0.2997  0.9870
 3332SOL     OW21631   4.499   0.922  17.666 -0.6074  0.3123 -0.2110
 3332SOL    HW121632   4.472   0.871  17.590 -0.8372 -0.8689  0.6562
 3332SOL    HW221633   4.594   0.909  17.661 -0.7350 -0.6447 -0.1519
 3333SOL     OW21634   3.721   1.970   2.922  0.1886  0.8953  0.0881
 3333SOL    HW121635   3.649   1.909   2.905  1.6778  0.2351 -3.9931
 3333SOL    HW221636   3.743   1.981   3.014 -1.1885 -0.6736  0.5896
 3334SOL     OW21637   0.461   0.967  14.735 -0.4336 -0.5259 -1.2167
 3334SOL    HW121638   0.464   0.972  14.831 -1.6532 -1.5356 -1.1303
 3334SOL    HW221639   0.381   1.019  14.724 -0.8102 -0.3451  2.1601
 3335SOL     OW21640   2.150   3.693   2.948  0.1975 -0.0368  0.1792
 3335SOL    HW121641   2.210   3.689   3.022  0.5962 -0.0866 -0.1466
 3335SOL    HW221642   2.191   3.755   2.888 -2.7543  1.8036  0.0665
 3336SOL     OW21643   1.985   1.863   7.144  0.1579 -0.1314  0.6206
 3336SOL    HW121644   2.079   1.856   7.163  0.0908 -3.4758 -0.1993
 3336SOL    HW221645   1.953   1.941   7.189  0.9395  0.0924  0.7966
 3337SOL     OW21646   1.476   2.698  16.297 -0.0515  0.2476  0.0794
 3337SOL    HW121647   1.516   2.776  16.334  0.8421  0.0137 -0.3844
 3337SOL    HW221648   1.444   2.729  16.213  1.2414  1.4740  0.0468
 3338SOL     OW21649   0.207   4.407   2.390  0.2338 -0.4612  0.1772
 3338SOL    HW121650   0.239   4.367   2.309 -0.7593 -0.7468 -0.0699
 3338SOL    HW221651   0.252   4.357   2.458 -1.0339 -1.3507  0.3415
 3339SOL     OW21652   1.993   1.162   4.247  0.0587 -0.0165 -0.0915
 3339SOL    HW121653   2.032   1.109   4.316 -1.7485 -2.2784 -0.7980
 3339SOL    HW221654   1.968   1.240   4.296  2.0643  0.8597 -0.4661
 3340SOL     OW21655   4.654   2.086   7.123 -0.1795  0.4051  0.1187
 3340SOL    HW121656   4.585   2.078   7.189  0.0933 -1.3220  0.1924
 3340SOL    HW221657   4.618   2.027   7.057 -2.2881  3.3160 -1.3479
 3341SOL     OW21658   0.321   1.089   8.717  0.2594 -0.4353 -0.8003
 3341SOL    HW121659   0.315   1.126   8.806  1.2482  1.8832 -1.6898
 3341SOL    HW221660   0.255   1.021   8.727 -1.0510  1.0056  0.5087
 3342SOL     OW21661   2.361   3.950   5.662 -0.1590 -0.2176 -0.1687
 3342SOL    HW121662   2.336   3.986   5.747  0.7865 -1.9155  0.8201
 3342SOL    HW221663   2.319   4.011   5.601 -0.4642 -0.7516 -0.4913
 3343SOL     OW21664   1.745   1.670   9.216 -0.1957 -0.5079  0.2998
 3343SOL    HW121665   1.683   1.720   9.163  1.0384  1.7581  1.0261
 3343SOL    HW221666   1.819   1.671   9.157 -0.4898  0.3937 -0.0387
 3344SOL     OW21667   3.734   2.090   2.496 -0.1407 -0.2688  0.3725
 3344SOL    HW121668   3.663   2.027   2.481 -0.0192 -0.9327  2.6705
 3344SOL    HW221669   3.806   2.047   2.449  0.4555 -0.0485  1.0891
 3345SOL     OW21670   3.854   2.103  15.687 -0.1611 -0.1717 -0.0445
 3345SOL    HW121671   3.822   2.013  15.671 -0.6629  0.1957 -1.1286
 3345SOL    HW221672   3.780   2.140  15.735  0.4746 -2.0433  2.4003
 3346SOL     OW21673   4.031   3.140   1.503 -0.1146  0.0571  1.2577
 3346SOL    HW121674   4.034   3.059   1.554  0.8636 -0.2038  0.7934
 3346SOL    HW221675   4.040   3.205   1.573  3.1627 -1.9787  2.7399
 3347SOL     OW21676   4.603   0.554   5.651 -0.2652  0.5690 -0.2218
 3347SOL    HW121677   4.684   0.605   5.645  0.7194 -0.8271  1.3583
 3347SOL    HW221678   4.590   0.535   5.744  0.4999 -0.5054 -0.3350
 3348SOL     OW21679   3.659   3.883   1.751 -0.3386  0.2863  0.3471
 3348SOL    HW121680   3.698   3.919   1.831  0.4401 -0.8935  0.4999
 3348SOL    HW221681   3.681   3.792   1.774 -0.3644 -0.0788 -1.1091
 3349SOL     OW21682   4.148   3.043   5.690  0.2594 -0.3702  0.5717
 3349SOL    HW121683   4.081   3.019   5.626  1.5332 -2.7840  0.1618
 3349SOL    HW221684   4.095   3.100   5.746 -0.7220 -1.8387  1.1131
 3350SOL     OW21685   0.862   1.687   7.133  0.3763 -0.0685  0.0854
 3350SOL    HW121686   0.911   1.745   7.074  1.2011 -0.7139  0.1320
 3350SOL    HW221687   0.779   1.716   7.095  0.3769 -0.9633 -0.6133
 3351SOL     OW21688   0.909   2.507   5.151  0.0430 -0.6230 -0.3455
 3351SOL    HW121689   0.886   2.599   5.166 -3.3673 -1.6515  0.7359
 3351SOL    HW221690   0.921   2.466   5.237 -0.6609 -0.2920 -0.0889
 3352SOL     OW21691   0.564   0.157   4.959 -0.6490  0.4381  0.0891
 3352SOL    HW121692   0.575   0.199   5.044 -0.0252  1.9886 -0.7689
 3352SOL    HW221693   0.493   0.097   4.983 -0.4896 -0.8425 -2.5789
 3353SOL     OW21694   4.163   3.193   0.585 -0.1111  0.7272  0.0173
 3353SOL    HW121695   4.225   3.128   0.553  0.3056  1.1876 -0.1077
 3353SOL    HW221696   4.167   3.178   0.679  0.4758 -1.5862 -0.3971
 3354SOL     OW21697   3.249   4.194  16.130  0.1183 -0.1314  0.5840
 3354SOL    HW121698   3.263   4.213  16.223 -1.7165  2.0387  0.4306
 3354SOL    HW221699   3.288   4.108  16.114 -1.7935 -0.5089 -2.1316
 3355SOL     OW21700   3.259   4.184   6.071 -0.2922 -0.1755 -0.2799
 3355SOL    HW121701   3.309   4.110   6.106 -0.6342  0.3012  1.2167
 3355SOL    HW221702   3.221   4.140   5.995 -1.2161 -1.3351  0.8372
 3356SOL     OW21703   3.886   3.011   3.952  0.2181  0.0250  0.0971
 3356SOL    HW121704   3.893   3.062   4.032  0.4849  1.0544 -0.5804
 3356SOL    HW221705   3.805   2.962   3.964 -0.2748  0.7411 -0.2979
 3357SOL     OW21706   1.781   0.651   6.972 -0.2979  0.2525 -0.5185
 3357SOL    HW121707   1.737   0.566   6.983 -2.7702  1.6925  0.7479
 3357SOL    HW221708   1.820   0.636   6.886  1.3166  2.1811 -0.1214
 3358SOL     OW21709   2.807   4.327  16.872  0.7129 -0.2867  0.7433
 3358SOL    HW121710   2.810   4.281  16.788 -0.0597 -0.2574  0.7052
 3358SOL    HW221711   2.714   4.345  16.878  1.3702  3.3792 -0.1644
 3359SOL     OW21712   2.204   1.004  10.418 -0.0532 -0.2668  0.1039
 3359SOL    HW121713   2.169   1.039  10.500  2.6312  0.1432  1.0507
 3359SOL    HW221714   2.155   0.922  10.420  1.5955 -1.2121  0.9259
 3360SOL     OW21715   4.333   2.892   0.907 -0.3897 -0.0517  0.0169
 3360SOL    HW121716   4.375   2.976   0.893  2.9657 -1.7187 -0.0277
 3360SOL    HW221717   4.260   2.903   0.968 -1.1567  0.2856 -0.9784
 3361SOL     OW21718   2.859   2.095  13.191  0.0948 -0.3194  0.2952
 3361SOL    HW121719   2.783   2.041  13.172  0.6346 -0.4100 -1.6350
 3361SOL    HW221720   2.899   2.049  13.265 -0.0909  0.7290  1.0461
 3362SOL     OW21721   4.271   2.582  14.756  0.0057  0.3645 -0.1569
 3362SOL    HW121722   4.353   2.619  14.725 -1.0065 -0.1861 -3.5084
 3362SOL    HW221723   4.213   2.647  14.718 -1.4422 -0.5870  0.3921
 3363SOL     OW21724   3.432   0.020  12.631  0.7716 -0.7156  0.2325
 3363SOL    HW121725   3.471   4.727  12.550  1.2891  2.2074 -0.6909
 3363SOL    HW221726   3.410   0.111  12.610  1.3045 -0.2163  1.8170
 3364SOL     OW21727   2.728   1.657   9.373  0.2572 -0.0683  0.0472
 3364SOL    HW121728   2.774   1.733   9.408 -1.6221  0.9665  0.2583
 3364SOL    HW221729   2.783   1.588   9.410  0.9837  1.6542  2.1495
 3365SOL     OW21730   3.262   0.571   4.726 -0.3526  0.1692  0.2460
 3365SOL    HW121731   3.245   0.518   4.804 -2.5654  2.9199  1.6066
 3365SOL    HW221732   3.326   0.514   4.682 -0.1325  0.0631  0.6966
 3366SOL     OW21733   4.242   2.591   0.109  0.4695 -0.0374 -0.1544
 3366SOL    HW121734   4.224   2.524   0.043 -0.0156  0.1214 -0.1837
 3366SOL    HW221735   4.166   2.571   0.163  0.9871 -1.8764 -0.1077
 3367SOL     OW21736   1.600   2.440   2.202  0.1038 -0.0634  0.5388
 3367SOL    HW121737   1.664   2.461   2.270  0.6333  1.3888 -0.4072
 3367SOL    HW221738   1.535   2.396   2.256  1.3422 -1.6575  0.7127
 3368SOL     OW21739   3.617   0.657   3.232 -0.1257  0.1363  0.0652
 3368SOL    HW121740   3.601   0.565   3.210  2.9683 -0.3275 -0.1225
 3368SOL    HW221741   3.668   0.636   3.310  0.7170  2.8181  0.2248
 3369SOL     OW21742   3.882   0.946   5.250 -0.1629  0.6796  0.3740
 3369SOL    HW121743   3.947   0.950   5.180 -0.9118  1.1658 -0.2924
 3369SOL    HW221744   3.899   0.854   5.270  1.1061  0.6467 -0.8526
 3370SOL     OW21745   1.949   3.518   2.945  0.3501 -0.5667  0.1637
 3370SOL    HW121746   1.973   3.464   3.021  3.7166  0.6414 -0.0315
 3370SOL    HW221747   2.017   3.585   2.951  1.3354 -1.6631  1.1441
 3371SOL     OW21748   3.176   3.359   0.133  0.4270  0.3948  0.1008
 3371SOL    HW121749   3.232   3.421   0.180 -0.8545  1.0622  0.7389
 3371SOL    HW221750   3.173   3.403   0.048  1.5176 -2.5082 -1.4455
 3372SOL     OW21751   2.163   0.465   6.783 -0.1438  0.1358 -0.2186
 3372SOL    HW121752   2.210   0.385   6.757 -0.3573  0.0268 -0.2678
 3372SOL    HW221753   2.228   0.533   6.766 -0.3958 -0.1108 -2.1609
 3373SOL     OW21754   0.046   2.023   4.381 -0.1438 -0.2188  0.4327
 3373SOL    HW121755   0.086   1.949   4.336  0.3086  0.5606 -0.4494
 3373SOL    HW221756   0.111   2.051   4.446  0.6382 -0.4082 -0.2600
 3374SOL     OW21757   3.729   0.483   0.511 -0.0181  0.1347 -0.3316
 3374SOL    HW121758   3.659   0.489   0.576 -1.0936  1.0844 -1.5593
 3374SOL    HW221759   3.793   0.542   0.549 -0.9731 -0.1264  1.6447
 3375SOL     OW21760   1.716   4.678  14.944  0.1983 -0.9353 -0.2403
 3375SOL    HW121761   1.725   4.614  14.874 -0.1683  0.4317 -1.5402
 3375SOL    HW221762   1.754   4.628  15.016  2.8144  0.4708 -0.6512
 3376SOL     OW21763   2.793   4.263   8.383 -0.4359  0.0462  0.0830
 3376SOL    HW121764   2.827   4.241   8.470  0.5554 -0.4340 -0.4326
 3376SOL    HW221765   2.700   4.253   8.404 -0.6313  0.6197 -0.5120
 3377SOL     OW21766   1.116   0.027   1.538  0.1678 -0.0942 -0.0636
 3377SOL    HW121767   1.038   4.720   1.510 -0.7256  0.8322  0.8709
 3377SOL    HW221768   1.167   0.039   1.458  2.0528 -1.6963  0.9247
 3378SOL     OW21769   4.209   0.383  16.816  0.0737  0.2933  0.2993
 3378SOL    HW121770   4.295   0.414  16.844 -0.9465  2.9107  0.5272
 3378SOL    HW221771   4.219   0.288  16.820  0.3381  0.3688  1.5005
 3379SOL     OW21772   1.325   3.610   7.044  0.1764 -0.0961  0.4122
 3379SOL    HW121773   1.233   3.627   7.022  0.2986 -0.0372 -0.0541
 3379SOL    HW221774   1.366   3.630   6.960  0.3436  0.3083  0.5872
 3380SOL     OW21775   2.811   0.001  12.055 -0.6827  0.1485 -0.6766
 3380SOL    HW121776   2.892   4.692  12.068 -2.4872 -2.3953  0.8761
 3380SOL    HW221777   2.785   4.685  11.982  0.8915 -0.2723 -0.9147
 3381SOL     OW21778   1.873   4.113   9.442  0.0868  0.0368  0.4446
 3381SOL    HW121779   1.922   4.073   9.371  1.1463  0.5294  0.8955
 3381SOL    HW221780   1.945   4.165   9.479  0.5488  0.2724 -0.7767
 3382SOL     OW21781   0.577   2.692   6.671 -0.9534  0.2879  0.3101
 3382SOL    HW121782   0.668   2.714   6.689 -0.9894 -0.1551  1.0522
 3382SOL    HW221783   0.570   2.604   6.708  1.4936 -0.5562 -1.2104
 3383SOL     OW21784   1.639   3.918   4.855  0.8334  0.2105 -0.0687
 3383SOL    HW121785   1.703   3.851   4.880  0.6130 -0.3786 -1.0663
 3383SOL    HW221786   1.666   3.992   4.908  1.1181  1.0734 -1.4259
 3384SOL     OW21787   1.740   2.780   8.453  0.6435  0.6797 -0.6659
 3384SOL    HW121788   1.684   2.762   8.529  0.5089  1.2959 -0.6140
 3384SOL    HW221789   1.822   2.756   8.497 -0.7528  2.3719  2.9002
 3385SOL     OW21790   2.784   4.320   3.832 -0.0148  0.8080  0.6302
 3385SOL    HW121791   2.828   4.405   3.841 -0.4010  1.1092 -0.3269
 3385SOL    HW221792   2.722   4.317   3.905 -0.7843  0.2178 -0.0462
 3386SOL     OW21793   3.358   1.247   4.658  0.2750 -0.4028  0.1325
 3386SOL    HW121794   3.267   1.238   4.687 -0.1794 -2.1414 -1.8142
 3386SOL    HW221795   3.344   1.309   4.586 -0.4766  0.4397  0.9966
 3387SOL     OW21796   4.230   4.184   4.003  0.9995  0.5439  0.7351
 3387SOL    HW121797   4.269   4.098   3.990 -0.6309  0.0314 -0.5937
 3387SOL    HW221798   4.274   4.204   4.087 -0.7788  2.8304  1.1279
 3388SOL     OW21799   1.541   2.611   7.238 -0.2332  0.4376  0.1425
 3388SOL    HW121800   1.608   2.564   7.287  0.1644  0.2354 -0.6021
 3388SOL    HW221801   1.592   2.653   7.168 -0.1601 -0.7182 -0.4898
 3389SOL     OW21802   3.682   0.721   5.161 -0.2068 -0.4169 -0.3695
 3389SOL    HW121803   3.654   0.802   5.120  1.3671 -0.2335 -1.0767
 3389SOL    HW221804   3.639   0.737   5.245  0.0502 -1.2530 -0.0698
 3390SOL     OW21805   0.222   3.033  13.230 -0.1446 -0.2571 -0.2051
 3390SOL    HW121806   0.166   3.102  13.195 -0.4342 -0.5088 -0.2323
 3390SOL    HW221807   0.175   2.958  13.193 -0.3066 -0.6581  0.7995
 3391SOL     OW21808   2.645   0.076   8.568  0.1572 -0.0651  0.2181
 3391SOL    HW121809   2.706   0.107   8.501 -0.4194  0.7714  0.0867
 3391SOL    HW221810   2.680   4.727   8.575 -0.5204 -0.2335  1.3970
 3392SOL     OW21811   1.518   4.610   6.258 -0.0619 -0.0135  0.2505
 3392SOL    HW121812   1.450   4.613   6.324  0.7529  1.6385  1.0205
 3392SOL    HW221813   1.568   4.687   6.285 -0.1574 -1.0246  3.2593
 3393SOL     OW21814   4.105   1.736   7.879 -0.3428  0.0358 -0.8363
 3393SOL    HW121815   4.022   1.723   7.925 -0.5485  0.3004 -1.1300
 3393SOL    HW221816   4.135   1.814   7.926 -1.5773 -1.0129  1.6756
 3394SOL     OW21817   1.650   0.919  11.162  0.1462 -0.1568 -0.0382
 3394SOL    HW121818   1.688   0.834  11.185  0.7965  0.4794  1.2883
 3394SOL    HW221819   1.678   0.968  11.240  1.6244 -1.3586  0.1798
 3395SOL     OW21820   4.098   3.724   9.404  0.1419 -0.0713  0.3457
 3395SOL    HW121821   4.003   3.721   9.391  0.1669  2.0197 -0.2154
 3395SOL    HW221822   4.093   3.654   9.470  2.1214 -0.2097  0.3569
 3396SOL     OW21823   2.832   4.226   1.850 -0.9054 -0.0549 -0.1119
 3396SOL    HW121824   2.769   4.157   1.829  0.0547 -0.7947 -0.5540
 3396SOL    HW221825   2.907   4.176   1.882  0.2549  3.6556  2.9474
 3397SOL     OW21826   2.293   1.982   2.877 -0.3141  0.1211 -0.2292
 3397SOL    HW121827   2.226   2.042   2.844 -1.3631 -1.8540 -1.7113
 3397SOL    HW221828   2.372   2.015   2.833 -1.2471  0.2401 -1.8015
 3398SOL     OW21829   3.943   2.460   9.341  0.1979 -0.4121  0.1974
 3398SOL    HW121830   3.892   2.472   9.261 -1.5150  0.3397  1.4008
 3398SOL    HW221831   3.981   2.546   9.356 -0.6693  0.0065 -0.0177
 3399SOL     OW21832   4.544   0.294   2.341 -0.1710  0.0633  0.5874
 3399SOL    HW121833   4.567   0.231   2.410  2.1595  3.7351  3.1591
 3399SOL    HW221834   4.612   0.288   2.274  0.6637  0.4287  1.3975
 3400SOL     OW21835   1.043   3.793   4.449  0.2234  0.3493  0.3449
 3400SOL    HW121836   1.030   3.706   4.409 -0.5311  1.4415 -1.8089
 3400SOL    HW221837   0.966   3.808   4.504  0.5595 -1.8606  1.4152
 3401SOL     OW21838   2.129   3.644  11.684  0.1841 -0.7788 -0.3713
 3401SOL    HW121839   2.223   3.628  11.687  0.4436  1.3380  2.7071
 3401SOL    HW221840   2.123   3.725  11.734  0.3080  0.6987 -2.8044
 3402SOL     OW21841   1.838   4.646   4.554  0.3903  0.5430 -0.5279
 3402SOL    HW121842   1.933   4.656   4.547  0.4432  0.9591  0.8136
 3402SOL    HW221843   1.803   4.719   4.503 -0.6869  0.4618  0.0907
 3403SOL     OW21844   2.223   3.814   6.139 -0.5009  0.6407 -0.3865
 3403SOL    HW121845   2.134   3.836   6.167  0.8353  0.9095  3.6256
 3403SOL    HW221846   2.204   3.755   6.066 -0.1033  0.2906 -0.2027
 3404SOL     OW21847   4.615   0.966   3.416 -0.4028  0.2608 -0.0115
 3404SOL    HW121848   4.625   0.877   3.448 -0.9943  0.5899  1.1010
 3404SOL    HW221849   4.526   0.986   3.446 -1.3402  0.0931 -2.6527
 3405SOL     OW21850   0.304   0.888   2.636 -0.6550  0.1914 -0.1208
 3405SOL    HW121851   0.321   0.960   2.575  1.2056 -0.5752 -0.5057
 3405SOL    HW221852   0.235   0.930   2.688 -0.1353  1.2035 -0.2337
 3406SOL     OW21853   2.359   2.118   1.031 -0.3573 -0.3667  0.0962
 3406SOL    HW121854   2.383   2.087   1.119 -1.1434 -1.2548 -0.0016
 3406SOL    HW221855   2.410   2.061   0.973 -3.3239 -4.1515  1.1953
 3407SOL     OW21856   2.187   0.829   8.273 -0.6829 -0.8787  0.1097
 3407SOL    HW121857   2.147   0.913   8.249 -0.0373 -1.2157 -2.2288
 3407SOL    HW221858   2.166   0.826   8.366  1.0795  0.1156  0.5446
 3408SOL     OW21859   4.619   2.481  12.039 -0.3015  0.1412  0.2153
 3408SOL    HW121860   4.700   2.502  11.993 -0.3133  0.3869  0.3042
 3408SOL    HW221861   4.633   2.542  12.112  0.8276  3.3322 -2.6962
 3409SOL     OW21862   2.323   0.098   5.719  0.1162 -0.5397  0.1266
 3409SOL    HW121863   2.297   0.127   5.631  0.1215 -0.6710  0.0818
 3409SOL    HW221864   2.242   0.051   5.739  0.8364 -2.0433 -0.5168
 3410SOL     OW21865   0.998   4.170   4.390  0.0163  0.0202  0.0050
 3410SOL    HW121866   0.959   4.135   4.471 -0.6972 -1.5333 -1.0179
 3410SOL    HW221867   0.950   4.253   4.380  1.5482  0.8270 -0.5301
 3411SOL     OW21868   3.951   1.104  10.208  0.1626  0.2022 -0.2191
 3411SOL    HW121869   3.897   1.043  10.258 -1.1340  0.4142 -1.3768
 3411SOL    HW221870   3.991   1.146  10.285  2.4753 -1.7147 -0.3699
 3412SOL     OW21871   3.595   2.931   8.795  0.2003 -0.5657 -0.4662
 3412SOL    HW121872   3.635   2.929   8.883  2.1495  1.6908 -1.2784
 3412SOL    HW221873   3.508   2.918   8.832 -0.1152  3.3793  0.2604
 3413SOL     OW21874   4.380   1.669   8.567 -0.1832 -1.0522  0.2198
 3413SOL    HW121875   4.315   1.665   8.637  1.0002  0.7134  1.4387
 3413SOL    HW221876   4.402   1.577   8.553  1.7190 -0.6622  0.5384
 3414SOL     OW21877   2.473   3.595  16.209 -0.0340  0.4934  0.2299
 3414SOL    HW121878   2.546   3.579  16.149  0.1685 -1.5038  1.0031
 3414SOL    HW221879   2.513   3.608  16.294 -2.5975  1.6413  1.2757
 3415SOL     OW21880   4.557   0.975   3.778  0.3697 -0.6661  0.1221
 3415SOL    HW121881   4.556   1.061   3.736 -0.2716  0.1639  1.8234
 3415SOL    HW221882   4.527   0.996   3.867 -0.1588 -2.4441  0.3609
 3416SOL     OW21883   1.828   1.016   6.520 -0.1421  0.6039  0.4635
 3416SOL    HW121884   1.821   1.059   6.435  0.7846 -2.5625 -1.2384
 3416SOL    HW221885   1.852   1.086   6.580 -0.8830  0.5083  0.8691
 3417SOL     OW21886   1.925   0.515  16.577  0.0444  0.1680  0.8573
 3417SOL    HW121887   1.930   0.515  16.673 -0.1101 -0.2153  0.8649
 3417SOL    HW221888   1.904   0.608  16.567  2.8477  0.9370  2.0246
 3418SOL     OW21889   4.226   1.763  13.609 -0.1213  0.5460 -0.2542
 3418SOL    HW121890   4.156   1.763  13.545  1.6492 -0.9816 -2.1834
 3418SOL    HW221891   4.240   1.671  13.634 -2.1626 -0.2154 -2.0026
 3419SOL     OW21892   3.345   3.106   4.671  0.0693 -0.1993  0.2115
 3419SOL    HW121893   3.315   3.137   4.585  1.6661  3.1817  0.8721
 3419SOL    HW221894   3.395   3.028   4.645  2.0561  1.4917 -1.1279
 3420SOL     OW21895   0.627   3.752   4.804  0.3544  0.2550  0.3685
 3420SOL    HW121896   0.677   3.832   4.785 -0.0377  0.1880 -0.9402
 3420SOL    HW221897   0.687   3.715   4.869  2.0623  0.0240 -1.3431
 3421SOL     OW21898   3.395   1.804  12.710 -0.1507  0.0208  0.1363
 3421SOL    HW121899   3.477   1.790  12.757  0.0197  0.4695 -0.0256
 3421SOL    HW221900   3.435   1.851  12.636 -0.7140  1.4548  0.7367
 3422SOL     OW21901   0.140   2.195   6.907 -0.2950 -0.1491 -0.0251
 3422SOL    HW121902   0.057   2.180   6.863 -0.2242 -1.5077  0.3035
 3422SOL    HW221903   0.135   2.139   6.985 -1.6221  2.3039  1.6522
 3423SOL     OW21904   0.620   2.514   6.309 -0.1249 -0.1587 -0.7951
 3423SOL    HW121905   0.657   2.591   6.353  1.1257 -2.3246  1.9322
 3423SOL    HW221906   0.556   2.484   6.373  0.8527 -1.3131 -0.3567
 3424SOL     OW21907   2.132   3.679  15.530  0.2100 -0.4891  0.1310
 3424SOL    HW121908   2.116   3.588  15.508 -1.5110 -0.3314  0.7773
 3424SOL    HW221909   2.203   3.686  15.594  2.3216  2.1184 -2.4288
 3425SOL     OW21910   0.548   1.934   0.276 -0.2633 -0.7972 -0.4908
 3425SOL    HW121911   0.569   1.879   0.200  1.1423  0.8618 -1.3097
 3425SOL    HW221912   0.631   1.978   0.293 -0.7911  0.1714 -0.3788
 3426SOL     OW21913   1.071   2.388   2.385  0.0088  0.4358  0.0054
 3426SOL    HW121914   1.115   2.306   2.408  0.5056  0.7189  0.0584
 3426SOL    HW221915   0.988   2.382   2.432 -0.1714 -2.3905 -0.6532
 3427SOL     OW21916   3.785   2.920  16.409  0.0953 -0.0311  0.0652
 3427SOL    HW121917   3.789   2.909  16.314  0.7144 -0.3228  0.1275
 3427SOL    HW221918   3.856   2.861  16.435 -1.2037 -1.8573 -0.5310
 3428SOL     OW21919   1.786   4.326   1.800  0.1308 -0.2208 -0.2866
 3428SOL    HW121920   1.834   4.338   1.883  1.0020  1.4548 -1.0310
 3428SOL    HW221921   1.835   4.377   1.736  0.4342 -1.0066 -0.6775
 3429SOL     OW21922   0.709   2.338   5.837 -0.0471  0.0433 -0.1711
 3429SOL    HW121923   0.658   2.260   5.816 -0.9074  0.7314 -0.6737
 3429SOL    HW221924   0.708   2.351   5.932 -1.6474  0.4092 -0.2353
 3430SOL     OW21925   0.349   3.400   8.216  0.0389 -0.1736  0.6764
 3430SOL    HW121926   0.263   3.362   8.236  0.4838 -1.9778 -0.7770
 3430SOL    HW221927   0.406   3.377   8.289 -1.0040  0.1183  1.5854
 3431SOL     OW21928   2.045   0.648   4.523 -0.0943 -0.7955 -0.8442
 3431SOL    HW121929   2.116   0.710   4.545 -0.7682 -0.9875  1.8997
 3431SOL    HW221930   2.005   0.651   4.610 -1.0943 -2.4388 -1.2729
 3432SOL     OW21931   4.289   1.472   7.476 -0.0356 -0.0849 -0.2375
 3432SOL    HW121932   4.358   1.423   7.434 -0.3770  0.2997 -1.2501
 3432SOL    HW221933   4.334   1.552   7.503 -0.2042 -0.3705  0.8855
 3433SOL     OW21934   3.395   1.952   6.673 -0.2604  0.0257 -0.6297
 3433SOL    HW121935   3.438   2.034   6.694  2.1396 -1.0388 -1.4054
 3433SOL    HW221936   3.308   1.975   6.705 -0.3467  0.6004 -1.2770
 3434SOL     OW21937   4.398   1.041   7.464 -0.1008  0.0496  0.1963
 3434SOL    HW121938   4.343   1.021   7.540 -1.5620  1.9767 -0.3647
 3434SOL    HW221939   4.405   0.956   7.421  0.9367  0.6654 -0.8450
 3435SOL     OW21940   2.499   2.421  12.603 -0.1145  0.1998 -0.4978
 3435SOL    HW121941   2.578   2.475  12.608  1.1282 -1.5857 -1.2469
 3435SOL    HW221942   2.508   2.364  12.527 -0.1912 -2.2031  1.3082
 3436SOL     OW21943   0.025   0.028   4.719  0.2105 -0.3183 -0.4659
 3436SOL    HW121944   4.675   0.059   4.725  0.6746  1.1588 -1.1461
 3436SOL    HW221945   0.074   0.106   4.694  0.9067 -0.9043 -0.9544
 3437SOL     OW21946   3.883   2.474   4.417 -0.4785 -0.7513  0.1453
 3437SOL    HW121947   3.884   2.383   4.445 -1.8760 -0.5904  0.7330
 3437SOL    HW221948   3.969   2.469   4.376 -0.7124 -1.6496 -0.2297
 3438SOL     OW21949   4.155   1.331   7.661  0.0187 -0.0084  0.1069
 3438SOL    HW121950   4.203   1.379   7.593  0.0518  0.9966  0.8474
 3438SOL    HW221951   4.198   1.365   7.739  1.1449  1.7315 -1.2482
 3439SOL     OW21952   2.376   2.692   8.702  0.0448  0.0964  0.3733
 3439SOL    HW121953   2.412   2.751   8.769  0.8117  0.1656 -0.1127
 3439SOL    HW221954   2.369   2.618   8.763 -0.9532  0.5014  0.7594
 3440SOL     OW21955   3.897   1.272   6.723  0.2024 -0.9362 -1.0578
 3440SOL    HW121956   3.822   1.332   6.727  1.0520  0.1644 -1.4498
 3440SOL    HW221957   3.915   1.282   6.630  1.3449 -3.1137 -1.0646
 3441SOL     OW21958   2.989   4.513   7.113  0.2250 -0.5042 -0.2319
 3441SOL    HW121959   2.972   4.525   7.019  0.8574  1.5574 -0.0871
 3441SOL    HW221960   2.926   4.574   7.151 -1.0624 -2.3188  0.5354
 3442SOL     OW21961   3.804   3.713  16.257 -0.3237  0.5897  0.1361
 3442SOL    HW121962   3.876   3.763  16.218 -0.8559  0.3649 -1.1400
 3442SOL    HW221963   3.785   3.635  16.204  3.1693 -0.4493  0.4080
 3443SOL     OW21964   4.130   4.677   8.210  0.5224  0.0512  0.0668
 3443SOL    HW121965   4.157   0.022   8.245 -0.0545  1.0646 -1.9675
 3443SOL    HW221966   4.094   4.712   8.128 -0.3687  0.3925  0.5983
 3444SOL     OW21967   2.828   2.347   9.247  0.5168 -0.0507 -0.3197
 3444SOL    HW121968   2.901   2.292   9.220  0.7964  0.1600 -0.0018
 3444SOL    HW221969   2.802   2.297   9.324 -1.2248  1.3999  0.0383
 3445SOL     OW21970   1.972   1.555   3.207  0.4933 -0.1677  0.1390
 3445SOL    HW121971   2.031   1.617   3.250  0.4975 -1.2992  1.7723
 3445SOL    HW221972   2.019   1.476   3.233 -1.8335 -1.0949  1.5226
 3446SOL     OW21973   0.185   2.769  14.535  0.5605  0.3689 -0.6831
 3446SOL    HW121974   0.135   2.697  14.573  1.2472 -0.3106 -1.0714
 3446SOL    HW221975   0.180   2.834  14.605 -0.2004 -0.2766 -0.1537
 3447SOL     OW21976   3.919   3.604  13.348 -0.0840  0.0320 -0.1786
 3447SOL    HW121977   3.900   3.664  13.276  2.8548  1.9876  0.7106
 3447SOL    HW221978   3.837   3.563  13.377  0.4015  0.3681  1.6579
 3448SOL     OW21979   1.728   4.406   5.315 -0.2554  0.7450  0.0802
 3448SOL    HW121980   1.787   4.349   5.266 -1.0163  0.2560 -0.2779
 3448SOL    HW221981   1.640   4.369   5.302 -0.4842  1.6734 -1.0558
 3449SOL     OW21982   0.246   2.403   1.695 -0.2536 -0.0422  0.1801
 3449SOL    HW121983   0.212   2.326   1.649 -1.7398  0.4478  0.4432
 3449SOL    HW221984   0.330   2.425   1.654  0.0675 -1.5129  0.0347
 3450SOL     OW21985   1.016   0.463   8.382 -0.5327  0.4989  0.0854
 3450SOL    HW121986   1.012   0.371   8.410  1.5730 -0.1268 -1.6895
 3450SOL    HW221987   0.940   0.465   8.324  0.2146  0.1601 -0.8984
 3451SOL     OW21988   3.570   0.715  13.566 -0.3557 -0.5030  0.6310
 3451SOL    HW121989   3.632   0.643  13.579 -1.2992 -1.0054  2.4025
 3451SOL    HW221990   3.538   0.746  13.651 -1.3797 -1.0344  0.4386
 3452SOL     OW21991   0.705   1.072   4.266 -0.0680 -0.0178 -0.3205
 3452SOL    HW121992   0.781   1.129   4.277  0.2107 -0.6029  0.7623
 3452SOL    HW221993   0.681   1.051   4.356  3.2134 -2.3820  0.0067
 3453SOL     OW21994   0.418   3.044  12.778 -0.4334 -0.4963  0.0148
 3453SOL    HW121995   0.332   3.086  12.783 -0.8832 -1.3335 -0.7183
 3453SOL    HW221996   0.449   3.072  12.692 -1.1161  1.8232  0.5339
 3454SOL     OW21997   2.233   2.817   8.988  0.4324  0.2275 -0.0390
 3454SOL    HW121998   2.307   2.828   8.928  0.8626 -0.7279  0.3167
 3454SOL    HW221999   2.271   2.821   9.076  0.9091  2.0678 -0.3210
 3455SOL     OW22000   1.754   3.903   0.865  0.0527  0.5720 -0.0287
 3455SOL    HW122001   1.829   3.844   0.870 -0.9908 -0.7948 -0.3374
 3455SOL    HW222002   1.758   3.948   0.949  0.0469 -0.4387  0.5093
 3456SOL     OW22003   4.039   2.200  17.193  0.2446  0.1544 -0.1752
 3456SOL    HW122004   3.970   2.243  17.142  0.3652  0.9813  0.3688
 3456SOL    HW222005   4.042   2.117  17.146  1.9002  0.3781 -0.4438
 3457SOL     OW22006   4.276   0.187   6.424  0.0972  0.0049  0.0797
 3457SOL    HW122007   4.350   0.220   6.475 -0.8724  1.9203  0.2420
 3457SOL    HW222008   4.294   0.235   6.343  1.3401 -0.0928  0.2994
 3458SOL     OW22009   4.481   3.614   2.482  0.0825 -0.0987  0.3367
 3458SOL    HW122010   4.436   3.534   2.456  0.7041 -0.5874  0.7404
 3458SOL    HW222011   4.477   3.607   2.578 -0.5614  0.5861  0.3560
 3459SOL     OW22012   1.257   1.532   9.898  0.4635  0.2870 -0.0714
 3459SOL    HW122013   1.168   1.565   9.882 -0.3189 -2.2165 -0.9992
 3459SOL    HW222014   1.250   1.515   9.992  0.4231  2.4099  0.3024
 3460SOL     OW22015   2.774   2.891   0.038 -0.2014 -0.1512 -0.5466
 3460SOL    HW122016   2.748   2.801   0.055 -0.1284 -0.4078 -1.7654
 3460SOL    HW222017   2.869   2.883   0.029  0.0678  1.5670  0.6378
 3461SOL     OW22018   0.184   1.710   8.676 -0.3501 -0.0879  0.2708
 3461SOL    HW122019   0.252   1.647   8.653  0.2147  1.2644 -1.7857
 3461SOL    HW222020   0.170   1.750   8.590 -0.0550  0.9432  0.6988
 3462SOL     OW22021   4.474   3.931   5.512  0.0490 -0.4578  0.0615
 3462SOL    HW122022   4.380   3.945   5.504  0.4590  2.1044 -0.4778
 3462SOL    HW222023   4.489   4.011   5.562  0.0136 -1.2174  1.2695
 3463SOL     OW22024   4.563   4.447   6.832  0.0071 -0.0145 -0.1813
 3463SOL    HW122025   4.653   4.417   6.821 -0.5516 -1.2915 -1.3715
 3463SOL    HW222026   4.562   4.484   6.920 -1.7021  0.2773 -0.3093
 3464SOL     OW22027   1.669   3.254  13.992  0.1638 -0.2530  0.1104
 3464SOL    HW122028   1.704   3.321  14.050  2.3554  0.1000 -1.6369
 3464SOL    HW222029   1.748   3.240  13.939 -1.5444 -0.9676 -2.2848
 3465SOL     OW22030   4.557   2.796   2.433 -0.3458  0.3831  0.3504
 3465SOL    HW122031   4.561   2.834   2.345 -1.0252  1.6166  0.8517
 3465SOL    HW222032   4.466   2.771   2.447  0.4045 -1.5970  1.5836
 3466SOL     OW22033   0.757   4.163   8.310 -0.4534  0.0755  0.3992
 3466SOL    HW122034   0.691   4.121   8.255  0.9689  0.6836 -1.7742
 3466SOL    HW222035   0.814   4.198   8.241 -1.3187  0.9754  0.1288
 3467SOL     OW22036   4.330   2.142   8.257 -0.0802  0.0400  0.1371
 3467SOL    HW122037   4.400   2.207   8.251 -0.4280  0.6653  2.8540
 3467SOL    HW222038   4.370   2.074   8.311 -1.3088 -1.4478 -0.8245
 3468SOL     OW22039   2.440   0.732   3.374 -1.2853 -0.0029 -0.2351
 3468SOL    HW122040   2.351   0.695   3.380 -1.2339 -0.1044 -0.1044
 3468SOL    HW222041   2.478   0.684   3.301  1.2948  0.0644  1.0926
 3469SOL     OW22042   2.379   2.954   4.507 -0.2558  0.0628  0.3704
 3469SOL    HW122043   2.290   2.981   4.482  1.1405  2.7282 -1.7169
 3469SOL    HW222044   2.350   2.866   4.531  2.1794 -0.1606  2.4312
 3470SOL     OW22045   3.473   2.254  13.717  0.1119  0.3003 -0.0520
 3470SOL    HW122046   3.455   2.289  13.629  0.5097  0.3550 -0.1099
 3470SOL    HW222047   3.418   2.176  13.707  0.2563  0.5317 -2.7764
 3471SOL     OW22048   1.478   1.079  11.953 -0.4631 -0.2998  0.3796
 3471SOL    HW122049   1.537   1.075  12.029  0.5036 -1.0882 -0.4109
 3471SOL    HW222050   1.456   0.988  11.933  1.3360 -0.4769 -0.7703
 3472SOL     OW22051   3.266   1.845   4.476 -0.1231  0.0445  0.4529
 3472SOL    HW122052   3.283   1.816   4.566  1.8251 -1.2087 -0.3097
 3472SOL    HW222053   3.345   1.810   4.434 -0.3063  1.1122 -0.7808
 3473SOL     OW22054   2.632   3.366   4.264 -0.1673  0.0698 -0.1227
 3473SOL    HW122055   2.619   3.441   4.321  1.8238  1.2871 -1.2775
 3473SOL    HW222056   2.578   3.301   4.309  2.0591 -0.8904  1.2000
 3474SOL     OW22057   0.171   4.606   5.306  0.3331  0.6664  0.4086
 3474SOL    HW122058   0.179   4.541   5.376 -0.0527 -0.8119 -0.9011
 3474SOL    HW222059   0.261   4.638   5.308  1.1041 -1.4884  0.3274
 3475SOL     OW22060   4.220   3.903  12.128 -0.1033 -0.5914 -0.3299
 3475SOL    HW122061   4.256   3.983  12.168  1.4736 -1.8789  0.8029
 3475SOL    HW222062   4.126   3.921  12.134 -0.8316 -3.8963 -1.8685
 3476SOL     OW22063   0.570   4.542   6.866  0.0680  0.7327  0.0633
 3476SOL    HW122064   0.526   4.458   6.879 -0.0816  0.7831 -0.1214
 3476SOL    HW222065   0.655   4.518   6.828  0.1164  0.4800  0.3299
 3477SOL     OW22066   4.388   3.874   2.678 -0.0331  0.2148 -0.2049
 3477SOL    HW122067   4.412   3.792   2.721 -1.2926 -0.7465 -1.3214
 3477SOL    HW222068   4.450   3.880   2.605  1.2771  2.1415  1.0750
 3478SOL     OW22069   0.426   4.685   6.185  0.2123 -0.7824 -0.2908
 3478SOL    HW122070   0.383   0.028   6.164 -1.7751 -1.9891 -0.9541
 3478SOL    HW222071   0.453   4.654   6.099  1.3640  1.3772 -0.7211
 3479SOL     OW22072   3.998   1.255   0.932  0.7192 -0.2647 -0.1092
 3479SOL    HW122073   4.020   1.336   0.978 -0.5307 -0.8324  1.4776
 3479SOL    HW222074   4.048   1.195   0.987  1.4828  0.5102  0.0526
 3480SOL     OW22075   3.880   1.337   7.521 -0.3817 -0.4189 -0.0392
 3480SOL    HW122076   3.938   1.360   7.593 -2.1179 -0.2437  1.2968
 3480SOL    HW222077   3.810   1.286   7.561 -0.5124  0.5810  1.0012
 3481SOL     OW22078   2.410   0.220   4.681  0.2883  0.0518  0.1965
 3481SOL    HW122079   2.344   0.276   4.722 -0.1327  0.2043 -0.6657
 3481SOL    HW222080   2.491   0.242   4.725  0.2534  0.6933 -0.0519
 3482SOL     OW22081   2.489   1.700   6.690  0.2323  0.0239  0.4515
 3482SOL    HW122082   2.413   1.647   6.715 -0.4089  1.8344  2.2572
 3482SOL    HW222083   2.446   1.782   6.666  0.2981 -0.6847 -2.1466
 3483SOL     OW22084   1.701   1.473   6.168  0.0280 -0.3297 -0.5174
 3483SOL    HW122085   1.754   1.434   6.098 -1.4508  1.4955 -2.6746
 3483SOL    HW222086   1.748   1.450   6.248  0.3143 -2.0832 -1.1666
 3484SOL     OW22087   1.627   2.039   2.649 -0.1647  0.5425 -0.1521
 3484SOL    HW122088   1.719   2.038   2.678  0.2843  0.9077 -1.5592
 3484SOL    HW222089   1.575   2.064   2.726  0.6763  0.0917  0.5698
 3485SOL     OW22090   2.925   0.720  10.324 -0.3927  0.0066  0.5291
 3485SOL    HW122091   3.000   0.778  10.335  0.3072 -0.6820 -0.6032
 3485SOL    HW222092   2.875   0.765  10.256  1.2891 -2.0777 -2.0941
 3486SOL     OW22093   3.708   2.395  17.494  0.3135 -0.5147  0.0375
 3486SOL    HW122094   3.683   2.380  17.585  0.1216  2.5026  0.4696
 3486SOL    HW222095   3.672   2.481  17.477 -3.0926 -1.8390  0.5892
 3487SOL     OW22096   4.000   1.760   3.509 -0.3704 -0.3327  0.1877
 3487SOL    HW122097   3.912   1.768   3.545 -0.4822  2.3099 -0.6242
 3487SOL    HW222098   4.051   1.824   3.560  0.5564 -0.1190 -0.9797
 3488SOL     OW22099   2.446   4.276   6.141 -0.0262  0.4238  0.1836
 3488SOL    HW122100   2.376   4.224   6.180 -0.7818  0.8173 -0.6628
 3488SOL    HW222101   2.493   4.196   6.117 -1.2184 -0.4702  0.8232
 3489SOL     OW22102   1.261   1.235  11.138 -0.1643  0.0091 -0.0678
 3489SOL    HW122103   1.318   1.173  11.184 -0.2137  1.6188  2.1804
 3489SOL    HW222104   1.186   1.198  11.184 -0.3342 -0.6052 -0.8516
 3490SOL     OW22105   0.378   0.968   5.040  0.0910 -0.1289  0.2129
 3490SOL    HW122106   0.387   1.061   5.061  0.4854  0.1493 -1.1898
 3490SOL    HW222107   0.297   0.971   4.990 -0.4677  0.0900  1.1353
 3491SOL     OW22108   3.586   0.823   9.138 -0.3023  0.0125  0.4719
 3491SOL    HW122109   3.577   0.792   9.228 -2.6471  2.8092  1.1931
 3491SOL    HW222110   3.499   0.792   9.112 -0.4386 -0.7790  1.8769
 3492SOL     OW22111   1.837   1.572   4.276  0.1297 -0.0568 -0.2271
 3492SOL    HW122112   1.849   1.600   4.185 -0.2972  1.2674  0.1305
 3492SOL    HW222113   1.923   1.532   4.287  0.1150 -0.2644 -0.8397
 3493SOL     OW22114   4.295   4.237   7.246  0.1781 -0.1347  0.0422
 3493SOL    HW122115   4.322   4.155   7.288  0.6812 -1.9558 -3.8341
 3493SOL    HW222116   4.256   4.198   7.168  0.7501 -1.7048  0.5440
 3494SOL     OW22117   2.808   1.231   1.514  0.0848  0.1249 -0.6992
 3494SOL    HW122118   2.766   1.152   1.546  1.1302 -1.0955 -2.3647
 3494SOL    HW222119   2.744   1.292   1.550  0.9518  0.4335  0.3296
 3495SOL     OW22120   1.484   0.558   0.217  0.3573 -0.1739 -0.8471
 3495SOL    HW122121   1.478   0.620   0.144  0.3525  0.3411 -0.4089
 3495SOL    HW222122   1.395   0.524   0.229  0.9605 -2.2328 -2.1823
 3496SOL     OW22123   0.217   3.689   5.999 -0.2900  0.5990 -0.4091
 3496SOL    HW122124   0.167   3.754   5.950  0.4351  2.7653  1.7261
 3496SOL    HW222125   0.177   3.608   5.966 -0.8286 -0.1086  1.9905
 3497SOL     OW22126   2.217   0.134   2.777  0.5810 -0.6089 -0.4053
 3497SOL    HW122127   2.209   0.083   2.696 -0.4687 -0.3529 -0.4684
 3497SOL    HW222128   2.310   0.146   2.795  0.4530 -3.1324  1.9388
 3498SOL     OW22129   2.256   4.006  16.999 -0.4513 -0.1135  0.3022
 3498SOL    HW122130   2.341   4.040  17.027  0.6679 -2.9859  0.4116
 3498SOL    HW222131   2.274   3.912  16.996  3.2886  0.6754 -1.5901
 3499SOL     OW22132   0.385   2.562   7.803 -0.1320  0.1705 -0.7475
 3499SOL    HW122133   0.426   2.553   7.888  2.0759 -2.2388 -2.0517
 3499SOL    HW222134   0.448   2.617   7.757  1.5262 -0.7942  0.3656
 3500SOL     OW22135   1.951   4.216   7.809  0.7393 -0.3735  0.1641
 3500SOL    HW122136   2.018   4.181   7.751  0.9188 -0.0241  0.1661
 3500SOL    HW222137   2.008   4.253   7.877 -1.5942 -2.9453  3.5752
 3501SOL     OW22138   0.378   1.019  10.182 -0.3721 -0.2793 -0.1510
 3501SOL    HW122139   0.369   1.083  10.252  0.9778 -1.7054  1.3546
 3501SOL    HW222140   0.316   0.954  10.215  1.1280 -1.8765 -0.4390
 3502SOL     OW22141   0.927   4.709   6.208 -0.6150  0.1780  0.4539
 3502SOL    HW122142   0.872   0.029   6.158  0.1327 -0.5039 -1.2067
 3502SOL    HW222143   0.970   0.022   6.276  0.3452  0.5192 -0.4146
 3503SOL     OW22144   2.786   2.552  12.041  0.0126  0.9058  0.0548
 3503SOL    HW122145   2.718   2.528  12.104 -0.6686 -1.1999 -1.5002
 3503SOL    HW222146   2.797   2.646  12.056  0.1725  0.7144  1.1564
 3504SOL     OW22147   0.742   2.708   3.216  0.3289 -0.2963 -0.7350
 3504SOL    HW122148   0.780   2.712   3.303  0.3357 -1.5781 -0.6794
 3504SOL    HW222149   0.656   2.745   3.235  0.0941 -0.3452 -1.6885
 3505SOL     OW22150   3.124   1.591   6.003 -0.0500  0.3717 -0.1859
 3505SOL    HW122151   3.037   1.589   5.964 -0.6394  1.1604  1.1052
 3505SOL    HW222152   3.183   1.635   5.941  1.9876 -1.1596  0.6685
 3506SOL     OW22153   1.496   3.848   7.585  0.5574 -0.7340  0.0675
 3506SOL    HW122154   1.482   3.906   7.660  2.8301  1.0144 -0.8525
 3506SOL    HW222155   1.430   3.779   7.597  1.7484 -1.7352  0.8717
 3507SOL     OW22156   1.180   2.385   3.917 -0.1375 -0.3033 -0.7774
 3507SOL    HW122157   1.187   2.469   3.871  1.6813 -1.1515 -2.0522
 3507SOL    HW222158   1.227   2.413   3.996 -1.3110 -0.1369 -0.1402
 3508SOL     OW22159   2.855   3.353  16.268  0.3531  0.5455 -0.2389
 3508SOL    HW122160   2.938   3.317  16.237  0.2179 -0.9940  1.1985
 3508SOL    HW222161   2.856   3.433  16.216 -0.1112  2.5869  2.9098
 3509SOL     OW22162   2.103   2.702   0.803 -0.4526 -0.1950  0.0953
 3509SOL    HW122163   2.093   2.617   0.847 -1.2585  0.4626  1.1844
 3509SOL    HW222164   2.178   2.734   0.852 -0.6788 -1.8577  1.5213
 3510SOL     OW22165   2.878   1.423   1.820 -0.0615 -0.1061 -0.4601
 3510SOL    HW122166   2.876   1.375   1.903  0.1313  1.1064  0.2528
 3510SOL    HW222167   2.802   1.399   1.768 -1.5301  1.3477  1.0234
 3511SOL     OW22168   4.371   4.411   7.667  0.5710 -0.1045  0.4235
 3511SOL    HW122169   4.283   4.445   7.650  0.1560 -0.2205  2.2794
 3511SOL    HW222170   4.369   4.315   7.672  1.6278 -0.2290 -1.5812
 3512SOL     OW22171   0.109   1.289   5.263 -0.4363  0.3680  0.8424
 3512SOL    HW122172   0.128   1.342   5.340 -1.2880 -1.6914  2.4851
 3512SOL    HW222173   0.037   1.340   5.226  1.4002  0.9952 -1.8672
 3513SOL     OW22174   2.504   3.883   9.571 -0.0941  0.3308 -0.1492
 3513SOL    HW122175   2.470   3.843   9.491 -0.2161 -0.0604  0.0962
 3513SOL    HW222176   2.592   3.844   9.578 -0.3154  0.0655  1.1336
 3514SOL     OW22177   3.842   2.061   7.749 -0.5655  0.6316  0.2201
 3514SOL    HW122178   3.935   2.065   7.768 -0.3385 -1.2342 -0.4982
 3514SOL    HW222179   3.840   2.080   7.655  3.3281 -0.3242 -0.0590
 3515SOL     OW22180   0.153   3.975  12.254  0.4283 -0.1496  0.3020
 3515SOL    HW122181   0.194   3.943  12.174  1.2391 -2.0253  1.4787
 3515SOL    HW222182   0.074   4.018  12.221 -0.8474 -0.8982  2.3662
 3516SOL     OW22183   3.910   0.573   6.179 -0.1595 -0.1047  0.5113
 3516SOL    HW122184   3.861   0.533   6.107  0.6175 -0.9308  0.4433
 3516SOL    HW222185   3.998   0.540   6.165 -0.5012 -0.9751  0.4050
 3517SOL     OW22186   0.147   2.082   2.791 -0.1104 -0.4944  0.6275
 3517SOL    HW122187   0.093   2.117   2.720  0.0909  0.6746  1.0561
 3517SOL    HW222188   0.232   2.068   2.750 -0.2605  0.1285  0.0943
 3518SOL     OW22189   0.637   3.124   8.746  0.5387 -0.4463  0.5244
 3518SOL    HW122190   0.609   3.173   8.823 -2.1684 -0.7299 -0.2895
 3518SOL    HW222191   0.730   3.103   8.758  0.2560 -0.5016  2.6271
 3519SOL     OW22192   3.929   2.611   8.625  0.3066  0.0501 -0.0985
 3519SOL    HW122193   3.835   2.601   8.635  0.3607 -0.4330 -0.0982
 3519SOL    HW222194   3.967   2.553   8.691  0.2108 -0.2285 -0.2938
 3520SOL     OW22195   1.261   3.164  13.759  0.3064  0.1914 -0.2428
 3520SOL    HW122196   1.165   3.163  13.766  0.2189  0.4506 -1.5054
 3520SOL    HW222197   1.294   3.204  13.840 -1.9045  2.2894 -0.3900
 3521SOL     OW22198   1.650   1.580   7.523  0.2403  0.3806 -0.6803
 3521SOL    HW122199   1.593   1.645   7.482 -1.3489 -0.3657  0.3527
 3521SOL    HW222200   1.742   1.602   7.505 -0.2620  2.9516 -0.0168
 3522SOL     OW22201   3.124   0.100  17.535  0.0894 -0.0487 -0.2575
 3522SOL    HW122202   3.159   0.089  17.446  0.1287  1.3490 -0.4272
 3522SOL    HW222203   3.172   0.036  17.587  0.0211  1.5621  1.7510
 3523SOL     OW22204   2.979   1.918   7.408  0.2459  0.2836 -0.1141
 3523SOL    HW122205   3.051   1.975   7.434 -0.4493  1.5026 -0.8392
 3523SOL    HW222206   3.012   1.873   7.330 -1.8356  0.0545 -0.8705
 3524SOL     OW22207   0.459   4.557   5.565 -0.1525 -0.1828  0.5456
 3524SOL    HW122208   0.452   4.516   5.479 -2.2083 -1.2513  1.2098
 3524SOL    HW222209   0.423   4.477   5.604 -1.1324 -0.6717 -1.3519
 3525SOL     OW22210   1.248   0.344   8.237  0.5803  0.5228  0.3107
 3525SOL    HW122211   1.216   0.254   8.236  2.3645 -0.1123  1.2479
 3525SOL    HW222212   1.168   0.396   8.244 -1.2396 -2.3364  0.6544
 3526SOL     OW22213   3.832   3.730  16.923 -0.2635 -0.2797  0.3595
 3526SOL    HW122214   3.906   3.686  16.883  0.2489  1.1579 -0.2669
 3526SOL    HW222215   3.786   3.751  16.842 -1.0151 -2.5729  0.1771
 3527SOL     OW22216   2.122   3.661   2.402  0.1284  0.5818  0.1141
 3527SOL    HW122217   2.143   3.668   2.309  0.9826 -2.1791  0.1107
 3527SOL    HW222218   2.038   3.615   2.402  0.8215 -0.6928  1.9035
 3528SOL     OW22219   1.977   3.568   6.787  0.0056  0.1144 -0.0819
 3528SOL    HW122220   2.013   3.483   6.762  3.0400  1.1957  0.5862
 3528SOL    HW222221   1.969   3.609   6.701 -0.4070 -0.0486 -0.1188
 3529SOL     OW22222   2.874   4.686  17.256 -0.1451 -0.6371  0.2020
 3529SOL    HW122223   2.809   4.634  17.303  0.9590 -0.1531  2.2747
 3529SOL    HW222224   2.954   4.660  17.301  0.9634 -0.4732 -1.6863
 3530SOL     OW22225   1.513   0.602   3.204  0.1489  0.1508  0.3190
 3530SOL    HW122226   1.552   0.686   3.182 -0.4666  0.8389  1.9346
 3530SOL    HW222227   1.519   0.593   3.299 -1.0296 -0.3139  0.3549
 3531SOL     OW22228   1.753   3.574   7.153  0.3782  0.0158  0.1129
 3531SOL    HW122229   1.711   3.612   7.230  0.8337  1.2188 -0.2372
 3531SOL    HW222230   1.688   3.511   7.121  0.9997  0.1442 -1.3958
 3532SOL     OW22231   3.105   0.054   8.994  0.2459 -0.0801  0.3543
 3532SOL    HW122232   3.140   0.012   8.915 -0.6011 -0.2212  0.0575
 3532SOL    HW222233   3.080   4.719   9.048 -0.2104 -0.7401 -0.7720
 3533SOL     OW22234   0.286   3.621   9.191 -0.5872 -0.3504  0.1703
 3533SOL    HW122235   0.265   3.702   9.145 -0.5387 -0.0904  0.6031
 3533SOL    HW222236   0.230   3.632   9.268  1.7735  3.0999  1.3949
 3534SOL     OW22237   3.612   2.500  13.341 -0.1217 -0.0507 -0.1579
 3534SOL    HW122238   3.623   2.591  13.312 -0.4728  0.1445  0.3218
 3534SOL    HW222239   3.702   2.469  13.350 -0.7930 -1.5232  1.4300
 3535SOL     OW22240   0.738   0.067   8.383  0.1938  0.2849  0.1787
 3535SOL    HW122241   0.652   0.065   8.341  0.7273 -1.6957 -0.7831
 3535SOL    HW222242   0.715   0.132   8.450  0.1401  1.2850 -0.8138
 3536SOL     OW22243   2.064   4.200   6.425  0.3194 -0.0141  0.3381
 3536SOL    HW122244   2.117   4.261   6.476  0.2661  1.7772 -1.7486
 3536SOL    HW222245   1.974   4.230   6.438  0.7591  1.3766  0.1130
 3537SOL     OW22246   2.588   2.115   5.192 -0.2600  0.3861 -0.2313
 3537SOL    HW122247   2.608   2.058   5.117  1.7768 -0.6652  1.1147
 3537SOL    HW222248   2.506   2.155   5.162  0.8919  2.9263  0.0454
 3538SOL     OW22249   1.480   1.289   2.304  1.0080 -0.1862  0.3581
 3538SOL    HW122250   1.433   1.369   2.282  0.3229  0.0970  2.7914
 3538SOL    HW222251   1.419   1.217   2.289 -1.1778  1.8216 -0.5362
 3539SOL     OW22252   1.781   3.642  15.696 -0.0907  0.7789  0.3556
 3539SOL    HW122253   1.814   3.632  15.606  0.5809 -1.2117  0.8155
 3539SOL    HW222254   1.783   3.552  15.730  1.7685  0.0263 -1.6785
 3540SOL     OW22255   0.946   3.524   5.808 -0.0955 -0.0990  0.3506
 3540SOL    HW122256   0.991   3.608   5.799 -0.0054 -0.3707 -1.9380
 3540SOL    HW222257   0.890   3.529   5.730 -1.2263 -3.5021  0.9655
 3541SOL     OW22258   3.316   2.757   2.230 -0.1007  0.0879  0.7402
 3541SOL    HW122259   3.273   2.722   2.153  0.4129  0.7459  0.1594
 3541SOL    HW222260   3.241   2.816   2.240 -2.0495 -2.2301 -0.3793
 3542SOL     OW22261   0.627   2.775  17.422  0.6937 -0.2102 -0.2519
 3542SOL    HW122262   0.708   2.734  17.391  1.5916  0.3054  1.4327
 3542SOL    HW222263   0.617   2.732  17.506 -3.4478  2.1228  0.4575
 3543SOL     OW22264   2.342   2.618  12.344  0.0502 -0.4849 -0.2528
 3543SOL    HW122265   2.311   2.626  12.434  0.5905 -0.7849 -0.0444
 3543SOL    HW222266   2.327   2.706  12.310  0.4033  0.3714  1.8533
 3544SOL     OW22267   0.359   4.711   5.024 -0.6282 -0.2863  0.0503
 3544SOL    HW122268   0.374   4.717   5.118 -1.0256  1.1679  0.0145
 3544SOL    HW222269   0.273   0.013   5.017 -0.2967  0.4009  0.1672
 3545SOL     OW22270   0.165   4.448   8.050 -0.0471  0.1841  0.2307
 3545SOL    HW122271   0.193   4.500   7.976 -2.1730  0.9204 -0.0510
 3545SOL    HW222272   0.111   4.514   8.094 -0.4586 -1.8804  2.8979
 3546SOL     OW22273   3.001   1.981   1.760  0.1755 -0.3794 -0.2697
 3546SOL    HW122274   2.936   2.025   1.815  0.6575  1.5187 -1.2187
 3546SOL    HW222275   2.985   1.888   1.779  0.5087 -0.1512  1.0725
 3547SOL     OW22276   4.230   0.708   4.099  0.3604  0.2689 -0.2235
 3547SOL    HW122277   4.246   0.619   4.128  1.0409  0.2364 -0.6947
 3547SOL    HW222278   4.299   0.749   4.152  0.8630  0.1541 -0.7871
 3548SOL     OW22279   4.411   4.739   0.399  0.6341  0.0391  0.2944
 3548SOL    HW122280   4.361   4.719   0.320  0.2675  0.6008  0.3782
 3548SOL    HW222281   4.449   0.085   0.382 -1.2144  1.1578  1.7038
 3549SOL     OW22282   3.345   4.675   5.308  0.3861 -0.4138 -0.4291
 3549SOL    HW122283   3.262   4.702   5.347  0.4925  0.5284 -0.8522
 3549SOL    HW222284   3.406   0.002   5.340 -1.4079  0.7246  0.6353
 3550SOL     OW22285   4.434   1.170   4.330 -0.5056 -0.4775  0.4440
 3550SOL    HW122286   4.445   1.128   4.415 -1.1614  0.0968  0.8155
 3550SOL    HW222287   4.356   1.222   4.351  0.4766  1.2039 -0.1046
 3551SOL     OW22288   3.108   4.658  13.606  0.2750 -0.0662  0.4256
 3551SOL    HW122289   3.150   4.674  13.691 -0.8531  2.6795  0.4817
 3551SOL    HW222290   3.081   4.568  13.625  2.0537 -0.1521  2.5168
 3552SOL     OW22291   1.634   0.651   1.644  0.3497  0.6383 -0.5525
 3552SOL    HW122292   1.660   0.649   1.736 -1.4508 -0.5442 -0.0727
 3552SOL    HW222293   1.669   0.733   1.610 -0.1684  0.3919 -1.7058
 3553SOL     OW22294   2.572   0.735  14.101 -0.2199  0.2004  0.7537
 3553SOL    HW122295   2.651   0.711  14.150  0.0490  0.8548  0.6344
 3553SOL    HW222296   2.523   0.788  14.163 -0.2347  0.4218  0.5521
 3554SOL     OW22297   0.593   1.016   3.115 -0.2526  0.5162  0.1016
 3554SOL    HW122298   0.636   1.092   3.155 -1.4624  1.3481 -0.1562
 3554SOL    HW222299   0.668   0.958   3.106 -0.6353 -0.2730  1.9846
 3555SOL     OW22300   1.391   1.739  13.304  0.2576 -0.0238  0.0343
 3555SOL    HW122301   1.473   1.699  13.334  1.6952  0.5162 -3.1420
 3555SOL    HW222302   1.348   1.677  13.245 -2.4167  1.2203  0.6883
 3556SOL     OW22303   2.350   2.421   1.771  0.3709 -0.2944  0.3170
 3556SOL    HW122304   2.430   2.449   1.814  0.6595 -0.4796 -0.0976
 3556SOL    HW222305   2.389   2.413   1.684 -1.4581 -0.3947 -0.5064
 3557SOL     OW22306   3.403   1.908   7.135 -0.5586  0.4152 -0.2413
 3557SOL    HW122307   3.442   1.965   7.201  1.6762 -1.8265  0.3543
 3557SOL    HW222308   3.335   1.962   7.094 -0.8626  1.0822  1.1408
 3558SOL     OW22309   1.407   0.485   7.146 -0.5461 -0.1116  0.6478
 3558SOL    HW122310   1.420   0.576   7.172  1.0197 -0.0453 -0.3948
 3558SOL    HW222311   1.357   0.460   7.224 -0.8297  2.5209  1.3062
 3559SOL     OW22312   3.572   0.826  16.876  0.9072 -0.4146 -0.1406
 3559SOL    HW122313   3.540   0.907  16.836  0.4725 -0.6004 -0.1687
 3559SOL    HW222314   3.548   0.765  16.806 -0.8788  0.3459 -0.2032
 3560SOL     OW22315   3.138   4.477  15.688 -0.1088  0.2193  0.4002
 3560SOL    HW122316   3.148   4.414  15.760 -1.6249  0.2307  0.6104
 3560SOL    HW222317   3.068   4.429  15.644 -1.5565  2.7132  0.0127
 3561SOL     OW22318   0.268   0.630   2.965  0.5327 -0.0463 -0.4172
 3561SOL    HW122319   0.207   0.581   2.910 -1.8317  2.7319 -0.2335
 3561SOL    HW222320   0.227   0.716   2.972  0.4072 -0.0913 -0.6039
 3562SOL     OW22321   1.377   1.324   5.527 -0.7910  0.2197  0.2555
 3562SOL    HW122322   1.339   1.389   5.468  0.7271  1.2717  0.4333
 3562SOL    HW222323   1.311   1.325   5.597  1.1440 -0.7882  2.0793
 3563SOL     OW22324   3.613   3.635   9.038 -0.3375  0.3608  0.6271
 3563SOL    HW122325   3.545   3.678   9.089 -1.6158 -0.3071 -0.5283
 3563SOL    HW222326   3.634   3.560   9.093  1.0989  1.7293  1.9611
 3564SOL     OW22327   0.555   3.080   3.955  0.2035 -0.2128  0.4303
 3564SOL    HW122328   0.626   3.052   4.013  0.7433 -0.3833 -0.3060
 3564SOL    HW222329   0.489   3.118   4.013 -1.0146 -0.7952 -0.5446
 3565SOL     OW22330   3.253   2.257   1.635  0.1346 -0.2231 -0.0436
 3565SOL    HW122331   3.297   2.329   1.590  0.7836 -1.3513 -1.2125
 3565SOL    HW222332   3.279   2.266   1.727  2.5699 -0.0874 -0.7604
 3566SOL     OW22333   4.734   2.466   7.819 -0.2920 -0.1972 -0.1201
 3566SOL    HW122334   4.707   2.510   7.900  1.6217 -0.9485  0.9390
 3566SOL    HW222335   4.665   2.400   7.812 -0.2948 -0.4548  2.1616
 3567SOL     OW22336   1.534   3.805   9.056 -0.2146 -0.1566  1.3201
 3567SOL    HW122337   1.455   3.753   9.043  0.2596 -1.1504  2.4248
 3567SOL    HW222338   1.488   3.867   9.113 -0.3982 -0.8417  1.9161
 3568SOL     OW22339   0.133   3.387  10.280  0.8575  0.4190 -0.5131
 3568SOL    HW122340   0.063   3.379  10.215 -0.2002 -0.3553  0.7138
 3568SOL    HW222341   0.086   3.379  10.363  0.5465  0.7706 -0.6576
 3569SOL     OW22342   2.136   4.005   0.596 -0.0048  0.6035  0.2695
 3569SOL    HW122343   2.204   3.961   0.546 -0.7035 -2.8350  2.3731
 3569SOL    HW222344   2.186   4.037   0.670 -2.5998  1.5646  1.6165
 3570SOL     OW22345   3.559   3.282   4.201  0.1757  0.3812 -0.2666
 3570SOL    HW122346   3.576   3.188   4.200 -0.3161  0.2762  1.9103
 3570SOL    HW222347   3.514   3.292   4.284 -2.0644 -2.2387 -1.1696
 3571SOL     OW22348   0.165   2.318   3.374  0.4719 -0.0618 -0.6399
 3571SOL    HW122349   0.133   2.408   3.366  1.1451  0.0224 -2.4360
 3571SOL    HW222350   0.234   2.330   3.439 -0.0056 -0.5050 -0.0519
 3572SOL     OW22351   2.614   2.082   2.537  0.7814 -0.5764 -0.4765
 3572SOL    HW122352   2.703   2.074   2.503  0.9865  2.8257 -0.7261
 3572SOL    HW222353   2.618   2.011   2.601  0.6102 -0.7835 -0.6947
 3573SOL     OW22354   3.591   4.016   5.568  0.0407  0.0856  0.4040
 3573SOL    HW122355   3.643   3.969   5.633 -1.4233  1.7868  2.7599
 3573SOL    HW222356   3.502   3.988   5.587  0.2096 -0.2419  0.7297
 3574SOL     OW22357   0.246   2.723   4.213 -0.4805  0.7538  0.6715
 3574SOL    HW122358   0.199   2.753   4.136 -0.0393  0.5104  0.3068
 3574SOL    HW222359   0.210   2.638   4.238  0.3314  0.6708  1.5777
 3575SOL     OW22360   0.646   4.396   8.135 -0.2224 -0.1959 -0.3311
 3575SOL    HW122361   0.700   4.325   8.099  0.6860  0.7197 -0.7704
 3575SOL    HW222362   0.702   4.431   8.203 -0.0369 -0.9577 -0.1008
 3576SOL     OW22363   1.493   4.624   0.824  0.2550  0.4695  0.2129
 3576SOL    HW122364   1.471   4.533   0.843  0.2173  0.5796  0.6964
 3576SOL    HW222365   1.533   4.645   0.908 -0.7277 -4.2466  1.8774
 3577SOL     OW22366   4.266   3.415   3.347 -0.2956 -0.4938  0.1771
 3577SOL    HW122367   4.334   3.347   3.348 -0.5709 -0.7578  0.8342
 3577SOL    HW222368   4.273   3.464   3.265  1.5366 -0.6512  0.2368
 3578SOL     OW22369   3.131   3.351   7.871  0.1239  0.4062  0.1438
 3578SOL    HW122370   3.075   3.358   7.948 -1.6003 -3.8596 -0.7412
 3578SOL    HW222371   3.198   3.299   7.915 -0.4220 -0.5464 -0.1465
 3579SOL     OW22372   3.680   2.086   5.921  0.1264 -0.1428  0.6203
 3579SOL    HW122373   3.628   2.145   5.976 -0.7048  2.1078 -2.5204
 3579SOL    HW222374   3.755   2.141   5.897  0.6696 -1.3575 -0.4237
 3580SOL     OW22375   4.625   4.273   5.504 -0.1651 -0.7525 -0.0018
 3580SOL    HW122376   4.603   4.324   5.582 -0.9101  0.4476 -0.9860
 3580SOL    HW222377   4.706   4.235   5.538  0.1986  0.2437  0.2414
 3581SOL     OW22378   2.518   0.821   4.933  0.3702  0.6047  0.0449
 3581SOL    HW122379   2.452   0.809   5.002 -1.6731 -1.0184 -2.1655
 3581SOL    HW222380   2.465   0.888   4.889  1.0681 -1.4000 -3.8693
 3582SOL     OW22381   2.679   2.949   6.800  0.4793  0.0591 -0.0756
 3582SOL    HW122382   2.608   2.918   6.856  0.7450 -1.1086 -0.3900
 3582SOL    HW222383   2.649   3.040   6.801 -0.2104 -0.1629 -0.3006
 3583SOL     OW22384   1.275   1.511   1.832 -0.2144  0.8970 -0.1828
 3583SOL    HW122385   1.278   1.598   1.872  3.0376  0.0701  1.4023
 3583SOL    HW222386   1.358   1.517   1.784  1.5702 -0.9972  2.5950
 3584SOL     OW22387   1.795   2.211  12.835 -0.0043 -0.3719  0.0720
 3584SOL    HW122388   1.771   2.189  12.925 -0.0503  0.5233  0.2757
 3584SOL    HW222389   1.774   2.131  12.786  0.7996 -1.7278  1.9316
 3585SOL     OW22390   0.094   2.774   7.656  0.0499 -0.1822  0.3242
 3585SOL    HW122391   0.190   2.770   7.664 -0.0296  1.2783  1.8182
 3585SOL    HW222392   0.078   2.868   7.653  1.0848 -0.0212 -0.1803
 3586SOL     OW22393   4.619   1.718   6.602 -0.5696  0.4479  0.2827
 3586SOL    HW122394   4.533   1.688   6.633 -1.6780  3.8924  0.6181
 3586SOL    HW222395   4.599   1.805   6.567  1.4148  0.1554 -1.5167
 3587SOL     OW22396   0.959   1.631   1.212  0.0402  0.7765 -0.0862
 3587SOL    HW122397   0.960   1.576   1.291 -0.0413 -0.6268 -1.0629
 3587SOL    HW222398   0.898   1.698   1.242 -0.4440  1.0600 -1.6918
 3588SOL     OW22399   4.296   3.567   7.620  0.4073  0.1188  0.5605
 3588SOL    HW122400   4.373   3.611   7.656  3.0378 -2.3834 -2.1434
 3588SOL    HW222401   4.333   3.479   7.617 -0.7543 -0.4003  1.3399
 3589SOL     OW22402   4.007   1.007   6.114  0.0843 -0.0744 -0.1806
 3589SOL    HW122403   3.987   1.086   6.165 -5.9170 -0.4097 -1.9577
 3589SOL    HW222404   3.932   0.953   6.140  0.9763 -0.2636  2.0110
 3590SOL     OW22405   4.607   1.220   7.748 -0.4054 -0.3070 -0.2899
 3590SOL    HW122406   4.602   1.315   7.754 -1.5833 -0.5002  2.0972
 3590SOL    HW222407   4.516   1.188   7.753 -0.9797  1.3951  0.1862
 3591SOL     OW22408   2.300   0.234   8.157  0.0331  0.1652  0.2630
 3591SOL    HW122409   2.375   0.206   8.211  0.9761 -0.8441 -1.5723
 3591SOL    HW222410   2.259   0.303   8.209 -0.1382  0.2950 -0.0438
 3592SOL     OW22411   3.206   1.668   0.086  0.0072  0.1742 -0.0913
 3592SOL    HW122412   3.252   1.633   0.009 -0.1602 -1.0255  0.3580
 3592SOL    HW222413   3.155   1.739   0.047  0.8879  0.3701 -0.8917
 3593SOL     OW22414   0.180   0.449   6.796 -0.3689  0.2242  0.0451
 3593SOL    HW122415   0.244   0.474   6.863  0.3910 -0.6386 -0.3555
 3593SOL    HW222416   0.239   0.455   6.721 -1.1266  0.2134 -0.5482
 3594SOL     OW22417   3.426   0.439   6.600 -0.6213 -0.2821 -0.3018
 3594SOL    HW122418   3.442   0.528   6.633  2.4530 -0.6512 -0.7511
 3594SOL    HW222419   3.508   0.410   6.559 -1.0923  0.1939 -1.5942
 3595SOL     OW22420   4.486   2.575   2.153  0.1811  0.2252 -0.2612
 3595SOL    HW122421   4.554   2.544   2.213 -1.6994 -0.7558  1.3611
 3595SOL    HW222422   4.530   2.559   2.069 -0.8496  0.0933 -0.7775
 3596SOL     OW22423   1.753   1.616  16.687 -0.0913 -0.1750 -0.3154
 3596SOL    HW122424   1.696   1.564  16.743  0.3610  1.0352  1.2488
 3596SOL    HW222425   1.767   1.693  16.742  3.2304 -0.2081 -1.1368
 3597SOL     OW22426   0.782   3.017   2.460  0.2374 -0.2766  0.5454
 3597SOL    HW122427   0.828   2.981   2.384 -0.1967 -1.5061  0.8587
 3597SOL    HW222428   0.704   3.055   2.420 -2.0194 -3.4995  1.8366
 3598SOL     OW22429   3.929   0.309   5.243  0.1282  0.1977  0.0472
 3598SOL    HW122430   3.978   0.311   5.161 -0.3205 -1.2941 -0.2622
 3598SOL    HW222431   3.998   0.288   5.305 -1.5092 -0.2090  1.7258
 3599SOL     OW22432   3.864   2.112   2.750 -0.1868 -0.2550  0.3983
 3599SOL    HW122433   3.791   2.114   2.689  1.6011  1.6639 -1.7214
 3599SOL    HW222434   3.840   2.061   2.828  0.7131 -0.1873  0.7253
 3600SOL     OW22435   0.388   0.670   6.644 -0.2173 -0.3779  0.6991
 3600SOL    HW122436   0.424   0.759   6.641 -0.8624 -0.1765 -0.6850
 3600SOL    HW222437   0.417   0.631   6.562 -1.2097  0.0616  0.1524
 3601SOL     OW22438   3.404   3.585  16.189 -0.4777  0.0492 -0.3388
 3601SOL    HW122439   3.401   3.490  16.201 -0.9357  0.2347  1.0358
 3601SOL    HW222440   3.410   3.590  16.094 -0.4017 -1.2752 -0.3998
 3602SOL     OW22441   1.277   2.478   8.531  0.1512  0.3058  0.2872
 3602SOL    HW122442   1.242   2.534   8.461  0.9131  1.9852  1.2674
 3602SOL    HW222443   1.238   2.531   8.600 -3.1832  1.1441 -2.2135
 3603SOL     OW22444   3.666   0.240   0.739  0.3175 -0.0273 -0.1744
 3603SOL    HW122445   3.655   0.251   0.645 -0.4840  1.2989  0.0712
 3603SOL    HW222446   3.738   0.177   0.734 -0.2572 -0.7276  0.2442
 3604SOL     OW22447   4.557   4.657   9.841  0.5911  0.3939  0.1508
 3604SOL    HW122448   4.462   4.657   9.830  0.8686  1.6456 -2.1716
 3604SOL    HW222449   4.558   4.625   9.931  1.5036 -0.7197 -0.2532
 3605SOL     OW22450   3.258   0.453  15.953  0.2434  0.7562 -0.3398
 3605SOL    HW122451   3.347   0.448  15.989 -0.4218 -1.2362  1.0050
 3605SOL    HW222452   3.221   0.380  16.002 -0.5253 -0.4418 -2.7399
 3606SOL     OW22453   2.694   1.463   6.689  0.3106 -0.1598 -1.1984
 3606SOL    HW122454   2.653   1.379   6.668  0.7819 -0.8018  0.5017
 3606SOL    HW222455   2.628   1.521   6.727  0.7921 -0.4473  0.0597
 3607SOL     OW22456   3.306   0.119   3.713  0.1510  0.5150 -0.5911
 3607SOL    HW122457   3.349   0.056   3.656 -1.6657 -0.1467 -1.2247
 3607SOL    HW222458   3.383   0.165   3.745  0.8423 -0.7831 -0.3517
 3608SOL     OW22459   2.446   4.374   3.853  0.4903 -0.2672 -0.4726
 3608SOL    HW122460   2.358   4.397   3.823  0.5263 -1.2379 -1.3622
 3608SOL    HW222461   2.495   4.419   3.784  0.8107  0.3610  0.1638
 3609SOL     OW22462   1.277   4.651   2.388 -0.1050  0.4333  0.1834
 3609SOL    HW122463   1.294   0.005   2.398 -0.3698  0.5788 -0.7192
 3609SOL    HW222464   1.352   4.615   2.434  0.8700  1.0653 -0.9217
 3610SOL     OW22465   3.650   4.252   9.889 -0.0936 -0.6553 -0.1560
 3610SOL    HW122466   3.571   4.268   9.837 -0.2356  0.6351  0.4673
 3610SOL    HW222467   3.630   4.179   9.948  0.2382  0.2443  1.0659
 3611SOL     OW22468   2.473   3.205   9.017 -0.6357 -0.1349 -0.5438
 3611SOL    HW122469   2.487   3.250   9.101 -3.0855  1.2624 -0.8968
 3611SOL    HW222470   2.438   3.120   9.044  1.1176 -0.3729  0.9802
 3612SOL     OW22471   1.377   4.029   6.558  0.2440 -0.4192  0.1008
 3612SOL    HW122472   1.295   3.992   6.526  0.4934 -0.8002 -0.0966
 3612SOL    HW222473   1.342   4.101   6.610  1.6065 -0.6511  1.3326
 3613SOL     OW22474   4.665   0.161   8.218 -0.3429  0.2227  0.1362
 3613SOL    HW122475   4.576   0.197   8.224 -0.3610  0.1572  0.2633
 3613SOL    HW222476   4.660   0.127   8.128 -1.2932  0.2574  0.1753
 3614SOL     OW22477   2.806   2.956   6.070 -0.2056  0.1015  0.6082
 3614SOL    HW122478   2.789   3.005   5.989 -1.9759 -1.3999  0.0588
 3614SOL    HW222479   2.785   2.868   6.039 -1.4842  1.0006 -1.0895
 3615SOL     OW22480   1.560   1.679  17.162  0.4035 -1.0743  0.1593
 3615SOL    HW122481   1.649   1.649  17.142  0.5216 -0.6204  0.0166
 3615SOL    HW222482   1.563   1.774  17.160 -2.3473 -1.0364 -1.1031
 3616SOL     OW22483   2.192   2.048   1.868 -0.1510  0.2145 -0.3118
 3616SOL    HW122484   2.182   2.138   1.899 -1.6316  0.5225 -1.6364
 3616SOL    HW222485   2.100   2.025   1.859 -0.4762  1.3634  0.0146
 3617SOL     OW22486   0.881   0.190   5.299  0.4134 -0.2671  0.0794
 3617SOL    HW122487   0.940   0.195   5.223  0.8236  3.0082  0.6185
 3617SOL    HW222488   0.939   0.210   5.372  1.6493 -3.1517 -0.0878
 3618SOL     OW22489   2.566   1.083   1.548  0.4488 -0.2813 -0.0052
 3618SOL    HW122490   2.472   1.096   1.559  0.5343  1.2666 -0.9524
 3618SOL    HW222491   2.576   0.990   1.565  0.1953 -0.6704 -1.9771
 3619SOL     OW22492   4.487   3.024  13.834  0.2709 -0.1696  0.5392
 3619SOL    HW122493   4.495   3.023  13.929  1.5927  0.4751  0.4326
 3619SOL    HW222494   4.561   3.082  13.818  0.7492 -1.2290 -1.1197
 3620SOL     OW22495   1.559   2.889   3.287 -0.3352 -0.0730 -0.7303
 3620SOL    HW122496   1.493   2.876   3.356  0.6471 -0.0953  0.2155
 3620SOL    HW222497   1.559   2.983   3.273 -0.2548  0.1232  0.5308
 3621SOL     OW22498   3.542   1.351   4.811 -0.5251 -0.6038 -0.7724
 3621SOL    HW122499   3.479   1.328   4.743  0.5110 -1.0211 -1.5959
 3621SOL    HW222500   3.603   1.279   4.793  1.5918  1.1187 -0.5458
 3622SOL     OW22501   1.959   1.085   6.022 -0.3874  0.3456 -0.1997
 3622SOL    HW122502   2.016   1.144   5.973 -1.3265 -0.6691 -2.5646
 3622SOL    HW222503   2.018   1.015   6.048 -0.5203  0.0788 -0.6032
 3623SOL     OW22504   2.263   3.329  12.483 -0.3117  0.4035 -0.1709
 3623SOL    HW122505   2.270   3.369  12.569 -0.8495 -2.0686  1.0265
 3623SOL    HW222506   2.283   3.238  12.503  3.3634  1.4113  0.6706
 3624SOL     OW22507   4.258   1.886   7.324 -0.0290  0.2637 -0.0185
 3624SOL    HW122508   4.315   1.963   7.322  0.4418 -0.1667 -2.4465
 3624SOL    HW222509   4.289   1.840   7.402  1.6786  1.9889  0.3292
 3625SOL     OW22510   0.143   3.627   6.752 -0.3809 -0.1506 -0.1923
 3625SOL    HW122511   0.170   3.536   6.739 -2.1982 -0.7473  0.2773
 3625SOL    HW222512   0.197   3.660   6.679 -1.2543  1.2151 -0.2139
 3626SOL     OW22513   2.989   3.533   4.372 -0.0817  0.1717  0.1060
 3626SOL    HW122514   2.940   3.528   4.454  1.2999 -0.5710  0.8858
 3626SOL    HW222515   3.001   3.444   4.340 -0.2046  0.7999 -1.7263
 3627SOL     OW22516   2.016   2.462   4.096 -0.0857  0.0262 -0.4274
 3627SOL    HW122517   1.995   2.540   4.147 -2.7938 -0.1751 -1.2194
 3627SOL    HW222518   2.026   2.510   4.014  1.9645 -1.0942 -0.8331
 3628SOL     OW22519   3.995   0.305   0.694 -0.0892 -0.2992 -0.7351
 3628SOL    HW122520   3.902   0.308   0.674 -0.3018 -0.6411  0.2090
 3628SOL    HW222521   4.024   0.239   0.631  0.4422 -1.3123  0.5652
 3629SOL     OW22522   2.393   4.250   8.116  0.1111 -0.3234  0.5386
 3629SOL    HW122523   2.447   4.306   8.060 -0.6667 -0.5487 -0.4343
 3629SOL    HW222524   2.450   4.245   8.193 -0.9066 -0.2635  1.2897
 3630SOL     OW22525   2.455   2.726   3.419  0.0598  0.2516  0.3930
 3630SOL    HW122526   2.412   2.648   3.454 -0.4836  0.3730  0.0035
 3630SOL    HW222527   2.382   2.787   3.408  0.2268  0.6326  1.4402
 3631SOL     OW22528   0.919   2.143   3.658 -0.1655  0.2810 -0.0154
 3631SOL    HW122529   0.951   2.214   3.714  0.2679  0.9709 -1.1570
 3631SOL    HW222530   0.968   2.070   3.697 -0.5017 -0.2183 -0.5406
 3632SOL     OW22531   3.253   1.035   1.477  0.3593 -0.1325  0.1094
 3632SOL    HW122532   3.247   1.066   1.386 -0.9430  0.0995  0.2734
 3632SOL    HW222533   3.339   0.994   1.485  1.1671  1.3185 -1.1362
 3633SOL     OW22534   2.080   2.987   2.284  0.2686 -0.1980  0.3083
 3633SOL    HW122535   2.143   2.927   2.325  0.4426  0.4668  1.0152
 3633SOL    HW222536   2.075   2.955   2.194 -1.4388 -1.4119  0.8347
 3634SOL     OW22537   3.983   1.382  15.213  0.4988 -0.0602 -0.5103
 3634SOL    HW122538   3.943   1.444  15.274  0.1827 -1.6660  0.9190
 3634SOL    HW222539   3.939   1.392  15.129  0.0136 -0.2457 -0.2767
 3635SOL     OW22540   0.316   2.095  17.699 -0.1441  0.3715  0.0664
 3635SOL    HW122541   0.272   2.029  17.646  0.0706 -0.4983  0.9832
 3635SOL    HW222542   0.402   2.082  17.658 -0.3688 -0.8174 -0.0229
 3636SOL     OW22543   3.127   4.254   7.467 -0.0025 -0.3684 -0.3424
 3636SOL    HW122544   3.171   4.277   7.385 -0.3510 -0.8092 -0.6545
 3636SOL    HW222545   3.070   4.331   7.478 -1.5827 -1.5765 -0.0114
 3637SOL     OW22546   1.180   3.481  15.754  0.1301 -0.4379 -0.2083
 3637SOL    HW122547   1.249   3.424  15.721  1.2682  0.5514  0.4941
 3637SOL    HW222548   1.103   3.450  15.704  1.0654  0.0250 -1.9405
 3638SOL     OW22549   0.617   1.166   8.962 -0.1521  0.6108  0.1662
 3638SOL    HW122550   0.662   1.243   8.927  2.9281 -0.7769  1.0806
 3638SOL    HW222551   0.611   1.178   9.056  0.2334 -0.5120  0.3344
 3639SOL     OW22552   0.468   1.753   9.967 -0.4553  0.2575 -0.0453
 3639SOL    HW122553   0.448   1.765   9.874 -0.6027  1.3750  0.1217
 3639SOL    HW222554   0.375   1.749   9.991 -0.0676 -1.5156  1.1664
 3640SOL     OW22555   3.665   2.272   9.283 -0.1715 -0.3600 -0.7846
 3640SOL    HW122556   3.627   2.184   9.290 -3.4306  0.9096 -2.2218
 3640SOL    HW222557   3.584   2.323   9.273 -0.3034 -0.5629 -0.7596
 3641SOL     OW22558   1.262   2.464   8.997 -0.0216 -0.3371 -0.3188
 3641SOL    HW122559   1.275   2.435   9.087 -0.8242  1.9524  0.5396
 3641SOL    HW222560   1.276   2.559   9.000  0.6790 -0.4709  0.5432
 3642SOL     OW22561   0.362   3.700   3.094  0.4597 -0.7147 -0.4494
 3642SOL    HW122562   0.415   3.724   3.170  0.0680  2.7045 -1.2367
 3642SOL    HW222563   0.401   3.768   3.038  1.4540  0.8288  2.1135
 3643SOL     OW22564   0.795   4.089   9.535 -0.0339  0.0409  0.2080
 3643SOL    HW122565   0.869   4.099   9.476 -1.4966 -0.0040 -1.6160
 3643SOL    HW222566   0.847   4.096   9.615  0.2357 -0.6307  0.0917
 3644SOL     OW22567   2.950   0.304  13.839 -0.4203  0.4130 -0.0166
 3644SOL    HW122568   2.953   0.301  13.935  0.6043 -0.2159 -0.0678
 3644SOL    HW222569   2.927   0.212  13.826  0.9197  0.0767  0.0754
 3645SOL     OW22570   1.887   3.928   5.513  0.6836 -0.1937 -0.1275
 3645SOL    HW122571   1.941   3.905   5.588 -1.5639 -2.1676  0.9031
 3645SOL    HW222572   1.955   3.975   5.465 -0.7333  1.2588 -0.7286
 3646SOL     OW22573   0.389   4.339   6.905 -0.1510  0.0733  0.3832
 3646SOL    HW122574   0.361   4.260   6.858  3.0888 -1.1878  0.5549
 3646SOL    HW222575   0.322   4.407   6.899  0.5273  0.4925 -2.2719
 3647SOL     OW22576   0.633   2.230   2.325 -0.1683  0.2056  0.2504
 3647SOL    HW122577   0.550   2.231   2.373 -0.0559  2.2186  0.4211
 3647SOL    HW222578   0.610   2.186   2.243 -0.8190  0.1242  0.4707
 3648SOL     OW22579   3.264   2.608  17.150  0.2943  0.4902 -0.2223
 3648SOL    HW122580   3.239   2.668  17.221 -0.5989 -0.2842  0.1145
 3648SOL    HW222581   3.320   2.544  17.195  0.5182  0.8300 -0.0174
 3649SOL     OW22582   3.281   0.243   4.163 -0.2815 -0.4880 -0.5021
 3649SOL    HW122583   3.314   0.332   4.160 -1.4952 -0.0284 -0.3249
 3649SOL    HW222584   3.199   0.252   4.211 -0.1987  0.1332 -0.4891
 3650SOL     OW22585   1.834   1.830   4.755 -0.6163 -0.0087 -0.2145
 3650SOL    HW122586   1.775   1.882   4.810 -0.5069  1.0005 -1.0529
 3650SOL    HW222587   1.922   1.863   4.773  0.1386 -1.8711 -0.4945
 3651SOL     OW22588   0.663   2.279   7.100  0.2921  0.1347  0.6509
 3651SOL    HW122589   0.718   2.204   7.124 -0.2716 -1.3666 -2.7594
 3651SOL    HW222590   0.586   2.236   7.137  0.4156 -1.4920 -0.9919
 3652SOL     OW22591   3.322   4.492  14.785 -0.4231 -0.0206  0.6004
 3652SOL    HW122592   3.248   4.443  14.818 -0.6767  0.2791  0.4805
 3652SOL    HW222593   3.336   4.563  14.848  2.0567 -0.7596  0.8994
 3653SOL     OW22594   0.163   4.531   6.885  0.0262 -0.3285  0.2389
 3653SOL    HW122595   0.228   4.592   6.849 -1.6437  1.5172  0.3581
 3653SOL    HW222596   0.141   4.479   6.809 -2.8312  1.2271  0.0194
 3654SOL     OW22597   0.450   2.578   1.434  0.4639 -0.3929 -0.3401
 3654SOL    HW122598   0.489   2.542   1.513 -1.1187 -1.2162  0.0605
 3654SOL    HW222599   0.390   2.509   1.405 -0.4810 -0.2523  1.3259
 3655SOL     OW22600   2.556   3.629   7.693  0.7683 -0.3292  0.8885
 3655SOL    HW122601   2.470   3.607   7.730  0.3632  1.2550  0.9138
 3655SOL    HW222602   2.596   3.671   7.769  0.1090 -0.4401  1.3026
 3656SOL     OW22603   0.782   0.125   6.029  0.1001  0.0476  0.0052
 3656SOL    HW122604   0.755   0.053   5.972  1.5574 -0.8856  0.4828
 3656SOL    HW222605   0.711   0.188   6.017 -1.3791 -1.7800 -0.9689
 3657SOL     OW22606   1.404   2.351  13.297 -0.3234  0.0988  0.4937
 3657SOL    HW122607   1.451   2.399  13.229 -2.8220  2.5467  0.5004
 3657SOL    HW222608   1.457   2.272  13.284 -1.7579 -0.9114  0.7311
 3658SOL     OW22609   2.973   2.969   6.943 -0.0230  0.7723 -0.0415
 3658SOL    HW122610   2.905   3.035   6.930 -1.7130 -1.2286 -1.3136
 3658SOL    HW222611   3.053   3.016   6.922 -0.0125  1.3882  1.3766
 3659SOL     OW22612   2.102   3.653   9.655 -0.6421 -0.1404  0.0101
 3659SOL    HW122613   2.111   3.695   9.570  1.0322  0.4274  0.4718
 3659SOL    HW222614   2.025   3.596   9.651  0.6665 -1.9603  0.4995
 3660SOL     OW22615   0.525   2.463   1.685 -0.0417 -0.2954 -0.3045
 3660SOL    HW122616   0.484   2.497   1.764 -0.1526  1.4305 -1.1064
 3660SOL    HW222617   0.615   2.460   1.715 -0.3249 -0.2979  0.5308
 3661SOL     OW22618   1.381   2.636   8.128 -0.2584 -0.0787 -0.2470
 3661SOL    HW122619   1.390   2.655   8.035  3.7079  1.9970  0.5572
 3661SOL    HW222620   1.385   2.542   8.113  1.1747  0.0133 -0.4177
 3662SOL     OW22621   2.026   3.776   9.879 -0.2304  0.1817 -0.2356
 3662SOL    HW122622   1.938   3.741   9.866 -0.2902  0.0995  0.4013
 3662SOL    HW222623   2.062   3.760   9.792  0.9092  0.6150  0.1605
 3663SOL     OW22624   2.996   3.513   8.523  0.0620  0.5460  0.3199
 3663SOL    HW122625   2.951   3.441   8.567  1.8264 -0.3484  0.6650
 3663SOL    HW222626   2.970   3.594   8.566  1.3843  0.7297  0.7953
 3664SOL     OW22627   0.222   3.478   4.007  0.7126  0.2156  0.2949
 3664SOL    HW122628   0.274   3.399   3.989  1.3849  0.2018  2.3326
 3664SOL    HW222629   0.195   3.462   4.097  0.2641 -1.5042 -0.1500
 3665SOL     OW22630   1.296   0.316   3.837 -0.1492 -0.2819  0.0440
 3665SOL    HW122631   1.357   0.390   3.843 -1.4971  0.7906  0.5299
 3665SOL    HW222632   1.217   0.370   3.834 -0.7247 -1.2630 -2.2436
 3666SOL     OW22633   0.440   2.405   2.887 -0.3030  0.3512  1.0034
 3666SOL    HW122634   0.476   2.488   2.918 -0.5358  2.3624 -4.2019
 3666SOL    HW222635   0.492   2.341   2.935  0.1065  0.7274  1.0648
 3667SOL     OW22636   1.207   1.373   6.203  0.3462 -0.0706  0.3623
 3667SOL    HW122637   1.292   1.339   6.232 -1.4199 -1.5334  3.7615
 3667SOL    HW222638   1.211   1.466   6.224 -2.6763  0.3975 -1.0992
 3668SOL     OW22639   1.508   0.376   3.057  0.0390 -0.2607  0.4743
 3668SOL    HW122640   1.471   0.390   2.970  0.4873 -1.6359  0.0587
 3668SOL    HW222641   1.511   0.462   3.098 -1.9374  0.4780 -0.9322
 3669SOL     OW22642   3.363   4.395   5.427  0.4701 -0.3149  0.0246
 3669SOL    HW122643   3.355   4.480   5.382 -1.2355  1.2450  3.2698
 3669SOL    HW222644   3.428   4.411   5.495  0.4140 -0.2044  0.0532
 3670SOL     OW22645   2.306   4.528  17.335 -0.3365  0.6746  0.4343
 3670SOL    HW122646   2.314   4.469  17.260 -4.3274  0.9037 -0.1779
 3670SOL    HW222647   2.346   4.606  17.296  2.3447 -1.1585 -0.4709
 3671SOL     OW22648   1.322   4.594  16.808 -0.3027  0.4939 -0.0018
 3671SOL    HW122649   1.293   4.574  16.897 -2.8305  2.5765 -0.3528
 3671SOL    HW222650   1.383   4.666  16.821  0.7644 -0.3778 -0.2563
 3672SOL     OW22651   1.622   2.108  16.844 -0.7079 -0.9984 -0.3271
 3672SOL    HW122652   1.636   2.203  16.841 -0.2381 -1.0624 -0.1795
 3672SOL    HW222653   1.568   2.096  16.766 -0.4754  1.4373 -0.8669
 3673SOL     OW22654   0.281   4.105   4.074  0.2042 -0.1698 -0.1854
 3673SOL    HW122655   0.310   4.194   4.094 -0.9970 -0.3906  2.6025
 3673SOL    HW222656   0.197   4.117   4.031  1.9775  2.4470 -2.9532
 3674SOL     OW22657   3.652   3.425   7.570  0.1654  1.0006  0.2729
 3674SOL    HW122658   3.736   3.385   7.549 -0.9984  0.4329 -3.3700
 3674SOL    HW222659   3.668   3.479   7.647 -1.3960  0.3104  1.0834
 3675SOL     OW22660   3.219   2.482   2.453 -0.7574 -0.1430  0.5543
 3675SOL    HW122661   3.239   2.490   2.546  2.1722  2.3620 -0.2658
 3675SOL    HW222662   3.307   2.477   2.415 -0.0202  2.0587  2.0215
 3676SOL     OW22663   4.553   1.833   0.017 -0.5374  0.5307 -0.2764
 3676SOL    HW122664   4.564   1.764  17.709  0.1101 -1.0628  1.4958
 3676SOL    HW222665   4.481   1.805   0.075 -1.7009  1.8917 -1.0634
 3677SOL     OW22666   0.214   1.510   7.340 -0.1854  0.4190 -0.7552
 3677SOL    HW122667   0.211   1.507   7.436  0.0673  1.0781 -0.7267
 3677SOL    HW222668   0.197   1.420   7.311 -0.4056  0.8269 -1.8967
 3678SOL     OW22669   3.885   2.558   9.083  0.2521 -0.5943 -0.3702
 3678SOL    HW122670   3.860   2.610   9.006 -0.9299 -0.3460  0.1756
 3678SOL    HW222671   3.979   2.571   9.089 -0.2285  0.8715  3.8705
 3679SOL     OW22672   3.630   3.233  15.017 -0.5989  0.7353 -0.1671
 3679SOL    HW122673   3.675   3.272  15.092  1.8645  1.1996 -1.8960
 3679SOL    HW222674   3.618   3.317  14.972 -0.6020  0.4147 -0.7738
 3680SOL     OW22675   0.635   0.087   6.688  0.3256 -0.0359  0.6811
 3680SOL    HW122676   0.586   0.119   6.764 -0.2245  0.8350 -0.0370
 3680SOL    HW222677   0.570   0.063   6.623  0.7252  2.2245 -0.5593
 3681SOL     OW22678   3.436   2.421   6.823  0.7132  0.1678 -0.4287
 3681SOL    HW122679   3.508   2.444   6.881 -1.3777  0.4178  2.1071
 3681SOL    HW222680   3.467   2.433   6.734 -0.9965 -1.1146 -1.2082
 3682SOL     OW22681   2.244   0.542   3.728 -0.3714 -0.1955  0.9074
 3682SOL    HW122682   2.290   0.463   3.700 -0.7695 -0.7363  1.7705
 3682SOL    HW222683   2.294   0.613   3.686  1.1839 -1.2959  0.9078
 3683SOL     OW22684   2.232   0.469   9.969 -0.0002  0.7970  0.2242
 3683SOL    HW122685   2.290   0.484  10.043  2.9423  2.4175 -2.3926
 3683SOL    HW222686   2.213   0.378   9.990  2.1793  0.4049  0.4409
 3684SOL     OW22687   4.287   4.536  11.704 -0.2953  0.7144 -0.0572
 3684SOL    HW122688   4.305   4.543  11.610 -0.4067  2.5705  0.0562
 3684SOL    HW222689   4.263   4.625  11.731 -2.2949 -0.4416  1.9179
 3685SOL     OW22690   1.346   4.636   6.477  0.4824 -0.4450 -0.3686
 3685SOL    HW122691   1.286   4.618   6.549  2.7061  0.2205  1.6619
 3685SOL    HW222692   1.407   4.699   6.516 -0.2721  1.2338 -1.9118
 3686SOL     OW22693   4.315   3.944   3.874  0.5070 -0.6877  0.2019
 3686SOL    HW122694   4.320   3.852   3.900 -0.2011 -0.4513  1.1605
 3686SOL    HW222695   4.243   3.934   3.811 -0.1939 -0.9261  1.0479
 3687SOL     OW22696   4.362   4.129   8.549 -0.1427 -0.4561 -0.4822
 3687SOL    HW122697   4.276   4.165   8.528 -0.7251 -0.6357  1.6221
 3687SOL    HW222698   4.359   4.154   8.641  1.4505 -0.5606 -0.4080
 3688SOL     OW22699   2.964   4.481   7.577 -0.1550 -0.0712 -0.1596
 3688SOL    HW122700   2.959   4.538   7.501 -0.1141 -0.1256 -0.2025
 3688SOL    HW222701   2.882   4.499   7.623 -0.6193 -2.5966 -0.0273
 3689SOL     OW22702   1.194   1.582   7.304  0.3591  0.1144  0.1878
 3689SOL    HW122703   1.194   1.486   7.293  1.7439  0.0431  0.7862
 3689SOL    HW222704   1.216   1.616   7.217  0.8547 -1.0846 -0.1563
 3690SOL     OW22705   3.101   2.220   2.158 -0.8265  0.1526  0.3822
 3690SOL    HW122706   3.179   2.165   2.166 -1.7266 -1.3457 -0.9047
 3690SOL    HW222707   3.148   2.301   2.139  0.0492 -0.7549 -1.3712
 3691SOL     OW22708   0.584   2.072  15.869  0.0778  0.3805  0.3490
 3691SOL    HW122709   0.516   2.084  15.803 -0.0143 -0.2135  0.3313
 3691SOL    HW222710   0.616   2.162  15.871 -0.8247  0.6574  1.6624
 3692SOL     OW22711   0.519   1.189   6.858  0.7793  0.9401  0.2544
 3692SOL    HW122712   0.530   1.284   6.860  0.8203  0.9660 -1.4861
 3692SOL    HW222713   0.565   1.158   6.936  0.3490 -1.9530 -0.6709
 3693SOL     OW22714   1.862   1.884   2.316 -0.5409  0.2147 -0.4385
 3693SOL    HW122715   1.823   1.810   2.362 -1.0927  1.9983  1.9989
 3693SOL    HW222716   1.937   1.836   2.283 -0.2833 -1.5588  2.7245
 3694SOL     OW22717   4.368   4.201   8.809  0.1016 -0.1240  0.4644
 3694SOL    HW122718   4.404   4.268   8.866  1.7061 -0.4707 -0.1267
 3694SOL    HW222719   4.278   4.201   8.840 -0.1694 -1.8675 -0.3088
 3695SOL     OW22720   2.225   4.569   2.757 -0.0708 -0.5288  0.1199
 3695SOL    HW122721   2.141   4.540   2.792  0.6254 -1.6570  0.8935
 3695SOL    HW222722   2.254   4.628   2.827 -1.0653  1.2306 -0.9679
 3696SOL     OW22723   0.007   0.578   4.553 -0.0279  0.2708 -0.9335
 3696SOL    HW122724   0.100   0.595   4.567  0.4968 -2.2413 -1.4256
 3696SOL    HW222725   4.719   0.581   4.645 -0.9686 -1.5594 -1.1583
 3697SOL     OW22726   2.134   1.335   5.970 -0.6658 -0.2144  0.0182
 3697SOL    HW122727   2.135   1.399   5.899  3.2876  1.3156  1.4142
 3697SOL    HW222728   2.225   1.304   5.976 -0.5622 -0.1232 -1.0319
 3698SOL     OW22729   1.466   2.078   7.009 -0.6216  0.0551  0.6827
 3698SOL    HW122730   1.407   2.058   6.936  0.8957  1.1050 -0.8460
 3698SOL    HW222731   1.430   2.164   7.030 -1.4982 -0.0649 -0.3053
 3699SOL     OW22732   3.596   1.239   2.727 -0.3500  0.4237  1.0154
 3699SOL    HW122733   3.581   1.158   2.775  0.6757 -0.3914 -0.0256
 3699SOL    HW222734   3.628   1.293   2.799  0.7603  0.0685  0.7896
 3700SOL     OW22735   4.603   2.094   8.641  0.3688  0.1342 -0.0547
 3700SOL    HW122736   4.638   2.086   8.730  2.1651 -2.3214 -0.9847
 3700SOL    HW222737   4.540   2.163   8.662  1.3210  0.3595  2.1325
 3701SOL     OW22738   0.563   3.602   8.645 -0.0516 -0.1995 -0.6731
 3701SOL    HW122739   0.560   3.697   8.636  0.4932 -0.1375 -0.2387
 3701SOL    HW222740   0.646   3.588   8.692 -0.5407  0.2142  0.3125
 3702SOL     OW22741   4.314   3.820  14.755 -0.2118 -0.1947 -0.1045
 3702SOL    HW122742   4.221   3.842  14.750 -0.7466 -2.2023  0.9716
 3702SOL    HW222743   4.295   3.727  14.744  0.6316 -0.6248  1.9966
 3703SOL     OW22744   4.206   0.208   8.216  0.3958 -0.0232 -0.2788
 3703SOL    HW122745   4.284   0.264   8.215  1.0231 -0.8716  1.9679
 3703SOL    HW222746   4.187   0.209   8.123 -0.2614 -3.7085 -0.1771
 3704SOL     OW22747   3.284   3.817   8.988 -0.0711  0.2070  0.4603
 3704SOL    HW122748   3.315   3.764   9.061  1.4070  0.6347  0.1353
 3704SOL    HW222749   3.231   3.757   8.935  1.2095 -1.3982  0.9795
 3705SOL     OW22750   3.766   2.748  12.133 -0.3937 -0.2749  0.5660
 3705SOL    HW122751   3.788   2.799  12.212  1.0903 -0.7377  0.4496
 3705SOL    HW222752   3.699   2.798  12.086  1.2137  0.7329 -0.6134
 3706SOL     OW22753   3.855   3.837   6.990  0.3578  0.1825 -0.5505
 3706SOL    HW122754   3.776   3.867   7.035  0.4043  0.0833 -0.4040
 3706SOL    HW222755   3.897   3.923   6.980 -2.5757  1.9229  1.8962
 3707SOL     OW22756   4.173   4.017  11.794  0.1678 -0.1445  0.6602
 3707SOL    HW122757   4.205   4.100  11.828  0.5517 -0.1856  0.4018
 3707SOL    HW222758   4.113   4.000  11.866  2.5685 -1.2598  2.4061
 3708SOL     OW22759   1.388   0.092   5.486  0.1066  0.1625 -0.2175
 3708SOL    HW122760   1.423   0.073   5.573 -0.3563  0.1133 -0.0387
 3708SOL    HW222761   1.349   0.005   5.474 -0.7671  0.5567 -0.2568
 3709SOL     OW22762   3.351   1.731  13.783 -0.8224 -0.4070  0.2848
 3709SOL    HW122763   3.268   1.689  13.804 -0.2697 -1.6056  0.1192
 3709SOL    HW222764   3.355   1.703  13.691 -2.0219  1.8312 -0.4329
 3710SOL     OW22765   2.623   3.796   8.706 -0.1157 -0.2245 -0.1867
 3710SOL    HW122766   2.549   3.833   8.755  0.5533 -1.6936  1.9297
 3710SOL    HW222767   2.598   3.704   8.705  1.8980 -0.8055  1.8686
 3711SOL     OW22768   3.250   3.464   0.463 -0.6879 -0.1844  0.3751
 3711SOL    HW122769   3.265   3.539   0.522  0.6582  0.9173 -1.3509
 3711SOL    HW222770   3.180   3.503   0.411 -1.3111 -1.2999  0.3916
 3712SOL     OW22771   1.864   1.741  10.262 -0.0424  0.2330 -0.0294
 3712SOL    HW122772   1.949   1.699  10.281  0.3884  0.8971 -0.4929
 3712SOL    HW222773   1.847   1.775  10.350  1.9927 -0.3035  0.5905
 3713SOL     OW22774   3.415   4.522  17.486 -0.0519 -0.1105 -0.3139
 3713SOL    HW122775   3.387   4.439  17.447 -2.7535  0.2220  0.8902
 3713SOL    HW222776   3.508   4.524  17.467 -0.0934 -3.7726 -0.9087
 3714SOL     OW22777   2.831   0.243  12.738  0.1055 -0.7061 -0.1040
 3714SOL    HW122778   2.923   0.216  12.735 -0.0149 -0.8532 -2.2646
 3714SOL    HW222779   2.849   0.318  12.682  0.8317 -1.9683 -1.5800
 3715SOL     OW22780   3.034   4.191   4.373 -0.0504  0.0145  0.0922
 3715SOL    HW122781   3.054   4.097   4.373 -0.4499 -0.0712 -0.8225
 3715SOL    HW222782   2.976   4.197   4.449 -0.1331 -1.8622  0.1964
 3716SOL     OW22783   2.805   2.095  11.505 -0.1064  0.1919  0.0519
 3716SOL    HW122784   2.804   2.057  11.417 -0.3550 -0.8972  0.5223
 3716SOL    HW222785   2.879   2.155  11.493 -2.0735  2.2463 -1.7323
 3717SOL     OW22786   2.940   4.311   3.213 -0.4086  0.3657 -0.1749
 3717SOL    HW122787   3.020   4.272   3.248  0.1763 -0.6870 -2.7005
 3717SOL    HW222788   2.993   4.377   3.168  2.0112 -1.7845 -0.4211
 3718SOL     OW22789   2.365   1.644  14.172  0.8069 -0.4821 -0.2012
 3718SOL    HW122790   2.417   1.583  14.120  1.3852  0.7248 -1.0335
 3718SOL    HW222791   2.380   1.730  14.134 -0.4288  0.3378  1.1670
 3719SOL     OW22792   2.623   1.661  16.887 -0.7324  0.4459  0.3478
 3719SOL    HW122793   2.553   1.663  16.821  1.0087  2.2624 -1.4591
 3719SOL    HW222794   2.577   1.646  16.970  1.2807 -4.0585  0.6317
 3720SOL     OW22795   3.878   2.227   6.358  0.5557 -0.0303  0.0960
 3720SOL    HW122796   3.957   2.211   6.409 -0.7845  1.2352  2.5693
 3720SOL    HW222797   3.907   2.307   6.314 -0.5026  0.9278  1.1371
 3721SOL     OW22798   4.459   4.455   4.897  0.3812 -0.1461  0.3506
 3721SOL    HW122799   4.551   4.479   4.908  0.8467 -1.7945  0.0801
 3721SOL    HW222800   4.412   4.490   4.973  0.0181 -0.0597  0.0862
 3722SOL     OW22801   2.219   2.326   7.517 -0.9486  0.3988  0.5817
 3722SOL    HW122802   2.226   2.325   7.421 -1.4654  2.4743  0.5189
 3722SOL    HW222803   2.305   2.292   7.541 -0.5524  0.3978 -0.8455
 3723SOL     OW22804   3.282   0.974   2.836  0.0747  0.3423  0.4174
 3723SOL    HW122805   3.375   0.949   2.837  0.2197  0.8004 -1.4469
 3723SOL    HW222806   3.284   1.036   2.763 -0.6174 -1.0919 -0.7948
 3724SOL     OW22807   4.589   0.713  10.261  0.4078 -0.2397 -0.0561
 3724SOL    HW122808   4.541   0.777  10.313 -1.2620 -2.0744  0.6760
 3724SOL    HW222809   4.627   0.651  10.323  2.2107  0.9209 -0.0094
 3725SOL     OW22810   4.475   1.615  11.220  0.3400  0.7581 -0.3411
 3725SOL    HW122811   4.393   1.644  11.181  0.2657  0.2183 -0.5899
 3725SOL    HW222812   4.472   1.519  11.213 -0.0072  0.7357  0.1511
 3726SOL     OW22813   1.853   0.374  10.415 -0.5556  0.3553  0.0100
 3726SOL    HW122814   1.828   0.379  10.507  0.7731 -3.3989  0.5943
 3726SOL    HW222815   1.857   0.468  10.401  0.8955  0.3189  0.2083
 3727SOL     OW22816   4.647   3.447   7.761 -0.1458 -0.2221  0.0120
 3727SOL    HW122817   4.673   3.447   7.853  0.6413 -0.0773 -0.2049
 3727SOL    HW222818   4.708   3.513   7.726  0.4467 -0.3883  0.7366
 3728SOL     OW22819   0.646   1.635  15.573 -0.1259 -0.2575 -0.3333
 3728SOL    HW122820   0.645   1.731  15.578 -0.2174 -0.4025  2.3708
 3728SOL    HW222821   0.551   1.624  15.573 -0.1635  0.0636  1.2260
 3729SOL     OW22822   1.730   4.691   6.791  0.6870 -0.0575  0.1726
 3729SOL    HW122823   1.773   4.725   6.869  0.3935  0.4619  0.1075
 3729SOL    HW222824   1.803   4.649   6.747  0.9696  0.7345 -0.1181
 3730SOL     OW22825   0.868   0.313   9.941 -0.4734  0.0151  0.6207
 3730SOL    HW122826   0.790   0.366   9.954  0.3277  1.1568  0.7088
 3730SOL    HW222827   0.824   0.234   9.907  2.5362 -1.9687  1.3088
 3731SOL     OW22828   0.160   1.803  10.644 -0.0853 -0.0514 -0.6538
 3731SOL    HW122829   0.111   1.884  10.627  1.0414  0.1285 -3.0687
 3731SOL    HW222830   0.189   1.819  10.733 -1.0414 -0.9801 -0.1784
 3732SOL     OW22831   0.376   3.180  10.967  0.2157 -0.1179 -0.3560
 3732SOL    HW122832   0.452   3.231  10.937 -0.2246  0.8172  0.0963
 3732SOL    HW222833   0.379   3.107  10.906 -2.6702  0.3425 -1.0492
 3733SOL     OW22834   0.664   1.969   6.799 -0.2973 -0.4843  0.2436
 3733SOL    HW122835   0.727   1.953   6.729 -1.3218 -1.1682 -0.5267
 3733SOL    HW222836   0.688   2.060   6.820 -2.1314  0.4100 -1.5252
 3734SOL     OW22837   4.591   0.032   6.114  0.2889  0.2860 -0.0814
 3734SOL    HW122838   4.578   4.720   6.193  0.3421  0.9242  0.3463
 3734SOL    HW222839   4.498   0.043   6.091  0.4952 -0.8962 -1.4871
 3735SOL     OW22840   3.869   0.672   7.797  0.5104 -0.0503 -0.2679
 3735SOL    HW122841   3.793   0.730   7.804  1.3509  0.9154  0.7180
 3735SOL    HW222842   3.920   0.715   7.729  0.5943  0.2924  0.0134
 3736SOL     OW22843   1.267   2.931   5.975 -0.4724  0.0334 -0.1083
 3736SOL    HW122844   1.280   2.841   6.005  1.1558 -0.1125 -1.1986
 3736SOL    HW222845   1.329   2.919   5.902 -0.4644  0.1072 -0.1132
 3737SOL     OW22846   0.218   2.934   7.324 -0.1377  0.3892  0.2911
 3737SOL    HW122847   0.124   2.938   7.305 -0.2548  2.2587  1.3213
 3737SOL    HW222848   0.232   2.840   7.338 -0.4142  0.5298  1.5346
 3738SOL     OW22849   3.133   1.692   4.245  0.6492 -0.7258  0.3732
 3738SOL    HW122850   3.109   1.765   4.189  0.3722 -0.5186  0.7640
 3738SOL    HW222851   3.098   1.718   4.330  0.1101 -0.5698  0.1003
 3739SOL     OW22852   2.938   2.258   7.625 -0.3617 -0.3421  0.0650
 3739SOL    HW122853   2.997   2.269   7.700 -2.4080 -1.1234  1.7600
 3739SOL    HW222854   2.968   2.332   7.571  0.6396 -1.2445 -0.6066
 3740SOL     OW22855   2.839   1.917   2.948  0.0722  0.6739 -0.0410
 3740SOL    HW122856   2.816   1.983   3.014  0.6333  1.0925 -0.2683
 3740SOL    HW222857   2.798   1.962   2.874  0.1431  1.7274  0.5561
 3741SOL     OW22858   2.736   1.993   6.277  0.1438  0.1446 -0.0849
 3741SOL    HW122859   2.791   1.962   6.205 -2.8019  2.6504 -3.3771
 3741SOL    HW222860   2.671   1.923   6.281 -0.5152  0.9135  2.7066
 3742SOL     OW22861   4.157   4.606  15.620 -0.3742 -0.7450 -0.3512
 3742SOL    HW122862   4.149   4.688  15.571 -3.7750  0.3008  2.0006
 3742SOL    HW222863   4.068   4.571  15.610 -0.2380 -1.2244  0.1653
 3743SOL     OW22864   3.999   1.269   8.265 -0.3912 -0.0157 -0.2560
 3743SOL    HW122865   4.019   1.226   8.182 -1.1547 -0.3813 -0.2426
 3743SOL    HW222866   3.904   1.272   8.256 -0.2574  1.8987 -1.1023
 3744SOL     OW22867   2.702   1.108   5.582 -0.9921 -0.3256  0.5960
 3744SOL    HW122868   2.793   1.091   5.558 -1.6378 -1.0408 -1.3263
 3744SOL    HW222869   2.684   1.023   5.621  1.4543 -1.5208 -0.8548
 3745SOL     OW22870   2.608   2.884   6.467  0.2765 -0.3142 -0.3911
 3745SOL    HW122871   2.590   2.800   6.509  0.5942 -0.6169 -0.8614
 3745SOL    HW222872   2.695   2.869   6.429  0.1588  0.8362 -1.1081
 3746SOL     OW22873   2.388   4.445   2.592  0.3579  0.1612 -0.5689
 3746SOL    HW122874   2.331   4.488   2.655 -1.1653 -2.9184  0.1440
 3746SOL    HW222875   2.444   4.394   2.651 -1.4469 -1.4377 -0.2293
 3747SOL     OW22876   3.790   1.709   7.122  0.1403  0.0848  0.8566
 3747SOL    HW122877   3.786   1.656   7.202  3.5892 -0.0890  0.9294
 3747SOL    HW222878   3.783   1.643   7.054 -0.0340 -0.6199  1.5688
 3748SOL     OW22879   2.518   1.421   7.436  0.0057 -0.1221 -0.4869
 3748SOL    HW122880   2.536   1.398   7.527 -0.3471  0.3471 -0.2988
 3748SOL    HW222881   2.459   1.496   7.442 -1.2676 -0.9961 -2.1406
 3749SOL     OW22882   0.084   1.588  17.736  0.1976  0.6052  0.4330
 3749SOL    HW122883   0.113   1.530   0.049  0.0904 -0.4115 -0.3602
 3749SOL    HW222884   0.019   1.640   0.025 -1.4505 -0.9413 -0.1309
 3750SOL     OW22885   1.223   3.823  12.788 -0.3896  0.6394 -0.1681
 3750SOL    HW122886   1.157   3.883  12.754 -3.6948 -1.9488  1.7727
 3750SOL    HW222887   1.240   3.862  12.874  1.8808  1.3612 -0.9327
 3751SOL     OW22888   4.471   3.202   2.050  0.1702  0.2244 -0.0054
 3751SOL    HW122889   4.523   3.223   2.128  2.1750  0.8964 -1.5055
 3751SOL    HW222890   4.399   3.155   2.092  1.6603 -0.2876  1.9828
 3752SOL     OW22891   0.966   3.851  16.464  0.1701 -0.4532 -0.6545
 3752SOL    HW122892   1.059   3.872  16.476  0.0412 -0.0990 -0.2781
 3752SOL    HW222893   0.950   3.862  16.370 -1.0538  2.4918 -0.1055
 3753SOL     OW22894   3.242   2.834   2.592 -0.0837 -0.8618  0.6232
 3753SOL    HW122895   3.298   2.882   2.653  0.5884 -0.1517 -0.5501
 3753SOL    HW222896   3.255   2.743   2.618 -0.6569 -0.6625  1.6188
 3754SOL     OW22897   4.538   3.036   5.342 -0.4924  0.0094  0.3932
 3754SOL    HW122898   4.624   3.033   5.301 -1.1372  1.6033 -1.0495
 3754SOL    HW222899   4.483   3.071   5.272 -0.7034  0.2411  0.6702
 3755SOL     OW22900   2.957   3.725  17.395 -0.3971  0.2719  0.2214
 3755SOL    HW122901   2.865   3.744  17.410 -0.2988  0.1475  1.0218
 3755SOL    HW222902   2.955   3.663  17.322 -0.7081  0.2868  0.2184
 3756SOL     OW22903   1.855   2.035   4.232 -0.8283 -0.6179 -0.2564
 3756SOL    HW122904   1.939   1.991   4.220  0.5687  1.7889  0.6507
 3756SOL    HW222905   1.835   2.080   4.150 -0.1313 -1.0345 -0.6561
 3757SOL     OW22906   3.463   0.499  12.467 -0.1963 -0.0826 -0.2045
 3757SOL    HW122907   3.509   0.504  12.383 -0.1470  1.6626 -0.0876
 3757SOL    HW222908   3.489   0.583  12.505  2.4142 -1.1134  0.3042
 3758SOL     OW22909   4.348   2.902  15.256  0.6542  0.5174  0.5507
 3758SOL    HW122910   4.436   2.867  15.241 -0.3769 -2.2188  0.8325
 3758SOL    HW222911   4.303   2.824  15.287  2.5706 -0.7313  0.2201
 3759SOL     OW22912   3.862   0.101   9.787 -0.2270 -0.8962  0.1274
 3759SOL    HW122913   3.870   0.151   9.869 -0.1543  0.0935 -0.4755
 3759SOL    HW222914   3.787   0.048   9.813 -0.2297 -0.0279  1.8690
 3760SOL     OW22915   4.286   3.826   6.781 -0.0791 -1.0299 -0.0525
 3760SOL    HW122916   4.340   3.757   6.742 -0.8095 -1.3911 -0.4097
 3760SOL    HW222917   4.232   3.838   6.703  0.1515  0.8453  0.0794
 3761SOL     OW22918   0.567   0.809  14.494 -0.0360  0.0352  0.1089
 3761SOL    HW122919   0.572   0.883  14.556  0.8053  1.1308 -1.2576
 3761SOL    HW222920   0.549   0.733  14.550 -0.3741 -1.0442 -1.4850
 3762SOL     OW22921   4.265   0.203   1.062  0.5318 -0.0240  0.1923
 3762SOL    HW122922   4.282   0.297   1.050 -0.8641  0.4700  2.1133
 3762SOL    HW222923   4.192   0.198   1.124 -1.3353  1.6543 -1.8526
 3763SOL     OW22924   4.691   0.377   0.727 -0.6208 -0.5073  0.2812
 3763SOL    HW122925   4.647   0.419   0.653 -0.2350  2.7667  1.9327
 3763SOL    HW222926   4.662   0.289   0.705 -0.0334 -1.0482  1.7055
 3764SOL     OW22927   1.375   0.460   8.533  0.5951  0.2783  0.5056
 3764SOL    HW122928   1.302   0.455   8.472  0.8161 -2.0726  0.4276
 3764SOL    HW222929   1.369   0.377   8.580 -1.4471  1.3143  2.0588
 3765SOL     OW22930   4.416   2.130   2.188  0.3767  0.2246 -0.0834
 3765SOL    HW122931   4.400   2.048   2.235 -1.1435  0.1395 -0.7327
 3765SOL    HW222932   4.356   2.123   2.113 -2.1171  0.8188  1.8651
 3766SOL     OW22933   4.223   1.869  12.569  0.6462  0.6923 -0.0356
 3766SOL    HW122934   4.297   1.912  12.612 -0.4683  1.8885  0.6418
 3766SOL    HW222935   4.201   1.813  12.643  1.1356  2.6637  1.5737
 3767SOL     OW22936   2.416   3.343   9.535 -0.6770 -0.6035 -0.0978
 3767SOL    HW122937   2.395   3.433   9.560 -0.1763  0.5342 -3.7929
 3767SOL    HW222938   2.394   3.296   9.616 -0.7742 -4.0313 -2.1414
 3768SOL     OW22939   4.197   2.125   7.598  0.1969 -0.5509 -0.1899
 3768SOL    HW122940   4.178   2.130   7.692  2.7293 -1.2969  0.3630
 3768SOL    HW222941   4.122   2.078   7.562 -0.9510 -1.0028  2.8022
 3769SOL     OW22942   0.277   3.387   0.663  0.3810  0.0226 -0.1741
 3769SOL    HW122943   0.356   3.423   0.622  0.5729 -0.1528  0.0377
 3769SOL    HW222944   0.281   3.294   0.639 -0.3902  0.2954 -1.3412
 3770SOL     OW22945   3.623   4.679  17.211  0.2961 -0.0531  0.1714
 3770SOL    HW122946   3.568   4.648  17.139 -0.6909  0.9798  0.4726
 3770SOL    HW222947   3.566   4.736  17.263 -0.1456 -0.9504  0.6745
 3771SOL     OW22948   3.254   0.201   6.067  0.3224 -0.3360  0.0123
 3771SOL    HW122949   3.178   0.146   6.087  1.0070 -0.2555  2.8976
 3771SOL    HW222950   3.321   0.147   6.109 -0.1264 -0.7653  0.1766
 3772SOL     OW22951   0.781   3.065   4.100 -0.0291  0.0946  0.2992
 3772SOL    HW122952   0.813   2.990   4.050  1.3252  0.3437  0.7942
 3772SOL    HW222953   0.788   3.045   4.193  1.8607 -0.9148 -0.0620
 3773SOL     OW22954   2.770   4.318   3.011 -0.0683  0.4720 -0.7287
 3773SOL    HW122955   2.735   4.229   3.011  1.3561 -0.0804  1.0568
 3773SOL    HW222956   2.848   4.309   3.067 -2.4219  2.6104  2.9268
 3774SOL     OW22957   0.217   3.569  12.561 -0.0075 -0.6409  0.4468
 3774SOL    HW122958   0.287   3.561  12.625 -1.0455  0.7711  1.7583
 3774SOL    HW222959   0.229   3.478  12.533  1.7737  0.3132 -1.9245
 3775SOL     OW22960   4.594   0.580   1.445 -0.4681  0.3163 -0.1243
 3775SOL    HW122961   4.658   0.513   1.469 -0.8356 -0.0068 -0.0557
 3775SOL    HW222962   4.586   0.564   1.351  1.4389  0.9914 -0.4201
 3776SOL     OW22963   3.624   3.032   6.251 -0.4377  0.6440 -0.1462
 3776SOL    HW122964   3.558   3.099   6.270 -1.6096 -0.1139 -1.5615
 3776SOL    HW222965   3.555   2.971   6.226  0.7989 -1.6545  2.0415
 3777SOL     OW22966   1.601   2.423   6.567 -0.6719 -0.1213  0.0791
 3777SOL    HW122967   1.593   2.454   6.476  1.7389 -1.6915 -0.6561
 3777SOL    HW222968   1.595   2.508   6.610 -0.6465  0.1139 -0.3746
 3778SOL     OW22969   3.591   0.254   1.349  0.5411  0.4794  0.2351
 3778SOL    HW122970   3.578   0.234   1.257 -3.2149 -0.7608  1.0512
 3778SOL    HW222971   3.505   0.239   1.388  1.1951 -3.1857  0.2099
 3779SOL     OW22972   3.361   1.744   1.997  0.0946 -0.3180  0.6057
 3779SOL    HW122973   3.400   1.656   1.998  2.2221  0.6020 -1.7616
 3779SOL    HW222974   3.324   1.736   1.909  0.4728  0.6912  0.3558
 3780SOL     OW22975   3.910   3.735  12.298  0.1807  0.1546 -0.0859
 3780SOL    HW122976   3.841   3.670  12.304  1.1287 -0.6576  1.9656
 3780SOL    HW222977   3.906   3.780  12.213  0.5075 -0.9544 -0.6948
 3781SOL     OW22978   3.990   0.441   8.256  0.4218 -0.5669 -0.1389
 3781SOL    HW122979   3.968   0.508   8.191 -0.9766  0.4435  1.3944
 3781SOL    HW222980   4.074   0.408   8.222  1.0486  0.1463  0.7474
 3782SOL     OW22981   0.577   3.334   0.937 -0.0492  0.4052 -0.2217
 3782SOL    HW122982   0.507   3.399   0.945 -1.3150 -0.9511 -0.1108
 3782SOL    HW222983   0.520   3.259   0.920  0.2297  0.1575 -0.0663
 3783SOL     OW22984   4.448   3.451  12.178 -0.1993  0.5031  0.1674
 3783SOL    HW122985   4.536   3.432  12.211 -0.4221 -0.5801  0.1505
 3783SOL    HW222986   4.418   3.361  12.167 -0.4416  0.5995  0.0448
 3784SOL     OW22987   3.166   3.905   1.144  0.1060  0.2721 -1.1754
 3784SOL    HW122988   3.236   3.926   1.207 -1.8695 -0.4043  1.2525
 3784SOL    HW222989   3.094   3.879   1.201  0.8397 -1.4127 -1.0295
 3785SOL     OW22990   2.347   2.138   1.664  0.2819 -0.0990 -0.4989
 3785SOL    HW122991   2.361   2.197   1.738 -0.3594  0.7605 -1.0690
 3785SOL    HW222992   2.304   2.064   1.706 -0.6912  0.8528  0.2052
 3786SOL     OW22993   1.043   4.447  12.753  0.1689 -0.2117  0.6653
 3786SOL    HW122994   1.078   4.378  12.697 -0.4147  0.6077 -0.7155
 3786SOL    HW222995   0.950   4.428  12.743 -0.8170  2.9243  3.8667
 3787SOL     OW22996   3.630   4.475   9.616  0.3655  0.0719  0.8688
 3787SOL    HW122997   3.621   4.381   9.629 -0.1236  0.1378  1.0108
 3787SOL    HW222998   3.547   4.504   9.577  1.1610 -0.0132 -0.9220
 3788SOL     OW22999   1.613   1.976  12.402 -0.3648 -0.3389  0.1957
 3788SOL    HW123000   1.615   2.043  12.333 -0.3815  1.6310  2.1312
 3788SOL    HW223001   1.532   2.009  12.441 -0.4942 -1.7157  1.0969
 3789SOL     OW23002   0.704   0.175  16.101  0.0936 -0.3179  0.5929
 3789SOL    HW123003   0.787   0.193  16.146  0.8094  0.8768 -1.2077
 3789SOL    HW223004   0.643   0.166  16.173 -3.3148 -0.2209 -2.2830
 3790SOL     OW23005   0.099   0.087  11.337 -0.4687 -0.4052 -0.8740
 3790SOL    HW123006   0.009   0.092  11.306 -0.4887  0.8178 -0.6261
 3790SOL    HW223007   0.103   4.735  11.364 -1.1033  0.8450  3.4857
 3791SOL     OW23008   3.297   3.081   9.500 -0.3660  0.3866 -0.1380
 3791SOL    HW123009   3.266   3.159   9.454  1.6571  0.5086 -1.2940
 3791SOL    HW223010   3.220   3.055   9.553 -0.6887  1.4429 -0.0939
 3792SOL     OW23011   0.534   1.209   3.589 -0.1399 -0.0690  0.4077
 3792SOL    HW123012   0.534   1.114   3.578 -1.4426  0.0370 -0.5053
 3792SOL    HW223013   0.500   1.217   3.678 -1.2776  0.4172 -0.0671
 3793SOL     OW23014   1.902   2.177   0.010 -0.4694 -0.1298  0.1650
 3793SOL    HW123015   1.992   2.195  17.741 -1.0250  2.5275  0.0663
 3793SOL    HW223016   1.912   2.083   0.027 -2.1507 -0.2726  0.3422
 3794SOL     OW23017   2.002   1.525   7.513  0.1879 -0.4727  0.0116
 3794SOL    HW123018   1.960   1.595   7.463  0.6564 -1.2202 -1.4139
 3794SOL    HW223019   1.945   1.516   7.590 -0.1654  1.3772 -0.0495
 3795SOL     OW23020   0.433   1.427  16.833  0.5322 -0.3899 -0.4048
 3795SOL    HW123021   0.529   1.423  16.824  0.5977 -0.5253  0.3306
 3795SOL    HW223022   0.413   1.431  16.927 -2.0107  3.7401 -1.1461
 3796SOL     OW23023   2.823   4.026   2.324 -0.7159  0.3140 -0.2960
 3796SOL    HW123024   2.754   4.092   2.333  0.0355  0.7246  2.3129
 3796SOL    HW223025   2.833   4.011   2.418  0.6018 -1.5434 -0.7375
 3797SOL     OW23026   0.942   2.816  11.737  0.0603  0.4787 -0.5593
 3797SOL    HW123027   0.969   2.861  11.657  1.0670  0.6474 -0.1239
 3797SOL    HW223028   0.847   2.819  11.726  0.0245 -0.5164 -0.5297
 3798SOL     OW23029   0.041   4.194   5.920  0.2570  0.1185 -0.0235
 3798SOL    HW123030   0.133   4.200   5.947  0.2195 -0.7420  0.3068
 3798SOL    HW223031   0.006   4.257   5.982 -0.0010 -0.1221  0.0748
 3799SOL     OW23032   1.219   3.272   2.541 -0.0444  0.2074 -0.1264
 3799SOL    HW123033   1.263   3.220   2.609 -0.5434  0.8568  0.6951
 3799SOL    HW223034   1.203   3.353   2.588  0.4962  0.1303  0.1929
 3800SOL     OW23035   3.271   1.944   2.907  0.8112 -0.1377  0.5201
 3800SOL    HW123036   3.196   1.998   2.931  1.3898  0.0945  1.8156
 3800SOL    HW223037   3.312   1.999   2.839 -0.2836 -1.7066 -1.4159
 3801SOL     OW23038   3.700   2.569   8.038 -0.6490  0.0031  0.0323
 3801SOL    HW123039   3.730   2.546   8.126 -0.1013  0.6700  0.0179
 3801SOL    HW223040   3.750   2.517   7.976  0.6643  1.4807 -0.1428
 3802SOL     OW23041   2.290   1.552   7.528  0.8226 -0.0400  0.3156
 3802SOL    HW123042   2.203   1.518   7.505  1.4300 -0.2492 -1.6026
 3802SOL    HW223043   2.272   1.644   7.545  1.0822  0.2662 -1.1248
 3803SOL     OW23044   2.942   1.597   8.115  1.0778  0.2025  0.2588
 3803SOL    HW123045   2.897   1.611   8.198 -0.0904  1.1404 -0.5404
 3803SOL    HW223046   2.964   1.689   8.098 -4.1230  1.3924 -0.0578
 3804SOL     OW23047   0.005   1.042   9.335  0.4051  0.2257 -0.0405
 3804SOL    HW123048   0.022   1.023   9.427 -2.0550  1.4654  0.6709
 3804SOL    HW223049   0.080   1.099   9.320  2.2185 -1.7274  1.5681
 3805SOL     OW23050   2.604   4.375  15.284 -0.2017 -0.4433  0.4888
 3805SOL    HW123051   2.641   4.430  15.215 -1.5753  0.0598  0.1600
 3805SOL    HW223052   2.680   4.364  15.341 -0.4863 -2.4613  0.4613
 3806SOL     OW23053   2.486   2.783   4.986  0.0201  0.4789  0.3937
 3806SOL    HW123054   2.473   2.840   4.910 -0.9528  0.8959  0.8858
 3806SOL    HW223055   2.496   2.847   5.056  0.1717  1.8590 -0.9037
 3807SOL     OW23056   3.837   4.454   1.491  0.0833 -0.4479  0.1957
 3807SOL    HW123057   3.919   4.411   1.465  0.1936 -0.0025 -0.1960
 3807SOL    HW223058   3.847   4.439   1.585 -2.8687 -0.6720  0.4589
 3808SOL     OW23059   1.161   1.663   6.569  0.1343  0.0020 -0.4583
 3808SOL    HW123060   1.152   1.619   6.654  1.1005  1.9056  0.6118
 3808SOL    HW223061   1.068   1.653   6.545  0.5378 -1.2060 -1.5035
 3809SOL     OW23062   0.759   4.059   5.068 -0.1198  0.3697 -0.0568
 3809SOL    HW123063   0.675   4.095   5.094  0.3548  1.2931  0.1938
 3809SOL    HW223064   0.813   4.105   5.133  1.3545 -0.7907 -0.4461
 3810SOL     OW23065   3.603   2.772   4.899  0.4357  0.2383 -0.0268
 3810SOL    HW123066   3.617   2.865   4.879  0.4307  0.0628 -0.8498
 3810SOL    HW223067   3.609   2.724   4.816  3.3435 -0.8021  0.8118
 3811SOL     OW23068   4.090   1.987  17.024  0.2167 -0.2782 -0.2283
 3811SOL    HW123069   4.071   1.974  16.932 -0.5582  0.7928 -0.2290
 3811SOL    HW223070   4.185   1.998  17.018  0.0947 -0.0603 -1.7440
 3812SOL     OW23071   3.583   2.396   6.565 -0.2658  0.4677 -0.1731
 3812SOL    HW123072   3.501   2.427   6.528  0.1825  1.9182  0.0600
 3812SOL    HW223073   3.647   2.452   6.520 -1.5887  0.7014 -1.7531
 3813SOL     OW23074   3.290   0.726   7.784  0.2409 -0.3023  0.1203
 3813SOL    HW123075   3.357   0.764   7.840  0.4528 -1.1176  0.4189
 3813SOL    HW223076   3.313   0.633   7.780  3.0404  0.5469 -2.8319
 3814SOL     OW23077   1.119   3.609  17.113 -0.1054 -0.3872  0.3856
 3814SOL    HW123078   1.171   3.676  17.157  2.1819 -0.5593 -2.0539
 3814SOL    HW223079   1.129   3.531  17.168 -2.2464  0.0081  1.3499
 3815SOL     OW23080   2.485   3.578   2.915 -0.3930  0.3264  0.0535
 3815SOL    HW123081   2.509   3.622   2.997  2.1694  1.3998 -1.2552
 3815SOL    HW223082   2.394   3.560   2.938 -0.3688 -1.0315 -0.9046
 3816SOL     OW23083   4.548   3.168  10.014 -0.4182  0.1283  0.2773
 3816SOL    HW123084   4.486   3.141   9.946  0.1821  0.6748 -0.4761
 3816SOL    HW223085   4.583   3.080  10.027 -1.8663 -0.3411  1.0135
 3817SOL     OW23086   4.536   0.840   2.287 -0.0192 -0.2783 -0.3378
 3817SOL    HW123087   4.541   0.747   2.264  3.3107  0.1490 -1.2992
 3817SOL    HW223088   4.560   0.894   2.211  2.3811 -0.3295  0.3838
 3818SOL     OW23089   3.802   3.433   1.582  0.3110 -0.6707 -0.8753
 3818SOL    HW123090   3.731   3.439   1.518 -1.2621  3.4473  1.2275
 3818SOL    HW223091   3.878   3.427   1.524 -1.5212 -1.3287 -3.2235
 3819SOL     OW23092   1.276   1.102   8.146  1.1041  0.4868  0.0824
 3819SOL    HW123093   1.314   1.167   8.087 -0.7593  2.3470  0.9048
 3819SOL    HW223094   1.353   1.087   8.200 -0.1725 -4.2618  0.5492
 3820SOL     OW23095   1.259   3.566   5.406  0.7319  0.2400 -0.1344
 3820SOL    HW123096   1.246   3.482   5.450  1.3158  0.5336  0.6109
 3820SOL    HW223097   1.310   3.608   5.475  0.6386 -1.6327  1.0701
 3821SOL     OW23098   0.792   0.898   2.259 -0.9322  0.2717  0.4233
 3821SOL    HW123099   0.832   0.981   2.232  0.4152 -0.1464  1.1276
 3821SOL    HW223100   0.772   0.920   2.351 -0.6894  1.1090  0.2744
 3822SOL     OW23101   1.015   1.052   3.913 -0.1342  0.6942 -0.2951
 3822SOL    HW123102   0.992   1.000   3.836  0.2583 -0.9796  0.7090
 3822SOL    HW223103   0.934   1.051   3.965  0.7739 -0.1485  1.1086
 3823SOL     OW23104   2.017   3.149  12.220 -0.2490 -0.0851 -0.2200
 3823SOL    HW123105   1.991   3.192  12.139 -0.4545 -0.0860 -0.1574
 3823SOL    HW223106   2.107   3.135  12.194 -0.0874  1.8054 -0.6415
 3824SOL     OW23107   3.627   4.435   2.078  0.7551  0.2624  0.0165
 3824SOL    HW123108   3.630   4.438   1.982  0.5888  0.0707  0.0056
 3824SOL    HW223109   3.583   4.350   2.082  0.8670  0.1756 -0.5287
 3825SOL     OW23110   3.651   3.219   5.426  0.0244  0.0211 -0.2257
 3825SOL    HW123111   3.737   3.183   5.403 -0.4252 -0.6915 -0.7850
 3825SOL    HW223112   3.650   3.308   5.391  0.9107  0.5567  1.1160
 3826SOL     OW23113   1.732   1.206   2.962  0.1076 -0.3252 -0.4580
 3826SOL    HW123114   1.668   1.271   2.931  0.1604 -1.1287 -2.2534
 3826SOL    HW223115   1.740   1.155   2.881 -0.4735 -3.0439  1.2158
 3827SOL     OW23116   2.872   2.452   2.040 -0.9040  0.6963  0.2692
 3827SOL    HW123117   2.802   2.488   2.094 -0.9259  1.8940 -0.5517
 3827SOL    HW223118   2.938   2.461   2.108 -0.4475  1.6518 -0.2879
 3828SOL     OW23119   4.179   0.955   7.235  0.0355  0.1157 -0.2296
 3828SOL    HW123120   4.231   0.900   7.294  0.3969  0.1833 -0.4836
 3828SOL    HW223121   4.149   1.029   7.287 -2.5410 -1.7852  1.0035
 3829SOL     OW23122   2.219   4.124  11.475  0.0940  0.0720 -0.2215
 3829SOL    HW123123   2.125   4.107  11.470  0.5945 -3.9859  4.0543
 3829SOL    HW223124   2.244   4.109  11.566 -1.9927  1.8734  0.6255
 3830SOL     OW23125   2.744   0.663   8.183  0.2863  0.0141  0.7550
 3830SOL    HW123126   2.779   0.744   8.220 -1.7097  1.3198 -0.2781
 3830SOL    HW223127   2.652   0.670   8.208 -1.0545  0.9982 -4.5507
 3831SOL     OW23128   2.254   0.657   6.315  0.3787 -0.2289  0.6258
 3831SOL    HW123129   2.257   0.574   6.363  3.4758 -0.2959  0.3486
 3831SOL    HW223130   2.287   0.718   6.381  0.6652  1.2700 -0.9327
 3832SOL     OW23131   2.448   0.628   5.335 -0.4032  0.1226  0.1756
 3832SOL    HW123132   2.537   0.596   5.353 -0.4296  0.2884  0.6058
 3832SOL    HW223133   2.451   0.711   5.382  3.1351 -0.3823  0.8603
 3833SOL     OW23134   0.260   3.610  10.344  0.4345  0.2204  0.4952
 3833SOL    HW123135   0.217   3.694  10.325  0.1041  0.1305  0.8359
 3833SOL    HW223136   0.197   3.548  10.309  1.6590  0.1641 -1.6098
 3834SOL     OW23137   1.858   3.435  12.746 -0.1019  1.1729  0.3460
 3834SOL    HW123138   1.945   3.401  12.768 -0.3762 -1.5917 -2.9884
 3834SOL    HW223139   1.849   3.491  12.824  0.0037  0.9132  0.5443
 3835SOL     OW23140   0.511   4.296   7.164 -0.5103 -0.3449 -0.7198
 3835SOL    HW123141   0.475   4.312   7.076 -0.1771 -1.9701 -1.1659
 3835SOL    HW223142   0.475   4.210   7.189 -3.8070  0.0740 -3.8945
 3836SOL     OW23143   3.042   1.666   5.714 -0.1658 -0.8244 -0.1734
 3836SOL    HW123144   2.947   1.680   5.717 -0.0588  0.1568 -1.9632
 3836SOL    HW223145   3.046   1.603   5.642  0.9686  0.4925 -1.2530
 3837SOL     OW23146   4.520   3.488   9.579  0.5173 -0.0331 -0.0842
 3837SOL    HW123147   4.448   3.547   9.555  0.3522 -0.6699 -1.1501
 3837SOL    HW223148   4.513   3.502   9.674 -3.6953 -1.5852 -0.1541
 3838SOL     OW23149   1.082   1.531   5.669  0.0169 -0.3100  0.4924
 3838SOL    HW123150   1.120   1.444   5.663  1.2811  0.3323 -1.0402
 3838SOL    HW223151   1.080   1.523   5.764  0.0651  0.3079  0.5490
 3839SOL     OW23152   0.939   2.405   3.758 -0.3867 -0.1751  0.3036
 3839SOL    HW123153   0.903   2.478   3.807 -0.3626 -0.4378  0.7160
 3839SOL    HW223154   0.999   2.367   3.823  0.3451  0.5004  0.0118
 3840SOL     OW23155   2.710   4.399   5.222 -0.3396 -0.1241  0.4669
 3840SOL    HW123156   2.764   4.465   5.178 -0.1542  0.1642  1.1192
 3840SOL    HW223157   2.631   4.397   5.167 -0.8944  1.6190  1.1838
 3841SOL     OW23158   4.117   0.833   9.677 -0.2785  0.2238 -0.6655
 3841SOL    HW123159   4.195   0.876   9.643  0.0115  0.5861  0.4496
 3841SOL    HW223160   4.152   0.828   9.766  1.1190 -0.7716 -1.2669
 3842SOL     OW23161   4.056   0.878   5.757 -0.1138 -0.4449  0.4599
 3842SOL    HW123162   4.144   0.908   5.734 -0.0543 -1.8497 -1.1406
 3842SOL    HW223163   4.043   0.926   5.839 -0.6116  1.6571 -0.8420
 3843SOL     OW23164   3.353   2.249   5.501 -0.2356 -0.3614  0.0069
 3843SOL    HW123165   3.399   2.208   5.574 -0.7440  1.4661  1.3344
 3843SOL    HW223166   3.417   2.233   5.431  0.7766 -1.4039  1.1638
 3844SOL     OW23167   3.994   2.043   9.482 -0.2373  0.5514 -0.7704
 3844SOL    HW123168   4.032   2.095   9.412  1.3280  0.5945  0.1115
 3844SOL    HW223169   3.981   1.959   9.438  2.8650  0.5166 -1.6277
 3845SOL     OW23170   4.437   2.108   7.313  0.2853 -0.0112 -0.6243
 3845SOL    HW123171   4.426   2.191   7.359  0.8570  0.7232 -1.8023
 3845SOL    HW223172   4.512   2.074   7.362  0.4066  0.8234 -0.2394
 3846SOL     OW23173   2.769   3.594  10.937  0.1881  0.1583  0.0116
 3846SOL    HW123174   2.795   3.676  10.895 -0.3748 -0.8784 -2.3406
 3846SOL    HW223175   2.753   3.638  11.020 -1.2229 -1.4301  0.5659
 3847SOL     OW23176   0.639   1.123  13.484 -0.2578 -0.2257  0.3402
 3847SOL    HW123177   0.564   1.073  13.453  0.4223  0.2421 -2.0557
 3847SOL    HW223178   0.632   1.126  13.580 -0.9149  1.0504  0.2511
 3848SOL     OW23179   2.510   3.621   1.519  0.4649 -0.1803 -0.0489
 3848SOL    HW123180   2.466   3.699   1.553 -1.7402 -1.4572 -0.0061
 3848SOL    HW223181   2.462   3.550   1.560  1.0759 -0.0075  0.9519
 3849SOL     OW23182   1.487   0.719   4.133  0.7742 -0.1675 -0.6736
 3849SOL    HW123183   1.429   0.684   4.200 -0.1588 -0.3603 -1.5746
 3849SOL    HW223184   1.434   0.756   4.062 -0.4278 -0.3120  0.1485
 3850SOL     OW23185   2.641   2.700   1.390  0.5559 -0.3647 -0.0391
 3850SOL    HW123186   2.698   2.705   1.313  0.7551  0.2316  0.1503
 3850SOL    HW223187   2.584   2.777   1.382  2.9830  1.2137 -2.2358
 3851SOL     OW23188   1.881   1.732   6.339  0.3695  0.1682 -0.3246
 3851SOL    HW123189   1.858   1.809   6.391 -1.1913 -0.4859 -0.0670
 3851SOL    HW223190   1.894   1.671   6.410  0.6858 -3.1636 -3.2469
 3852SOL     OW23191   0.054   0.082   5.506  0.2425 -0.0451 -0.0366
 3852SOL    HW123192   4.726   0.056   5.567  0.1065  1.2446  0.3608
 3852SOL    HW223193   0.051   0.014   5.439 -0.9601 -1.7545  1.7764
 3853SOL     OW23194   0.249   1.499   8.307 -0.0559 -0.6022  0.3238
 3853SOL    HW123195   0.213   1.476   8.221 -0.8482 -0.6514  0.6754
 3853SOL    HW223196   0.324   1.553   8.281  0.1900 -0.9769  0.2496
 3854SOL     OW23197   1.857   1.594   2.869 -0.0999  0.9471  0.0175
 3854SOL    HW123198   1.939   1.643   2.862 -0.7100  2.2600  1.9297
 3854SOL    HW223199   1.850   1.561   2.780  0.2125 -1.7652  1.0174
 3855SOL     OW23200   1.353   0.770   6.897  0.5978 -0.1161  0.0603
 3855SOL    HW123201   1.270   0.768   6.946  0.5610 -4.0184 -0.1742
 3855SOL    HW223202   1.416   0.748   6.966  0.7024 -0.0587 -0.0168
 3856SOL     OW23203   4.016   2.585  15.671 -0.1490  0.3475  0.2214
 3856SOL    HW123204   3.997   2.588  15.577 -0.3726  1.5482  0.3095
 3856SOL    HW223205   4.008   2.494  15.700 -0.5272 -0.2986 -1.9500
 3857SOL     OW23206   1.738   0.788   9.068 -0.3904 -0.0408  0.2176
 3857SOL    HW123207   1.809   0.808   9.007  1.0118  3.9205  3.1536
 3857SOL    HW223208   1.705   0.874   9.095  1.4004  0.1126  1.9376
 3858SOL     OW23209   1.425   0.940  15.456 -0.1503 -0.5237  0.2923
 3858SOL    HW123210   1.509   0.912  15.420 -0.3350 -1.1476  0.3440
 3858SOL    HW223211   1.397   0.988  15.379 -0.8894  0.1526  0.9782
 3859SOL     OW23212   4.031   4.141   4.780 -0.1531  0.2563  0.5627
 3859SOL    HW123213   4.111   4.140   4.832  0.4562  0.1959 -0.3657
 3859SOL    HW223214   4.041   4.072   4.714  2.0410  0.1332  1.0346
 3860SOL     OW23215   0.582   0.872   5.718  0.1159 -0.1986 -0.1123
 3860SOL    HW123216   0.626   0.854   5.635  1.4956 -0.0839  0.5930
 3860SOL    HW223217   0.621   0.958   5.735  0.8629 -0.7351  0.8475
 3861SOL     OW23218   3.610   0.704   3.588  0.4405  0.5750  0.1338
 3861SOL    HW123219   3.519   0.695   3.617  0.5921  1.4386  0.8712
 3861SOL    HW223220   3.637   0.748   3.669 -0.0090 -2.8817  2.1549
 3862SOL     OW23221   4.370   3.058  11.238 -0.2253 -0.2206  0.7794
 3862SOL    HW123222   4.465   3.070  11.232 -0.0565 -2.3399 -0.7465
 3862SOL    HW223223   4.359   3.001  11.314 -1.3001 -0.6647  0.2869
 3863SOL     OW23224   1.012   2.267   1.994  0.1645  0.4812  0.0803
 3863SOL    HW123225   0.960   2.200   2.039 -0.0655 -0.3162 -1.3919
 3863SOL    HW223226   1.100   2.231   2.004 -0.0159 -0.1218 -0.4873
 3864SOL     OW23227   0.098   0.941   2.836 -0.3403 -0.0876  0.3381
 3864SOL    HW123228   0.037   0.927   2.909 -0.3350  0.2581  0.4122
 3864SOL    HW223229   0.179   0.964   2.882 -1.1397  1.9848  0.7224
 3865SOL     OW23230   4.327   1.913   6.815 -0.7838 -0.2234 -0.4640
 3865SOL    HW123231   4.321   1.900   6.909 -0.3250  0.6018 -0.3204
 3865SOL    HW223232   4.422   1.919   6.807 -0.7052 -0.9239 -0.1072
 3866SOL     OW23233   4.643   4.026   9.308  0.0424 -0.6605 -0.0258
 3866SOL    HW123234   4.559   4.033   9.354  0.3518 -1.1883  0.6308
 3866SOL    HW223235   4.643   3.933   9.286 -2.1881 -0.7854  0.4858
 3867SOL     OW23236   3.192   0.005   8.099  0.1541 -0.2588  0.2970
 3867SOL    HW123237   3.245   4.692   8.159  0.3256 -0.1178  0.2687
 3867SOL    HW223238   3.245   0.031   8.024  1.6487 -1.1499  1.0472
 3868SOL     OW23239   1.228   2.490  13.665 -0.1500 -0.6058  0.2124
 3868SOL    HW123240   1.169   2.565  13.658 -0.1268 -1.0308 -4.4768
 3868SOL    HW223241   1.229   2.457  13.575 -2.7940  0.6017 -0.2455
 3869SOL     OW23242   0.587   1.497   1.368 -0.0939  0.3316  0.0757
 3869SOL    HW123243   0.558   1.406   1.376 -1.6373  0.5860 -2.6614
 3869SOL    HW223244   0.679   1.483   1.346  0.2898 -0.1375  1.9943
 3870SOL     OW23245   1.504   2.366   3.703  0.0460  0.0826  0.3719
 3870SOL    HW123246   1.416   2.367   3.666  0.0407 -0.4215  0.3762
 3870SOL    HW223247   1.537   2.455   3.686 -1.4673  0.5127 -0.3078
 3871SOL     OW23248   0.360   2.910   8.055  0.1040 -0.7655 -0.6043
 3871SOL    HW123249   0.313   2.976   8.004  1.2561  0.6341  0.1608
 3871SOL    HW223250   0.451   2.938   8.042 -0.3841  2.3840  2.9454
 3872SOL     OW23251   3.864   3.250  16.425 -0.6080 -0.4050  0.1050
 3872SOL    HW123252   3.931   3.243  16.493 -0.8841  2.2473  0.6610
 3872SOL    HW223253   3.819   3.333  16.439  0.7101  0.4279 -0.6218
 3873SOL     OW23254   1.414   2.963   3.802 -0.0696 -0.1703  0.4102
 3873SOL    HW123255   1.333   2.984   3.847  0.3968  0.4092  0.9766
 3873SOL    HW223256   1.421   3.049   3.762 -2.3822 -0.6458 -1.0182
 3874SOL     OW23257   0.971   0.885   2.680 -0.1459  0.2799  0.0390
 3874SOL    HW123258   0.989   0.831   2.758  2.2626 -0.1958 -0.8270
 3874SOL    HW223259   0.913   0.823   2.637 -1.5745  2.5922 -1.3515
 3875SOL     OW23260   0.364   2.003   8.462  0.0210  0.3265 -0.6400
 3875SOL    HW123261   0.309   2.076   8.489  0.7485  0.8540 -0.5740
 3875SOL    HW223262   0.302   1.932   8.476 -0.6848  0.3638 -3.5523
 3876SOL     OW23263   4.031   2.950   9.214 -0.1597 -0.2644  0.2620
 3876SOL    HW123264   4.062   2.944   9.124  0.7048  1.0518  0.4595
 3876SOL    HW223265   3.976   2.873   9.224 -0.7310  0.1901  0.6206
 3877SOL     OW23266   2.838   1.720   6.599 -0.3722  0.0169 -0.4953
 3877SOL    HW123267   2.745   1.697   6.594 -0.2557 -0.5667  0.0210
 3877SOL    HW223268   2.879   1.637   6.624 -0.1866  0.8482  1.8747
 3878SOL     OW23269   3.625   1.394   6.727 -0.3161  0.1443  0.4239
 3878SOL    HW123270   3.556   1.342   6.686  1.2428 -1.9153  0.4239
 3878SOL    HW223271   3.659   1.443   6.652 -0.3950 -1.9973 -1.0110
 3879SOL     OW23272   1.721   2.002   0.300 -0.0010  0.5419  0.4129
 3879SOL    HW123273   1.685   1.913   0.304  0.7892  0.1897 -0.3564
 3879SOL    HW223274   1.792   1.984   0.238 -0.3879 -0.3291  0.2229
 3880SOL     OW23275   3.561   1.899   2.477  0.5293  0.0193 -0.8735
 3880SOL    HW123276   3.605   1.815   2.491  0.6476  0.1549 -0.4324
 3880SOL    HW223277   3.491   1.875   2.416 -1.4540 -3.1680  2.6308
 3881SOL     OW23278   4.664   0.763   4.947 -0.1776  0.1086 -0.5360
 3881SOL    HW123279   4.656   0.677   4.905  1.5399 -0.7832  0.9494
 3881SOL    HW223280   4.646   0.734   5.036  1.3084  1.1759  0.1145
 3882SOL     OW23281   0.204   1.857   5.233 -0.2325 -0.1802  0.1537
 3882SOL    HW123282   0.133   1.919   5.252 -2.1353 -1.9488 -1.1981
 3882SOL    HW223283   0.221   1.865   5.140 -1.7816  1.9154  0.0608
 3883SOL     OW23284   4.551   3.913   4.074  0.0331  0.0139 -0.4454
 3883SOL    HW123285   4.539   4.001   4.039  1.3464  0.1595 -0.5272
 3883SOL    HW223286   4.562   3.921   4.169 -0.0862 -2.5002 -0.2181
 3884SOL     OW23287   4.109   1.598  13.211 -0.4205 -0.3664  0.3685
 3884SOL    HW123288   4.018   1.574  13.195 -0.4334 -0.8037  1.0979
 3884SOL    HW223289   4.131   1.594  13.118 -0.9006  2.3904  0.1497
 3885SOL     OW23290   3.649   0.465   2.910 -0.5467  0.7324 -0.0667
 3885SOL    HW123291   3.709   0.447   2.982 -0.8067  0.2348  0.0285
 3885SOL    HW223292   3.667   0.388   2.856 -1.9258  0.5724 -0.3059
 3886SOL     OW23293   3.929   4.598   4.067 -0.4131  0.2651 -0.4384
 3886SOL    HW123294   3.979   4.674   4.097 -0.7501  0.0733  0.6234
 3886SOL    HW223295   3.921   4.548   4.148  0.6271  0.6388 -0.1107
 3887SOL     OW23296   2.064   1.948   3.678  0.2018  0.5639 -0.2937
 3887SOL    HW123297   2.086   1.855   3.669  2.5945  1.0756  0.0909
 3887SOL    HW223298   1.983   1.956   3.629 -1.2372 -1.7848  1.7027
 3888SOL     OW23299   1.922   4.237  14.370 -0.2854 -0.8645  0.3895
 3888SOL    HW123300   1.842   4.264  14.325  0.5052  1.9469  0.6431
 3888SOL    HW223301   1.888   4.209  14.455  0.2252 -0.2591  0.7954
 3889SOL     OW23302   2.329   2.718   7.721 -0.1861 -0.3467  0.0409
 3889SOL    HW123303   2.297   2.652   7.783 -1.2510  1.3401  1.2890
 3889SOL    HW223304   2.385   2.776   7.772 -1.0181  1.2902 -0.9041
 3890SOL     OW23305   3.191   1.338   7.609  0.7930 -0.1025  0.0688
 3890SOL    HW123306   3.157   1.301   7.528 -0.1057 -0.2647  0.5252
 3890SOL    HW223307   3.284   1.342   7.583  0.1653  1.7734 -1.8410
 3891SOL     OW23308   1.097   4.156   0.651  0.8956 -0.0003 -0.3115
 3891SOL    HW123309   1.033   4.092   0.682 -1.0830  1.8469 -0.6549
 3891SOL    HW223310   1.132   4.196   0.731 -2.2017 -3.0637  2.5848
 3892SOL     OW23311   2.860   4.155   5.981 -0.3383  0.3265  0.4566
 3892SOL    HW123312   2.923   4.088   5.956  0.3658  1.5367 -1.0692
 3892SOL    HW223313   2.911   4.190   6.053 -0.0694  0.5142  0.1738
 3893SOL     OW23314   4.605   3.308   9.266  0.5731 -0.1267 -1.2293
 3893SOL    HW123315   4.648   3.393   9.256  1.3101 -0.1405  1.8214
 3893SOL    HW223316   4.582   3.273   9.180  1.6105 -0.9747 -1.1497
 3894SOL     OW23317   3.454   3.473   2.521  0.0360  0.2151 -0.1473
 3894SOL    HW123318   3.440   3.387   2.560  3.0648  0.0292  0.4937
 3894SOL    HW223319   3.416   3.530   2.587 -1.6169  1.4643 -2.1507
 3895SOL     OW23320   4.709   0.099   6.803 -0.2357 -0.4496 -0.1418
 3895SOL    HW123321   4.616   0.091   6.786 -0.6417  0.5722  1.6218
 3895SOL    HW223322   4.730   0.038   6.874 -0.2270 -0.9488 -0.5709
 3896SOL     OW23323   1.434   2.376   4.988 -0.3226 -0.3736  0.3183
 3896SOL    HW123324   1.529   2.362   4.991 -0.4667 -1.8908 -2.5039
 3896SOL    HW223325   1.414   2.469   4.985  0.3262 -0.1595  2.1575
 3897SOL     OW23326   3.037   2.741   5.888 -0.1149  0.2178 -0.2387
 3897SOL    HW123327   3.093   2.669   5.917 -0.1827  0.2207 -0.1027
 3897SOL    HW223328   2.984   2.702   5.819 -0.7914 -1.4033  1.2038
 3898SOL     OW23329   1.079   3.484   0.006 -0.1748  0.2992 -0.2597
 3898SOL    HW123330   1.092   3.544  17.691 -1.5100 -1.7248 -2.1751
 3898SOL    HW223331   1.036   3.539   0.072 -1.2401  0.3002 -0.9456
 3899SOL     OW23332   4.484   1.516   0.195  0.1059 -0.0804  0.0292
 3899SOL    HW123333   4.563   1.470   0.224 -0.6220  0.4534  2.8689
 3899SOL    HW223334   4.514   1.528   0.105  0.0450  0.2427  0.0509
 3900SOL     OW23335   3.364   0.596   7.043 -0.0349  0.0752 -0.5343
 3900SOL    HW123336   3.392   0.509   7.017 -1.9813 -0.6404 -0.1886
 3900SOL    HW223337   3.281   0.575   7.085  0.1856 -1.0858 -0.6852
 3901SOL     OW23338   3.135   1.393   8.155  0.4126  0.0342 -0.1515
 3901SOL    HW123339   3.075   1.322   8.131 -2.1627  2.4680 -0.9547
 3901SOL    HW223340   3.077   1.467   8.137  0.4813  0.4956  1.5372
 3902SOL     OW23341   2.240   3.557   4.053  0.3066  0.2094 -0.1748
 3902SOL    HW123342   2.318   3.502   4.066 -0.4918 -0.3349  2.3053
 3902SOL    HW223343   2.273   3.645   4.036 -1.7068  0.9349 -0.3330
 3903SOL     OW23344   0.075   0.965  10.291 -0.2546  0.0661  0.6037
 3903SOL    HW123345   0.011   0.945  10.222 -0.2373  2.7368 -0.1602
 3903SOL    HW223346   0.020   0.997  10.362 -3.1400  0.2202 -1.6918
 3904SOL     OW23347   2.599   2.341  11.865 -0.1249  0.1509  0.2821
 3904SOL    HW123348   2.604   2.304  11.953 -2.5800 -1.3425 -0.2291
 3904SOL    HW223349   2.524   2.299  11.823 -0.0141  1.1573 -0.9382
 3905SOL     OW23350   2.980   4.528  15.105 -0.2335 -0.0937 -0.7696
 3905SOL    HW123351   3.033   4.485  15.172  0.2744 -1.5130 -2.0717
 3905SOL    HW223352   3.021   4.614  15.112  1.3908 -0.8900 -0.6276
 3906SOL     OW23353   1.867   4.721   7.222  0.7960 -0.0314  0.5173
 3906SOL    HW123354   1.841   4.635   7.255  1.1285 -0.0907  0.6275
 3906SOL    HW223355   1.923   4.699   7.147 -1.7139 -2.4558 -0.6763
 3907SOL     OW23356   0.416   3.370   4.796 -0.6969 -0.0141  0.4973
 3907SOL    HW123357   0.446   3.303   4.735 -0.2381  2.3970 -1.9065
 3907SOL    HW223358   0.428   3.318   4.875  2.4800  0.1601  0.1279
 3908SOL     OW23359   2.072   1.396  11.506 -0.3406  0.3681 -0.2261
 3908SOL    HW123360   2.127   1.387  11.429  0.8234 -1.8515  0.8666
 3908SOL    HW223361   1.987   1.415  11.467 -0.3531  0.8164  0.0234
 3909SOL     OW23362   1.985   4.510   8.202 -0.8654 -0.4572  0.5375
 3909SOL    HW123363   1.901   4.557   8.209 -0.5128  0.4063 -1.0532
 3909SOL    HW223364   2.014   4.532   8.114 -2.2042  0.6972  0.3807
 3910SOL     OW23365   1.185   4.277   8.285 -0.4749  0.0414 -0.4789
 3910SOL    HW123366   1.209   4.352   8.341  0.3522 -0.8843  0.4186
 3910SOL    HW223367   1.263   4.227   8.309  0.1213  0.4334 -1.6215
 3911SOL     OW23368   3.027   0.874   4.689 -0.0764 -0.1323  0.2085
 3911SOL    HW123369   3.001   0.782   4.682  4.3740 -1.2192 -1.9869
 3911SOL    HW223370   2.990   0.903   4.606  0.7220  1.4588  0.4125
 3912SOL     OW23371   1.154   1.594  14.853 -0.2470 -0.5023  0.3803
 3912SOL    HW123372   1.173   1.526  14.917 -0.1587 -2.3395 -1.6009
 3912SOL    HW223373   1.062   1.607  14.873  0.0227  1.5163  0.3595
 3913SOL     OW23374   3.355   0.057   0.840 -0.4054 -0.0335  0.5096
 3913SOL    HW123375   3.259   0.057   0.844 -0.3971  0.2407  0.6729
 3913SOL    HW223376   3.352   0.071   0.745  0.9948 -1.4978  0.2587
 3914SOL     OW23377   1.056   4.253   8.648  0.0251 -0.2330  0.0492
 3914SOL    HW123378   1.005   4.333   8.636 -0.2461 -0.3094  0.7392
 3914SOL    HW223379   1.029   4.193   8.578  0.9957 -2.0666  1.2512
 3915SOL     OW23380   4.064   1.018  11.005 -0.9160 -0.0424  0.2469
 3915SOL    HW123381   3.984   0.966  11.014 -0.7874 -0.2782  0.0123
 3915SOL    HW223382   4.026   1.095  10.962 -0.1788  0.8627  1.2238
 3916SOL     OW23383   1.254   0.305  12.499  0.1662 -0.0185  0.4536
 3916SOL    HW123384   1.347   0.284  12.499  0.0185 -0.6855  0.3223
 3916SOL    HW223385   1.245   0.335  12.589 -0.2079  0.4407  0.2636
 3917SOL     OW23386   3.336   3.947  16.085  0.1110  0.7823 -0.2147
 3917SOL    HW123387   3.406   3.896  16.124 -1.5757  0.1028  1.9050
 3917SOL    HW223388   3.265   3.887  16.063  1.2820 -0.3435 -0.8736
 3918SOL     OW23389   1.307   2.782   9.879  0.0275 -0.7207 -0.1724
 3918SOL    HW123390   1.237   2.792   9.815  1.0258  1.9545 -0.8583
 3918SOL    HW223391   1.251   2.787   9.957 -1.8766 -2.9658 -1.3897
 3919SOL     OW23392   4.607   0.582  11.812  0.8376  0.6941 -0.4611
 3919SOL    HW123393   4.594   0.590  11.907  0.5048 -1.4509 -0.3317
 3919SOL    HW223394   4.677   0.517  11.813  0.6150  0.5373  3.3820
 3920SOL     OW23395   0.401   3.087   3.716 -0.7079 -0.5122 -0.4618
 3920SOL    HW123396   0.421   3.002   3.676  0.0318 -0.7417  0.3822
 3920SOL    HW223397   0.477   3.098   3.774 -1.7821  1.0135  0.6333
 3921SOL     OW23398   3.921   4.443   5.090 -0.1278 -0.1681 -0.1752
 3921SOL    HW123399   4.010   4.407   5.091 -0.3197 -0.7066 -1.8572
 3921SOL    HW223400   3.877   4.374   5.040 -1.8988  1.3607 -0.7242
 3922SOL     OW23401   0.494   1.059  17.453 -0.5710  0.1734  1.0300
 3922SOL    HW123402   0.422   1.105  17.494 -1.9607 -1.1302  0.0579
 3922SOL    HW223403   0.510   1.129  17.390 -1.1596  0.3607  1.0967
 3923SOL     OW23404   3.633   3.589  14.019  0.4008 -0.3947 -0.1575
 3923SOL    HW123405   3.565   3.556  13.961 -0.1156  0.4544 -0.0473
 3923SOL    HW223406   3.703   3.589  13.954 -0.9913 -1.8102 -1.6812
 3924SOL     OW23407   2.982   2.389   5.658 -0.3812  0.1477  0.0733
 3924SOL    HW123408   2.990   2.484   5.651 -2.6295  0.4213  1.0584
 3924SOL    HW223409   2.891   2.389   5.627 -0.3776  0.1302  0.0625
 3925SOL     OW23410   4.497   0.575  12.129  0.1440 -0.0683 -0.3738
 3925SOL    HW123411   4.528   0.661  12.101 -0.2301  0.8038  1.8993
 3925SOL    HW223412   4.412   0.603  12.163 -0.4776 -2.2584 -0.1104
 3926SOL     OW23413   0.484   0.040   5.671 -0.4922  0.2752  0.5627
 3926SOL    HW123414   0.465   4.700   5.621 -1.0156  0.6947  0.0911
 3926SOL    HW223415   0.395   0.072   5.685 -2.0092 -2.7109 -2.0720
 3927SOL     OW23416   2.697   0.645   4.858 -0.4195 -0.1782 -0.2913
 3927SOL    HW123417   2.739   0.610   4.937 -0.9310 -1.0762 -0.4098
 3927SOL    HW223418   2.643   0.710   4.902  1.3250  0.8459  0.3214
 3928SOL     OW23419   0.312   0.368   7.182  0.3661 -0.2388 -1.4128
 3928SOL    HW123420   0.251   0.436   7.155 -1.4895 -0.5992  1.8897
 3928SOL    HW223421   0.390   0.414   7.213 -0.2503  0.3393 -0.7398
 3929SOL     OW23422   0.159   2.275   8.193  0.2478  0.2795  0.4502
 3929SOL    HW123423   0.228   2.291   8.257  0.5235  1.5600 -0.1625
 3929SOL    HW223424   0.097   2.343   8.219  1.2339  0.7515  1.5557
 3930SOL     OW23425   2.093   1.572   0.571 -0.3945 -0.4963 -0.1592
 3930SOL    HW123426   2.063   1.514   0.641 -0.2523  1.4286  1.4863
 3930SOL    HW223427   2.175   1.585   0.618 -0.3979 -0.2108 -0.2307
 3931SOL     OW23428   0.718   3.225   8.328  0.2079  0.4353  0.1902
 3931SOL    HW123429   0.731   3.210   8.234 -0.1231 -2.6851  0.6749
 3931SOL    HW223430   0.775   3.302   8.330 -0.9658  1.3291 -0.5180
 3932SOL     OW23431   2.600   4.349   6.708  0.2096 -0.2392  0.6002
 3932SOL    HW123432   2.664   4.381   6.771  1.3619  0.1684 -0.7584
 3932SOL    HW223433   2.552   4.285   6.760  1.7301 -0.8893  1.1765
 3933SOL     OW23434   0.129   1.320   3.667 -0.1136 -0.2301 -0.0927
 3933SOL    HW123435   0.176   1.314   3.583  1.8715 -0.7737  1.0536
 3933SOL    HW223436   0.183   1.392   3.700  0.1943 -0.5204  0.0433
 3934SOL     OW23437   4.507   1.505  10.903 -0.0053 -0.4084  0.1165
 3934SOL    HW123438   4.430   1.560  10.915 -0.1556 -0.7532  0.7457
 3934SOL    HW223439   4.475   1.424  10.942  1.3526 -0.7369  0.5631
 3935SOL     OW23440   4.739   1.965   9.429 -0.4163  0.4404  0.2320
 3935SOL    HW123441   4.664   1.928   9.383 -0.5604 -1.2053  1.7897
 3935SOL    HW223442   0.031   2.019   9.357 -1.1344 -1.2333 -1.3308
 3936SOL     OW23443   1.390   0.798  11.568  0.1443 -0.6287  0.6902
 3936SOL    HW123444   1.375   0.823  11.659  0.4126  0.0364  0.5483
 3936SOL    HW223445   1.340   0.867  11.526  1.4002  0.6368  1.2734
 3937SOL     OW23446   2.666   3.061   3.592 -0.1959 -0.0888 -0.8768
 3937SOL    HW123447   2.594   3.103   3.640 -0.3336 -3.0089  1.5357
 3937SOL    HW223448   2.727   3.134   3.593  1.3046 -1.3362 -1.0069
 3938SOL     OW23449   3.632   4.305   8.582 -0.0533  0.0182 -0.6113
 3938SOL    HW123450   3.683   4.335   8.507  2.6696 -1.0929  0.7985
 3938SOL    HW223451   3.660   4.214   8.581 -0.0183  0.0262 -0.1730
 3939SOL     OW23452   1.674   0.641   8.335  0.7330  0.4005 -0.3107
 3939SOL    HW123453   1.666   0.663   8.428 -1.2394  0.8020 -0.5616
 3939SOL    HW223454   1.631   0.718   8.298  0.7118 -0.5526 -2.2493
 3940SOL     OW23455   2.611   2.174   9.678 -0.3324  0.3898 -0.1675
 3940SOL    HW123456   2.568   2.253   9.710  1.1742  1.0132  0.2631
 3940SOL    HW223457   2.534   2.138   9.633 -2.2979  1.8908  1.9939
 3941SOL     OW23458   2.278   2.518   4.999  0.0462  0.9246  0.5552
 3941SOL    HW123459   2.334   2.589   5.031  0.2484  1.3877 -0.7936
 3941SOL    HW223460   2.343   2.498   4.931 -1.7402 -1.6025 -0.3989
 3942SOL     OW23461   3.579   1.489   8.347  0.1944  0.3550  0.2612
 3942SOL    HW123462   3.616   1.402   8.364  2.9168  1.7323  1.3534
 3942SOL    HW223463   3.511   1.493   8.414 -0.7336 -0.8248 -0.6200
 3943SOL     OW23464   0.584   0.369   3.259  0.3538  0.1807 -0.4745
 3943SOL    HW123465   0.517   0.422   3.216 -0.5996 -0.3791  0.3388
 3943SOL    HW223466   0.582   0.404   3.348  0.3599 -1.9882  0.3745
 3944SOL     OW23467   0.314   1.883   5.597 -0.5455  0.3690  0.4651
 3944SOL    HW123468   0.368   1.855   5.671 -2.5532 -2.2586  0.9615
 3944SOL    HW223469   0.256   1.950   5.635 -1.2736  1.1266 -1.9991
 3945SOL     OW23470   3.883   3.218   1.732 -0.7016  0.1071 -0.2637
 3945SOL    HW123471   3.885   3.277   1.807  0.2542 -1.2550  0.7738
 3945SOL    HW223472   3.840   3.275   1.667  0.8587 -1.3968 -2.6099
 3946SOL     OW23473   0.781   2.058   2.587 -0.0051 -0.1123  0.3733
 3946SOL    HW123474   0.713   2.097   2.532  0.9859 -1.6334 -1.9032
 3946SOL    HW223475   0.815   2.128   2.642 -0.6942  0.8884 -0.4787
 3947SOL     OW23476   0.656   1.010   2.471 -0.8259 -0.1094  0.3377
 3947SOL    HW123477   0.615   1.063   2.402  1.8087  3.1488  1.2395
 3947SOL    HW223478   0.613   1.052   2.546 -1.4565  1.5188 -0.9174
 3948SOL     OW23479   4.177   0.720   6.287 -0.0116  0.5482 -0.4608
 3948SOL    HW123480   4.190   0.786   6.219 -3.0838  0.3418 -1.2497
 3948SOL    HW223481   4.180   0.641   6.235  2.0897  0.1504  0.2562
 3949SOL     OW23482   2.424   1.114   7.091 -0.4599  0.0856 -0.1052
 3949SOL    HW123483   2.406   1.204   7.065 -1.7941 -1.0709 -3.1285
 3949SOL    HW223484   2.448   1.138   7.181  0.4077  1.2665 -0.6516
 3950SOL     OW23485   4.271   3.483   9.309 -0.2783  1.2417  0.2376
 3950SOL    HW123486   4.257   3.525   9.224  0.9204  1.9941  0.3991
 3950SOL    HW223487   4.299   3.564   9.353  0.4932  1.1990 -0.1672
 3951SOL     OW23488   1.535   0.145   7.561  0.4156 -0.1787 -0.0219
 3951SOL    HW123489   1.582   0.115   7.483  2.2021 -0.7084  1.2670
 3951SOL    HW223490   1.450   0.102   7.562  0.2749  0.0802 -0.5573
 3952SOL     OW23491   4.282   0.891   9.903 -0.0962 -0.0920 -0.3615
 3952SOL    HW123492   4.345   0.826   9.934 -0.1602 -0.2613 -0.5830
 3952SOL    HW223493   4.337   0.968   9.889  2.0198 -1.1682  2.2114
 3953SOL     OW23494   0.571   1.852   8.406  0.2587 -0.5047 -0.9687
 3953SOL    HW123495   0.504   1.912   8.438  1.5055 -1.2360  3.1049
 3953SOL    HW223496   0.629   1.908   8.354  0.1157 -1.0671 -1.7179
 3954SOL     OW23497   1.912   2.404   0.189  0.7036 -0.3476  0.9129
 3954SOL    HW123498   1.916   2.353   0.269  0.5383 -0.5862  0.7678
 3954SOL    HW223499   1.906   2.332   0.126  0.5570 -0.9048  1.5734
 3955SOL     OW23500   2.539   0.335   1.490  0.2931 -0.2677 -0.2458
 3955SOL    HW123501   2.587   0.416   1.475 -2.6351  1.2788 -1.4075
 3955SOL    HW223502   2.594   0.277   1.541  0.9117  0.8972  0.3919
 3956SOL     OW23503   1.985   3.327   3.150 -0.0736 -0.3096 -0.9964
 3956SOL    HW123504   2.052   3.270   3.188  0.8375  1.7800  0.5356
 3956SOL    HW223505   1.909   3.270   3.149 -1.1780  1.0562  2.1219
 3957SOL     OW23506   4.695   0.156   4.313  0.0438 -0.5081 -0.5530
 3957SOL    HW123507   0.036   0.183   4.271  0.8020 -1.3939  0.3345
 3957SOL    HW223508   4.646   0.238   4.319  1.5317  0.3406 -0.0331
 3958SOL     OW23509   0.090   3.227   4.896 -0.5704 -0.5259  0.5357
 3958SOL    HW123510   0.096   3.301   4.957  0.8679 -1.3114  1.3347
 3958SOL    HW223511   0.005   3.242   4.854 -1.3935 -1.6342  1.8265
 3959SOL     OW23512   4.210   0.756   3.796  0.1773  0.2341  0.4211
 3959SOL    HW123513   4.285   0.715   3.752 -0.3456  0.8046 -0.9763
 3959SOL    HW223514   4.246   0.755   3.885 -0.3400  2.8342  0.6613
 3960SOL     OW23515   1.444   4.003   5.870  0.0714 -0.1396  0.1321
 3960SOL    HW123516   1.522   4.055   5.886 -0.1975  0.4043 -0.3134
 3960SOL    HW223517   1.470   3.925   5.821 -0.0177  1.1598 -2.0137
 3961SOL     OW23518   1.658   0.166  14.795  0.1550 -0.1771  0.2334
 3961SOL    HW123519   1.672   0.121  14.878  0.4878 -0.9510 -0.2472
 3961SOL    HW223520   1.714   0.116  14.736  0.2749 -0.4831  0.6077
 3962SOL     OW23521   2.560   3.583  10.149 -0.0091 -0.3058 -0.0168
 3962SOL    HW123522   2.608   3.659  10.116  1.6613 -1.4917 -0.3328
 3962SOL    HW223523   2.582   3.512  10.088  2.6130 -0.0805  0.6618
 3963SOL     OW23524   0.930   3.386   8.294  0.0686  0.2146  0.5230
 3963SOL    HW123525   0.915   3.476   8.266 -0.2303 -0.3098 -0.9717
 3963SOL    HW223526   1.017   3.392   8.335 -0.4625 -0.6335  1.7706
 3964SOL     OW23527   2.950   2.733   5.603 -0.3599  0.1869 -0.3862
 3964SOL    HW123528   2.863   2.739   5.563 -0.5630 -1.5064 -0.2154
 3964SOL    HW223529   2.995   2.788   5.539  1.5676 -1.9349 -0.8213
 3965SOL     OW23530   2.529   2.939   7.860  0.0442 -0.7631 -0.4646
 3965SOL    HW123531   2.622   2.943   7.837  0.1038 -0.1921 -0.1197
 3965SOL    HW223532   2.531   2.906   7.950 -0.3036 -1.7413 -0.8102
 3966SOL     OW23533   2.041   1.249   2.887  0.3289 -0.4779  0.1036
 3966SOL    HW123534   1.977   1.291   2.829  2.1367 -0.4248 -1.8539
 3966SOL    HW223535   1.979   1.200   2.940 -0.2425 -0.2354 -0.3438
 3967SOL     OW23536   0.183   1.532  16.788 -0.3735  0.1000 -0.2340
 3967SOL    HW123537   0.270   1.493  16.779 -1.0077 -1.6584  1.2555
 3967SOL    HW223538   0.177   1.572  16.701  1.4518  0.8661 -0.0155
 3968SOL     OW23539   0.423   0.158   7.040 -0.0296 -0.0557  0.2980
 3968SOL    HW123540   0.428   0.119   7.128  0.1982 -1.2710 -0.2573
 3968SOL    HW223541   0.406   0.251   7.059 -1.9660 -0.3331 -0.0683
 3969SOL     OW23542   2.442   2.118  12.986 -0.7525  0.3254 -0.3939
 3969SOL    HW123543   2.467   2.198  12.939  0.1314 -0.6865 -1.6445
 3969SOL    HW223544   2.371   2.095  12.926 -1.7953 -1.3481  1.4592
 3970SOL     OW23545   1.263   3.657  16.782  0.5252  0.1234 -0.0687
 3970SOL    HW123546   1.356   3.638  16.797  1.2327  2.8136 -0.9439
 3970SOL    HW223547   1.278   3.675  16.689 -1.2151 -0.3658 -0.4538
 3971SOL     OW23548   2.382   1.771   9.559  0.6952 -0.4501  0.0693
 3971SOL    HW123549   2.384   1.680   9.530 -0.1612 -0.1944 -0.7827
 3971SOL    HW223550   2.319   1.812   9.500  0.2656 -1.7174 -0.3343
 3972SOL     OW23551   2.053   2.943   7.949  0.5849  0.3240  0.5234
 3972SOL    HW123552   2.120   2.951   8.017 -1.2953 -1.2063  2.5493
 3972SOL    HW223553   1.981   2.992   7.989 -0.6589 -2.4829  1.6946
 3973SOL     OW23554   1.839   3.827   2.612 -0.7681 -0.2451  0.5655
 3973SOL    HW123555   1.778   3.810   2.685 -2.6424 -0.9129 -1.1651
 3973SOL    HW223556   1.792   3.900   2.572  1.3780 -0.5879 -2.5003
 3974SOL     OW23557   1.637   1.238  11.009 -0.3249 -0.1817 -0.4254
 3974SOL    HW123558   1.619   1.209  11.098  1.2076  1.0256  0.2670
 3974SOL    HW223559   1.718   1.283  11.033 -2.2390  2.2694  1.3801
 3975SOL     OW23560   3.957   3.903  11.212  0.0344 -0.2444  0.2852
 3975SOL    HW123561   3.961   3.989  11.255  0.7756 -0.3255  0.3858
 3975SOL    HW223562   3.863   3.889  11.226 -0.2650  1.7833  0.3583
 3976SOL     OW23563   3.459   0.131  17.331  0.4073 -0.0367 -0.5604
 3976SOL    HW123564   3.380   0.184  17.334  0.0934 -0.5036 -0.6464
 3976SOL    HW223565   3.519   0.176  17.272  1.8851 -3.0384 -1.3450
 3977SOL     OW23566   4.005   2.359   2.797 -0.1942  0.1641  0.2708
 3977SOL    HW123567   3.970   2.439   2.836 -2.1304 -0.5418 -0.0557
 3977SOL    HW223568   3.924   2.311   2.779  0.2485  0.0054 -1.2680
 3978SOL     OW23569   0.829   3.371   2.175 -0.0259 -0.0984  0.1034
 3978SOL    HW123570   0.924   3.375   2.166 -0.0015  0.1160  0.4878
 3978SOL    HW223571   0.815   3.283   2.211  2.0575 -1.2017 -1.7436
 3979SOL     OW23572   3.681   4.237   6.886 -0.0174 -0.2410  0.0323
 3979SOL    HW123573   3.592   4.237   6.849 -0.6882 -1.5188  1.6442
 3979SOL    HW223574   3.661   4.259   6.977  1.0620 -0.1006  0.2344
 3980SOL     OW23575   2.968   2.366   3.494  0.0015  0.0066  0.7037
 3980SOL    HW123576   2.899   2.427   3.470 -0.2443 -0.6324 -0.2040
 3980SOL    HW223577   3.025   2.408   3.559 -1.0944 -0.0277  1.6799
 3981SOL     OW23578   2.095   1.389  11.019 -0.4728  0.1832 -0.2020
 3981SOL    HW123579   2.168   1.432  11.064  0.0134 -1.0566  0.2057
 3981SOL    HW223580   2.101   1.296  11.041 -2.2089  0.0552 -0.2582
 3982SOL     OW23581   4.214   2.253   5.612 -0.0708  0.4449 -0.2258
 3982SOL    HW123582   4.280   2.212   5.556 -1.7743 -1.6046 -0.7366
 3982SOL    HW223583   4.138   2.226   5.561 -1.2145  0.2914  1.5678
 3983SOL     OW23584   1.393   0.725  12.016 -0.2462  0.3814 -0.2960
 3983SOL    HW123585   1.428   0.688  11.935  0.2934 -0.7404  0.4481
 3983SOL    HW223586   1.426   0.661  12.079  0.7086 -0.1088 -1.2957
 3984SOL     OW23587   3.627   0.065  12.393  1.1245 -0.9789 -0.5839
 3984SOL    HW123588   3.637   0.153  12.430  1.8763 -2.1871  2.0582
 3984SOL    HW223589   3.682   0.077  12.315  2.4030  0.0024  0.4669
 3985SOL     OW23590   1.629   0.902   2.043  0.8299 -0.0881 -0.1181
 3985SOL    HW123591   1.646   0.923   2.135 -3.8981  0.4546  0.6543
 3985SOL    HW223592   1.587   0.980   2.005 -0.8761 -1.4877 -1.0813
 3986SOL     OW23593   4.673   3.169  16.901  0.2012  0.7136 -0.3266
 3986SOL    HW123594   4.734   3.236  16.932  0.2844  0.0668  0.9084
 3986SOL    HW223595   4.740   3.117  16.855  2.3365  1.1088  2.3750
 3987SOL     OW23596   2.921   4.576  17.696  0.2548 -0.4470 -0.0464
 3987SOL    HW123597   2.952   4.486  17.697  0.2260 -0.4421  1.6135
 3987SOL    HW223598   2.959   4.617  17.619 -0.8855 -0.2485 -0.5094
 3988SOL     OW23599   2.577   1.942   9.438  0.2474  0.4230  0.2087
 3988SOL    HW123600   2.512   1.892   9.487 -0.7247 -0.2982 -1.8288
 3988SOL    HW223601   2.544   2.031   9.448 -3.0298 -0.9071  1.2559
 3989SOL     OW23602   2.449   2.328   2.865 -0.3205  0.8712 -0.1467
 3989SOL    HW123603   2.402   2.283   2.936 -0.1207  1.0866  0.1241
 3989SOL    HW223604   2.416   2.273   2.795  1.9941 -0.7423  0.0211
 3990SOL     OW23605   3.507   2.126   5.683  0.0983 -0.2739  0.0844
 3990SOL    HW123606   3.589   2.133   5.732  0.1991  1.6812 -0.3810
 3990SOL    HW223607   3.465   2.069   5.749  0.2120 -0.1435  0.2693
 3991SOL     OW23608   0.390   0.507  10.020  0.2484 -0.7050 -0.1880
 3991SOL    HW123609   0.402   0.519   9.926 -2.2145  0.2488 -0.3795
 3991SOL    HW223610   0.411   0.414  10.025 -0.1340 -0.8022 -0.3978
 3992SOL     OW23611   2.843   2.794   5.352  0.4151  0.2495  0.1948
 3992SOL    HW123612   2.840   2.823   5.261  1.3798 -0.1938  0.0301
 3992SOL    HW223613   2.849   2.699   5.342  1.6653  0.5828 -2.1911
 3993SOL     OW23614   0.564   0.308  17.156 -0.2526 -0.4757 -0.4484
 3993SOL    HW123615   0.563   0.265  17.241  0.3222  0.5883  0.1018
 3993SOL    HW223616   0.498   0.377  17.168 -0.6884 -0.7343 -1.3000
 3994SOL     OW23617   2.525   4.104   3.783 -0.1387  0.3345 -0.2306
 3994SOL    HW123618   2.449   4.063   3.825 -1.0060  1.7173 -0.4236
 3994SOL    HW223619   2.520   4.194   3.815 -1.9092 -0.1173  0.7816
 3995SOL     OW23620   0.406   3.664   6.996  0.3157 -0.5056 -0.0260
 3995SOL    HW123621   0.395   3.619   7.080 -1.3652  0.4305  0.2607
 3995SOL    HW223622   0.466   3.735   7.021  1.4794 -0.9414 -1.6094
 3996SOL     OW23623   2.979   1.149   1.285 -0.5523  0.1806  0.1090
 3996SOL    HW123624   2.940   1.120   1.368  0.5297  0.4789  0.7316
 3996SOL    HW223625   3.040   1.079   1.262 -0.4457 -0.3619  2.0022
 3997SOL     OW23626   2.144   1.633  17.234  0.0519  0.5934  0.2450
 3997SOL    HW123627   2.199   1.566  17.273  1.1793  0.6276 -1.2720
 3997SOL    HW223628   2.208   1.703  17.220  0.8788  0.2675  2.4420
 3998SOL     OW23629   3.664   3.302  13.049  0.2085  0.0663 -0.0116
 3998SOL    HW123630   3.576   3.267  13.061 -0.3474  1.7106  0.7188
 3998SOL    HW223631   3.702   3.246  12.981 -0.5011 -2.4113  1.6204
 3999SOL     OW23632   2.693   2.360   7.568  0.3677 -0.4545 -0.5513
 3999SOL    HW123633   2.774   2.324   7.604  1.3148  2.2654  0.0451
 3999SOL    HW223634   2.704   2.454   7.581 -3.1146 -0.0974 -0.0848
 4000SOL     OW23635   2.583   3.136   5.395 -0.4951 -0.3256  0.2620
 4000SOL    HW123636   2.677   3.135   5.381 -0.0728 -0.4678  3.0772
 4000SOL    HW223637   2.578   3.218   5.445  1.4931  0.2667 -0.5295
 4001SOL     OW23638   3.898   3.352   7.543  0.4963 -0.6764 -0.4627
 4001SOL    HW123639   3.924   3.418   7.607  0.5239 -0.4691 -0.6833
 4001SOL    HW223640   3.981   3.312   7.518  1.1854  1.5746 -1.8279
 4002SOL     OW23641   0.100   4.105   0.926 -0.1530  0.4648 -0.1344
 4002SOL    HW123642   0.185   4.082   0.964  0.0663  0.4492 -0.6339
 4002SOL    HW223643   0.131   4.180   0.875  2.0045 -1.4907 -1.7453
 4003SOL     OW23644   0.760   1.064  17.747  0.0108  0.0554  0.0027
 4003SOL    HW123645   0.784   1.000  17.681 -0.3266 -1.2827  1.1884
 4003SOL    HW223646   0.828   1.132  17.743 -0.3414  0.2747 -1.9950
 4004SOL     OW23647   4.726   3.656   7.090  0.3578 -0.1262  0.2493
 4004SOL    HW123648   0.037   3.733   7.067  1.2918 -0.6507  0.5791
 4004SOL    HW223649   0.026   3.589   7.035 -1.0932 -0.6545 -0.1632
 4005SOL     OW23650   0.109   3.950   7.325 -0.1636  0.1153 -0.2254
 4005SOL    HW123651   0.123   3.976   7.234  2.1148  1.4729  0.5213
 4005SOL    HW223652   0.197   3.914   7.337 -1.9056 -3.4640  1.5714
 4006SOL     OW23653   3.483   3.268  14.693 -0.5866 -0.3766 -0.2936
 4006SOL    HW123654   3.418   3.297  14.629  0.8661  0.6070 -1.3401
 4006SOL    HW223655   3.423   3.212  14.742  0.3756 -0.5229  0.7257
 4007SOL     OW23656   4.640   0.079  14.903  0.1659 -0.2704 -0.4432
 4007SOL    HW123657   4.618   0.091  14.996 -1.5866 -0.6643 -0.8072
 4007SOL    HW223658   4.571   0.129  14.859  0.2663  1.1514  1.0157
 4008SOL     OW23659   4.453   3.201   3.312  0.3449 -0.1903 -0.3508
 4008SOL    HW123660   4.490   3.121   3.349  0.1082  0.3296  1.0364
 4008SOL    HW223661   4.471   3.202   3.218  0.7114  0.7999 -0.2766
 4009SOL     OW23662   1.747   2.958   9.914 -0.2840 -0.0637  0.0455
 4009SOL    HW123663   1.665   2.945   9.867 -1.0690  1.0184  1.1327
 4009SOL    HW223664   1.799   2.881   9.888  1.9581  1.7913 -0.8936
 4010SOL     OW23665   3.487   1.181  11.316 -0.3346  0.3007  0.3029
 4010SOL    HW123666   3.538   1.124  11.258 -0.8738 -1.0767  1.1750
 4010SOL    HW223667   3.432   1.111  11.350 -0.7211  0.5239  0.1355
 4011SOL     OW23668   1.558   3.710   9.396  0.8762 -0.1924  0.1624
 4011SOL    HW123669   1.565   3.758   9.478 -2.5979 -0.3740  0.5426
 4011SOL    HW223670   1.639   3.744   9.358  1.7491 -3.5573 -0.9684
 4012SOL     OW23671   3.146   3.994   5.395  0.1922  0.1958 -0.2598
 4012SOL    HW123672   3.190   4.029   5.318 -0.2158  1.8603  0.2767
 4012SOL    HW223673   3.117   4.071   5.443  1.3627 -0.1032  0.9224
 4013SOL     OW23674   3.665   3.018   4.227  0.3028 -0.2809  0.5900
 4013SOL    HW123675   3.727   2.946   4.221  0.4969 -0.0568 -0.1541
 4013SOL    HW223676   3.588   2.963   4.242 -0.9272  1.3979  0.4499
 4014SOL     OW23677   0.439   2.991   2.714 -0.2248 -0.2700  0.0219
 4014SOL    HW123678   0.468   2.948   2.634  1.3529 -0.2015  0.5677
 4014SOL    HW223679   0.459   3.081   2.687 -0.3274  0.0122  0.8671
 4015SOL     OW23680   0.205   4.014   8.356 -0.3876  0.2701  0.1796
 4015SOL    HW123681   0.207   4.109   8.347  0.3653  0.3185  0.8038
 4015SOL    HW223682   0.179   4.010   8.448  1.4249  0.1406  0.6955
 4016SOL     OW23683   2.502   3.365   8.509  0.2257  0.0587  0.1497
 4016SOL    HW123684   2.571   3.308   8.474 -0.5762 -1.8458  1.6840
 4016SOL    HW223685   2.459   3.388   8.427 -1.4303  1.4588  1.4104
 4017SOL     OW23686   1.796   0.283  12.622 -0.1922  0.1481 -0.4920
 4017SOL    HW123687   1.891   0.283  12.629 -0.1849  0.8938 -0.5748
 4017SOL    HW223688   1.803   0.243  12.535  1.6845 -2.3792  0.8356
 4018SOL     OW23689   4.591   1.119   6.136  0.2127  0.8572 -0.5509
 4018SOL    HW123690   4.550   1.150   6.217  0.1185  1.5147 -0.8510
 4018SOL    HW223691   4.575   1.026   6.150 -1.6620  1.1611 -0.6273
 4019SOL     OW23692   1.890   3.890   6.799  0.0374 -0.2053 -0.4260
 4019SOL    HW123693   1.949   3.916   6.729 -0.2924 -1.0250 -1.0090
 4019SOL    HW223694   1.875   3.796   6.787  1.6846 -0.6860  1.3260
 4020SOL     OW23695   0.642   0.517   5.293  0.0458 -0.4490 -0.5765
 4020SOL    HW123696   0.556   0.557   5.304  0.7679  0.4048  2.1486
 4020SOL    HW223697   0.693   0.586   5.336  0.0820 -0.1354 -1.1166
 4021SOL     OW23698   4.300   4.576   9.354 -0.8112 -0.0918 -0.2252
 4021SOL    HW123699   4.328   4.559   9.264 -0.4698  4.2180 -0.8911
 4021SOL    HW223700   4.360   4.519   9.403 -0.0461  2.0706  1.3461
 4022SOL     OW23701   4.236   0.003   3.944 -0.6103  0.8395  0.1953
 4022SOL    HW123702   4.302   4.675   3.954 -1.1545 -0.1530 -2.7131
 4022SOL    HW223703   4.269   0.069   4.005 -0.8779  0.1428  1.0962
 4023SOL     OW23704   4.087   4.631   4.781 -0.2049 -0.3950 -0.1313
 4023SOL    HW123705   4.054   4.544   4.804 -1.6503  0.6077  1.5758
 4023SOL    HW223706   4.017   4.685   4.818  1.7094  0.7431  1.8059
 4024SOL     OW23707   0.950   4.483  12.286 -0.0958 -0.3761  0.4961
 4024SOL    HW123708   0.948   4.564  12.234  0.7460 -1.4745 -1.2612
 4024SOL    HW223709   0.875   4.499  12.342  1.9147 -0.3875  3.1982
 4025SOL     OW23710   3.155   3.435   5.649  0.3175  0.1859  0.5583
 4025SOL    HW123711   3.125   3.387   5.571  2.5105 -0.9997  0.4620
 4025SOL    HW223712   3.094   3.509   5.644  1.6753  1.3698  1.5018
 4026SOL     OW23713   1.923   4.299   9.128 -0.6431 -0.0615 -0.2861
 4026SOL    HW123714   1.861   4.296   9.055 -1.2478 -0.0572  0.2360
 4026SOL    HW223715   1.945   4.206   9.130 -0.4770 -0.0965 -3.0802
 4027SOL     OW23716   4.621   1.482   4.863 -0.0434 -0.7636  0.8324
 4027SOL    HW123717   4.593   1.420   4.795  2.7478 -0.5809 -0.4689
 4027SOL    HW223718   4.664   1.545   4.806  1.2512  0.1446  2.8284
 4028SOL     OW23719   2.886   4.469   2.169  0.2928 -0.0850 -0.2154
 4028SOL    HW123720   2.790   4.471   2.166  0.2847 -1.1866 -0.6539
 4028SOL    HW223721   2.899   4.375   2.174  1.9890 -0.0018 -3.0766
 4029SOL     OW23722   1.643   2.646  15.056  0.3064 -0.0625  0.2609
 4029SOL    HW123723   1.559   2.645  15.009  0.4153 -1.9304  0.0863
 4029SOL    HW223724   1.614   2.680  15.141  1.1698 -2.4515  1.5321
 4030SOL     OW23725   2.421   1.723   1.863 -0.0390  0.2404  0.3130
 4030SOL    HW123726   2.501   1.673   1.851  0.7525  1.1636  1.7235
 4030SOL    HW223727   2.385   1.720   1.774  0.0257  1.3691  0.2385
 4031SOL     OW23728   2.717   3.424   1.701 -0.3407 -0.0362  0.1009
 4031SOL    HW123729   2.762   3.352   1.747 -0.3223 -0.2793 -0.2939
 4031SOL    HW223730   2.656   3.455   1.768 -1.5415 -0.0123 -0.9908
 4032SOL     OW23731   0.935   0.092   4.539 -0.3950 -0.1305  0.4824
 4032SOL    HW123732   0.988   0.058   4.611  2.0134 -0.3042 -1.3646
 4032SOL    HW223733   0.893   0.165   4.585 -0.5494 -1.8050  2.9547
 4033SOL     OW23734   1.281   3.352  13.993 -0.2413 -0.1993  0.4623
 4033SOL    HW123735   1.363   3.399  14.005 -0.6665  0.2289  1.7129
 4033SOL    HW223736   1.291   3.284  14.059 -0.4009 -0.4719  0.2055
 4034SOL     OW23737   0.440   2.009   3.721  0.4681  0.5144  0.5035
 4034SOL    HW123738   0.370   1.990   3.783  0.9260 -0.3375  0.7565
 4034SOL    HW223739   0.465   2.099   3.745  1.0421  0.6949 -0.8081
 4035SOL     OW23740   3.439   3.251   7.717 -0.3078  0.3594 -0.3629
 4035SOL    HW123741   3.444   3.247   7.812  1.5020  1.3266 -0.4092
 4035SOL    HW223742   3.510   3.307   7.683 -1.5347  0.8988 -2.0445
 4036SOL     OW23743   3.104   3.253   6.525 -0.6346  0.3265 -0.0475
 4036SOL    HW123744   3.169   3.186   6.543 -2.3950 -1.3909 -0.0137
 4036SOL    HW223745   3.082   3.271   6.617  1.7650 -1.3887  0.8485
 4037SOL     OW23746   2.248   4.097   5.888 -0.4644 -0.5650 -0.0027
 4037SOL    HW123747   2.232   4.184   5.923 -2.6373 -0.2874 -1.7478
 4037SOL    HW223748   2.177   4.045   5.925 -0.2051 -1.0060 -0.1200
 4038SOL     OW23749   1.685   1.535   5.068 -0.4184 -0.5580  0.0952
 4038SOL    HW123750   1.709   1.443   5.082  0.1377 -0.2052  1.4719
 4038SOL    HW223751   1.717   1.546   4.979  1.0061 -1.2848  0.5174
 4039SOL     OW23752   1.556   2.721   6.629 -0.2759  0.5122 -0.2855
 4039SOL    HW123753   1.464   2.720   6.603 -0.8098  0.6081  1.6285
 4039SOL    HW223754   1.541   2.707   6.722  2.0136  0.2911  0.0474
 4040SOL     OW23755   1.903   2.265   9.373  0.0423  0.2982  0.0670
 4040SOL    HW123756   1.869   2.242   9.459  1.5458 -0.6025  0.4291
 4040SOL    HW223757   1.836   2.225   9.318 -1.3296  2.2289  0.3677
 4041SOL     OW23758   0.664   1.982   9.377  0.1677 -0.3728  0.2776
 4041SOL    HW123759   0.731   1.916   9.363 -0.2084 -1.4883  3.5402
 4041SOL    HW223760   0.720   2.047   9.421  0.8849  0.4578 -1.8933
 4042SOL     OW23761   0.109   3.801   2.707 -0.2115 -0.5362 -0.0146
 4042SOL    HW123762   0.047   3.824   2.638  0.9181  0.3893 -0.7298
 4042SOL    HW223763   0.106   3.878   2.764 -0.8885  0.1145 -0.9261
 4043SOL     OW23764   3.551   0.173   4.141 -0.3326 -0.7409  0.0904
 4043SOL    HW123765   3.459   0.179   4.165 -0.2431 -1.9662  0.7540
 4043SOL    HW223766   3.551   0.242   4.075 -0.3575 -0.2985  0.5526
 4044SOL     OW23767   2.296   4.192   4.189  0.3599 -0.3144  0.1164
 4044SOL    HW123768   2.346   4.233   4.260  0.5294 -0.4988  0.1050
 4044SOL    HW223769   2.218   4.248   4.188  0.6680  0.0876 -1.9757
 4045SOL     OW23770   4.335   2.109   4.941 -0.0203 -0.2149 -0.1588
 4045SOL    HW123771   4.372   2.196   4.926 -0.1826  0.0920  1.1601
 4045SOL    HW223772   4.240   2.118   4.935  0.1112  1.5030  0.3200
 4046SOL     OW23773   0.811   0.201  12.277  0.2859  0.6589  0.6391
 4046SOL    HW123774   0.883   0.236  12.329  0.0855  1.3717  0.4460
 4046SOL    HW223775   0.741   0.267  12.270 -0.0389  0.1079 -1.4056
 4047SOL     OW23776   2.990   3.128  14.783 -0.4832 -0.7094 -0.5647
 4047SOL    HW123777   2.967   3.039  14.810  1.3445 -1.1719 -0.5796
 4047SOL    HW223778   2.944   3.129  14.699 -2.0126 -2.7481  0.2184
 4048SOL     OW23779   1.033   3.107  12.866  0.4933 -0.2818 -0.0851
 4048SOL    HW123780   1.081   3.026  12.880 -0.1103 -0.7730 -0.8355
 4048SOL    HW223781   1.101   3.171  12.886  1.1088 -0.5437 -1.2943
 4049SOL     OW23782   3.040   2.760   8.113  0.0868 -0.7405  0.5749
 4049SOL    HW123783   3.075   2.698   8.177  1.6729 -1.2692 -0.8141
 4049SOL    HW223784   3.104   2.772   8.043 -0.8420  0.1648 -0.1308
 4050SOL     OW23785   0.901   2.788   9.260 -0.1356 -0.2740 -0.1694
 4050SOL    HW123786   0.930   2.788   9.169  1.4049  0.7488  0.3229
 4050SOL    HW223787   0.871   2.877   9.278  0.7049 -0.2900  1.2717
 4051SOL     OW23788   1.845   4.119   8.345  0.2964  0.0088  0.3795
 4051SOL    HW123789   1.913   4.183   8.324 -0.6409  0.7843 -0.2795
 4051SOL    HW223790   1.772   4.180   8.342  0.3607 -0.1117 -2.9418
 4052SOL     OW23791   0.336   1.129   6.539 -0.0112 -0.1937  0.0048
 4052SOL    HW123792   0.367   1.214   6.508 -0.4414 -0.3229 -0.7786
 4052SOL    HW223793   0.270   1.101   6.476  0.3827 -0.4106 -0.3060
 4053SOL     OW23794   0.531   1.908   9.140  0.1355  0.1250 -0.5767
 4053SOL    HW123795   0.568   1.899   9.229  0.7315  3.0873 -0.5086
 4053SOL    HW223796   0.534   1.817   9.113  1.8911  0.3502 -1.1831
 4054SOL     OW23797   4.492   0.421   0.138  0.2460 -0.1301  0.1816
 4054SOL    HW123798   4.555   0.493   0.137 -1.0096  0.9656  0.9525
 4054SOL    HW223799   4.443   0.429   0.056 -1.2589  0.1091  1.1166
 4055SOL     OW23800   3.525   1.175   8.145  0.2486  0.6756 -0.3608
 4055SOL    HW123801   3.464   1.176   8.219 -0.5994  0.9021 -1.0607
 4055SOL    HW223802   3.608   1.134   8.168 -0.3574 -0.0028  0.6430
 4056SOL     OW23803   0.830   4.645   6.715  0.1325  0.4952 -0.3761
 4056SOL    HW123804   0.783   4.728   6.709 -1.7263 -0.3703  2.2364
 4056SOL    HW223805   0.834   4.622   6.622  1.6358  1.0276 -0.4450
 4057SOL     OW23806   3.511   2.432   7.438  0.4965  0.2504 -0.1294
 4057SOL    HW123807   3.489   2.460   7.527  0.3140  0.0163 -0.1026
 4057SOL    HW223808   3.472   2.345   7.445  0.7890  0.1867  0.6616
 4058SOL     OW23809   3.263   3.279   8.415  0.4171 -0.3046 -0.7797
 4058SOL    HW123810   3.326   3.351   8.421 -0.9399  0.9471 -1.4731
 4058SOL    HW223811   3.252   3.255   8.507 -2.0677  0.2445 -0.9264
 4059SOL     OW23812   0.493   0.522   8.254  0.5527  0.1374 -0.1972
 4059SOL    HW123813   0.516   0.611   8.229  0.7540  0.4352  1.0325
 4059SOL    HW223814   0.481   0.526   8.349 -2.4438  1.5579 -0.6329
 4060SOL     OW23815   4.255   1.858   7.075  0.1327 -0.8575 -0.2744
 4060SOL    HW123816   4.168   1.824   7.053  1.0088 -2.8871 -0.5310
 4060SOL    HW223817   4.249   1.868   7.170  0.8845  0.5508 -0.3714
 4061SOL     OW23818   2.083   1.440   0.801  0.4111  0.1022 -0.1070
 4061SOL    HW123819   2.175   1.447   0.827  0.0963  0.7939  0.8304
 4061SOL    HW223820   2.049   1.385   0.872  2.2380 -0.7863  0.0664
 4062SOL     OW23821   0.303   1.886   7.394  0.1692  0.2412 -0.3229
 4062SOL    HW123822   0.276   1.832   7.469 -1.0169  0.6983 -0.4344
 4062SOL    HW223823   0.240   1.956   7.412 -3.7431 -2.5954 -2.9546
 4063SOL     OW23824   1.079   0.445   2.431 -0.0875 -0.4256  0.6966
 4063SOL    HW123825   1.069   0.353   2.406 -0.4416  0.3077 -1.8824
 4063SOL    HW223826   1.004   0.488   2.389 -0.8499 -2.2191  0.2038
 4064SOL     OW23827   3.571   1.839   8.459 -0.1871 -0.0092 -0.2098
 4064SOL    HW123828   3.606   1.920   8.423 -0.2248 -0.4803 -1.2997
 4064SOL    HW223829   3.550   1.860   8.550  1.0871  0.8271 -0.0963
 4065SOL     OW23830   4.154   0.444   2.486  0.1244  0.4319 -0.1531
 4065SOL    HW123831   4.220   0.376   2.474 -0.9521 -0.9672  1.8354
 4065SOL    HW223832   4.112   0.417   2.568  2.3329 -1.8960  0.1972
 4066SOL     OW23833   1.239   3.317   5.502 -0.4415 -0.3264  0.2171
 4066SOL    HW123834   1.253   3.322   5.597 -1.6282 -0.7845  0.4179
 4066SOL    HW223835   1.285   3.236   5.480 -0.2920  0.3888 -2.0958
 4067SOL     OW23836   4.074   4.345  16.822 -0.3604 -0.1945  0.0962
 4067SOL    HW123837   4.036   4.259  16.838 -0.8515  0.1136  0.5679
 4067SOL    HW223838   4.132   4.327  16.748 -0.2800  0.3017  0.0391
 4068SOL     OW23839   0.838   4.232   8.045 -0.0382 -0.7801 -0.3572
 4068SOL    HW123840   0.900   4.277   7.988 -0.0705  0.3784  0.5241
 4068SOL    HW223841   0.829   4.150   7.997 -3.4734 -1.1983  0.9811
 4069SOL     OW23842   4.620   1.933   9.981  0.3943 -0.1619 -0.4389
 4069SOL    HW123843   4.606   1.907   9.890  0.4738  0.3387 -0.5927
 4069SOL    HW223844   4.699   1.987   9.976 -1.5693  2.8652  1.5406
 4070SOL     OW23845   1.644   4.205   4.283 -0.3824  0.1288  0.1354
 4070SOL    HW123846   1.686   4.287   4.310  2.0012 -0.8947 -0.4317
 4070SOL    HW223847   1.564   4.204   4.334 -0.2374  0.7429  0.3825
 4071SOL     OW23848   1.020   2.042   6.752  0.1187  0.6031 -0.2375
 4071SOL    HW123849   1.111   2.018   6.769 -0.1789  0.5220  1.2229
 4071SOL    HW223850   1.028   2.136   6.733 -1.3959  0.3811 -2.0264
 4072SOL     OW23851   2.680   0.743   7.540  0.6028 -0.0201  0.2664
 4072SOL    HW123852   2.615   0.739   7.470 -1.2986 -0.5710  2.0636
 4072SOL    HW223853   2.664   0.661   7.587 -0.5495  0.2835  0.3958
 4073SOL     OW23854   1.069   0.348   7.236 -0.3910 -0.3003  0.2623
 4073SOL    HW123855   1.130   0.275   7.234 -0.3380 -0.3264  2.7394
 4073SOL    HW223856   1.087   0.393   7.319 -1.7453  1.3677 -0.3209
 4074SOL     OW23857   2.591   3.582   4.441  0.2796  0.3237 -0.4667
 4074SOL    HW123858   2.496   3.584   4.426  0.1505  0.6597  0.4322
 4074SOL    HW223859   2.617   3.654   4.383  0.5194  1.1834  0.7047
 4075SOL     OW23860   2.018   1.162   7.944 -0.6236 -0.3184  0.6058
 4075SOL    HW123861   1.931   1.190   7.916 -0.0217  0.1044 -0.8232
 4075SOL    HW223862   2.064   1.134   7.865 -0.5609  0.9403  0.2057
 4076SOL     OW23863   0.508   0.913   8.653  0.3958  0.4050  0.1807
 4076SOL    HW123864   0.542   0.854   8.720  0.0062 -0.5764 -0.4789
 4076SOL    HW223865   0.464   0.975   8.712  0.6552  1.1580 -0.4177
 4077SOL     OW23866   0.671   2.291   2.976  0.2926  0.5520 -0.2548
 4077SOL    HW123867   0.765   2.272   2.969  0.5002  0.8157  1.9082
 4077SOL    HW223868   0.683   2.384   2.956  2.2627  0.6083  1.1869
 4078SOL     OW23869   2.066   4.363   5.929 -0.2529  0.0151 -0.3979
 4078SOL    HW123870   2.068   4.442   5.983  0.0663 -0.2275 -0.0628
 4078SOL    HW223871   2.000   4.305   5.965  0.9588 -1.5135 -0.6564
 4079SOL     OW23872   4.721   4.553   8.445 -0.6323 -0.6000 -0.0312
 4079SOL    HW123873   4.683   4.637   8.471  0.0485 -0.8391  1.6855
 4079SOL    HW223874   4.720   4.561   8.350  1.9780 -0.0701 -0.0063
 4080SOL     OW23875   3.775   2.326   5.315 -0.8677 -0.3437  0.0811
 4080SOL    HW123876   3.690   2.285   5.326 -0.8392 -0.1536  0.9952
 4080SOL    HW223877   3.760   2.417   5.340 -1.6071 -0.3657 -0.2971
 4081SOL     OW23878   3.778   4.521   3.222 -0.3844  0.7902 -0.1602
 4081SOL    HW123879   3.738   4.482   3.300  2.1917 -1.0483  0.2401
 4081SOL    HW223880   3.742   4.609   3.235  0.5823  1.1446  0.1104
 4082SOL     OW23881   3.008   2.097   9.738  0.3101 -0.2649  0.1894
 4082SOL    HW123882   2.966   2.012   9.725  1.3136 -0.2933 -2.7719
 4082SOL    HW223883   3.098   2.081   9.765  0.6838  0.6270 -0.5173
 4083SOL     OW23884   3.365   1.579   4.200  0.0441  0.1077  0.6355
 4083SOL    HW123885   3.274   1.609   4.203 -0.5043 -1.6870  1.6481
 4083SOL    HW223886   3.362   1.507   4.137 -0.1630  0.0571  0.7032
 4084SOL     OW23887   0.080   2.811   5.427 -0.3310  0.0152  0.3095
 4084SOL    HW123888   0.101   2.719   5.407  0.6306 -0.0790  1.7940
 4084SOL    HW223889   0.014   2.839   5.363  0.6319  0.5954 -0.4089
 4085SOL     OW23890   1.883   2.133   1.307  0.4804 -0.0457  0.5942
 4085SOL    HW123891   1.966   2.159   1.267 -0.1353 -2.4295 -2.2515
 4085SOL    HW223892   1.907   2.118   1.398 -0.5632  0.7310  0.9980
 4086SOL     OW23893   3.156   0.780   6.230  0.3575  0.1085  0.2438
 4086SOL    HW123894   3.077   0.832   6.215 -0.2830 -0.2059  2.4313
 4086SOL    HW223895   3.210   0.807   6.156 -0.0581 -1.7575 -0.7449
 4087SOL     OW23896   2.371   3.731   8.423  0.2564 -0.4516  0.0595
 4087SOL    HW123897   2.392   3.678   8.346  1.4077  0.5004 -0.2901
 4087SOL    HW223898   2.354   3.666   8.490  1.2670 -1.7459 -0.9479
 4088SOL     OW23899   0.965   4.697   3.475 -0.6174 -0.0666  0.7950
 4088SOL    HW123900   0.973   0.052   3.473  1.2514 -0.2139  1.2362
 4088SOL    HW223901   0.961   4.686   3.570 -0.9339 -0.4523  0.7376
 4089SOL     OW23902   3.839   0.167   6.646  0.5822  0.1343 -0.3865
 4089SOL    HW123903   3.812   0.126   6.564 -1.1845  2.1639 -0.8054
 4089SOL    HW223904   3.893   0.241   6.617 -1.4156  2.3765  1.6309
 4090SOL     OW23905   3.407   0.369   3.079  0.2053 -0.4818 -0.1970
 4090SOL    HW123906   3.329   0.376   3.024 -1.1485 -0.9067  1.6769
 4090SOL    HW223907   3.481   0.384   3.020 -1.3395  1.8737 -1.5400
 4091SOL     OW23908   3.241   1.974   2.074 -0.2925  0.7933  0.0570
 4091SOL    HW123909   3.282   1.898   2.034 -1.5461  0.2126 -0.1228
 4091SOL    HW223910   3.155   1.936   2.093 -0.3272  1.2775  0.8450
 4092SOL     OW23911   3.466   3.027   2.237  0.3881  0.0827  0.7676
 4092SOL    HW123912   3.389   2.980   2.204  1.1335  0.3513 -1.3554
 4092SOL    HW223913   3.476   3.091   2.167 -0.8877 -1.3321 -0.7094
 4093SOL     OW23914   0.988   0.659  17.481  0.4471  0.2263 -0.6749
 4093SOL    HW123915   1.077   0.641  17.453  0.0596 -1.5095 -0.7607
 4093SOL    HW223916   0.949   0.572  17.475  3.1937 -1.0958  0.3966
 4094SOL     OW23917   0.333   3.336  12.556  0.1382  0.4581 -0.1431
 4094SOL    HW123918   0.290   3.253  12.575  2.6918 -1.0736 -1.1366
 4094SOL    HW223919   0.419   3.309  12.525 -0.5038 -1.0014 -0.6352
 4095SOL     OW23920   3.552   3.195   7.044  0.1452 -0.3409 -0.0349
 4095SOL    HW123921   3.481   3.156   7.096 -1.1306  0.8338 -0.9076
 4095SOL    HW223922   3.620   3.184   7.110 -1.6281  1.8238  2.1561
 4096SOL     OW23923   2.435   3.105  12.351  0.4593  0.1040  0.0145
 4096SOL    HW123924   2.525   3.080  12.330  0.0826 -0.1985 -1.2275
 4096SOL    HW223925   2.381   3.026  12.355  1.6441 -0.6597  1.3418
 4097SOL     OW23926   1.989   2.189   7.200 -0.2793  0.8825  0.1757
 4097SOL    HW123927   1.986   2.195   7.105 -2.4812 -1.7619  0.0775
 4097SOL    HW223928   1.897   2.199   7.224 -1.1067  0.1095 -2.7466
 4098SOL     OW23929   3.532   3.200   1.707  0.3902  0.4334  0.3843
 4098SOL    HW123930   3.592   3.164   1.641 -1.0943 -1.1583 -0.0859
 4098SOL    HW223931   3.454   3.166   1.663  1.5131 -2.7564  0.8503
 4099SOL     OW23932   0.475   0.866   9.843  0.1962  0.5408  0.5277
 4099SOL    HW123933   0.470   0.898   9.753  1.1223  0.7448  0.5492
 4099SOL    HW223934   0.513   0.780   9.828  1.9448  1.4081  0.0645
 4100SOL     OW23935   2.978   4.380   4.129  0.0227 -0.0262 -0.3873
 4100SOL    HW123936   2.983   4.287   4.151  1.2815 -0.6439 -3.2108
 4100SOL    HW223937   2.999   4.413   4.216  0.3119  3.9426 -1.9987
 4101SOL     OW23938   2.300   4.142   0.006 -0.2272  0.3195 -0.2155
 4101SOL    HW123939   2.251   4.210   0.052  0.1876  1.0353 -0.8269
 4101SOL    HW223940   2.297   4.172  17.673  0.4344  1.5164  0.1604
 4102SOL     OW23941   2.798   3.690   1.647 -0.0119  0.2872  0.8578
 4102SOL    HW123942   2.852   3.679   1.725  2.5830  1.1149 -0.8604
 4102SOL    HW223943   2.748   3.608   1.654 -0.1129  0.2594 -0.2324
 4103SOL     OW23944   1.056   4.540  15.992 -0.0467 -0.7106 -0.0655
 4103SOL    HW123945   0.983   4.544  15.930 -0.3115  1.8366  0.3951
 4103SOL    HW223946   1.108   4.619  15.975 -3.1888  1.6489  1.1208
 4104SOL     OW23947   4.062   2.006  10.854 -0.5085  0.4036  0.0516
 4104SOL    HW123948   4.153   1.994  10.829 -0.2366 -1.7563  2.1088
 4104SOL    HW223949   4.031   1.920  10.826 -1.0766  0.5418  0.2548
 4105SOL     OW23950   2.635   4.540   8.486 -0.5749 -0.4211  0.1434
 4105SOL    HW123951   2.596   4.458   8.455  1.3585  0.0010 -3.4069
 4105SOL    HW223952   2.634   4.588   8.403  0.8612  0.1267  0.4413
 4106SOL     OW23953   2.106   0.842   2.517 -0.5293 -0.0701  0.2589
 4106SOL    HW123954   2.199   0.829   2.495 -0.4034 -0.4059  1.0146
 4106SOL    HW223955   2.107   0.938   2.512 -0.6693 -0.0023  1.7467
 4107SOL     OW23956   3.614   4.562   0.551 -0.3004 -0.1234 -0.2337
 4107SOL    HW123957   3.688   4.503   0.537  1.3279  2.2002 -1.3245
 4107SOL    HW223958   3.660   4.640   0.581 -1.0122  0.3867 -0.4451
 4108SOL     OW23959   0.418   2.489  12.462 -0.2304  0.1453 -0.0469
 4108SOL    HW123960   0.440   2.465  12.552 -0.0570 -2.0366 -0.6765
 4108SOL    HW223961   0.470   2.420  12.422  1.7611  2.3681 -1.2919
 4109SOL     OW23962   1.016   3.340  14.088 -0.5859 -0.4641 -0.0381
 4109SOL    HW123963   0.963   3.369  14.014  0.0859  2.6741  0.7200
 4109SOL    HW223964   1.103   3.349  14.048 -0.8367  0.4429 -0.3671
 4110SOL     OW23965   0.510   4.392   1.110  0.0745 -0.1725  0.2693
 4110SOL    HW123966   0.563   4.350   1.177 -1.5091 -0.2073  1.5029
 4110SOL    HW223967   0.575   4.459   1.091  0.3851 -0.8978 -1.2211
 4111SOL     OW23968   0.949   3.267   2.828 -0.3047  0.3920 -0.1133
 4111SOL    HW123969   0.882   3.325   2.791 -0.8576  0.3417  0.8156
 4111SOL    HW223970   0.970   3.209   2.755 -2.6244  0.7175 -1.0492
 4112SOL     OW23971   0.450   2.613  14.102 -0.4541 -0.2264  0.0970
 4112SOL    HW123972   0.538   2.652  14.102  0.9264 -3.3270  0.3342
 4112SOL    HW223973   0.429   2.590  14.192 -1.5223 -0.5390 -0.2388
 4113SOL     OW23974   0.910   4.427   2.183  0.0570  0.3755 -0.6320
 4113SOL    HW123975   0.949   4.340   2.187 -0.3826  0.1855 -0.4707
 4113SOL    HW223976   0.980   4.474   2.228  0.1898 -0.7179  0.2914
 4114SOL     OW23977   0.346   4.167   5.413  0.3037  0.1602  0.6522
 4114SOL    HW123978   0.354   4.076   5.384 -0.5657 -0.1317  1.2936
 4114SOL    HW223979   0.261   4.170   5.369  0.4623 -2.3289  0.1824
 4115SOL     OW23980   2.136   3.753   5.681  0.1099  0.1370 -0.1841
 4115SOL    HW123981   2.203   3.818   5.661  0.5540 -0.4557 -0.6344
 4115SOL    HW223982   2.177   3.705   5.753  0.4078 -0.0398 -0.4727
 4116SOL     OW23983   1.207   4.134   3.810  0.0097 -0.1979  0.2986
 4116SOL    HW123984   1.272   4.147   3.879 -1.6351  1.8136  1.4531
 4116SOL    HW223985   1.170   4.222   3.806 -1.1392 -0.7046 -0.3376
 4117SOL     OW23986   2.517   1.397  12.169 -0.2091  0.0271  0.2705
 4117SOL    HW123987   2.484   1.327  12.226  0.1943  0.7210  1.3473
 4117SOL    HW223988   2.499   1.360  12.083 -0.2674  2.4928 -0.7723
 4118SOL     OW23989   2.104   1.121   3.489 -0.0327 -0.0369  0.0289
 4118SOL    HW123990   2.080   1.204   3.448 -1.8516 -1.1979 -1.2861
 4118SOL    HW223991   2.168   1.157   3.549 -2.0025 -1.1513  2.8043
 4119SOL     OW23992   0.775   1.701  14.717  0.2422 -0.3076  0.1023
 4119SOL    HW123993   0.808   1.612  14.703 -1.3530 -0.8609 -0.1253
 4119SOL    HW223994   0.783   1.702  14.812 -1.8030  0.8048  0.2676
 4120SOL     OW23995   2.589   1.588   3.933  0.0382 -0.3036 -0.2635
 4120SOL    HW123996   2.593   1.678   3.900  1.1217  0.4512  1.9511
 4120SOL    HW223997   2.684   1.581   3.946 -0.0175 -0.4451  0.0588
 4121SOL     OW23998   0.963   3.177   7.934 -0.1349 -0.2795  0.2909
 4121SOL    HW123999   0.951   3.218   7.848  1.2437  0.4637  0.4444
 4121SOL    HW224000   0.878   3.186   7.976 -0.7101  1.7492 -1.2878
 4122SOL     OW24001   0.741   3.450   9.185 -0.0133 -0.4233 -0.0898
 4122SOL    HW124002   0.675   3.514   9.208  0.3707 -0.5820  1.4320
 4122SOL    HW224003   0.801   3.447   9.259  0.3021  1.2818 -0.2916
 4123SOL     OW24004   0.854   1.403   1.379 -0.2289  0.3285 -0.2320
 4123SOL    HW124005   0.944   1.412   1.412 -0.1779 -1.9958  0.3329
 4123SOL    HW224006   0.863   1.320   1.330 -3.7742 -0.7236  0.9020
 4124SOL     OW24007   1.108   2.432   6.880  0.3373  0.0136  0.3989
 4124SOL    HW124008   1.103   2.356   6.938 -0.6532 -1.2311 -1.3208
 4124SOL    HW224009   1.030   2.484   6.901 -0.2612 -0.8033  0.2057
 4125SOL     OW24010   4.560   0.084  11.285  0.3343 -0.1197 -0.3770
 4125SOL    HW124011   4.499   0.101  11.356 -0.5629 -0.5007 -1.0566
 4125SOL    HW224012   4.516   0.141  11.222 -0.2527 -0.1683 -0.0042
 4126SOL     OW24013   3.695   3.520   8.373  0.2617 -0.2700 -0.2039
 4126SOL    HW124014   3.741   3.521   8.457 -1.6999 -0.5496  0.8684
 4126SOL    HW224015   3.765   3.483   8.318  1.6679  1.1646  0.5906
 4127SOL     OW24016   4.035   3.953   4.593  0.0914 -0.1649  0.1443
 4127SOL    HW124017   4.031   3.979   4.501 -1.1769 -0.2785  0.1737
 4127SOL    HW224018   4.086   3.872   4.602 -0.2204 -0.1871  1.5949
 4128SOL     OW24019   4.338   0.456   8.630 -0.3807 -0.0890  0.2989
 4128SOL    HW124020   4.256   0.486   8.592  0.8669  0.8847 -1.6119
 4128SOL    HW224021   4.333   0.360   8.636 -0.2996 -0.1797 -1.2470
 4129SOL     OW24022   0.339   1.689  15.953 -0.2364  0.0162  0.9000
 4129SOL    HW124023   0.409   1.690  15.887 -2.1901 -1.8915 -1.1801
 4129SOL    HW224024   0.274   1.737  15.901 -0.1813 -1.5527 -0.6031
 4130SOL     OW24025   0.622   0.825  13.649  0.2078  0.1715 -0.0728
 4130SOL    HW124026   0.594   0.735  13.664 -0.7828  0.2755 -1.3697
 4130SOL    HW224027   0.540   0.872  13.664  0.0362  0.3008 -1.4267
 4131SOL     OW24028   0.301   3.893   0.795  0.0164  0.2148 -0.1417
 4131SOL    HW124029   0.361   3.939   0.736  0.3531 -1.9859 -1.5258
 4131SOL    HW224030   0.225   3.947   0.775 -0.5939 -1.2088 -1.7140
 4132SOL     OW24031   2.149   1.543   5.794  0.9522 -0.8279 -0.0143
 4132SOL    HW124032   2.200   1.621   5.770 -1.5307  0.3037 -1.5859
 4132SOL    HW224033   2.107   1.523   5.710 -0.8171  1.2928  0.3723
 4133SOL     OW24034   2.337   2.048   7.005  0.1520  0.1285  0.1984
 4133SOL    HW124035   2.396   2.069   6.933 -0.8308  0.9761 -0.3643
 4133SOL    HW224036   2.258   2.082   6.963 -0.2588  0.4274  1.1937
 4134SOL     OW24037   2.693   3.387  15.500  0.2588  0.0731 -0.0008
 4134SOL    HW124038   2.598   3.384  15.513  0.0264  1.0333 -1.4977
 4134SOL    HW224039   2.696   3.425  15.412  0.6136  0.2209  0.0744
 4135SOL     OW24040   0.558   2.516  13.022 -0.3809  0.2937 -0.7695
 4135SOL    HW124041   0.476   2.538  13.066  1.2626  2.6287  1.1065
 4135SOL    HW224042   0.621   2.574  13.065  2.7686 -2.3526 -1.7193
 4136SOL     OW24043   4.599   1.600   0.565  0.1588  0.0483  0.5446
 4136SOL    HW124044   4.631   1.661   0.499 -2.0444 -2.2931 -2.6923
 4136SOL    HW224045   4.656   1.617   0.639 -0.2781 -0.1585  0.9318
 4137SOL     OW24046   2.840   2.620   7.760  0.2790  0.4727  0.0004
 4137SOL    HW124047   2.932   2.597   7.773  0.3764  0.6224 -0.4142
 4137SOL    HW224048   2.844   2.647   7.668 -2.4556 -1.7627 -0.7639
 4138SOL     OW24049   2.165   0.752   3.392  0.0743 -0.1275 -0.4209
 4138SOL    HW124050   2.152   0.841   3.425  0.1768  0.3393 -1.6168
 4138SOL    HW224051   2.119   0.696   3.454 -0.4333 -0.1859 -0.8524
 4139SOL     OW24052   4.035   2.943  10.786 -0.3717 -0.4301 -0.3541
 4139SOL    HW124053   4.092   2.903  10.721 -0.0955  0.5180 -0.6930
 4139SOL    HW224054   4.097   2.954  10.858 -0.5174 -0.3054 -0.2467
 4140SOL     OW24055   2.591   4.697   5.760  0.1020 -0.0621  0.2427
 4140SOL    HW124056   2.598   4.709   5.666  0.0279  1.2027  0.3908
 4140SOL    HW224057   2.514   0.010   5.782  0.3281  0.3826 -0.0265
 4141SOL     OW24058   2.961   3.046   8.434 -0.3597 -0.5232 -0.2166
 4141SOL    HW124059   2.927   3.009   8.353  1.8614 -0.8133 -1.0104
 4141SOL    HW224060   2.891   3.109   8.447  0.5599 -0.1262  2.8245
 4142SOL     OW24061   2.242   0.020   6.860  0.2893  0.7572 -0.4907
 4142SOL    HW124062   2.276   0.080   6.927 -0.8812  1.8295 -0.8605
 4142SOL    HW224063   2.256   4.670   6.892  0.6264  1.1912  0.5844
 4143SOL     OW24064   0.357   0.005   3.901 -0.0961 -0.2002 -0.0568
 4143SOL    HW124065   0.355   4.735   3.806 -0.7035 -1.6456  0.1157
 4143SOL    HW224066   0.394   4.660   3.923 -3.0692 -2.1149 -2.4960
 4144SOL     OW24067   0.802   2.943   7.755  0.0791 -0.2428  0.1080
 4144SOL    HW124068   0.866   2.924   7.824 -3.3969  1.6930  3.8897
 4144SOL    HW224069   0.855   2.992   7.692  0.6649 -1.3625 -0.2736
 4145SOL     OW24070   3.476   4.700   6.040  0.1703 -0.0779 -0.6242
 4145SOL    HW124071   3.531   0.018   5.987  1.0326 -1.5010 -1.2965
 4145SOL    HW224072   3.413   4.680   5.971  0.9378  0.3572 -1.4577
 4146SOL     OW24073   0.747   4.186   4.653 -0.3700  0.0333 -0.2176
 4146SOL    HW124074   0.782   4.104   4.686 -0.0263 -0.0962 -0.9064
 4146SOL    HW224075   0.703   4.157   4.573  0.0245 -2.7069  0.5669
 4147SOL     OW24076   2.722   0.440   7.628 -0.0351 -0.0252  0.0589
 4147SOL    HW124077   2.650   0.436   7.690 -0.5022 -1.3553 -0.5649
 4147SOL    HW224078   2.762   0.353   7.638 -0.6995 -0.1413  1.6999
 4148SOL     OW24079   3.965   1.242  17.166 -0.5005  0.0429 -0.2719
 4148SOL    HW124080   3.954   1.159  17.120 -0.1509 -0.7219  1.0396
 4148SOL    HW224081   3.877   1.251  17.203 -0.4177  3.7572 -0.9313
 4149SOL     OW24082   2.280   4.472  10.019 -0.3709 -0.0251 -0.3264
 4149SOL    HW124083   2.326   4.434   9.944  0.3556 -0.6587  0.4340
 4149SOL    HW224084   2.358   4.521  10.047 -1.9182  3.2193 -1.7098
 4150SOL     OW24085   3.212   3.221   6.062  0.4627 -0.3764 -0.3376
 4150SOL    HW124086   3.291   3.176   6.032  1.3802  0.9145  0.1486
 4150SOL    HW224087   3.161   3.141   6.080  2.7092 -2.1464 -1.8606
 4151SOL     OW24088   2.873   2.364   4.764 -0.4275  0.2599 -0.1282
 4151SOL    HW124089   2.929   2.295   4.800 -0.5333 -1.0296 -2.4514
 4151SOL    HW224090   2.916   2.445   4.790 -0.0924 -0.7531  2.5057
 4152SOL     OW24091   2.763   4.362   2.534  0.1471 -0.0205 -0.4404
 4152SOL    HW124092   2.718   4.394   2.612 -0.4517 -1.2489 -0.2804
 4152SOL    HW224093   2.832   4.428   2.524 -0.6434  1.4859  3.8000
 4153SOL     OW24094   1.333   1.528  13.604  0.3961  0.2239 -0.0532
 4153SOL    HW124095   1.329   1.621  13.626  1.7584 -0.0839  1.4843
 4153SOL    HW224096   1.244   1.495  13.617 -0.2821  1.7909 -0.7623
 4154SOL     OW24097   4.190   3.433  12.658 -0.0297  0.2462 -0.8993
 4154SOL    HW124098   4.246   3.499  12.700  0.4267  0.6237 -2.0977
 4154SOL    HW224099   4.166   3.466  12.572 -1.7488  1.7262  0.1429
 4155SOL     OW24100   3.789   1.973   4.220  0.1694  0.3920 -0.0113
 4155SOL    HW124101   3.757   2.051   4.265  1.8331  0.4639  1.0326
 4155SOL    HW224102   3.707   1.935   4.187  0.1686  0.7269 -0.4015
 4156SOL     OW24103   2.478   2.408   9.381  0.2759  0.7001  0.5083
 4156SOL    HW124104   2.456   2.420   9.473  0.2268 -1.3156  0.7552
 4156SOL    HW224105   2.481   2.498   9.348 -0.3215 -0.3305 -2.4297
 4157SOL     OW24106   1.502   0.684  15.670  0.4531 -0.3642  0.1640
 4157SOL    HW124107   1.527   0.672  15.578  0.0809 -0.8169  0.1174
 4157SOL    HW224108   1.518   0.596  15.703  2.4150 -0.6727 -1.6344
 4158SOL     OW24109   2.227   2.470  11.239  0.2736  0.3913 -0.1084
 4158SOL    HW124110   2.234   2.524  11.160  2.2577  0.9047  0.4308
 4158SOL    HW224111   2.287   2.398  11.223 -0.9930 -0.8744  0.7814
 4159SOL     OW24112   4.086   3.199   3.310 -0.0659  0.2834  0.1047
 4159SOL    HW124113   4.020   3.257   3.271 -1.7945 -1.9090 -0.2671
 4159SOL    HW224114   4.155   3.259   3.336 -0.8643  0.5997  1.4840
 4160SOL     OW24115   0.735   4.183   1.514 -0.1114  0.0617  0.0927
 4160SOL    HW124116   0.642   4.164   1.528 -0.1668  1.1556  1.1976
 4160SOL    HW224117   0.774   4.179   1.601  0.0613 -0.6989 -0.0219
 4161SOL     OW24118   2.825   0.826  17.341 -0.3696 -0.1772  0.4401
 4161SOL    HW124119   2.748   0.773  17.321  0.0538 -0.0431 -1.5184
 4161SOL    HW224120   2.896   0.769  17.312 -1.7941 -2.4482  1.4737
 4162SOL     OW24121   2.147   3.322   8.218 -0.2490  0.3908 -0.3481
 4162SOL    HW124122   2.129   3.372   8.297 -0.5460  0.8189 -0.6823
 4162SOL    HW224123   2.242   3.332   8.209 -0.0057  1.6725  3.7292
 4163SOL     OW24124   1.468   0.837  10.962 -0.8485 -0.3068  0.3834
 4163SOL    HW124125   1.412   0.781  11.016  0.1617 -0.8695  0.8409
 4163SOL    HW224126   1.515   0.881  11.032  0.3594 -0.2550 -0.4599
 4164SOL     OW24127   0.974   2.313   5.693 -0.0293  0.3092 -0.0272
 4164SOL    HW124128   0.972   2.219   5.672  0.8502 -0.1644  1.9918
 4164SOL    HW224129   0.894   2.322   5.745 -1.1099 -3.7771 -0.9047
 4165SOL     OW24130   4.635   1.416   7.041 -0.2585  0.1387 -0.0919
 4165SOL    HW124131   4.683   1.491   7.007 -0.8810  1.2281  1.4215
 4165SOL    HW224132   4.557   1.460   7.076  0.2970  1.8969 -1.0506
 4166SOL     OW24133   2.145   2.909   4.808  0.3923 -0.5591  0.4878
 4166SOL    HW124134   2.104   2.825   4.788 -0.9954 -0.0062  0.9969
 4166SOL    HW224135   2.235   2.895   4.777  0.3459 -0.5226  0.3386
 4167SOL     OW24136   1.622   4.596   8.774 -0.1304 -0.0707  0.0050
 4167SOL    HW124137   1.666   4.550   8.703  1.8052  0.8618  0.5871
 4167SOL    HW224138   1.627   4.683   8.735 -0.1392 -0.3247 -0.5630
 4168SOL     OW24139   1.543   2.200   3.317  0.2385 -0.1920 -0.7523
 4168SOL    HW124140   1.468   2.255   3.296  0.0061 -0.2276  0.0227
 4168SOL    HW224141   1.521   2.130   3.255 -0.9011  0.2077 -0.7945
 4169SOL     OW24142   3.175   0.448  16.720  0.1718 -0.7327 -0.1306
 4169SOL    HW124143   3.097   0.396  16.703  0.2888 -0.3906 -1.6814
 4169SOL    HW224144   3.155   0.540  16.703 -0.4148 -0.4761  1.9961
 4170SOL     OW24145   0.889   3.891   2.315  0.1670 -0.4621 -0.1847
 4170SOL    HW124146   0.940   3.860   2.240 -2.4717 -0.9513 -1.7701
 4170SOL    HW224147   0.899   3.986   2.311 -0.5961 -0.3857 -0.2394
 4171SOL     OW24148   3.338   2.641   9.467 -0.3124 -0.0068  0.1787
 4171SOL    HW124149   3.385   2.686   9.396  1.3110  1.0510  1.9058
 4171SOL    HW224150   3.396   2.626   9.541 -0.2548  0.2196  0.1786
 4172SOL     OW24151   2.819   3.471   5.238  0.4596  0.2517 -0.0519
 4172SOL    HW124152   2.800   3.409   5.168 -0.5715 -0.6962  1.0696
 4172SOL    HW224153   2.855   3.546   5.191  0.3064  1.4930  1.8046
 4173SOL     OW24154   0.929   3.373   6.239  0.0698  0.0752 -0.5144
 4173SOL    HW124155   0.952   3.457   6.280  2.1077  0.4989 -2.5378
 4173SOL    HW224156   0.882   3.416   6.168 -0.1856  1.7034  0.6315
 4174SOL     OW24157   2.586   0.404   9.868 -0.3894  0.0267 -0.3271
 4174SOL    HW124158   2.538   0.451   9.800 -0.9334  0.1663  0.1487
 4174SOL    HW224159   2.604   0.314   9.839 -0.3285 -0.0294 -0.1183
 4175SOL     OW24160   0.097   4.106   9.470  0.1055 -0.3762 -0.3768
 4175SOL    HW124161   0.065   4.041   9.533 -1.6944  1.0103  0.1187
 4175SOL    HW224162   0.029   4.102   9.403 -0.4097  1.1545  0.0644
 4176SOL     OW24163   2.311   4.609   8.233 -0.3765  0.3658 -0.7567
 4176SOL    HW124164   2.219   4.614   8.207 -0.1536  0.3029 -1.5537
 4176SOL    HW224165   2.324   4.527   8.281 -0.9297 -0.1374 -1.4503
 4177SOL     OW24166   1.424   0.157   8.435  0.4801 -0.4783 -0.2643
 4177SOL    HW124167   1.451   0.130   8.347  3.6068 -2.3247  1.2616
 4177SOL    HW224168   1.339   0.121   8.460  0.8172 -0.6560  0.6339
 4178SOL     OW24169   3.356   1.994   3.407 -0.1541 -0.1358  0.1967
 4178SOL    HW124170   3.349   1.926   3.474 -1.2342 -3.3337 -3.2059
 4178SOL    HW224171   3.441   1.972   3.371 -0.5240  0.6709 -1.1745
 4179SOL     OW24172   1.858   4.397   1.378 -0.0047  0.3349 -0.6309
 4179SOL    HW124173   1.952   4.390   1.391  0.1840  0.4120 -1.9466
 4179SOL    HW224174   1.837   4.452   1.453 -0.3058  2.8647 -2.5692
 4180SOL     OW24175   4.198   1.266   4.411 -0.1627 -0.8409  0.1783
 4180SOL    HW124176   4.118   1.267   4.464  0.1474  2.3705  0.5904
 4180SOL    HW224177   4.177   1.340   4.354  1.8922  1.1432  1.9599
 4181SOL     OW24178   1.721   2.262   5.585  0.2552  0.0501  0.0211
 4181SOL    HW124179   1.720   2.356   5.600  0.2293 -0.1452  1.2669
 4181SOL    HW224180   1.771   2.244   5.664  0.0090 -1.2645 -0.1135
 4182SOL     OW24181   1.736   1.290   4.095  0.7370 -0.2851  0.5812
 4182SOL    HW124182   1.670   1.221   4.104  0.1786  0.2335  0.4875
 4182SOL    HW224183   1.692   1.372   4.120 -1.6291 -1.7456  1.2642
 4183SOL     OW24184   3.047   2.871   2.230 -0.0722 -0.3226  0.0527
 4183SOL    HW124185   3.071   2.955   2.192 -1.6099 -0.0102 -0.2159
 4183SOL    HW224186   2.962   2.858   2.190  0.5947 -1.5150 -0.9630
 4184SOL     OW24187   0.475   1.935   7.778 -0.3616 -0.2092  0.0624
 4184SOL    HW124188   0.458   2.023   7.747  1.5148  0.7113  1.6782
 4184SOL    HW224189   0.498   1.890   7.697  1.5688  1.5301 -0.3407
 4185SOL     OW24190   3.060   0.959   5.139  0.2455  0.2738 -0.1899
 4185SOL    HW124191   3.082   1.004   5.058 -1.9788  1.4184 -0.1549
 4185SOL    HW224192   3.130   0.897   5.158 -0.6632 -0.3075  1.3286
 4186SOL     OW24193   3.333   0.258   6.374  0.4782  0.2319  0.1078
 4186SOL    HW124194   3.359   0.323   6.440  0.8653 -0.0535  0.2406
 4186SOL    HW224195   3.379   0.182   6.410 -1.2171 -1.4000 -1.1673
 4187SOL     OW24196   4.163   2.554   0.627 -0.0361  0.2982  0.0612
 4187SOL    HW124197   4.115   2.479   0.593  1.8918 -0.4264 -1.0612
 4187SOL    HW224198   4.161   2.536   0.721  2.8197 -1.3977 -0.2241
 4188SOL     OW24199   2.445   1.558  11.391 -0.1106  0.2900 -0.1662
 4188SOL    HW124200   2.482   1.519  11.471 -2.0050  2.4283  1.7505
 4188SOL    HW224201   2.473   1.649  11.400 -0.7057  0.3839  0.8068
 4189SOL     OW24202   0.648   0.433   9.196 -0.1704  0.4826 -0.1354
 4189SOL    HW124203   0.568   0.486   9.205 -1.0390 -0.6172 -1.4534
 4189SOL    HW224204   0.609   0.349   9.172  0.0522  0.1193  0.7537
 4190SOL     OW24205   0.837   2.265   0.570  0.8501 -0.0910  0.0528
 4190SOL    HW124206   0.863   2.262   0.478 -1.7031  2.0603 -0.7473
 4190SOL    HW224207   0.896   2.336   0.596 -2.6488  3.2757 -1.1765
 4191SOL     OW24208   1.748   4.033   2.411  0.3157  0.0676 -0.0096
 4191SOL    HW124209   1.780   3.946   2.388  1.9276  0.6021  0.2630
 4191SOL    HW224210   1.654   4.015   2.418  0.5981 -1.1677  0.7656
 4192SOL     OW24211   2.296   1.591   0.059  0.4490 -1.1860 -0.1090
 4192SOL    HW124212   2.341   1.586  17.733 -2.0232  0.3274 -1.5281
 4192SOL    HW224213   2.203   1.587   0.038  0.6053 -2.2633 -0.5574
 4193SOL     OW24214   0.242   3.265   2.140 -0.4818  0.4582  0.0170
 4193SOL    HW124215   0.279   3.349   2.115  1.3748 -1.0779 -2.4248
 4193SOL    HW224216   0.245   3.223   2.054  0.7554 -0.3420  0.4377
 4194SOL     OW24217   0.498   3.990  11.716 -1.0039 -0.1774 -0.0877
 4194SOL    HW124218   0.412   3.975  11.676 -1.6727 -1.8642  1.9894
 4194SOL    HW224219   0.533   3.906  11.744  0.1999 -0.3827 -2.2119
 4195SOL     OW24220   3.367   1.714  12.316 -0.5223 -0.2540 -0.4568
 4195SOL    HW124221   3.285   1.762  12.328  0.2528  1.0039 -0.1905
 4195SOL    HW224222   3.365   1.642  12.379  1.1401  0.1000 -0.0067
 4196SOL     OW24223   3.002   3.884   2.860 -0.1465  0.1145 -0.1250
 4196SOL    HW124224   2.934   3.924   2.806  2.1031  2.1906 -1.4132
 4196SOL    HW224225   2.958   3.807   2.896 -1.4043  1.2158  0.7065
 4197SOL     OW24226   0.964   3.182   9.185 -0.0557 -0.0846  0.1108
 4197SOL    HW124227   0.930   3.248   9.125  1.2235  0.3419 -0.1621
 4197SOL    HW224228   1.058   3.185   9.164  0.4536 -0.3476  2.3710
 4198SOL     OW24229   3.720   1.232   8.447  0.1096 -0.2622  0.3489
 4198SOL    HW124230   3.640   1.210   8.495  0.0817 -1.3259 -0.1977
 4198SOL    HW224231   3.751   1.143   8.436  0.2286 -0.1698 -0.0799
 4199SOL     OW24232   0.309   2.620  11.420 -0.3238  0.1702  0.0539
 4199SOL    HW124233   0.365   2.569  11.362 -0.5504  0.7620 -0.6865
 4199SOL    HW224234   0.231   2.631  11.366 -1.7690  0.2891  2.1511
 4200SOL     OW24235   1.469   3.114   6.153  0.6362  0.0844 -0.4292
 4200SOL    HW124236   1.497   3.087   6.065  0.3541  1.0692 -0.8198
 4200SOL    HW224237   1.402   3.179   6.133  0.2270 -0.6511 -1.4334
 4201SOL     OW24238   1.382   1.686  16.762 -0.1100  0.1156  0.1727
 4201SOL    HW124239   1.329   1.610  16.738 -0.3375  0.4283 -0.2959
 4201SOL    HW224240   1.454   1.638  16.803 -0.8043 -1.1631 -0.0921
 4202SOL     OW24241   2.406   3.260   2.037 -0.1703 -0.0901  0.4377
 4202SOL    HW124242   2.388   3.168   2.018 -2.3446  0.4097  0.0539
 4202SOL    HW224243   2.392   3.277   2.131 -0.5007 -2.2750  0.7859
 4203SOL     OW24244   2.907   3.243   1.532  0.5480 -0.4291  0.4269
 4203SOL    HW124245   2.964   3.299   1.480 -1.4698  0.4770 -0.8021
 4203SOL    HW224246   2.825   3.258   1.485  0.7034 -0.2877  0.2013
 4204SOL     OW24247   1.056   4.133  10.728 -0.6044  0.3207  0.6321
 4204SOL    HW124248   1.123   4.161  10.791 -0.4352  0.0249  0.5862
 4204SOL    HW224249   1.079   4.040  10.731  1.5701  0.8757  1.9603
 4205SOL     OW24250   4.448   2.648   5.256 -0.1806 -0.5371  0.1543
 4205SOL    HW124251   4.509   2.658   5.183 -0.2265  0.6345  0.2836
 4205SOL    HW224252   4.480   2.561   5.283  0.3030 -0.1969  0.6786
 4206SOL     OW24253   4.518   2.980   8.721  0.4354  0.0102 -0.4318
 4206SOL    HW124254   4.460   2.963   8.795 -0.6086  1.8355 -0.8497
 4206SOL    HW224255   4.605   2.952   8.753  0.2429  3.4094  3.0663
 4207SOL     OW24256   1.297   0.763   4.811  0.6094  0.3759  0.3308
 4207SOL    HW124257   1.206   0.779   4.787  0.0002  2.6162  4.1862
 4207SOL    HW224258   1.334   0.775   4.723  0.6859 -2.1255  0.0231
 4208SOL     OW24259   0.137   2.804  10.793  0.2067  0.0009 -0.4048
 4208SOL    HW124260   0.112   2.764  10.876  1.5357 -0.2831 -0.1429
 4208SOL    HW224261   0.184   2.730  10.755 -0.6171 -0.5825 -0.3066
 4209SOL     OW24262   3.890   2.387   6.660  0.4415  0.4468  0.2055
 4209SOL    HW124263   3.797   2.406   6.678  0.1825 -0.5043 -0.1486
 4209SOL    HW224264   3.911   2.297   6.681  0.2159  0.4238  0.3305
 4210SOL     OW24265   2.303   3.376   3.268  0.4462  0.2767  0.0613
 4210SOL    HW124266   2.298   3.316   3.193 -3.8076  1.1087 -0.3183
 4210SOL    HW224267   2.247   3.323   3.325  1.6640  1.0532  1.9569
 4211SOL     OW24268   1.341   0.208   4.452  0.3103  0.3175 -0.3146
 4211SOL    HW124269   1.298   0.289   4.481 -2.1062 -0.5847 -1.4349
 4211SOL    HW224270   1.427   0.224   4.491 -0.5585 -0.8796  2.0698
 4212SOL     OW24271   2.636   2.982   1.643 -0.0491 -0.6605  0.7400
 4212SOL    HW124272   2.624   2.968   1.549  0.7843  0.0505  0.5326
 4212SOL    HW224273   2.688   2.906   1.669  1.2468 -0.3177 -0.8307
 4213SOL     OW24274   4.629   2.231   5.733 -0.1524  0.1358  0.2877
 4213SOL    HW124275   4.689   2.261   5.801  1.8629 -1.4350 -0.8158
 4213SOL    HW224276   4.653   2.141   5.710  2.5082  1.0085 -0.3933
 4214SOL     OW24277   0.878   2.169   1.696 -0.0327  0.0612  0.0260
 4214SOL    HW124278   0.807   2.180   1.760  0.0361 -0.8594  0.2601
 4214SOL    HW224279   0.885   2.255   1.655  0.4358  0.2420  0.4757
 4215SOL     OW24280   1.133   3.731   9.743  0.6634 -0.1160  0.1398
 4215SOL    HW124281   1.209   3.693   9.788 -0.0657 -1.5412  0.1505
 4215SOL    HW224282   1.149   3.727   9.649  1.5127 -0.3547  0.2900
 4216SOL     OW24283   3.403   2.236   7.770  0.4992  0.1947 -0.3064
 4216SOL    HW124284   3.493   2.225   7.800  0.3032 -0.3427  0.0685
 4216SOL    HW224285   3.409   2.198   7.682 -2.3416 -0.4977 -0.1794
 4217SOL     OW24286   0.425   2.342   3.507  0.2260 -0.2245 -0.2883
 4217SOL    HW124287   0.513   2.321   3.537  0.3960 -0.0110 -0.6317
 4217SOL    HW224288   0.433   2.364   3.414 -0.0825  1.6211  0.1199
 4218SOL     OW24289   0.424   2.095   5.773  0.1867  0.1964 -0.4150
 4218SOL    HW124290   0.382   2.168   5.819 -1.4973 -1.3344  0.4795
 4218SOL    HW224291   0.425   2.032   5.846  0.6541  1.7133  0.8930
 4219SOL     OW24292   3.757   2.198   9.536 -0.2161  0.2712  0.2583
 4219SOL    HW124293   3.812   2.119   9.528  1.9249  1.7366  0.4074
 4219SOL    HW224294   3.767   2.229   9.446 -0.9209  1.2562  0.5248
 4220SOL     OW24295   0.222   3.543  15.069  0.0393  0.3996  0.2137
 4220SOL    HW124296   0.297   3.602  15.060  1.0718 -0.8732  0.5341
 4220SOL    HW224297   0.214   3.515  14.978  0.6026  1.3551 -0.1290
 4221SOL     OW24298   1.284   3.920   6.092  0.0246 -0.0463  0.0177
 4221SOL    HW124299   1.324   3.938   6.008  0.0864 -0.8427 -0.1245
 4221SOL    HW224300   1.289   4.002   6.142  0.5039  0.4115 -0.7941
 4222SOL     OW24301   1.388   3.536   8.588  0.1898  0.1668 -0.4248
 4222SOL    HW124302   1.326   3.542   8.661  1.1026  1.0443  0.2763
 4222SOL    HW224303   1.379   3.624   8.550  2.0721  1.5930  2.4767
 4223SOL     OW24304   1.935   2.659   0.404 -0.0077  0.1942  0.0756
 4223SOL    HW124305   1.893   2.575   0.425  2.0219 -1.1315 -1.1003
 4223SOL    HW224306   2.005   2.632   0.345  0.5497 -1.1552  1.3169
 4224SOL     OW24307   3.678   0.504   7.704  0.3738  0.0450  0.0341
 4224SOL    HW124308   3.713   0.482   7.617 -0.8010 -0.1339 -0.3920
 4224SOL    HW224309   3.743   0.561   7.744  3.6400 -2.9337 -1.0543
 4225SOL     OW24310   4.227   4.415   8.217  0.0479 -0.2269 -0.3704
 4225SOL    HW124311   4.206   4.408   8.124  0.1427 -2.7562 -0.1801
 4225SOL    HW224312   4.242   4.510   8.219  0.7926 -0.3183 -1.5087
 4226SOL     OW24313   0.141   0.290   8.304  0.2162 -0.1015  0.0904
 4226SOL    HW124314   0.100   0.204   8.292 -1.4271  0.8366 -1.0909
 4226SOL    HW224315   0.226   0.267   8.266  0.8728  0.9556  0.9240
 4227SOL     OW24316   0.893   0.376  13.958 -0.0285 -0.1021 -0.0968
 4227SOL    HW124317   0.826   0.441  13.979 -0.0169  0.2282 -1.0799
 4227SOL    HW224318   0.863   0.351  13.870 -0.6929  1.3309 -0.2794
 4228SOL     OW24319   1.374   2.719   8.976 -0.0429 -0.2262  0.4733
 4228SOL    HW124320   1.457   2.712   9.023 -1.2101  0.8415  2.7037
 4228SOL    HW224321   1.333   2.794   9.019  0.8743  1.0903 -0.9660
 4229SOL     OW24322   3.681   4.385   3.457 -0.1784  0.3997  0.2042
 4229SOL    HW124323   3.659   4.413   3.546 -2.2269  1.1415 -0.5352
 4229SOL    HW224324   3.607   4.323   3.458 -1.4734  1.9557  1.0098
 4230SOL     OW24325   0.630   4.222   3.842  0.3291 -0.1525 -0.6419
 4230SOL    HW124326   0.544   4.183   3.825 -0.6390  1.4324  0.6840
 4230SOL    HW224327   0.616   4.236   3.936  0.6407 -2.1840 -0.2904
 4231SOL     OW24328   2.962   1.140   3.036 -0.7542 -0.3473 -0.5001
 4231SOL    HW124329   2.968   1.156   3.130 -1.5157 -0.6610 -0.4000
 4231SOL    HW224330   2.885   1.190   3.009 -0.0564  1.4394  0.8420
 4232SOL     OW24331   3.091   0.222   0.157 -0.0170  0.5939  0.3910
 4232SOL    HW124332   3.173   0.180   0.185 -0.5709 -1.4081 -1.0080
 4232SOL    HW224333   3.030   0.150   0.170  1.4283 -1.4348 -3.7474
 4233SOL     OW24334   2.789   3.728  12.247 -0.0018 -0.5537  0.0262
 4233SOL    HW124335   2.752   3.795  12.189  2.5351 -1.3926 -2.5781
 4233SOL    HW224336   2.737   3.651  12.224  0.8611 -0.8492 -0.9775
 4234SOL     OW24337   0.595   2.135   6.494  0.2754 -0.5436  0.2923
 4234SOL    HW124338   0.580   2.109   6.403 -0.0531  0.0219  0.1848
 4234SOL    HW224339   0.685   2.167   6.494  0.2898 -0.5893 -3.0837
 4235SOL     OW24340   0.008   0.428  16.721 -0.1082  0.5006  0.2229
 4235SOL    HW124341   0.091   0.385  16.744 -0.3690  0.2338  0.6506
 4235SOL    HW224342   0.027   0.520  16.742  0.2673 -0.2329  3.1415
 4236SOL     OW24343   0.209   3.118   7.949 -0.1015 -0.5108 -0.3587
 4236SOL    HW124344   0.166   3.089   7.868 -0.1253 -1.6838  0.0749
 4236SOL    HW224345   0.131   3.148   7.996 -1.9896 -0.1955 -3.7008
 4237SOL     OW24346   1.667   3.012   9.150 -0.6207  0.0063 -0.0471
 4237SOL    HW124347   1.598   3.057   9.199 -0.5463  1.2570 -1.0626
 4237SOL    HW224348   1.641   2.920   9.150 -1.8953  0.3548 -1.3215
 4238SOL     OW24349   3.778   1.600  10.013  0.1987 -0.0949  0.3238
 4238SOL    HW124350   3.742   1.525  10.060  1.8988 -1.2339 -0.1809
 4238SOL    HW224351   3.756   1.672  10.071  1.3290  0.7959 -0.3559
 4239SOL     OW24352   2.863   1.660   4.811 -0.1313  0.1857 -0.4725
 4239SOL    HW124353   2.780   1.706   4.799  0.7227  1.9135  0.1468
 4239SOL    HW224354   2.831   1.611   4.887  2.6603 -0.3334  0.3835
 4240SOL     OW24355   3.457   3.954   2.724 -0.1253 -0.0602  0.0891
 4240SOL    HW124356   3.442   3.892   2.795 -1.3676  0.1358 -0.0105
 4240SOL    HW224357   3.375   3.945   2.675 -0.2315  1.7078 -0.0586
 4241SOL     OW24358   2.750   0.764   5.493  0.2221  0.2856  0.9834
 4241SOL    HW124359   2.728   0.678   5.457 -1.2078 -0.0098  2.6028
 4241SOL    HW224360   2.832   0.745   5.538  1.6798  1.5103 -1.1067
 4242SOL     OW24361   2.762   2.710   1.689  0.5522  0.5235  0.4271
 4242SOL    HW124362   2.776   2.683   1.599  2.0183  1.7433  0.2915
 4242SOL    HW224363   2.837   2.662   1.725  0.3841 -0.3250 -0.3664
 4243SOL     OW24364   1.623   0.690  16.085  0.0661 -0.1954  0.3188
 4243SOL    HW124365   1.585   0.727  16.005  0.5207  1.3792  0.8274
 4243SOL    HW224366   1.560   0.624  16.111  0.9154 -1.7488 -1.5113
 4244SOL     OW24367   3.599   2.102  14.848 -0.1698  0.1771 -0.0106
 4244SOL    HW124368   3.637   2.123  14.762 -0.0682  0.4251  0.0959
 4244SOL    HW224369   3.578   2.009  14.838 -0.5341  0.1861  0.6732
 4245SOL     OW24370   1.611   2.623   1.019 -0.3549 -0.0102 -0.0029
 4245SOL    HW124371   1.600   2.532   1.046  4.0351 -0.8208 -1.0618
 4245SOL    HW224372   1.703   2.643   1.036 -0.6159  0.0061  1.3915
 4246SOL     OW24373   4.243   2.440  15.604  0.0631 -0.6088 -0.2929
 4246SOL    HW124374   4.154   2.427  15.637 -0.1050 -0.9457 -0.8877
 4246SOL    HW224375   4.236   2.513  15.542  1.4565 -0.1427  0.0976
 4247SOL     OW24376   2.120   2.245   8.274 -0.1778 -0.4670 -0.1425
 4247SOL    HW124377   2.152   2.155   8.264  0.1499 -0.2419 -1.1936
 4247SOL    HW224378   2.203   2.291   8.261  0.5494 -1.1944  1.9912
 4248SOL     OW24379   0.028   1.141   8.207  0.4491 -0.2251  0.1908
 4248SOL    HW124380   0.092   1.148   8.278 -0.8133  2.2373  1.1146
 4248SOL    HW224381   0.050   1.230   8.178 -0.7970  0.8117  2.4259
 4249SOL     OW24382   3.160   0.323   2.966  0.1039  0.2963 -0.0742
 4249SOL    HW124383   3.188   0.300   2.877  0.6228 -0.3302  0.2515
 4249SOL    HW224384   3.066   0.304   2.962  0.8068 -3.6533  1.8903
 4250SOL     OW24385   4.652   0.920   7.324  0.2477 -0.0966  0.0284
 4250SOL    HW124386   4.572   0.870   7.335  0.8723 -1.1690 -0.2764
 4250SOL    HW224387   4.630   0.968   7.245  0.0219  1.8734  1.2892
 4251SOL     OW24388   1.494   2.547   7.671 -0.2010  0.6208 -0.2668
 4251SOL    HW124389   1.515   2.483   7.739 -1.4732 -0.5276 -0.9777
 4251SOL    HW224390   1.582   2.571   7.641 -1.8330  1.0395 -4.5925
 4252SOL     OW24391   0.941   2.264   9.056  0.2409 -0.0421 -0.3170
 4252SOL    HW124392   0.895   2.295   9.135  0.0123  0.0395 -0.4811
 4252SOL    HW224393   0.882   2.300   8.989 -2.6241 -1.1596  1.5761
 4253SOL     OW24394   0.063   3.869   9.618  0.1738 -0.7657 -0.1831
 4253SOL    HW124395   0.047   3.910   9.704 -0.0810  0.2775 -0.7216
 4253SOL    HW224396   4.719   3.824   9.613 -0.4486  0.4498 -0.7728
 4254SOL     OW24397   4.662   0.058   2.966 -0.2462  0.9081  1.0254
 4254SOL    HW124398   4.622   0.079   2.882  0.8616 -0.3491  0.2036
 4254SOL    HW224399   4.618   4.715   2.988 -0.7338  1.7729  3.4150
 4255SOL     OW24400   0.178   1.228   9.814 -0.4345  0.3713  0.4975
 4255SOL    HW124401   0.265   1.192   9.793 -1.6117 -1.9266 -0.4201
 4255SOL    HW224402   0.146   1.162   9.874  0.1225 -0.5267 -0.1908
 4256SOL     OW24403   2.099   4.655   1.317  0.3529 -0.3340  0.1603
 4256SOL    HW124404   2.144   4.576   1.348 -0.2292 -0.7765 -0.1094
 4256SOL    HW224405   2.160   4.723   1.343 -0.3961  0.7369 -0.8753
 4257SOL     OW24406   1.233   3.494  12.010 -0.0787  0.1461  0.4932
 4257SOL    HW124407   1.213   3.578  11.970 -0.3555  0.3788  1.1198
 4257SOL    HW224408   1.307   3.518  12.065  1.8331 -5.5864  0.4790
 4258SOL     OW24409   1.163   0.884  12.944 -0.0536 -0.0486  0.0853
 4258SOL    HW124410   1.187   0.913  12.856  4.0029  2.7504  2.0840
 4258SOL    HW224411   1.180   0.790  12.943 -0.9472 -0.2133  0.7978
 4259SOL     OW24412   1.977   2.740  10.053 -0.0034  0.6434  0.2304
 4259SOL    HW124413   2.033   2.810  10.086 -1.4049  1.4040  0.9967
 4259SOL    HW224414   1.950   2.694  10.132 -0.1541  1.8626  0.8855
 4260SOL     OW24415   4.277   3.747   0.331 -0.2977 -0.2992  0.1243
 4260SOL    HW124416   4.323   3.822   0.292 -0.5633 -0.3621 -0.3144
 4260SOL    HW224417   4.184   3.751   0.306 -0.1150  2.2536 -0.1880
 4261SOL     OW24418   0.431   3.093  14.488  0.2402 -0.5097  0.1388
 4261SOL    HW124419   0.442   3.063  14.578 -0.1554 -1.4502 -0.1190
 4261SOL    HW224420   0.468   3.181  14.481 -1.5986  0.2539 -0.0391
 4262SOL     OW24421   4.290   4.664   9.781  0.0503 -0.4530 -0.5062
 4262SOL    HW124422   4.219   4.612   9.817  1.0283 -0.9730  0.6688
 4262SOL    HW224423   4.263   4.668   9.689  0.8505  1.2103 -0.6774
 4263SOL     OW24424   3.954   0.261   8.610 -0.2485 -0.3131 -0.0449
 4263SOL    HW124425   3.931   0.220   8.527  1.3364  2.1648 -1.7201
 4263SOL    HW224426   4.041   0.223   8.616 -1.5317 -3.2380  0.1714
 4264SOL     OW24427   2.603   2.492   1.840 -0.3283 -0.5073  0.0041
 4264SOL    HW124428   2.646   2.423   1.891  0.7470  1.4239  1.6759
 4264SOL    HW224429   2.648   2.478   1.756 -0.1307  1.5091 -0.2116
 4265SOL     OW24430   2.703   1.401  16.410  0.4870 -0.1256 -0.0972
 4265SOL    HW124431   2.697   1.348  16.490  2.3961 -0.3023 -0.0769
 4265SOL    HW224432   2.776   1.461  16.422  0.9467 -0.7047  0.0013
 4266SOL     OW24433   3.396   4.480  15.710  0.2917 -0.1142  0.2142
 4266SOL    HW124434   3.305   4.508  15.696 -0.2410 -0.6174  2.5131
 4266SOL    HW224435   3.440   4.562  15.689 -1.4825  0.4982 -1.0566
 4267SOL     OW24436   4.415   0.854   4.226  0.4475 -0.1440 -0.0704
 4267SOL    HW124437   4.438   0.916   4.157  0.7981  1.1022  1.1497
 4267SOL    HW224438   4.479   0.874   4.295  1.7284 -1.0127 -1.0082
 4268SOL     OW24439   3.832   2.298   3.666  0.5292  0.1510  0.6572
 4268SOL    HW124440   3.841   2.392   3.648  0.4224 -0.3406 -1.9401
 4268SOL    HW224441   3.903   2.269   3.609 -1.4175 -1.7343 -0.8099
 4269SOL     OW24442   2.837   2.504  16.636 -0.1520 -0.5509 -0.0809
 4269SOL    HW124443   2.796   2.540  16.557  1.8471  0.8036 -0.5158
 4269SOL    HW224444   2.841   2.584  16.689 -2.0104 -0.1741 -0.5248
 4270SOL     OW24445   3.183   3.246   2.481  0.5973 -0.1023  0.1122
 4270SOL    HW124446   3.203   3.261   2.388  1.2859 -0.6259  0.1671
 4270SOL    HW224447   3.189   3.335   2.516 -3.7011 -0.3669  1.5305
 4271SOL     OW24448   3.899   4.110   5.919 -0.6767  0.3315 -0.0866
 4271SOL    HW124449   3.867   4.022   5.935 -1.1957  0.3593 -0.9396
 4271SOL    HW224450   3.814   4.154   5.912 -1.2582 -0.7315  0.4463
 4272SOL     OW24451   2.111   4.037   7.377 -0.5967  0.0054 -0.2439
 4272SOL    HW124452   2.018   4.056   7.369 -0.1942  2.9180  1.9907
 4272SOL    HW224453   2.106   3.942   7.380  1.3726 -0.1339 -1.1076
 4273SOL     OW24454   4.311   3.730  10.429  0.5590 -0.1389 -0.7590
 4273SOL    HW124455   4.279   3.661  10.372  1.9150  0.2489 -1.9971
 4273SOL    HW224456   4.273   3.715  10.515 -0.9704 -0.4473 -1.4898
 4274SOL     OW24457   0.933   0.954   8.454 -0.1515  0.4792  0.0474
 4274SOL    HW124458   0.987   1.012   8.401  0.5235 -0.0057  0.2033
 4274SOL    HW224459   1.005   0.908   8.499 -0.3395  1.9425  1.8760
 4275SOL     OW24460   1.220   1.030   5.236  0.1277 -0.3093 -0.2690
 4275SOL    HW124461   1.278   1.020   5.160  2.3515  2.1198  1.0974
 4275SOL    HW224462   1.266   0.968   5.293 -1.2867 -0.0312  1.1745
 4276SOL     OW24463   0.766   0.387   5.716 -0.7386 -0.8032  0.5364
 4276SOL    HW124464   0.735   0.461   5.767  0.0645  0.3103 -0.5787
 4276SOL    HW224465   0.689   0.384   5.660 -0.4584 -0.2310  0.1177
 4277SOL     OW24466   3.339   0.032   7.088 -0.5428 -0.6479 -0.2935
 4277SOL    HW124467   3.285   0.064   7.160  1.7084  1.4266  0.4579
 4277SOL    HW224468   3.291   0.082   7.021 -0.5866 -2.1262 -1.3534
 4278SOL     OW24469   1.410   3.261   4.675 -1.3199  0.0548 -0.1135
 4278SOL    HW124470   1.330   3.248   4.727 -1.9482 -2.9545 -1.8166
 4278SOL    HW224471   1.455   3.331   4.722 -1.1431  0.2079 -0.5160
 4279SOL     OW24472   1.914   1.282   7.238 -0.5953  0.2276  0.6805
 4279SOL    HW124473   1.821   1.296   7.254  0.1828  4.2200  1.6141
 4279SOL    HW224474   1.929   1.199   7.283  0.8853 -1.2219 -2.4902
 4280SOL     OW24475   1.074   3.100   0.622 -0.4200  0.1402 -0.4017
 4280SOL    HW124476   1.037   3.171   0.676  1.5668  2.7674 -2.4938
 4280SOL    HW224477   1.139   3.071   0.685 -0.8658 -1.2096 -0.5724
 4281SOL     OW24478   2.274   1.568   5.215 -0.0635  0.2028 -0.7306
 4281SOL    HW124479   2.178   1.573   5.208 -0.1709 -1.0688 -0.1185
 4281SOL    HW224480   2.304   1.658   5.228 -0.2001 -0.0171  1.1554
 4282SOL     OW24481   4.430   2.169   6.389  0.0711  0.6342 -0.5440
 4282SOL    HW124482   4.377   2.232   6.438 -1.0298 -0.5432 -0.2223
 4282SOL    HW224483   4.423   2.193   6.296 -0.8982  1.8015 -0.1696
 4283SOL     OW24484   4.015   0.309   4.066 -0.1568 -0.8737  0.1598
 4283SOL    HW124485   3.990   0.221   4.094  1.1389 -1.2663  0.0546
 4283SOL    HW224486   4.037   0.346   4.151  0.1365 -1.1112  0.1871
 4284SOL     OW24487   0.257   0.540   4.761  0.1055 -0.3508  0.0881
 4284SOL    HW124488   0.327   0.475   4.771 -0.0419 -0.6119 -0.5488
 4284SOL    HW224489   0.297   0.616   4.719  2.4207 -1.6578 -0.0912
 4285SOL     OW24490   4.006   3.648   7.105  0.2302  0.1308 -0.1140
 4285SOL    HW124491   4.061   3.693   7.169 -0.7161  0.3764  0.5262
 4285SOL    HW224492   3.940   3.716   7.087  0.6685  0.7326  0.5457
 4286SOL     OW24493   4.136   3.747   6.096  0.5129  0.1849  1.0939
 4286SOL    HW124494   4.126   3.840   6.118 -2.0909 -0.5445  2.9383
 4286SOL    HW224495   4.224   3.750   6.058 -0.5240 -0.7649 -1.3770
 4287SOL     OW24496   0.058   2.655   6.783  0.2805 -0.1927  0.4989
 4287SOL    HW124497   0.038   2.608   6.702 -2.7202  2.3497 -0.2570
 4287SOL    HW224498   0.145   2.691   6.769 -0.2561 -0.3228 -3.0789
 4288SOL     OW24499   2.297   1.092   1.625  0.5216  0.2302  0.3802
 4288SOL    HW124500   2.236   1.022   1.647  0.0354  0.8747  1.0981
 4288SOL    HW224501   2.283   1.148   1.701  0.6893  1.0082 -0.1627
 4289SOL     OW24502   2.628   4.001  16.205  0.1114  0.0289  0.2389
 4289SOL    HW124503   2.534   4.023  16.205  0.3938  1.2847  2.1119
 4289SOL    HW224504   2.641   3.925  16.149 -2.2958 -0.0583 -0.2269
 4290SOL     OW24505   0.053   1.635   6.971 -0.0158  0.3397  0.2217
 4290SOL    HW124506   0.081   1.703   6.909  1.4504 -0.1732  0.3358
 4290SOL    HW224507   0.087   1.674   7.051 -1.4727  1.0824  0.4934
 4291SOL     OW24508   4.231   0.840   6.934  0.7726  0.3991 -0.3152
 4291SOL    HW124509   4.318   0.804   6.917 -0.9475 -2.9262 -2.0708
 4291SOL    HW224510   4.238   0.923   6.886  1.3455  0.2605 -0.4652
 4292SOL     OW24511   0.689   1.494   7.610 -0.1899  0.4570  0.7198
 4292SOL    HW124512   0.705   1.449   7.693 -0.1405  1.7266  1.4079
 4292SOL    HW224513   0.671   1.585   7.636 -2.0703  0.9011 -2.1269
 4293SOL     OW24514   1.901   0.032  11.723 -0.1464 -0.1197  0.6676
 4293SOL    HW124515   1.834   0.025  11.792  0.0040 -1.6113  0.6613
 4293SOL    HW224516   1.978   0.070  11.766  0.3464 -0.1296 -0.2007
 4294SOL     OW24517   3.032   0.230   8.611 -0.0718  0.5092 -0.0980
 4294SOL    HW124518   2.981   0.151   8.595 -1.6950  1.7457 -1.0499
 4294SOL    HW224519   3.042   0.259   8.520  2.0926  0.6940  0.1904
 4295SOL     OW24520   4.459   0.910  12.770 -0.0603  0.1409  0.6714
 4295SOL    HW124521   4.551   0.899  12.745 -0.0396 -0.0736  0.8387
 4295SOL    HW224522   4.454   0.855  12.849  2.0092 -1.5862 -0.4219
 4296SOL     OW24523   4.297   0.045  12.033  0.5878  0.1621  0.0706
 4296SOL    HW124524   4.272   0.037  11.940  2.8978 -0.0769 -0.5229
 4296SOL    HW224525   4.282   0.139  12.045  2.0172  0.2431  1.1642
 4297SOL     OW24526   1.857   3.858   3.251 -0.0605 -0.6946 -0.3985
 4297SOL    HW124527   1.858   3.867   3.156 -2.0957  0.6634 -0.3043
 4297SOL    HW224528   1.879   3.766   3.261 -1.6949 -1.0769 -0.3437
 4298SOL     OW24529   1.054   3.038  10.218 -0.5430 -1.1242 -0.0165
 4298SOL    HW124530   1.086   2.957  10.180  1.3915 -0.9917  1.2866
 4298SOL    HW224531   1.125   3.100  10.199 -1.2716  0.1132  1.2525
 4299SOL     OW24532   0.019   0.570   4.092 -0.2807  0.7927  0.2501
 4299SOL    HW124533   0.039   0.634   4.023 -0.3624 -0.8580 -1.3019
 4299SOL    HW224534   0.077   0.498   4.066  0.1517  0.3517  2.4208
 4300SOL     OW24535   0.144   0.918   7.853 -0.2876  0.6110 -0.1651
 4300SOL    HW124536   0.186   0.917   7.940 -0.3573 -0.6250 -0.1408
 4300SOL    HW224537   0.065   0.968   7.872 -0.5947 -0.3203  1.0431
 4301SOL     OW24538   3.211   0.470   0.102 -0.2866  0.2004 -0.6574
 4301SOL    HW124539   3.161   0.395   0.134  0.5074 -0.1667 -0.2771
 4301SOL    HW224540   3.149   0.507   0.039 -0.6291 -2.3628 -1.8367
 4302SOL     OW24541   2.462   0.835   9.544 -0.2885 -0.1299 -0.2334
 4302SOL    HW124542   2.374   0.846   9.582  0.3249 -0.0706  1.1595
 4302SOL    HW224543   2.503   0.918   9.568 -1.6208  0.0745  1.4282
 4303SOL     OW24544   1.774   3.533   9.247 -0.1056  0.2117 -0.0859
 4303SOL    HW124545   1.804   3.460   9.193 -2.0320 -0.8514  0.2648
 4303SOL    HW224546   1.701   3.493   9.296 -0.3190 -1.0217 -1.4181
 4304SOL     OW24547   0.681   3.526  14.220 -0.4469  0.1398 -0.4571
 4304SOL    HW124548   0.611   3.589  14.204 -0.6454  0.0276 -0.0182
 4304SOL    HW224549   0.734   3.567  14.151 -1.9982  2.4148 -0.2979
 4305SOL     OW24550   3.702   4.272  11.246 -0.1733 -0.1742 -0.3174
 4305SOL    HW124551   3.714   4.222  11.165  2.2008 -0.7203  0.3740
 4305SOL    HW224552   3.794   4.289  11.266 -0.2016  0.0588 -0.3843
 4306SOL     OW24553   2.835   2.281   9.773 -0.8919 -0.5348  0.2478
 4306SOL    HW124554   2.914   2.228   9.774 -0.5269 -0.0645 -2.5474
 4306SOL    HW224555   2.779   2.205   9.755 -0.7366 -0.5798 -0.0502
 4307SOL     OW24556   1.360   4.316   9.322  0.0972  0.2258  0.2383
 4307SOL    HW124557   1.455   4.301   9.318  0.2507  1.3922 -0.4329
 4307SOL    HW224558   1.351   4.314   9.418 -0.5183  0.9531  0.1889
 4308SOL     OW24559   1.942   3.375  16.502 -0.1366 -0.0857 -0.8907
 4308SOL    HW124560   1.955   3.470  16.502 -1.8006  0.1261  0.5486
 4308SOL    HW224561   2.032   3.343  16.509 -0.6903 -0.9757  2.1914
 4309SOL     OW24562   3.285   2.048   7.992  0.3146  0.1844  0.6664
 4309SOL    HW124563   3.208   2.036   7.938  0.4780 -0.4432  0.5713
 4309SOL    HW224564   3.346   2.099   7.939 -2.2143  0.7074 -1.6777
 4310SOL     OW24565   2.312   2.707  16.890  0.3423 -0.2479 -0.6473
 4310SOL    HW124566   2.243   2.654  16.851  1.2409 -1.1969 -0.9632
 4310SOL    HW224567   2.395   2.668  16.861  0.0639 -0.7172 -0.8103
 4311SOL     OW24568   2.823   2.962   2.749  0.3287  0.5012  0.2226
 4311SOL    HW124569   2.831   2.869   2.774  0.9278  1.2372  2.8113
 4311SOL    HW224570   2.904   2.977   2.701 -0.2395 -0.5289 -1.0679
 4312SOL     OW24571   0.528   3.110  12.123 -0.6079  0.2357  0.5798
 4312SOL    HW124572   0.613   3.097  12.167  0.2619  1.0551 -0.8713
 4312SOL    HW224573   0.477   3.059  12.186  0.7864 -0.5374  1.0886
 4313SOL     OW24574   4.559   4.349   0.778  0.4803  0.1638  0.0982
 4313SOL    HW124575   4.491   4.405   0.741  0.4422 -0.2576 -0.4603
 4313SOL    HW224576   4.584   4.403   0.853  1.0754 -0.4901  0.3661
 4314SOL     OW24577   4.150   3.199  16.438  0.4112  0.0619 -0.2517
 4314SOL    HW124578   4.232   3.150  16.451  1.1496  0.8492 -1.8612
 4314SOL    HW224579   4.105   3.147  16.371 -1.5561 -0.6339  1.6332
 4315SOL     OW24580   1.058   3.211   4.130  0.3211  0.1335 -0.7631
 4315SOL    HW124581   1.057   3.303   4.157 -1.2107 -0.2738  0.6127
 4315SOL    HW224582   0.999   3.178   4.198  1.3988 -0.4944 -0.1357
 4316SOL     OW24583   4.677   1.750  15.023  0.0589 -0.2336 -0.2861
 4316SOL    HW124584   4.704   1.786  14.938  2.2142 -1.4342 -0.1076
 4316SOL    HW224585   4.602   1.693  15.005  0.9296 -2.0137  1.6603
 4317SOL     OW24586   0.203   1.369   4.568  0.0418 -0.0147 -0.0334
 4317SOL    HW124587   0.272   1.431   4.544  0.9843 -1.2297 -0.4769
 4317SOL    HW224588   0.253   1.296   4.604  0.6469  0.1838 -0.4620
 4318SOL     OW24589   0.141   2.193   2.020 -1.0803 -0.5206 -0.5160
 4318SOL    HW124590   0.051   2.193   2.054 -1.5115 -1.3919 -1.6530
 4318SOL    HW224591   0.121   2.247   1.944 -2.9186  0.6356  0.8059
 4319SOL     OW24592   0.998   1.662   1.955  0.0343  0.1954  0.0623
 4319SOL    HW124593   0.912   1.700   1.934 -0.3221 -1.3555 -1.2990
 4319SOL    HW224594   1.038   1.686   1.871  2.3590 -2.3194  0.4759
 4320SOL     OW24595   2.971   4.149   3.714 -0.1204  0.4713  0.4673
 4320SOL    HW124596   2.913   4.073   3.710  0.1750  0.2806 -0.3445
 4320SOL    HW224597   2.913   4.224   3.726 -0.4815  0.1611  0.6382
 4321SOL     OW24598   2.664   2.666   4.784  0.4257  0.3725  0.3538
 4321SOL    HW124599   2.609   2.723   4.838 -1.7855  0.2237 -1.7241
 4321SOL    HW224600   2.749   2.708   4.795  0.6176  0.2633 -0.7312
 4322SOL     OW24601   1.413   1.866   8.977 -0.2705 -0.2733 -0.1493
 4322SOL    HW124602   1.423   1.955   8.942 -0.4885 -0.1968 -0.0148
 4322SOL    HW224603   1.404   1.883   9.071  0.4756 -0.3334 -0.0682
 4323SOL     OW24604   2.293   2.710   2.987  0.0013 -0.1426 -0.4313
 4323SOL    HW124605   2.328   2.643   3.046 -0.7440 -1.2883 -1.3015
 4323SOL    HW224606   2.200   2.710   3.013 -0.1531 -1.7320 -1.0094
 4324SOL     OW24607   1.835   4.518   1.623 -0.3571  0.1349 -0.1950
 4324SOL    HW124608   1.889   4.588   1.659 -0.2964  0.7631 -1.5074
 4324SOL    HW224609   1.749   4.558   1.637 -0.3383  0.8864 -2.2366
 4325SOL     OW24610   1.926   2.275   6.938 -0.6984 -0.0696 -0.1963
 4325SOL    HW124611   1.890   2.338   7.000  0.4028  0.7841 -0.4287
 4325SOL    HW224612   1.842   2.231   6.921  0.5850 -2.7967  0.4284
 4326SOL     OW24613   1.073   1.981   1.929  0.7250 -0.0990 -0.6827
 4326SOL    HW124614   1.045   1.892   1.908 -0.4530 -0.2025  1.3459
 4326SOL    HW224615   0.986   2.020   1.922 -0.0456 -1.3583  1.8432
 4327SOL     OW24616   2.229   3.003   5.058 -0.0547  0.1563  0.7413
 4327SOL    HW124617   2.215   2.964   4.972  1.0324  1.1244  0.1162
 4327SOL    HW224618   2.169   2.951   5.111  1.0246 -1.9851 -0.1583
 4328SOL     OW24619   1.932   0.692  11.838 -0.4390  0.3490  0.4223
 4328SOL    HW124620   1.970   0.613  11.877  0.3669  1.1231  1.1997
 4328SOL    HW224621   1.998   0.718  11.774  1.8821 -0.7040  2.3825
 4329SOL     OW24622   1.553   0.858   8.223  0.0868  0.0143 -0.0757
 4329SOL    HW124623   1.525   0.940   8.265  0.7806 -1.6441  3.6417
 4329SOL    HW224624   1.469   0.816   8.207 -0.2801  1.0924 -0.9817
 4330SOL     OW24625   2.788   1.588   1.359  0.0619 -0.0604 -0.3535
 4330SOL    HW124626   2.774   1.607   1.452 -0.2711  1.1072 -0.6443
 4330SOL    HW224627   2.883   1.579   1.358  0.1942  1.1662  0.3517
 4331SOL     OW24628   3.517   0.442   5.987 -0.5242 -0.1761  0.1385
 4331SOL    HW124629   3.551   0.353   5.984  1.2162  0.5296 -1.2459
 4331SOL    HW224630   3.582   0.501   5.948 -0.5020 -0.2750  0.0277
 4332SOL     OW24631   3.218   2.358   7.005 -0.5459 -0.4038  0.1460
 4332SOL    HW124632   3.264   2.394   7.080 -1.5136  2.7446 -0.7764
 4332SOL    HW224633   3.277   2.370   6.931  0.4273 -2.5133  0.5877
 4333SOL     OW24634   1.314   0.986   2.847  0.5561  0.2125 -0.1026
 4333SOL    HW124635   1.398   1.014   2.883  1.3929 -1.2028 -0.9380
 4333SOL    HW224636   1.247   1.021   2.906  2.0382  0.0170  1.7246
 4334SOL     OW24637   2.994   3.687   7.421  0.0352  0.0264 -0.2099
 4334SOL    HW124638   2.965   3.769   7.380 -1.0152 -0.6133 -0.7141
 4334SOL    HW224639   3.022   3.632   7.348 -0.2821  3.9247 -3.2778
 4335SOL     OW24640   4.079   2.854   7.843  0.7455  0.3346  0.8721
 4335SOL    HW124641   4.023   2.808   7.781  0.6040 -1.5078  2.3684
 4335SOL    HW224642   4.033   2.830   7.923 -1.7521  0.0274 -0.6583
 4336SOL     OW24643   3.069   0.652  14.798  0.6553 -0.0189 -0.4406
 4336SOL    HW124644   3.113   0.685  14.877 -1.0589  0.6342  0.2396
 4336SOL    HW224645   3.100   0.562  14.786  0.4009 -0.1736  0.0525
 4337SOL     OW24646   3.299   0.700  17.207  0.1343  0.0026  0.3413
 4337SOL    HW124647   3.301   0.682  17.113  0.8446 -0.3322  0.4202
 4337SOL    HW224648   3.363   0.635  17.236  0.6378 -0.5106 -1.8965
 4338SOL     OW24649   2.260   4.249  10.232 -0.0497  0.0373  0.5181
 4338SOL    HW124650   2.237   4.198  10.155 -1.2804  2.4394 -0.7016
 4338SOL    HW224651   2.214   4.333  10.225 -1.8865 -1.0047 -0.0101
 4339SOL     OW24652   0.200   2.415  13.498  0.7158 -0.9855  0.0814
 4339SOL    HW124653   0.140   2.462  13.440  0.6773  0.5649  1.3789
 4339SOL    HW224654   0.137   2.362  13.546  0.4589 -2.1829 -1.5626
 4340SOL     OW24655   3.419   3.775   7.775 -0.6522  0.4246  0.3520
 4340SOL    HW124656   3.340   3.769   7.829 -0.0678 -2.3960  0.8755
 4340SOL    HW224657   3.399   3.854   7.724 -1.1841  0.4267  0.5611
 4341SOL     OW24658   3.274   0.769   7.333 -0.1639 -0.1183  0.0836
 4341SOL    HW124659   3.235   0.767   7.246 -1.7126 -0.0619  0.7758
 4341SOL    HW224660   3.305   0.681   7.355  1.3912  0.0360 -1.5162
 4342SOL     OW24661   2.430   4.208   6.848 -0.4190 -0.2041 -0.4099
 4342SOL    HW124662   2.358   4.158   6.810 -1.2758  0.1647  0.7448
 4342SOL    HW224663   2.451   4.151   6.922  1.7093 -0.0992 -0.9209
 4343SOL     OW24664   2.811   2.163   3.573 -0.7681  0.2223 -0.8969
 4343SOL    HW124665   2.880   2.229   3.562  0.4704 -0.5968  2.0572
 4343SOL    HW224666   2.768   2.192   3.492 -1.5509 -1.0679 -0.9429
 4344SOL     OW24667   2.771   2.814   8.928  0.1055 -0.2992 -0.2125
 4344SOL    HW124668   2.781   2.788   8.837  2.4607 -0.3572  0.0601
 4344SOL    HW224669   2.787   2.736   8.980  4.0249  0.7914  0.1831
 4345SOL     OW24670   0.613   4.734   2.773 -0.7378  0.6370  0.5624
 4345SOL    HW124671   0.599   4.713   2.681  1.8846 -3.3860  1.0681
 4345SOL    HW224672   0.543   0.058   2.788  0.1997  2.2349 -1.9795
 4346SOL     OW24673   0.522   1.029   8.092 -0.1169  0.1144  0.2411
 4346SOL    HW124674   0.483   1.102   8.140 -1.0135 -0.1946 -0.0243
 4346SOL    HW224675   0.614   1.056   8.092  0.4691 -1.9182 -1.1087
 4347SOL     OW24676   2.151   1.797  16.771 -0.1562  0.6442 -0.1406
 4347SOL    HW124677   2.159   1.864  16.839 -1.2581  0.0686  0.5676
 4347SOL    HW224678   2.080   1.842  16.724 -0.7585 -1.4706 -1.2568
 4348SOL     OW24679   2.701   3.438   4.983  0.0356 -0.0178 -0.1391
 4348SOL    HW124680   2.637   3.498   5.019  0.0821  0.1682 -0.3644
 4348SOL    HW224681   2.717   3.475   4.896  0.6081 -1.6391 -0.7419
 4349SOL     OW24682   4.695   1.149   0.161  0.6941  0.4722 -0.5533
 4349SOL    HW124683   4.728   1.078   0.107 -3.4063 -1.0396 -1.0758
 4349SOL    HW224684   4.601   1.135   0.176  1.2510 -1.3943  1.1202
 4350SOL     OW24685   2.687   1.417   7.146 -0.1677  0.5914 -0.3223
 4350SOL    HW124686   2.673   1.473   7.222  1.5564  0.7870 -0.1398
 4350SOL    HW224687   2.600   1.386   7.124 -0.4631  1.8881 -0.9643
 4351SOL     OW24688   4.072   2.483   7.356  0.1766 -0.3024  0.4179
 4351SOL    HW124689   4.075   2.574   7.383 -1.2962 -0.3249  0.6862
 4351SOL    HW224690   4.158   2.447   7.378  1.6667  1.5451 -2.3451
 4352SOL     OW24691   4.544   2.032  11.131  0.5804 -0.0718  0.2694
 4352SOL    HW124692   4.535   1.966  11.062 -0.0782  0.1081  0.1834
 4352SOL    HW224693   4.572   1.977  11.204 -0.0385 -0.5588  0.1418
 4353SOL     OW24694   0.845   0.464   8.986 -0.3190  0.1090 -0.1854
 4353SOL    HW124695   0.922   0.411   9.008 -0.7606 -1.9498 -3.5981
 4353SOL    HW224696   0.785   0.438   9.056 -0.7631 -2.8443 -1.6512
 4354SOL     OW24697   2.518   1.527   6.238 -0.5003 -0.3579 -0.1001
 4354SOL    HW124698   2.445   1.505   6.180  0.9883  1.4390 -2.6859
 4354SOL    HW224699   2.576   1.553   6.166  0.1284 -0.3355  0.4125
 4355SOL     OW24700   2.980   3.282   2.908  0.2196  0.3900  0.3882
 4355SOL    HW124701   2.978   3.196   2.865 -2.7457  0.3363  0.6688
 4355SOL    HW224702   2.890   3.300   2.934  1.1854  3.8974  1.3386
 4356SOL     OW24703   0.922   2.667   8.274  0.0267  0.7052 -0.0422
 4356SOL    HW124704   0.830   2.644   8.290 -0.5915  1.9221 -1.7305
 4356SOL    HW224705   0.913   2.761   8.289  0.0707  0.6532  0.3087
 4357SOL     OW24706   1.316   1.007   3.755 -0.2361 -0.1478  0.3148
 4357SOL    HW124707   1.233   1.034   3.716  1.0513  2.6191 -0.5930
 4357SOL    HW224708   1.297   0.915   3.770  1.4505 -0.6952 -0.9286
 4358SOL     OW24709   3.711   0.384   3.778  0.2308  0.7403 -0.8327
 4358SOL    HW124710   3.773   0.442   3.822  0.8975 -1.0530  0.5704
 4358SOL    HW224711   3.757   0.301   3.767 -0.2131  0.0540  2.5075
 4359SOL     OW24712   3.237   1.920  17.185  0.1811 -0.5837 -0.5717
 4359SOL    HW124713   3.284   1.999  17.158 -1.4816  0.3761 -0.5886
 4359SOL    HW224714   3.305   1.864  17.146  0.0425 -0.2196 -1.3410
 4360SOL     OW24715   1.916   1.569   6.812 -0.1201 -0.1011  0.4773
 4360SOL    HW124716   1.833   1.535   6.847 -0.9119 -0.0425 -1.3299
 4360SOL    HW224717   1.985   1.532   6.867 -0.2224  0.6836  1.1244
 4361SOL     OW24718   1.141   2.063  13.429  0.0421 -0.2208  0.1682
 4361SOL    HW124719   1.093   2.052  13.347 -0.7524 -0.0331  0.6075
 4361SOL    HW224720   1.080   2.065  13.503  0.5554  0.3441  0.5757
 4362SOL     OW24721   1.073   3.962   2.831 -0.1113  0.2119  0.1298
 4362SOL    HW124722   1.134   3.901   2.873 -0.7623 -0.2683  0.3754
 4362SOL    HW224723   0.991   3.965   2.880 -1.0334  2.3848 -1.5706
 4363SOL     OW24724   1.510   0.998   7.615 -0.2155 -0.2173 -0.5813
 4363SOL    HW124725   1.603   0.976   7.607 -0.0547  0.5721 -0.9144
 4363SOL    HW224726   1.493   0.953   7.697  2.6509  1.4669  0.9361
 4364SOL     OW24727   0.893   4.484  13.330 -0.7678  0.5137  0.3049
 4364SOL    HW124728   0.834   4.556  13.350  1.2265  1.9625  0.9259
 4364SOL    HW224729   0.820   4.422  13.320 -0.5074  0.3418 -0.5828
 4365SOL     OW24730   0.447   2.901   5.406 -0.1725  0.2728  0.5281
 4365SOL    HW124731   0.378   2.842   5.433  1.2928 -1.6656  0.0045
 4365SOL    HW224732   0.487   2.940   5.484 -3.4360 -0.9113  2.7789
 4366SOL     OW24733   0.430   2.743   8.450 -0.0911 -0.3686  0.1532
 4366SOL    HW124734   0.426   2.680   8.522 -0.2853  0.9091  1.2568
 4366SOL    HW224735   0.468   2.822   8.489  0.6766  0.5680 -2.5055
 4367SOL     OW24736   2.715   0.618   2.644  0.1321 -0.1923  0.2633
 4367SOL    HW124737   2.757   0.702   2.662 -2.8197  1.1604  0.9161
 4367SOL    HW224738   2.714   0.623   2.548 -0.6026  0.4993  0.2994
 4368SOL     OW24739   1.437   3.707   3.592 -0.0554  0.1288  0.4802
 4368SOL    HW124740   1.399   3.694   3.505  0.9713  0.0886  0.0257
 4368SOL    HW224741   1.410   3.799   3.596  1.7041  0.7181 -0.9526
 4369SOL     OW24742   0.204   2.704   3.916 -0.2594 -0.0465  0.2669
 4369SOL    HW124743   0.286   2.656   3.904 -0.9338 -0.6245 -1.8915
 4369SOL    HW224744   0.239   2.784   3.956  1.3466 -0.7489  0.2626
 4370SOL     OW24745   4.425   2.812   5.508 -0.4315  0.6453 -0.4493
 4370SOL    HW124746   4.438   2.891   5.456  0.2756  0.7617 -0.1052
 4370SOL    HW224747   4.416   2.749   5.436  1.3258 -0.6257  0.4282
 4371SOL     OW24748   3.750   2.370   2.410 -0.0192 -0.0854 -0.1781
 4371SOL    HW124749   3.837   2.378   2.448 -0.5303 -0.0224  0.9849
 4371SOL    HW224750   3.730   2.282   2.444 -0.3530  0.0297 -0.0757
 4372SOL     OW24751   1.502   3.647   6.848  0.2422  0.5338  0.4441
 4372SOL    HW124752   1.591   3.663   6.879  0.2561 -0.8253  1.0744
 4372SOL    HW224753   1.495   3.714   6.780  0.9732  1.0043  0.8374
 4373SOL     OW24754   4.590   2.459   1.873 -0.1589 -0.3124 -0.2301
 4373SOL    HW124755   4.535   2.534   1.852 -0.1819 -0.1942  0.2654
 4373SOL    HW224756   4.673   2.493   1.839 -0.3587 -2.1635 -2.5496
 4374SOL     OW24757   2.355   3.690  15.674  0.6113  0.2655 -0.1843
 4374SOL    HW124758   2.366   3.670  15.767  2.8545  0.9319 -0.2897
 4374SOL    HW224759   2.437   3.731  15.646  1.0677  1.1430  2.4159
 4375SOL     OW24760   0.504   2.353   4.665 -0.3842 -0.4404  0.0130
 4375SOL    HW124761   0.424   2.405   4.653 -0.9246 -1.2523  0.1150
 4375SOL    HW224762   0.479   2.288   4.730  0.2584 -0.1601  0.5339
 4376SOL     OW24763   0.961   4.229   1.675 -0.0629 -0.5984 -0.4859
 4376SOL    HW124764   0.977   4.246   1.767 -3.4476  1.4057 -0.2608
 4376SOL    HW224765   1.011   4.148   1.663 -0.7733 -1.4186  2.2059
 4377SOL     OW24766   0.789   1.853   4.944 -0.2815 -0.7747  0.9809
 4377SOL    HW124767   0.847   1.925   4.971  0.1398 -0.9065  0.4312
 4377SOL    HW224768   0.840   1.818   4.871  0.6626  0.8588  0.8569
 4378SOL     OW24769   1.556   4.090   5.346 -0.0278 -0.0410 -0.2465
 4378SOL    HW124770   1.581   4.050   5.263  1.9624  0.4091  0.1325
 4378SOL    HW224771   1.471   4.128   5.325  0.4612  1.0812 -0.1947
 4379SOL     OW24772   1.609   3.258   4.312 -0.1565 -0.1579  0.1222
 4379SOL    HW124773   1.704   3.263   4.296  0.1840 -1.5273  1.7069
 4379SOL    HW224774   1.601   3.235   4.405 -3.2629 -2.2258 -0.6808
 4380SOL     OW24775   1.857   4.181   5.185 -0.4172  0.8340 -0.2437
 4380SOL    HW124776   1.883   4.144   5.269  0.7767  0.4183 -0.7884
 4380SOL    HW224777   1.937   4.195   5.134 -0.5768 -0.8370 -0.9745
 4381SOL     OW24778   3.579   1.910   6.408  0.6932 -0.1046  0.3578
 4381SOL    HW124779   3.513   1.897   6.476  0.5176  0.1619  0.2392
 4381SOL    HW224780   3.599   2.003   6.401  2.2708 -0.3610  1.3923
 4382SOL     OW24781   0.496   2.524   8.616  0.2984 -0.3043 -0.2348
 4382SOL    HW124782   0.483   2.540   8.709 -0.9406 -0.3954 -0.3989
 4382SOL    HW224783   0.483   2.429   8.617  1.6679 -0.5160 -1.2688
 4383SOL     OW24784   2.700   2.100  16.437 -1.0511 -0.8677 -0.7251
 4383SOL    HW124785   2.706   2.023  16.494  1.0707  1.2941  2.0109
 4383SOL    HW224786   2.736   2.169  16.492 -0.9846 -1.9161  0.5497
 4384SOL     OW24787   2.323   2.507   6.431 -0.0317 -0.6984 -0.5052
 4384SOL    HW124788   2.283   2.585   6.469 -3.3200 -3.1587  0.9782
 4384SOL    HW224789   2.245   2.456   6.410 -0.7187  0.1782 -0.0970
 4385SOL     OW24790   1.429   2.234  16.704  0.1483  0.6670 -0.1692
 4385SOL    HW124791   1.452   2.219  16.613  0.1542  0.7718 -0.1853
 4385SOL    HW224792   1.337   2.209  16.701 -0.1233  2.1203 -3.8039
 4386SOL     OW24793   2.196   2.202   8.775  0.4296  0.1975  0.1992
 4386SOL    HW124794   2.244   2.145   8.835  0.3691  1.2327  1.2347
 4386SOL    HW224795   2.130   2.141   8.741 -1.8529  2.7124  0.1122
 4387SOL     OW24796   1.954   2.088   7.517  0.3192  0.2394 -0.2496
 4387SOL    HW124797   1.930   2.006   7.559  0.7873  0.1997 -0.0523
 4387SOL    HW224798   2.040   2.100   7.558  0.7330  2.3670 -1.7313
 4388SOL     OW24799   2.975   4.418   6.445  0.2492 -0.4197  0.3825
 4388SOL    HW124800   2.903   4.357   6.426 -0.5290  0.0824  1.6603
 4388SOL    HW224801   2.962   4.470   6.366 -0.2896 -3.1318 -1.3311
 4389SOL     OW24802   0.551   3.123   2.303  0.1960  0.1348 -0.6016
 4389SOL    HW124803   0.544   3.137   2.208 -0.0481 -1.0184 -0.7533
 4389SOL    HW224804   0.465   3.082   2.308  0.6206 -0.6939 -0.0974
 4390SOL     OW24805   4.634   1.350   4.257 -0.2093  0.7906 -0.1367
 4390SOL    HW124806   4.714   1.298   4.271 -1.1987 -0.5333  0.6033
 4390SOL    HW224807   4.576   1.301   4.316  1.0015 -0.1999  0.2493
 4391SOL     OW24808   3.536   0.947   2.794  0.3852  0.1812 -0.5473
 4391SOL    HW124809   3.559   0.877   2.855  1.1696 -0.2010 -1.2874
 4391SOL    HW224810   3.615   0.950   2.740  1.5902  0.9239  1.2605
 4392SOL     OW24811   4.487   3.230   4.850 -0.3942 -0.0014 -0.4399
 4392SOL    HW124812   4.484   3.302   4.913  0.6477 -0.6720  0.3622
 4392SOL    HW224813   4.414   3.251   4.791 -0.8185 -1.0889 -0.2981
 4393SOL     OW24814   3.691   2.727  13.258 -0.0854  0.1863 -0.3789
 4393SOL    HW124815   3.750   2.797  13.284  0.5017  0.3245 -2.0446
 4393SOL    HW224816   3.623   2.761  13.200  1.1381  0.2810 -1.7850
 4394SOL     OW24817   2.101   4.533   5.353  0.4291  0.2904 -0.1295
 4394SOL    HW124818   2.021   4.585   5.361 -0.4683 -0.9352 -1.4012
 4394SOL    HW224819   2.100   4.492   5.440  1.1804 -0.2245 -0.3644
 4395SOL     OW24820   3.225   1.769   3.657 -0.5460  0.4717  0.2536
 4395SOL    HW124821   3.180   1.731   3.582  0.1062  0.0064  0.1004
 4395SOL    HW224822   3.147   1.793   3.707  0.1969  2.8830  0.2858
 4396SOL     OW24823   0.278   2.668   7.322  0.7884  0.3571  0.3047
 4396SOL    HW124824   0.203   2.614   7.297  1.0430  0.4527 -0.6303
 4396SOL    HW224825   0.334   2.673   7.245  0.6037  1.7939  0.2653
 4397SOL     OW24826   2.097   1.488   4.315  0.0942  0.7492  0.0479
 4397SOL    HW124827   2.165   1.502   4.381 -0.7248 -3.1336  1.6973
 4397SOL    HW224828   2.157   1.481   4.241  1.9403  2.6444  1.3387
 4398SOL     OW24829   0.197   2.880   2.582 -0.0352 -0.2185  0.1077
 4398SOL    HW124830   0.262   2.860   2.649  1.1557  0.3791 -0.8576
 4398SOL    HW224831   0.175   2.791   2.555 -1.5052 -0.1319  1.0293
 4399SOL     OW24832   0.486   3.435  15.836  0.3455  0.3467  0.3034
 4399SOL    HW124833   0.564   3.490  15.845  0.7517  0.0039 -1.2335
 4399SOL    HW224834   0.504   3.395  15.751  0.5372 -0.3111  0.6453
 4400SOL     OW24835   2.922   1.394   6.303 -0.3003  0.5878  0.6243
 4400SOL    HW124836   2.910   1.489   6.302  0.4904  0.6793 -0.6685
 4400SOL    HW224837   2.831   1.367   6.316 -1.0637  3.4101  1.2272
 4401SOL     OW24838   1.752   1.243   9.377  0.3260  0.4251 -0.5349
 4401SOL    HW124839   1.693   1.318   9.369  0.5495  0.6253 -0.3131
 4401SOL    HW224840   1.779   1.257   9.468 -0.3986 -2.2961  0.1114
 4402SOL     OW24841   4.070   2.700   9.404 -0.2822  0.0235 -0.2216
 4402SOL    HW124842   4.158   2.720   9.372 -0.8450  0.6023 -1.4135
 4402SOL    HW224843   4.095   2.665   9.490 -2.3180 -1.9521 -0.4074
 4403SOL     OW24844   1.805   2.759   5.383 -0.8524  0.2891 -0.2652
 4403SOL    HW124845   1.828   2.675   5.343  0.6710  0.0828  1.0383
 4403SOL    HW224846   1.725   2.739   5.431 -0.7665  2.1250  0.6599
 4404SOL     OW24847   4.697   2.517   6.565  0.1680 -0.6698  0.3442
 4404SOL    HW124848   4.658   2.571   6.496  1.7275 -1.3061 -1.0467
 4404SOL    HW224849   4.694   2.429   6.526 -1.4621 -0.7997  0.7421
 4405SOL     OW24850   4.496   3.683   3.620 -0.4768  0.4297  0.3554
 4405SOL    HW124851   4.566   3.621   3.598 -0.2938  0.9942 -0.6269
 4405SOL    HW224852   4.532   3.745   3.683 -0.1789  0.1288  0.4832
 4406SOL     OW24853   0.995   1.389   8.688  0.0219  0.1848  0.4074
 4406SOL    HW124854   0.903   1.406   8.707 -0.5780 -1.5868 -0.9360
 4406SOL    HW224855   1.019   1.470   8.643  1.8260 -1.3739 -1.4637
 4407SOL     OW24856   0.322   0.763   8.947  0.1069  0.5093 -0.3152
 4407SOL    HW124857   0.319   0.741   9.040  2.2489 -1.3675 -0.6654
 4407SOL    HW224858   0.413   0.789   8.928  0.2056  1.8213  2.0779
 4408SOL     OW24859   0.507   3.691   5.824 -0.0807  0.8317 -0.2155
 4408SOL    HW124860   0.427   3.703   5.773 -0.5912  1.1425  0.6662
 4408SOL    HW224861   0.499   3.769   5.878 -1.3514 -0.0331  0.8706
 4409SOL     OW24862   2.543   4.059  13.662 -0.6314  0.3467  0.2598
 4409SOL    HW124863   2.481   4.048  13.734 -0.4390 -1.5759  0.1457
 4409SOL    HW224864   2.502   4.007  13.593  3.4426 -0.2537 -1.7349
 4410SOL     OW24865   3.739   1.725   2.211 -0.2833  0.4667 -0.5189
 4410SOL    HW124866   3.823   1.715   2.167 -0.2962  0.5564 -0.5619
 4410SOL    HW224867   3.747   1.662   2.283 -0.5199  4.6915  3.1597
 4411SOL     OW24868   1.578   1.600   2.586 -0.0436 -0.0824 -0.2126
 4411SOL    HW124869   1.521   1.677   2.579 -0.5123 -0.2693  1.5158
 4411SOL    HW224870   1.523   1.540   2.637 -1.0242  1.3461  0.4104
 4412SOL     OW24871   3.955   4.118   2.577  0.5922 -0.6235 -0.4213
 4412SOL    HW124872   4.010   4.151   2.648 -0.9830 -0.2070  0.5845
 4412SOL    HW224873   3.880   4.077   2.619 -0.1220 -0.1486 -1.2461
 4413SOL     OW24874   2.905   3.240   1.807 -0.2551 -0.5519  0.4850
 4413SOL    HW124875   2.920   3.233   1.712  0.0757 -0.5218  0.5335
 4413SOL    HW224876   2.946   3.326   1.817  1.9671 -1.8747  2.6756
 4414SOL     OW24877   4.703   1.509  17.239  0.0187 -0.0684  0.9493
 4414SOL    HW124878   4.625   1.457  17.221 -0.0711  0.1164  0.8049
 4414SOL    HW224879   4.695   1.520  17.334  2.3908  1.4497  0.9709
 4415SOL     OW24880   0.000   2.340   8.986  0.4779  0.1363  0.0786
 4415SOL    HW124881   0.083   2.313   9.025 -0.0154 -0.8515  0.4386
 4415SOL    HW224882   4.715   2.259   8.942  3.1937 -0.1275 -0.9705
 4416SOL     OW24883   2.102   4.570   7.960 -0.4545 -0.1411 -0.5217
 4416SOL    HW124884   2.093   4.665   7.968 -0.7444 -0.1135 -1.1245
 4416SOL    HW224885   2.191   4.575   7.924 -0.7737  1.9424 -1.0240
 4417SOL     OW24886   3.280   1.481  10.889 -1.3676 -0.2276  0.1340
 4417SOL    HW124887   3.294   1.420  10.962  0.5059 -0.9600 -0.8572
 4417SOL    HW224888   3.211   1.444  10.835 -1.0891 -0.0235 -0.3538
 4418SOL     OW24889   0.962   1.268   7.580 -0.1026  0.4841 -0.1962
 4418SOL    HW124890   0.936   1.197   7.522 -1.2505  1.4498 -0.8698
 4418SOL    HW224891   0.940   1.226   7.663  0.6962  1.1403  0.3480
 4419SOL     OW24892   4.524   1.567  13.634  1.3879  0.5021 -0.2270
 4419SOL    HW124893   4.586   1.496  13.651 -2.7225 -3.6214 -2.5050
 4419SOL    HW224894   4.581   1.643  13.631  1.0552  0.8074  1.0763
 4420SOL     OW24895   1.034   3.385   3.783  0.1075  0.3842  0.2863
 4420SOL    HW124896   0.978   3.315   3.815  0.6079  0.0959  0.5192
 4420SOL    HW224897   1.116   3.362   3.826 -0.7981 -3.0324  0.2106
 4421SOL     OW24898   0.177   3.197  15.112  0.2726  0.8604 -0.5848
 4421SOL    HW124899   0.176   3.278  15.162  0.8306  1.6198 -1.7855
 4421SOL    HW224900   0.235   3.218  15.038 -0.2105 -2.4044 -1.8805
 4422SOL     OW24901   4.044   1.047   3.275  0.1774 -0.1982  0.0076
 4422SOL    HW124902   4.117   0.994   3.308  0.6618  0.7537  0.4600
 4422SOL    HW224903   3.981   0.980   3.250 -0.4699  0.2482  0.4372
 4423SOL     OW24904   2.061   3.245   5.013 -0.4469 -0.1681  0.2240
 4423SOL    HW124905   2.123   3.179   4.983 -1.7954 -1.8501  1.1766
 4423SOL    HW224906   2.116   3.303   5.066  1.1959 -1.1359 -0.4229
 4424SOL     OW24907   2.048   2.748   6.870  0.7172 -0.3136  0.0208
 4424SOL    HW124908   1.984   2.809   6.831 -0.1044 -0.5337  1.0326
 4424SOL    HW224909   2.133   2.785   6.847  0.3247  0.2594 -0.5227
 4425SOL     OW24910   2.061   3.785   4.857  0.0438  0.1805  0.0595
 4425SOL    HW124911   2.095   3.770   4.945  0.6299 -0.4407 -0.2751
 4425SOL    HW224912   2.088   3.876   4.845 -0.7417  0.8681  3.5825
 4426SOL     OW24913   0.555   1.792  14.590  0.2124  0.2200  0.2322
 4426SOL    HW124914   0.518   1.748  14.666 -0.2344 -1.4616 -0.9802
 4426SOL    HW224915   0.646   1.765  14.606  0.6075  0.5873 -1.3977
 4427SOL     OW24916   3.722   0.310   4.477 -0.2182 -0.3368  0.0403
 4427SOL    HW124917   3.714   0.350   4.390 -0.6870 -0.2323  0.1287
 4427SOL    HW224918   3.757   0.223   4.455  0.3397 -0.3314  0.9307
 4428SOL     OW24919   1.899   2.766   6.451 -0.1758  0.2616 -0.0844
 4428SOL    HW124920   1.873   2.851   6.415 -0.0781  0.9672  1.5337
 4428SOL    HW224921   1.832   2.755   6.518  0.3536  0.0903  0.4122
 4429SOL     OW24922   3.929   0.899   4.530 -0.1880 -0.7190 -0.1924
 4429SOL    HW124923   3.997   0.907   4.464  0.5656 -1.7387  0.4476
 4429SOL    HW224924   3.849   0.879   4.481 -1.5551 -0.1579  1.7855
 4430SOL     OW24925   1.463   1.281   5.160  0.1847 -0.0400 -0.8514
 4430SOL    HW124926   1.509   1.269   5.243 -1.9183  0.3661  0.3662
 4430SOL    HW224927   1.532   1.259   5.098  0.1042  0.1715 -1.0199
 4431SOL     OW24928   3.915   0.103   4.860  0.0795 -0.3010  0.0108
 4431SOL    HW124929   3.951   0.159   4.929  2.4025 -2.1782  0.3018
 4431SOL    HW224930   3.891   0.174   4.799  0.7396  0.3897  0.5600
 4432SOL     OW24931   1.150   3.956   9.172 -0.3433 -0.0125 -0.7134
 4432SOL    HW124932   1.091   3.907   9.114 -0.0617  0.9017 -1.7575
 4432SOL    HW224933   1.237   3.951   9.133  0.2693  2.5594  0.3295
 4433SOL     OW24934   3.468   3.205   2.009  0.5781 -0.2395 -0.2211
 4433SOL    HW124935   3.455   3.295   2.038  1.1009  0.0564 -0.9286
 4433SOL    HW224936   3.484   3.212   1.915 -0.1569 -0.0682 -0.3295
 4434SOL     OW24937   3.485   0.163   8.749 -0.7203  0.0882 -0.6788
 4434SOL    HW124938   3.401   0.189   8.787  1.6095  1.8856  3.2304
 4434SOL    HW224939   3.498   0.073   8.778  0.9126  0.3947 -0.4895
 4435SOL     OW24940   0.482   2.948   5.813  0.2058  0.2066  0.4902
 4435SOL    HW124941   0.415   2.880   5.823  2.0369 -1.8266 -1.0013
 4435SOL    HW224942   0.447   3.010   5.878 -2.5442 -1.8755  0.9713
 4436SOL     OW24943   3.407   3.534   3.850 -0.3988 -0.1630 -0.3773
 4436SOL    HW124944   3.489   3.485   3.845 -0.1928  0.1508 -0.0782
 4436SOL    HW224945   3.431   3.627   3.846  0.9270 -0.4986 -0.3333
 4437SOL     OW24946   0.153   2.151   7.436  0.0164 -0.2055  0.1290
 4437SOL    HW124947   0.213   2.223   7.458 -1.3895  0.8987  0.2868
 4437SOL    HW224948   0.107   2.200   7.369  0.6755 -0.5395 -0.5748
 4438SOL     OW24949   2.116   4.629   6.646  0.3164  0.6362  0.1028
 4438SOL    HW124950   2.192   4.662   6.694  1.4460 -1.5721 -0.1863
 4438SOL    HW224951   2.060   4.701   6.677 -0.9446  0.8359 -2.6628
 4439SOL     OW24952   2.901   3.837  10.819  0.5174  0.0303  0.0100
 4439SOL    HW124953   2.990   3.814  10.844 -0.0394 -1.3816  0.7101
 4439SOL    HW224954   2.908   3.931  10.835  0.1146  0.1374 -0.4549
 4440SOL     OW24955   1.515   1.295  13.052 -0.1424 -0.1298  0.5531
 4440SOL    HW124956   1.444   1.238  13.022 -0.6905  1.0124 -0.3173
 4440SOL    HW224957   1.590   1.236  13.048  1.1026  1.5191 -0.5126
 4441SOL     OW24958   2.006   2.006   2.503 -0.0676  0.2697 -0.4104
 4441SOL    HW124959   1.933   2.025   2.561  0.2024  1.7972 -0.5533
 4441SOL    HW224960   1.963   1.975   2.423 -0.1313  0.5614 -0.4902
 4442SOL     OW24961   1.257   1.042  11.517 -0.1334 -0.3597 -0.2996
 4442SOL    HW124962   1.176   1.087  11.493  0.3529  1.1675  0.9477
 4442SOL    HW224963   1.290   1.087  11.594  1.0981 -1.8346  0.0281
 4443SOL     OW24964   1.088   2.849   4.344 -0.5034 -0.5684  0.1969
 4443SOL    HW124965   1.051   2.772   4.386  0.7185 -0.0430  2.2207
 4443SOL    HW224966   1.179   2.822   4.329  0.4439  2.2007  0.7695
 4444SOL     OW24967   2.283   3.254  10.146 -0.6706 -0.0138  0.2127
 4444SOL    HW124968   2.229   3.331  10.129  1.1185  1.1172 -0.3414
 4444SOL    HW224969   2.213   3.194  10.121 -0.8805 -0.8166  2.7579
 4445SOL     OW24970   2.079   2.296   9.840 -0.0908 -0.2261  0.3707
 4445SOL    HW124971   2.087   2.288   9.935 -1.1131 -2.3186  0.2781
 4445SOL    HW224972   2.009   2.360   9.830 -0.1813 -0.7389 -2.4578
 4446SOL     OW24973   0.517   2.771   4.269  0.3695 -0.0766 -0.0031
 4446SOL    HW124974   0.425   2.755   4.245  0.9027 -1.0043 -1.4337
 4446SOL    HW224975   0.554   2.686   4.245 -1.4908 -1.3825  1.7308
 4447SOL     OW24976   1.252   2.774   0.624 -0.6257  0.0997 -0.4090
 4447SOL    HW124977   1.222   2.755   0.713 -2.8615  2.5336 -0.6605
 4447SOL    HW224978   1.172   2.808   0.586 -0.4400  0.4442 -0.4878
 4448SOL     OW24979   1.043   4.690  13.125 -0.4253 -0.0063 -0.4115
 4448SOL    HW124980   1.116   0.010  13.133 -0.7391  0.1648  1.0069
 4448SOL    HW224981   0.987   4.721  13.196 -0.2958 -0.3182 -0.1723
 4449SOL     OW24982   0.213   4.500   2.732 -0.1430  0.1775  0.1024
 4449SOL    HW124983   0.279   4.519   2.666  0.4337 -0.3270  0.5218
 4449SOL    HW224984   0.260   4.524   2.812  0.9980 -0.2476 -0.4321
 4450SOL     OW24985   1.666   1.318   4.816 -0.2194 -0.3802  0.2731
 4450SOL    HW124986   1.580   1.361   4.811  1.0719  2.2878  0.9614
 4450SOL    HW224987   1.713   1.400   4.830 -1.8667  0.5677  0.3281
 4451SOL     OW24988   4.657   0.527   4.797  0.1787 -0.2870 -0.1245
 4451SOL    HW124989   4.629   0.468   4.727  0.9357 -0.3835 -0.3517
 4451SOL    HW224990   4.669   0.459   4.864 -0.3746 -2.1235 -1.9009
 4452SOL     OW24991   4.580   3.741  10.570 -0.3453  0.0611 -0.0496
 4452SOL    HW124992   4.499   3.712  10.529 -0.5753 -2.3977  2.1633
 4452SOL    HW224993   4.546   3.830  10.576  0.4909  0.6463 -3.4403
 4453SOL     OW24994   0.044   2.634   8.964  0.0860  0.2136  0.1885
 4453SOL    HW124995   0.012   2.544   8.973  0.9260  0.1074  2.1214
 4453SOL    HW224996   0.062   2.663   9.053 -0.2907  0.9777  0.0145
 4454SOL     OW24997   0.562   2.232   2.675 -0.0924 -0.6604  0.3336
 4454SOL    HW124998   0.528   2.318   2.697 -0.1271 -1.3157  2.8904
 4454SOL    HW224999   0.637   2.232   2.734  0.7686  1.0858 -0.7733
 4455SOL     OW25000   3.435   2.335  13.475  0.5571 -0.3794  0.2166
 4455SOL    HW125001   3.484   2.397  13.422 -0.2712  0.7179  0.7297
 4455SOL    HW225002   3.344   2.347  13.448  0.6882 -0.9005 -0.4556
 4456SOL     OW25003   1.575   2.557  16.765  0.1402 -1.1514  0.1276
 4456SOL    HW125004   1.570   2.515  16.679  1.3095 -1.7148  0.3461
 4456SOL    HW225005   1.503   2.620  16.761  1.6308  0.4283 -1.3547
 4457SOL     OW25006   1.768   4.365   4.806 -0.1733 -0.1440 -0.1184
 4457SOL    HW125007   1.805   4.325   4.727 -1.5988  2.2038 -1.9716
 4457SOL    HW225008   1.813   4.449   4.801  0.3237 -0.3934  0.1473
 4458SOL     OW25009   0.115   2.303   6.368  0.2370  0.8796 -0.3554
 4458SOL    HW125010   0.203   2.293   6.332  0.4644  0.0603  0.4157
 4458SOL    HW225011   0.098   2.393   6.341 -2.5055  0.2161 -0.8825
 4459SOL     OW25012   4.509   1.545  17.676 -0.5364 -0.1158 -0.1653
 4459SOL    HW125013   4.561   1.501  17.608  1.4523 -2.1196  2.6904
 4459SOL    HW225014   4.422   1.512  17.654  0.1162 -0.2864 -2.4982
 4460SOL     OW25015   1.655   1.768  13.596 -0.3262  0.2872  0.4303
 4460SOL    HW125016   1.660   1.863  13.599  0.4597  0.2519  0.0658
 4460SOL    HW225017   1.563   1.756  13.621 -0.4897 -0.2542 -0.4451
 4461SOL     OW25018   0.402   2.835  12.922  0.6218  0.5427 -0.6052
 4461SOL    HW125019   0.426   2.915  12.875 -1.9762  1.2521 -0.7378
 4461SOL    HW225020   0.307   2.829  12.907  0.7074 -1.1671 -0.5287
 4462SOL     OW25021   1.752   1.309   2.229 -1.2572  0.1845 -0.1781
 4462SOL    HW125022   1.792   1.384   2.274 -1.3027  0.2517 -0.2486
 4462SOL    HW225023   1.659   1.326   2.248 -1.8003 -1.1176 -1.7030
 4463SOL     OW25024   3.492   0.112   1.069 -0.2420 -0.0688 -0.3937
 4463SOL    HW125025   3.518   0.175   1.002  2.2126 -1.7844 -1.0406
 4463SOL    HW225026   3.446   0.047   1.016 -0.2237  0.6053 -1.2457
 4464SOL     OW25027   2.150   2.924  10.137  0.4201 -0.3538  0.1923
 4464SOL    HW125028   2.147   2.980  10.214  0.4236 -0.5641  0.3437
 4464SOL    HW225029   2.127   2.989  10.070  1.2120  1.2601  1.4712
 4465SOL     OW25030   0.997   3.378   5.383  0.5562  0.6291 -0.0508
 4465SOL    HW125031   0.994   3.469   5.412  0.8717  0.0102  1.8989
 4465SOL    HW225032   1.082   3.351   5.417  0.1792 -0.5075 -0.0294
 4466SOL     OW25033   3.427   2.441   1.075  0.6280 -0.0629 -0.8167
 4466SOL    HW125034   3.446   2.526   1.036  0.3750  0.0675 -0.6594
 4466SOL    HW225035   3.469   2.444   1.161  1.8673  0.0199 -1.4301
 4467SOL     OW25036   3.415   4.282   9.759 -0.1016 -0.2703 -0.1687
 4467SOL    HW125037   3.358   4.359   9.759 -1.6948 -1.4209 -1.0102
 4467SOL    HW225038   3.359   4.212   9.725 -0.7531  0.7527 -1.2195
 4468SOL     OW25039   3.186   4.534  13.364 -0.5652  1.0826  0.0060
 4468SOL    HW125040   3.116   4.471  13.345  0.4845  0.4191 -1.6323
 4468SOL    HW225041   3.173   4.548  13.457  0.5890  0.0659  0.3169
 4469SOL     OW25042   1.053   2.172  13.729 -0.5338  0.0462 -0.1406
 4469SOL    HW125043   1.042   2.231  13.655  1.0346  0.9789  0.3602
 4469SOL    HW225044   0.981   2.200  13.785  0.7880  3.9043 -0.3359
 4470SOL     OW25045   3.618   4.058   8.979  0.2199 -0.5444  0.1150
 4470SOL    HW125046   3.656   4.021   9.058 -1.0840 -3.5385 -0.6540
 4470SOL    HW225047   3.690   4.085   8.922 -0.4748 -0.3036 -0.6591
 4471SOL     OW25048   0.196   2.637  14.869 -0.4646 -0.1647  0.1116
 4471SOL    HW125049   0.186   2.562  14.810  1.4151  0.1845 -0.6501
 4471SOL    HW225050   0.130   2.622  14.937  0.7346 -3.6866  0.4717
 4472SOL     OW25051   2.809   4.031   9.946  0.2990 -0.2171  0.1180
 4472SOL    HW125052   2.754   4.100   9.908  0.2429 -0.8957 -1.0417
 4472SOL    HW225053   2.820   4.072  10.031  0.3282 -1.8447  0.8845
 4473SOL     OW25054   1.039   4.439   7.940  0.6968 -0.4889  0.6228
 4473SOL    HW125055   1.021   4.521   7.985  1.6332 -0.7455  1.4582
 4473SOL    HW225056   1.046   4.453   7.846 -0.6534 -1.7708  0.3085
 4474SOL     OW25057   4.251   0.910  16.222 -0.0540  0.2244 -0.5002
 4474SOL    HW125058   4.307   0.848  16.268 -0.0377  1.0749  0.6267
 4474SOL    HW225059   4.294   0.988  16.256 -0.8025 -0.2942  1.6305
 4475SOL     OW25060   4.426   4.297   2.506  0.5853 -0.3672 -0.1568
 4475SOL    HW125061   4.403   4.334   2.420 -2.1426 -0.2475  0.6079
 4475SOL    HW225062   4.434   4.204   2.486  0.8834 -0.6135  1.1209
 4476SOL     OW25063   1.196   3.994   8.520  0.2393  0.2075  0.3255
 4476SOL    HW125064   1.207   4.033   8.607  0.5891  1.2454 -0.1862
 4476SOL    HW225065   1.112   4.026   8.487  0.4369  1.2015  0.7654
 4477SOL     OW25066   2.156   3.667  13.003  0.1253  0.6318 -0.4421
 4477SOL    HW125067   2.192   3.754  13.021  0.9670  0.5258 -1.6048
 4477SOL    HW225068   2.085   3.665  13.068  0.1598 -0.8893 -0.4584
 4478SOL     OW25069   1.153   2.039   7.191  0.1346  0.0617  0.3301
 4478SOL    HW125070   1.123   1.964   7.243 -0.1788 -1.0934 -1.5190
 4478SOL    HW225071   1.200   2.082   7.262 -0.5990  0.1175  0.7773
 4479SOL     OW25072   3.551   0.826  13.822 -0.4298  0.2612 -0.2144
 4479SOL    HW125073   3.519   0.804  13.910 -0.5141  2.0943  0.2201
 4479SOL    HW225074   3.578   0.916  13.839 -0.2699 -0.3405  2.8234
 4480SOL     OW25075   1.639   3.828   8.396 -0.0596 -0.1458 -0.3185
 4480SOL    HW125076   1.560   3.782   8.367 -1.3827  1.4503  0.7428
 4480SOL    HW225077   1.608   3.854   8.482 -1.8279 -1.5677 -0.5160
 4481SOL     OW25078   4.652   1.185   7.181  0.6956  0.0263  0.6004
 4481SOL    HW125079   4.643   1.251   7.112 -0.0497 -0.8206 -0.1199
 4481SOL    HW225080   4.601   1.118   7.135  1.5080  1.7282 -2.7890
 4482SOL     OW25081   0.771   2.592   5.720 -1.0095  0.3935 -0.6521
 4482SOL    HW125082   0.771   2.629   5.808  1.0625 -1.7823  0.2617
 4482SOL    HW225083   0.747   2.504   5.749  2.3077  0.6146  2.8724
 4483SOL     OW25084   3.197   3.741  15.949  0.0209  0.5479 -0.5063
 4483SOL    HW125085   3.192   3.646  15.943  0.4198  0.6262 -1.9938
 4483SOL    HW225086   3.192   3.763  15.856  1.6803 -0.9941 -0.9431
 4484SOL     OW25087   1.838   2.881   9.546 -0.3819  0.9046  0.1905
 4484SOL    HW125088   1.892   2.812   9.584 -2.4832 -1.4749 -1.1933
 4484SOL    HW225089   1.888   2.955   9.582 -0.4011  1.1971 -0.3893
 4485SOL     OW25090   2.580   4.082   2.785  0.3511  0.3547  0.3504
 4485SOL    HW125091   2.615   4.034   2.860 -0.1178 -1.2409 -0.4454
 4485SOL    HW225092   2.493   4.042   2.792  0.0775  0.8407 -0.2920
 4486SOL     OW25093   3.939   0.068  11.332  0.8665  0.3356 -0.8696
 4486SOL    HW125094   3.873   0.006  11.301 -0.3821  1.2372 -0.0033
 4486SOL    HW225095   3.926   0.146  11.277  0.1210  0.3624 -0.6640
 4487SOL     OW25096   1.822   3.084   8.932  0.8424 -0.2459  0.1073
 4487SOL    HW125097   1.779   3.046   9.008  2.9987 -0.4582  1.2219
 4487SOL    HW225098   1.901   3.031   8.920  2.0736  1.0959  2.2654
 4488SOL     OW25099   3.291   4.047   7.242  0.0026 -0.4176 -0.0371
 4488SOL    HW125100   3.362   4.109   7.259  0.4076 -1.1844  1.0155
 4488SOL    HW225101   3.238   4.102   7.184 -2.6945  0.3409  3.1561
 4489SOL     OW25102   2.049   1.449   4.826 -0.1120  0.4056  0.1776
 4489SOL    HW125103   1.973   1.498   4.794 -0.6543 -1.4939 -1.4390
 4489SOL    HW225104   2.052   1.484   4.915  0.6298 -1.4870  0.8780
 4490SOL     OW25105   0.512   0.652   3.425  0.4709  1.0732 -0.5824
 4490SOL    HW125106   0.583   0.699   3.467 -0.5520  1.3616  0.8033
 4490SOL    HW225107   0.454   0.651   3.501 -0.4763 -1.1016 -1.3089
 4491SOL     OW25108   2.172   1.046   9.556  0.0444  0.3685  0.3532
 4491SOL    HW125109   2.200   0.984   9.623 -1.1341  0.5821  1.0568
 4491SOL    HW225110   2.082   1.071   9.577  0.1617  1.3147 -0.2831
 4492SOL     OW25111   2.019   2.309  13.523  0.0691  0.2858  0.3949
 4492SOL    HW125112   2.001   2.258  13.445 -0.6170  0.2737  0.5639
 4492SOL    HW225113   2.084   2.370  13.488  1.7499 -1.5286  0.3338
 4493SOL     OW25114   2.328   2.879   3.792  0.6223  0.0931 -0.0454
 4493SOL    HW125115   2.409   2.906   3.834 -0.0125 -0.3051  1.4459
 4493SOL    HW225116   2.303   2.798   3.837 -2.8808  2.1620  1.7150
 4494SOL     OW25117   4.716   3.178   6.926  0.5938  0.6765 -0.1631
 4494SOL    HW125118   4.655   3.174   6.999 -0.8379 -1.8360 -1.4830
 4494SOL    HW225119   4.683   3.247   6.870  1.2502 -0.2256 -1.6530
 4495SOL     OW25120   2.968   0.899   2.417  0.1349  0.6046 -0.6403
 4495SOL    HW125121   2.930   0.836   2.356  1.5786  0.1304 -1.0660
 4495SOL    HW225122   3.052   0.854   2.430  0.1367  0.4839 -1.0830
 4496SOL     OW25123   1.036   0.201  14.999  0.2738  0.5527 -0.0071
 4496SOL    HW125124   0.941   0.189  15.007  0.6079 -0.3282  2.5941
 4496SOL    HW225125   1.066   0.190  15.089  0.4293  0.2099 -0.1005
 4497SOL     OW25126   3.495   4.211   4.230 -0.6934  0.0000  0.0568
 4497SOL    HW125127   3.470   4.163   4.309 -0.4472  0.1194  0.2094
 4497SOL    HW225128   3.415   4.215   4.177 -2.4908 -0.8927  2.7023
 4498SOL     OW25129   1.275   4.724  16.542  0.7597  0.2425 -0.2490
 4498SOL    HW125130   1.280   4.659  16.613 -1.4594  0.4260  0.0620
 4498SOL    HW225131   1.261   4.664  16.469  1.2997 -0.3045  0.0931
 4499SOL     OW25132   4.370   2.465   7.197 -0.3483  0.3930 -0.1201
 4499SOL    HW125133   4.339   2.386   7.241  0.9732 -0.4286 -0.6689
 4499SOL    HW225134   4.456   2.444   7.161 -0.4161 -0.7246  0.3604
 4500SOL     OW25135   3.085   0.179  12.735 -0.1480  0.0178  0.1236
 4500SOL    HW125136   3.142   0.183  12.658  0.3853  0.4237  0.5380
 4500SOL    HW225137   3.144   0.182  12.810  0.9448 -0.9949 -0.6990
 4501SOL     OW25138   2.862   2.514   2.571 -0.1862  0.1582 -0.6444
 4501SOL    HW125139   2.951   2.518   2.536 -0.5478  2.4416 -1.2850
 4501SOL    HW225140   2.815   2.456   2.510  0.4928 -0.8722 -0.1885
 4502SOL     OW25141   0.082   4.031   3.654  0.2621  0.4224 -0.2371
 4502SOL    HW125142   0.146   4.099   3.634  0.2025 -0.4243 -3.3186
 4502SOL    HW225143   0.053   4.008   3.566  2.5933  2.2225 -1.4736
 4503SOL     OW25144   2.739   3.190   8.413  0.1742  0.2653  0.5284
 4503SOL    HW125145   2.671   3.136   8.372  1.1311 -1.0283  0.6295
 4503SOL    HW225146   2.756   3.256   8.346  1.9142 -0.7875 -0.0908
 4504SOL     OW25147   4.221   0.487   5.689  0.3962 -0.2586 -0.0300
 4504SOL    HW125148   4.192   0.442   5.768 -0.0575 -1.5991 -0.9636
 4504SOL    HW225149   4.190   0.570   5.726 -0.7193 -2.2368  3.5024
 4505SOL     OW25150   1.997   1.381   1.414 -0.3673 -1.1051 -0.5335
 4505SOL    HW125151   2.066   1.398   1.478 -0.0384  1.3533 -1.5346
 4505SOL    HW225152   1.923   1.418   1.462  0.4508 -1.3726  0.9450
 4506SOL     OW25153   1.225   2.135  15.785 -0.2243  0.1300 -0.3828
 4506SOL    HW125154   1.189   2.206  15.732  1.7382 -0.3968 -2.4227
 4506SOL    HW225155   1.138   2.098  15.803 -0.9797  0.7156 -2.9012
 4507SOL     OW25156   4.560   1.088  12.007 -0.1366 -0.0010  0.2930
 4507SOL    HW125157   4.585   1.079  12.099  2.9840 -0.8626 -0.6504
 4507SOL    HW225158   4.493   1.155  12.015  0.1297  0.4445 -1.1747
 4508SOL     OW25159   1.957   1.818   0.571  0.0615  0.2017 -0.0181
 4508SOL    HW125160   2.006   1.738   0.551  0.9673  0.8151 -0.2278
 4508SOL    HW225161   1.867   1.797   0.548  0.4121 -3.7010  2.1817
 4509SOL     OW25162   0.001   3.415   8.020 -0.2041 -0.1912 -0.4200
 4509SOL    HW125163   4.710   3.324   8.027  0.0390 -0.3627 -1.4774
 4509SOL    HW225164   4.670   3.464   8.061 -1.1718 -1.6933 -0.2811
 4510SOL     OW25165   4.369   4.245   6.811 -0.1555 -0.5838  0.4088
 4510SOL    HW125166   4.456   4.282   6.825  0.0129 -0.1370 -1.7662
 4510SOL    HW225167   4.312   4.316   6.842 -0.5670 -0.2589 -1.0752
 4511SOL     OW25168   2.973   2.215   1.578  0.6138 -0.1525 -0.3259
 4511SOL    HW125169   2.977   2.120   1.586  0.5043 -0.3439 -2.3480
 4511SOL    HW225170   3.065   2.237   1.594  0.3113  0.8153  0.1007
 4512SOL     OW25171   0.470   1.252   1.350  0.0473  0.0039 -0.8392
 4512SOL    HW125172   0.416   1.265   1.429 -0.0684  1.2559 -1.1229
 4512SOL    HW225173   0.519   1.171   1.368 -0.1756 -0.0083 -0.2603
 4513SOL     OW25174   1.357   4.662   7.809 -0.2761 -0.1220  0.1700
 4513SOL    HW125175   1.394   4.575   7.824  0.6995  0.0990 -0.9833
 4513SOL    HW225176   1.293   4.649   7.879  0.0579 -0.8993  0.3293
 4514SOL     OW25177   2.326   2.192   1.392  0.0599 -0.4382 -0.9076
 4514SOL    HW125178   2.398   2.153   1.344 -0.3906 -0.9700 -1.1560
 4514SOL    HW225179   2.347   2.177   1.484 -0.6312 -1.3963 -0.9064
 4515SOL     OW25180   4.097   2.495   6.523 -0.2399 -0.5329 -0.3677
 4515SOL    HW125181   4.022   2.467   6.576  0.3500 -0.8926  0.2933
 4515SOL    HW225182   4.078   2.588   6.514  1.3189 -0.0527  1.1951
 4516SOL     OW25183   0.601   1.739   6.968 -0.4728  0.0743  0.0006
 4516SOL    HW125184   0.510   1.726   6.997  0.4486  1.2704  3.4889
 4516SOL    HW225185   0.594   1.834   6.963 -0.4388 -0.0387 -2.0568
 4517SOL     OW25186   0.678   1.792   6.397  0.3743 -0.3285 -0.5842
 4517SOL    HW125187   0.746   1.828   6.455 -0.9185  0.3411  0.5073
 4517SOL    HW225188   0.609   1.779   6.462  0.1260  1.2370 -0.5384
 4518SOL     OW25189   2.163   3.046   1.349  0.2906  0.3858 -0.2115
 4518SOL    HW125190   2.157   2.984   1.276  1.9102 -0.1698  0.1405
 4518SOL    HW225191   2.111   3.000   1.415 -1.3140  1.0726 -0.9750
 4519SOL     OW25192   2.878   3.417   9.432  0.0123 -0.0781 -0.0532
 4519SOL    HW125193   2.818   3.347   9.458  2.6650 -1.7682  1.5121
 4519SOL    HW225194   2.809   3.479   9.412  1.6048  2.1135  1.2447
 4520SOL     OW25195   0.837   2.793  16.537 -0.6503  0.1297 -0.0970
 4520SOL    HW125196   0.831   2.870  16.593 -1.4825 -0.0894  0.1136
 4520SOL    HW225197   0.762   2.800  16.477  0.0649  0.5995 -0.9509
 4521SOL     OW25198   3.394   1.229   5.462 -0.1944  0.4345  0.0562
 4521SOL    HW125199   3.318   1.252   5.516  0.6162 -0.1034  1.4512
 4521SOL    HW225200   3.359   1.255   5.377  1.1621  0.1219 -0.6021
 4522SOL     OW25201   3.642   3.706  16.717 -0.2955  0.1389 -0.0566
 4522SOL    HW125202   3.588   3.627  16.712  1.0025 -0.7953  0.7379
 4522SOL    HW225203   3.591   3.772  16.764  3.1797  1.8750  1.2535
 4523SOL     OW25204   3.389   0.049   0.550 -0.3658  0.5229  0.2030
 4523SOL    HW125205   3.344   0.026   0.468 -1.7313 -1.3355  1.4536
 4523SOL    HW225206   3.465   0.102   0.527 -2.1788  0.8968 -5.0874
 4524SOL     OW25207   0.440   3.059   0.689  0.4484  0.1433  0.1775
 4524SOL    HW125208   0.447   2.965   0.671 -0.0028 -0.1652  1.6030
 4524SOL    HW225209   0.357   3.081   0.647  0.3174  1.4314  1.0983
 4525SOL     OW25210   2.216   4.013   4.824 -0.9086 -0.1332  0.2853
 4525SOL    HW125211   2.310   4.010   4.845 -1.0927  0.3051  1.1217
 4525SOL    HW225212   2.221   4.008   4.728 -0.1033 -1.4768  0.3920
 4526SOL     OW25213   1.507   0.828   2.688  0.3016 -0.7612 -0.4664
 4526SOL    HW125214   1.422   0.788   2.707  0.0076 -0.5209 -1.2949
 4526SOL    HW225215   1.524   0.860   2.776  2.2885 -1.0235 -0.7414
 4527SOL     OW25216   0.004   0.515   0.943  0.0906  0.6978 -0.4681
 4527SOL    HW125217   0.074   0.572   0.911  0.3829  1.6654  1.8364
 4527SOL    HW225218   4.717   0.470   0.864  0.0822  1.0323 -0.6576
 4528SOL     OW25219   3.615   0.455   8.813  0.4238 -0.1812  0.3261
 4528SOL    HW125220   3.588   0.497   8.894  1.7646  0.7762  0.2704
 4528SOL    HW225221   3.708   0.474   8.817 -0.0137  1.9939  0.1090
 4529SOL     OW25222   4.479   0.048   8.037  0.4196 -0.7462  1.3345
 4529SOL    HW125223   4.400   0.102   8.041  1.0163  0.3205 -1.1384
 4529SOL    HW225224   4.442   4.703   8.014 -1.0870  0.1669  0.2956
 4530SOL     OW25225   3.054   4.146   2.556 -0.0313 -0.0130 -0.0739
 4530SOL    HW125226   2.970   4.122   2.593 -0.5255 -0.6079 -1.5717
 4530SOL    HW225227   3.042   4.135   2.461 -2.0916 -2.5595  0.4913
 4531SOL     OW25228   2.991   1.394   5.080  0.1194 -0.9080 -0.1431
 4531SOL    HW125229   3.083   1.366   5.083  0.5601  0.4895 -1.0184
 4531SOL    HW225230   2.959   1.312   5.041 -1.8596  0.6043 -1.6683
 4532SOL     OW25231   4.112   3.030   6.836  0.2668 -0.3018 -0.4006
 4532SOL    HW125232   4.194   3.050   6.881  0.2298  0.2764 -0.5858
 4532SOL    HW225233   4.054   3.095   6.876  2.4361  0.0896  2.0548
 4533SOL     OW25234   3.980   3.227   5.808 -0.4534 -0.7658  0.3430
 4533SOL    HW125235   3.891   3.253   5.783 -0.3428 -1.8909 -1.2105
 4533SOL    HW225236   3.982   3.230   5.904  0.2876 -0.8741  0.3317
 4534SOL     OW25237   2.653   1.594   5.957 -0.7456 -0.1572  0.4313
 4534SOL    HW125238   2.737   1.636   5.977 -1.1876  0.4164  1.1003
 4534SOL    HW225239   2.603   1.674   5.940  0.9527  0.9451  0.5354
 4535SOL     OW25240   3.227   0.237   8.786 -0.3572  0.5237  0.1336
 4535SOL    HW125241   3.144   0.208   8.749  0.0762  1.2010 -1.3443
 4535SOL    HW225242   3.219   0.215   8.879  0.8623  1.1501  0.3839
 4536SOL     OW25243   3.357   0.672   3.583 -0.5297 -0.5163 -0.5791
 4536SOL    HW125244   3.341   0.580   3.561 -1.1083 -0.5926  0.1710
 4536SOL    HW225245   3.278   0.695   3.632 -0.0018 -2.3933  1.1942
 4537SOL     OW25246   3.405   3.941  11.893  0.2913 -0.2628 -0.2499
 4537SOL    HW125247   3.397   3.849  11.918  2.1534 -1.1133 -2.8107
 4537SOL    HW225248   3.380   3.981  11.977  3.8345  1.1200  0.1470
 4538SOL     OW25249   4.443   3.821   7.217  0.4062  0.1529 -0.1289
 4538SOL    HW125250   4.442   3.915   7.237  0.4514  0.1771 -0.2405
 4538SOL    HW225251   4.349   3.808   7.208  0.4767 -0.0829 -0.5505
 4539SOL     OW25252   2.077   2.778   8.747  0.2665 -0.2508 -0.0428
 4539SOL    HW125253   2.122   2.732   8.819  2.9081  1.2189 -0.7523
 4539SOL    HW225254   2.024   2.711   8.704  0.2703 -1.1926  1.3940
 4540SOL     OW25255   2.595   0.220   5.149 -0.2144  0.0869 -0.4859
 4540SOL    HW125256   2.690   0.218   5.148 -0.2246 -0.3084 -0.6962
 4540SOL    HW225257   2.571   0.142   5.098 -0.3463 -0.9306  1.1185
 4541SOL     OW25258   3.808   3.295  11.970  0.2629  0.1053  0.1693
 4541SOL    HW125259   3.758   3.314  12.049 -0.2735  1.6865 -0.5579
 4541SOL    HW225260   3.892   3.340  11.984  1.9761 -1.4440 -4.9501
 4542SOL     OW25261   2.244   1.515   4.556  0.2190 -0.0487  0.0224
 4542SOL    HW125262   2.321   1.459   4.544  0.4148  0.7554 -2.5299
 4542SOL    HW225263   2.188   1.464   4.614  1.3829 -0.1356  1.0528
 4543SOL     OW25264   0.867   0.902   9.348  0.4287 -0.3825 -0.2497
 4543SOL    HW125265   0.785   0.913   9.396  1.1519  1.4339  0.5796
 4543SOL    HW225266   0.872   0.993   9.318 -0.3354 -0.6960 -1.3361
 4544SOL     OW25267   3.608   0.288  12.556 -0.2535 -0.1456  0.1674
 4544SOL    HW125268   3.548   0.361  12.540 -2.7269 -2.3371 -0.4972
 4544SOL    HW225269   3.677   0.340  12.596 -0.1418  1.1664 -1.7380
 4545SOL     OW25270   3.637   0.686   8.614 -0.9123  0.4649 -0.0001
 4545SOL    HW125271   3.565   0.738   8.651 -0.2138  0.0526  1.9349
 4545SOL    HW225272   3.613   0.602   8.653 -1.0127  0.4119 -0.1775
 4546SOL     OW25273   3.778   0.165  13.744  0.5541  0.1096  0.2574
 4546SOL    HW125274   3.842   0.205  13.685  0.5558 -2.0181 -1.1774
 4546SOL    HW225275   3.747   0.242  13.792 -2.9987 -1.1886  0.0073
 4547SOL     OW25276   4.569   4.657  15.179  0.7101 -0.0179  0.3586
 4547SOL    HW125277   4.581   4.563  15.191  1.2802  0.3498  2.6222
 4547SOL    HW225278   4.643   4.700  15.222  0.7641  0.6473 -0.4016
 4548SOL     OW25279   2.822   0.037   7.113 -0.1406  0.1620  0.3150
 4548SOL    HW125280   2.740   4.729   7.128 -1.3615  2.7693  2.0389
 4548SOL    HW225281   2.782   0.111   7.068 -2.3695 -0.1681  1.7389
 4549SOL     OW25282   2.029   1.694  13.020 -0.1486 -0.4247  0.6224
 4549SOL    HW125283   2.110   1.706  13.070  1.6962  0.7461 -2.6534
 4549SOL    HW225284   2.048   1.757  12.951 -1.2343 -1.9741 -1.0811
 4550SOL     OW25285   2.877   2.164   3.176  0.0355 -0.3403  0.5584
 4550SOL    HW125286   2.831   2.237   3.135  1.4019  0.4129  0.3570
 4550SOL    HW225287   2.834   2.168   3.261  0.2460 -0.0010  0.6514
 4551SOL     OW25288   3.102   0.781   2.905  0.1899 -0.2278 -0.0963
 4551SOL    HW125289   3.164   0.855   2.907  0.5771 -0.5680  0.7515
 4551SOL    HW225290   3.148   0.741   2.979  0.1384  2.5385  1.4172
 4552SOL     OW25291   2.853   2.860   6.334 -0.4065 -0.5154  0.2651
 4552SOL    HW125292   2.885   2.770   6.325  1.8756  0.5142 -1.8072
 4552SOL    HW225293   2.837   2.883   6.243  0.1103 -0.3062  0.2285
 4553SOL     OW25294   2.177   2.960   5.763  0.2252 -0.2935 -0.2746
 4553SOL    HW125295   2.176   2.865   5.750  0.8394 -0.3324 -0.0662
 4553SOL    HW225296   2.265   2.981   5.731  0.7281 -2.9000 -0.5635
 4554SOL     OW25297   2.898   0.603   5.191  0.0759 -0.5146 -0.1390
 4554SOL    HW125298   2.958   0.622   5.263 -0.3248 -0.6337  0.2263
 4554SOL    HW225299   2.950   0.596   5.111  1.5715 -0.1500  0.7991
 4555SOL     OW25300   4.065   1.107   5.486  0.4510  0.5847  0.4072
 4555SOL    HW125301   4.149   1.078   5.451 -0.0250 -2.0915  1.4969
 4555SOL    HW225302   4.004   1.044   5.448 -0.5680  1.9565 -0.2589
 4556SOL     OW25303   2.954   3.068   3.955  0.1733  0.0866 -0.1224
 4556SOL    HW125304   3.036   3.104   3.921 -0.7767  2.2232 -0.0776
 4556SOL    HW225305   2.929   3.136   4.016 -1.4893  0.4334 -1.1999
 4557SOL     OW25306   3.224   2.403  11.263  0.5009 -0.1666  0.0145
 4557SOL    HW125307   3.152   2.461  11.240  0.0870 -0.2690  1.0485
 4557SOL    HW225308   3.269   2.458  11.327  0.9109  1.3701 -1.5972
 4558SOL     OW25309   0.944   3.650   9.944 -0.3597  0.3610 -0.4022
 4558SOL    HW125310   0.924   3.736   9.982 -1.1826  0.1503 -0.3534
 4558SOL    HW225311   1.005   3.683   9.879 -0.2664 -2.0414 -1.5517
 4559SOL     OW25312   0.521   4.718  13.762 -0.5281  0.0834  0.2215
 4559SOL    HW125313   0.543   0.032  13.686 -0.1885  1.2647  1.1649
 4559SOL    HW225314   0.543   0.037  13.834  1.1130 -0.9211  0.5527
 4560SOL     OW25315   2.411   1.087   5.658  0.3644  0.0074 -0.1067
 4560SOL    HW125316   2.456   1.026   5.716  1.2015 -0.2559 -1.0151
 4560SOL    HW225317   2.476   1.093   5.587  0.1873 -0.4872 -0.3100
 4561SOL     OW25318   4.263   3.150   2.247  0.1296  0.1500 -0.6453
 4561SOL    HW125319   4.218   3.067   2.229  0.3070 -0.5975  2.3688
 4561SOL    HW225320   4.243   3.152   2.340  0.0083  0.1176 -0.6705
 4562SOL     OW25321   3.278   1.167   3.387 -0.4791 -1.1175 -0.7016
 4562SOL    HW125322   3.364   1.133   3.363  0.2453  0.9649 -1.0090
 4562SOL    HW225323   3.242   1.201   3.305 -0.3363 -1.4169 -0.8877
 4563SOL     OW25324   4.475   0.055   4.679  0.6479  0.0979  0.2327
 4563SOL    HW125325   4.382   0.075   4.670  0.3115 -1.3526  0.4846
 4563SOL    HW225326   4.498   0.058   4.772  0.7705 -0.6378  0.2236
 4564SOL     OW25327   3.076   1.387   4.211  0.2964  0.6349 -0.1281
 4564SOL    HW125328   3.018   1.420   4.142 -1.8054 -0.6367  1.0115
 4564SOL    HW225329   3.106   1.471   4.244 -0.3580  0.8148 -0.0031
 4565SOL     OW25330   0.514   1.497   5.498  0.7231  0.4189 -0.4289
 4565SOL    HW125331   0.583   1.557   5.529 -0.4618  1.2318  0.6577
 4565SOL    HW225332   0.525   1.423   5.558  0.7169  0.0214 -0.9269
 4566SOL     OW25333   2.157   0.601   8.145  0.1431 -0.6830  0.7195
 4566SOL    HW125334   2.149   0.539   8.217 -2.7369  0.3003  1.2454
 4566SOL    HW225335   2.188   0.678   8.194  0.5931  1.5165 -3.0286
 4567SOL     OW25336   4.616   2.686   6.351  0.4543  0.0140  0.3912
 4567SOL    HW125337   4.534   2.684   6.300  0.4907  1.7598  0.2584
 4567SOL    HW225338   4.616   2.779   6.372 -1.0029  0.2217 -0.5047
 4568SOL     OW25339   3.019   2.241  17.487 -1.0108 -0.0155  0.3173
 4568SOL    HW125340   2.928   2.251  17.462 -0.9365  1.7298  0.7001
 4568SOL    HW225341   3.027   2.152  17.520 -1.4989  0.1576  0.8941
 4569SOL     OW25342   4.427   1.135   5.919  0.0407 -0.3801 -0.0184
 4569SOL    HW125343   4.361   1.194   5.956 -0.3075 -1.1534  0.5763
 4569SOL    HW225344   4.483   1.104   5.990 -0.0984  0.4459  0.4570
 4570SOL     OW25345   4.004   2.666   3.889 -0.0522  0.1528  0.0035
 4570SOL    HW125346   4.097   2.665   3.913 -0.1626 -1.3177  0.3453
 4570SOL    HW225347   4.009   2.712   3.805 -2.9300 -0.4701 -0.5128
 4571SOL     OW25348   1.254   2.128   1.774 -0.6183 -0.3011  1.0484
 4571SOL    HW125349   1.273   2.067   1.703 -2.7038 -0.1110  0.3368
 4571SOL    HW225350   1.188   2.079   1.823  0.0240 -0.0836  2.1411
 4572SOL     OW25351   0.693   0.604   1.546  0.3796 -0.2863 -0.4181
 4572SOL    HW125352   0.743   0.569   1.619 -1.0241  1.4165  1.3456
 4572SOL    HW225353   0.690   0.522   1.496 -0.0807 -0.3053 -0.3607
 4573SOL     OW25354   3.356   3.375   4.751 -0.4993 -0.0771 -0.3143
 4573SOL    HW125355   3.361   3.279   4.748 -3.6615 -0.2588  0.4285
 4573SOL    HW225356   3.445   3.394   4.778 -0.6761  0.4294 -0.0982
 4574SOL     OW25357   3.912   2.372   3.111 -0.4525  0.1141  0.5472
 4574SOL    HW125358   3.880   2.283   3.123 -0.8611 -0.1811 -2.6071
 4574SOL    HW225359   3.834   2.424   3.130  0.2785  1.9904 -1.4815
 4575SOL     OW25360   1.948   2.410   2.900  0.3024 -0.0669 -0.4156
 4575SOL    HW125361   1.968   2.502   2.884 -0.2810  0.3293  1.0978
 4575SOL    HW225362   1.853   2.417   2.890  0.1846  0.5486  1.1117
 4576SOL     OW25363   0.723   1.446  16.912  0.1549 -0.0702 -0.0470
 4576SOL    HW125364   0.817   1.463  16.904  0.3525 -0.8904  0.5796
 4576SOL    HW225365   0.718   1.372  16.972  2.1138  1.7909  2.3736
 4577SOL     OW25366   0.382   2.380  13.688  0.2158 -0.1865  0.1225
 4577SOL    HW125367   0.326   2.395  13.764 -0.3493  1.6102 -0.6433
 4577SOL    HW225368   0.324   2.412  13.620 -1.7439  1.3395  2.4904
 4578SOL     OW25369   1.211   3.309   3.316  0.4595  0.4244 -0.1802
 4578SOL    HW125370   1.118   3.331   3.306  0.8627  1.9577 -0.5064
 4578SOL    HW225371   1.253   3.356   3.244 -1.0484  2.2995  0.1536
 4579SOL     OW25372   2.909   1.485   3.758 -0.0946  0.0155  0.5960
 4579SOL    HW125373   2.949   1.482   3.844 -0.3590  0.7002  0.7443
 4579SOL    HW225374   2.950   1.406   3.722 -2.3987 -1.0753  0.3279
 4580SOL     OW25375   0.056   4.299   2.836  0.4238 -0.1884 -0.0663
 4580SOL    HW125376   0.066   4.360   2.909 -0.4212  0.5463 -0.5718
 4580SOL    HW225377   0.072   4.355   2.760  0.5055 -0.6776 -0.4085
 4581SOL     OW25378   4.719   0.669   7.959  0.4082 -1.0350 -0.1204
 4581SOL    HW125379   0.038   0.683   7.885 -0.5549  2.5689 -0.2526
 4581SOL    HW225380   0.046   0.634   8.018  1.8993  0.8875 -0.6640
 4582SOL     OW25381   2.009   3.818   1.892  0.2389 -0.1841 -0.7193
 4582SOL    HW125382   2.014   3.841   1.799  0.4120  0.6886 -0.4943
 4582SOL    HW225383   1.930   3.766   1.901  0.8436 -1.0285 -0.2232
 4583SOL     OW25384   3.803   0.327   4.754 -0.1107 -0.2217  0.1999
 4583SOL    HW125385   3.795   0.326   4.659  2.7040  2.2624 -0.0587
 4583SOL    HW225386   3.799   0.422   4.761 -1.9217 -0.2339 -0.8511
 4584SOL     OW25387   0.767   1.272   5.455 -0.3676  0.2290 -0.5306
 4584SOL    HW125388   0.792   1.363   5.469  4.9049 -1.0775 -1.4703
 4584SOL    HW225389   0.845   1.233   5.415  0.1468 -0.8235  1.5279
 4585SOL     OW25390   4.282   4.145   7.784  0.0666  0.0243  0.0928
 4585SOL    HW125391   4.260   4.071   7.728 -1.3757  1.7281 -1.6133
 4585SOL    HW225392   4.377   4.144   7.773 -0.1472  0.1954 -1.9198
 4586SOL     OW25393   2.043   0.017   3.797 -0.2776  0.1231  0.5780
 4586SOL    HW125394   2.077   0.077   3.863 -1.3186  0.5066  0.7678
 4586SOL    HW225395   2.081   0.045   3.714  0.0806 -0.4934  0.5322
 4587SOL     OW25396   2.913   0.630   4.690 -0.5127 -0.1805  0.0560
 4587SOL    HW125397   2.898   0.574   4.614 -2.0367  0.8792 -0.4190
 4587SOL    HW225398   2.828   0.637   4.734 -0.8711 -1.5398 -0.4077
 4588SOL     OW25399   3.819   2.678   6.734 -0.4880  0.0310 -0.3163
 4588SOL    HW125400   3.794   2.597   6.779  0.0603  1.4369  2.5256
 4588SOL    HW225401   3.895   2.653   6.682 -0.8870  1.2914 -1.5145
 4589SOL     OW25402   0.723   0.785   4.142  0.2867  0.3576 -0.1821
 4589SOL    HW125403   0.811   0.815   4.163  0.2085  0.7973 -0.4713
 4589SOL    HW225404   0.704   0.833   4.061  0.8271  1.3518  0.2746
 4590SOL     OW25405   1.916   0.536   6.186 -0.0529  0.3734  0.5050
 4590SOL    HW125406   1.856   0.606   6.159 -0.6302 -0.5097 -0.5055
 4590SOL    HW225407   1.945   0.569   6.272 -1.1250  1.0202  0.6233
 4591SOL     OW25408   3.744   2.979   7.758 -0.2577 -0.4243 -0.3465
 4591SOL    HW125409   3.817   3.025   7.798  0.7349 -0.7340 -1.8344
 4591SOL    HW225410   3.674   2.992   7.822  0.6068  1.6699  0.1405
 4592SOL     OW25411   1.135   0.758   6.655  0.5862  0.8604  0.2648
 4592SOL    HW125412   1.166   0.760   6.745 -1.7554  1.7233  1.0430
 4592SOL    HW225413   1.213   0.749   6.601  0.4492  0.0278  0.1988
 4593SOL     OW25414   2.001   0.545  12.720 -0.4336  0.8316 -0.3277
 4593SOL    HW125415   2.009   0.485  12.645 -0.7441  0.2842  0.0814
 4593SOL    HW225416   2.007   0.471  12.780  1.1129  1.8413  0.7688
 4594SOL     OW25417   3.750   0.505  13.514 -0.1083  0.2905 -0.4084
 4594SOL    HW125418   3.828   0.450  13.525 -1.1702 -1.4050 -1.4041
 4594SOL    HW225419   3.722   0.478  13.426 -0.5048 -1.4796  0.2736
 4595SOL     OW25420   2.916   0.645  10.812  0.7373 -0.3386 -0.5347
 4595SOL    HW125421   2.894   0.659  10.720  0.1665  0.6864 -0.2397
 4595SOL    HW225422   2.894   0.553  10.830 -1.7463 -0.2200 -2.7836
 4596SOL     OW25423   1.034   2.744   4.855  0.0632 -0.1415  0.2212
 4596SOL    HW125424   1.098   2.675   4.837  0.6044  0.2880  0.4959
 4596SOL    HW225425   0.954   2.698   4.829  0.4985  0.0914 -1.5267
 4597SOL     OW25426   1.295   3.956  13.021 -0.2156 -0.2463  0.3692
 4597SOL    HW125427   1.300   4.038  12.971  1.6711 -0.5223  0.1129
 4597SOL    HW225428   1.272   3.984  13.110  0.5884 -1.3927  0.9370
 4598SOL     OW25429   0.598   2.686   0.987 -0.0330 -0.0827  0.0512
 4598SOL    HW125430   0.662   2.756   0.997  0.1432 -0.4258  1.2355
 4598SOL    HW225431   0.587   2.651   1.075 -1.4536 -0.5530 -0.2977
 4599SOL     OW25432   0.140   2.426  15.316  0.5018 -0.1906  0.1457
 4599SOL    HW125433   0.086   2.472  15.252  0.6693 -0.2149 -0.0126
 4599SOL    HW225434   0.228   2.430  15.279 -0.1189 -1.1335 -1.4364
 4600SOL     OW25435   1.239   3.575   4.648  0.1077  0.2908 -0.5190
 4600SOL    HW125436   1.237   3.542   4.558 -2.2842 -2.5920  0.6245
 4600SOL    HW225437   1.321   3.625   4.639 -1.6567  2.9930 -1.8773
 4601SOL     OW25438   0.190   2.902  14.765 -0.6296  0.0261 -0.1637
 4601SOL    HW125439   0.260   2.950  14.811 -0.3784 -1.7113  1.2852
 4601SOL    HW225440   0.191   2.823  14.818 -1.2797  0.7227  0.8877
 4602SOL     OW25441   1.285   1.115   9.831  0.1497 -0.3864  0.4156
 4602SOL    HW125442   1.264   1.206   9.809  1.1886 -0.4736 -0.9673
 4602SOL    HW225443   1.228   1.064   9.774  0.1545 -0.7749  0.7588
 4603SOL     OW25444   4.585   0.922   5.618  0.1906 -0.2130 -0.0675
 4603SOL    HW125445   4.633   0.840   5.620  0.8448  0.1519 -0.8616
 4603SOL    HW225446   4.652   0.975   5.575 -0.4003  1.8069  1.5132
 4604SOL     OW25447   0.838   0.418   8.206  0.6590  0.1845 -0.2271
 4604SOL    HW125448   0.851   0.359   8.132  0.3582 -1.1079  0.7469
 4604SOL    HW225449   0.789   0.489   8.166 -1.8726 -1.5831 -0.2920
 4605SOL     OW25450   1.780   2.747   3.318 -0.3890 -0.3267  0.1578
 4605SOL    HW125451   1.865   2.790   3.330 -0.4925 -0.1447  0.2535
 4605SOL    HW225452   1.724   2.824   3.306 -0.1628 -0.1319  0.3462
 4606SOL     OW25453   3.401   0.866   5.223 -0.0575 -0.0388 -0.4034
 4606SOL    HW125454   3.321   0.824   5.192  0.3299 -0.9470 -0.1791
 4606SOL    HW225455   3.425   0.811   5.298 -0.3887 -1.0263 -1.0241
 4607SOL     OW25456   2.083   4.468   3.562  0.2237  0.0303 -0.3777
 4607SOL    HW125457   2.139   4.480   3.485 -1.2108  1.2503 -1.2254
 4607SOL    HW225458   2.002   4.514   3.540 -0.9790 -2.4199 -1.0947
 4608SOL     OW25459   0.603   2.076   8.060 -0.7598  0.5641  0.6907
 4608SOL    HW125460   0.638   2.107   8.144 -2.3056 -0.7389  1.8259
 4608SOL    HW225461   0.533   2.140   8.051 -2.3237 -1.2600 -0.1038
 4609SOL     OW25462   0.278   4.105   0.438  0.0837  0.0834  0.2189
 4609SOL    HW125463   0.318   4.127   0.522  0.1107 -0.8518  0.4579
 4609SOL    HW225464   0.203   4.061   0.480  0.7301 -0.9593  0.2782
 4610SOL     OW25465   2.656   1.894  14.301 -0.5176  0.2641  0.1461
 4610SOL    HW125466   2.711   1.971  14.288  0.1822 -0.5343 -1.6123
 4610SOL    HW225467   2.702   1.845  14.369 -0.5129 -0.6642 -0.5191
 4611SOL     OW25468   0.779   3.752   6.956 -0.5670 -0.3928  0.0218
 4611SOL    HW125469   0.824   3.798   7.027 -0.2554 -0.9755  0.2040
 4611SOL    HW225470   0.736   3.679   7.002 -2.4701  0.8495  0.1963
 4612SOL     OW25471   2.253   3.395  16.181 -0.0873 -0.2278  0.3409
 4612SOL    HW125472   2.220   3.387  16.271 -2.3654  2.9045 -0.1943
 4612SOL    HW225473   2.314   3.468  16.187 -1.3867  0.8064  0.9963
 4613SOL     OW25474   2.584   2.512  12.263 -0.1956  0.1965  0.4281
 4613SOL    HW125475   2.524   2.456  12.215  0.1845  0.5125 -0.4023
 4613SOL    HW225476   2.524   2.570  12.311  0.0740 -1.0364  2.2300
 4614SOL     OW25477   0.946   2.323  13.533  0.6887 -0.1976 -0.5045
 4614SOL    HW125478   0.883   2.395  13.524 -1.5005 -2.1164 -0.3193
 4614SOL    HW225479   1.015   2.367  13.483 -0.2145 -0.8808 -2.3471
 4615SOL     OW25480   1.916   0.688   3.866 -0.5752 -0.0854  0.1896
 4615SOL    HW125481   1.954   0.609   3.903  1.9542  0.9871 -0.1694
 4615SOL    HW225482   1.884   0.741   3.939 -2.9587 -1.6225  0.2774
 4616SOL     OW25483   4.238   3.150   2.899  0.0976 -0.0506  0.7684
 4616SOL    HW125484   4.230   3.245   2.893 -0.9095 -0.1951 -0.3321
 4616SOL    HW225485   4.300   3.137   2.827 -0.0497 -0.5210  0.7236
 4617SOL     OW25486   2.455   2.531   1.529 -0.6185  0.7670  0.4901
 4617SOL    HW125487   2.381   2.542   1.468 -0.5233  0.9422  0.4054
 4617SOL    HW225488   2.523   2.591   1.497  0.4062 -0.8410 -0.3471
 4618SOL     OW25489   3.924   4.204   9.885 -0.0381  0.5049  0.0466
 4618SOL    HW125490   3.837   4.225   9.853  0.7420  3.1247 -0.3140
 4618SOL    HW225491   3.913   4.204   9.980  1.6314  3.5157  0.2361
 4619SOL     OW25492   3.093   1.906   4.090  0.3769  0.4518 -0.5800
 4619SOL    HW125493   3.095   1.987   4.140 -0.6730  0.8096 -1.1052
 4619SOL    HW225494   3.116   1.945   4.006  1.9742 -0.6013 -0.6226
 4620SOL     OW25495   1.188   2.769   2.245  0.3736  0.0214 -0.4587
 4620SOL    HW125496   1.220   2.698   2.189  0.1537 -0.1419 -0.3775
 4620SOL    HW225497   1.131   2.812   2.182  0.7518  0.3686 -0.5618
 4621SOL     OW25498   1.569   1.747   6.283  0.2883  0.2038  0.4624
 4621SOL    HW125499   1.579   1.811   6.212  2.1037  0.1609  0.6942
 4621SOL    HW225500   1.617   1.669   6.257  0.1824  0.6678 -1.1267
 4622SOL     OW25501   0.368   2.090   9.001 -0.4498 -0.0021 -0.0635
 4622SOL    HW125502   0.339   2.146   9.073 -0.4004 -3.2636  2.5158
 4622SOL    HW225503   0.434   2.039   9.048 -2.0379 -0.1991  1.9732
 4623SOL     OW25504   3.868   4.663   1.835  0.3333 -0.4290  0.1092
 4623SOL    HW125505   3.914   4.691   1.756 -0.8789  0.2457 -0.3529
 4623SOL    HW225506   3.836   4.577   1.807 -1.4508 -0.5247  2.4419
 4624SOL     OW25507   4.282   3.838   9.772 -0.2984 -0.3125  0.3336
 4624SOL    HW125508   4.279   3.770   9.840 -0.0864  0.2815  0.9410
 4624SOL    HW225509   4.318   3.913   9.819 -1.0283  1.1382 -1.4091
 4625SOL     OW25510   0.881   1.692   8.823  0.4388 -0.5609 -0.1371
 4625SOL    HW125511   0.852   1.758   8.761  0.0818 -0.4903  0.1054
 4625SOL    HW225512   0.974   1.714   8.825  0.6929 -1.5509 -1.3268
 4626SOL     OW25513   1.983   3.701   7.645 -0.6283  0.3518  0.1652
 4626SOL    HW125514   1.907   3.742   7.605 -0.0777 -0.0898 -1.3337
 4626SOL    HW225515   1.959   3.608   7.642 -0.4084  0.2293  2.4308
 4627SOL     OW25516   1.920   0.302   7.995  0.3053 -0.1653 -0.7969
 4627SOL    HW125517   1.970   0.382   7.976 -0.1088  0.3406  0.2757
 4627SOL    HW225518   1.879   0.341   8.072  0.9286 -1.0227 -0.0215
 4628SOL     OW25519   4.554   3.421  14.056  0.6192  0.3151  0.0228
 4628SOL    HW125520   4.559   3.479  14.132 -1.5304  0.9887 -0.3696
 4628SOL    HW225521   4.613   3.455  13.989 -0.1454  1.7246  0.0812
 4629SOL     OW25522   3.625   3.329   3.324  0.1145  0.4812 -0.0587
 4629SOL    HW125523   3.709   3.304   3.284 -0.3684 -2.8097  0.9215
 4629SOL    HW225524   3.567   3.363   3.257 -1.7048 -1.7048  0.4100
 4630SOL     OW25525   3.002   3.675   5.572  0.1993 -0.1352 -0.8285
 4630SOL    HW125526   3.009   3.699   5.480  0.0909  0.3700 -0.7019
 4630SOL    HW225527   2.909   3.691   5.586  0.9553  2.1835  1.7236
 4631SOL     OW25528   2.375   2.096   9.544 -0.1479 -0.4901  0.3173
 4631SOL    HW125529   2.312   2.048   9.597 -1.1544 -0.8837 -1.2403
 4631SOL    HW225530   2.312   2.151   9.499 -0.2024 -1.0990 -0.3528
 4632SOL     OW25531   4.237   3.460   2.426  0.1433 -0.2464 -0.2925
 4632SOL    HW125532   4.200   3.511   2.354  1.0712 -0.6484 -1.0431
 4632SOL    HW225533   4.160   3.404   2.431  1.1514 -1.5493  0.5388
 4633SOL     OW25534   2.738   4.544  13.544 -0.0161 -0.0955  0.7892
 4633SOL    HW125535   2.767   4.469  13.492 -0.5235  0.8848 -0.9226
 4633SOL    HW225536   2.742   4.502  13.629 -0.8256  0.7602  1.2530
 4634SOL     OW25537   0.520   1.377   5.924  0.0714 -0.2479 -0.2483
 4634SOL    HW125538   0.613   1.394   5.915  0.3421 -2.4477 -1.8081
 4634SOL    HW225539   0.487   1.466   5.920  1.2814  0.2245  0.3840
 4635SOL     OW25540   4.190   0.555   0.725  0.0936 -0.4099 -0.2800
 4635SOL    HW125541   4.236   0.535   0.644  1.3041 -1.4559  0.6787
 4635SOL    HW225542   4.107   0.508   0.719  0.2437 -0.8888  1.6332
 4636SOL     OW25543   2.958   1.874  17.260  0.3698  0.2992  0.3366
 4636SOL    HW125544   2.939   1.930  17.185 -0.7359 -0.1470  0.2811
 4636SOL    HW225545   3.052   1.879  17.273  0.2555  0.1049  1.2477
 4637SOL     OW25546   1.808   3.401  13.262  1.0727  0.3458 -0.0686
 4637SOL    HW125547   1.787   3.328  13.204  0.5494 -0.0038  0.5529
 4637SOL    HW225548   1.722   3.443  13.269  0.7925 -0.3644  0.8070
 4638SOL     OW25549   2.390   4.249   2.173 -0.0636  0.1555  0.0240
 4638SOL    HW125550   2.450   4.230   2.245 -0.3522 -1.2853 -0.1070
 4638SOL    HW225551   2.377   4.341   2.194  2.5079  0.8944 -1.5282
 4639SOL     OW25552   0.002   4.386   4.804 -0.1268  0.3161 -0.0881
 4639SOL    HW125553   4.703   4.359   4.720 -2.2386 -0.6739  1.2044
 4639SOL    HW225554   0.091   4.355   4.791  0.0310  0.8699 -0.3189
 4640SOL     OW25555   0.628   0.918  11.468  0.4102 -0.2381  0.2186
 4640SOL    HW125556   0.624   0.822  11.470 -0.3063 -0.2283 -0.4907
 4640SOL    HW225557   0.595   0.942  11.555  1.0705  0.1562  0.3590
 4641SOL     OW25558   2.176   2.928   7.696 -0.3705  0.0122  0.2830
 4641SOL    HW125559   2.152   2.930   7.788 -0.5465 -0.8474  0.2620
 4641SOL    HW225560   2.228   2.847   7.697 -2.5207 -1.3909  0.3526
 4642SOL     OW25561   1.989   1.893   1.282  0.4933 -0.2324 -0.0085
 4642SOL    HW125562   1.939   1.975   1.286 -2.1085 -1.9342  2.0853
 4642SOL    HW225563   2.041   1.915   1.205 -1.5943  0.2217 -1.3096
 4643SOL     OW25564   1.838   1.343  11.136  0.6498  0.0106 -0.1234
 4643SOL    HW125565   1.926   1.373  11.115  0.6065  0.6170  0.5575
 4643SOL    HW225566   1.833   1.381  11.224  1.0242  1.9583 -0.9666
 4644SOL     OW25567   0.186   4.595   8.628 -0.0529 -0.4998 -0.0755
 4644SOL    HW125568   0.117   4.579   8.564  0.7176  1.9863 -1.5554
 4644SOL    HW225569   0.251   4.622   8.563 -0.1561  1.6854  0.7181
 4645SOL     OW25570   0.792   2.664   4.755 -0.5687 -0.0691 -0.2465
 4645SOL    HW125571   0.748   2.690   4.674 -0.9112  0.7442  0.1995
 4645SOL    HW225572   0.722   2.704   4.806  1.5718  1.2765  1.5784
 4646SOL     OW25573   0.306   2.549   4.907 -0.1464 -0.2423 -0.1737
 4646SOL    HW125574   0.291   2.547   4.812 -0.8688  2.9564 -0.0983
 4646SOL    HW225575   0.327   2.641   4.918  1.0780 -0.9319  3.0944
 4647SOL     OW25576   4.648   2.996   3.509 -0.3404  0.1352 -0.6989
 4647SOL    HW125577   4.694   2.963   3.586  0.3344  1.6240 -0.4467
 4647SOL    HW225578   4.658   2.915   3.460  1.8956  0.6781 -1.1423
 4648SOL     OW25579   2.742   3.813  14.305 -0.2540 -0.1547 -0.6069
 4648SOL    HW125580   2.656   3.784  14.273 -0.8441  0.3993  0.4717
 4648SOL    HW225581   2.786   3.834  14.223 -0.7265 -0.8281 -1.0409
 4649SOL     OW25582   0.637   1.718  16.877 -0.0521  0.2645  0.1352
 4649SOL    HW125583   0.590   1.717  16.793  0.2582  1.1165 -0.0427
 4649SOL    HW225584   0.651   1.625  16.897 -1.7091 -0.3940 -1.7225
 4650SOL     OW25585   3.805   4.186   4.992  0.2662  0.5578  0.1909
 4650SOL    HW125586   3.877   4.161   4.935 -0.6420  1.0546 -1.1710
 4650SOL    HW225587   3.737   4.150   4.936  0.8321  0.1542 -0.2343
 4651SOL     OW25588   2.846   1.803   7.105  0.1131  0.1989  0.1401
 4651SOL    HW125589   2.786   1.756   7.046  1.2757 -0.4125 -0.5776
 4651SOL    HW225590   2.926   1.793   7.053 -0.6826  0.2935 -1.1029
 4652SOL     OW25591   3.884   2.430  13.203  0.4350  0.6617 -0.4133
 4652SOL    HW125592   3.916   2.506  13.155  0.5796  0.4163 -0.7002
 4652SOL    HW225593   3.962   2.416  13.257 -0.5868 -0.6264  0.7547
 4653SOL     OW25594   2.434   4.099   9.768 -0.2901 -0.0441 -0.2732
 4653SOL    HW125595   2.476   4.025   9.724  1.0527 -1.0547  2.6916
 4653SOL    HW225596   2.345   4.069   9.789 -1.2055  1.8574 -1.4359
 4654SOL     OW25597   1.081   4.392   3.752 -0.5597  0.3773  0.4523
 4654SOL    HW125598   1.155   4.446   3.725 -0.9227 -0.1502 -1.6618
 4654SOL    HW225599   1.062   4.452   3.823  0.0080  0.7225  0.3123
 4655SOL     OW25600   4.632   3.120   2.454  0.3247 -0.1774 -0.2341
 4655SOL    HW125601   4.685   3.079   2.386  1.3216  0.9050 -0.0928
 4655SOL    HW225602   4.605   3.192   2.398  0.2765 -0.0419 -0.0356
 4656SOL     OW25603   1.206   3.361   6.846 -0.4181  0.6782  0.2329
 4656SOL    HW125604   1.292   3.395   6.821 -0.7934  0.7936 -0.9304
 4656SOL    HW225605   1.150   3.373   6.769 -2.5596  0.7414  1.8218
 4657SOL     OW25606   0.170   2.830   6.068 -0.2159  0.3676  0.0264
 4657SOL    HW125607   0.080   2.799   6.074 -0.2005  0.0582 -1.4445
 4657SOL    HW225608   0.175   2.904   6.128 -0.3288 -0.1784  0.7160
 4658SOL     OW25609   0.513   1.298   5.680 -0.0541  0.2067  0.6866
 4658SOL    HW125610   0.506   1.319   5.773 -0.0883  1.4953  0.4013
 4658SOL    HW225611   0.593   1.246   5.678  0.3481  0.7618  2.4628
 4659SOL     OW25612   2.927   3.008  11.605 -0.0316  0.0091 -0.4777
 4659SOL    HW125613   2.915   3.036  11.514 -2.3479  3.0599  0.7472
 4659SOL    HW225614   2.854   2.948  11.623 -1.4422  0.9946 -2.8858
 4660SOL     OW25615   4.571   0.148   0.637  0.2781  0.1081  0.1199
 4660SOL    HW125616   4.531   0.115   0.717  1.0616 -4.1107 -1.2383
 4660SOL    HW225617   4.517   0.114   0.566  1.4335  1.0776 -1.2143
 4661SOL     OW25618   3.327   2.484   7.239 -0.1834  0.1173  0.1391
 4661SOL    HW125619   3.391   2.501   7.309  1.0036  1.2813 -1.2241
 4661SOL    HW225620   3.262   2.553   7.250  0.5897  0.8550  0.0669
 4662SOL     OW25621   0.731   2.808   8.475 -0.1579  0.3520  0.7545
 4662SOL    HW125622   0.820   2.837   8.497  0.2545 -0.8786  0.7154
 4662SOL    HW225623   0.682   2.884   8.446 -2.7755 -1.2506  1.0463
 4663SOL     OW25624   2.975   0.545   3.909 -0.1248  0.3857  0.1701
 4663SOL    HW125625   2.898   0.593   3.878 -1.4533 -2.7381 -1.3923
 4663SOL    HW225626   2.945   0.455   3.896 -1.1014  0.5083  1.5462
 4664SOL     OW25627   4.503   3.903   9.577 -0.5020 -0.2598 -0.0381
 4664SOL    HW125628   4.464   3.925   9.662  2.9303 -3.1927  2.3167
 4664SOL    HW225629   4.450   3.827   9.553 -2.0066  0.9809 -0.5980
 4665SOL     OW25630   2.759   4.675   4.717 -0.5606  0.1717  0.0991
 4665SOL    HW125631   2.757   4.579   4.714  0.4312  0.1931 -1.5547
 4665SOL    HW225632   2.667   4.695   4.702 -0.8480 -0.3676  1.1306
 4666SOL     OW25633   2.967   1.285   3.296 -0.0235  0.5341 -0.5231
 4666SOL    HW125634   2.888   1.321   3.336 -0.3554  0.0396 -0.7262
 4666SOL    HW225635   3.010   1.354   3.245  0.8914 -0.3685 -0.9899
 4667SOL     OW25636   1.302   0.854   5.396 -0.0396 -0.0607  0.0421
 4667SOL    HW125637   1.389   0.815   5.409 -1.8506 -2.6924  4.0427
 4667SOL    HW225638   1.251   0.773   5.399  1.3152 -0.8721  1.1899
 4668SOL     OW25639   2.588   0.878   9.894 -0.0408  0.9675 -0.4158
 4668SOL    HW125640   2.648   0.830   9.836 -0.7578 -0.5471  0.0870
 4668SOL    HW225641   2.586   0.966   9.858  1.3432  0.2888 -2.1710
 4669SOL     OW25642   2.750   1.819   3.561  1.1980 -0.6233 -0.0650
 4669SOL    HW125643   2.772   1.834   3.469 -3.3505 -1.0023 -1.2096
 4669SOL    HW225644   2.730   1.726   3.550 -1.7851  0.2580 -2.0335
 4670SOL     OW25645   1.043   0.131  15.271  0.4035 -0.1752 -0.1890
 4670SOL    HW125646   0.995   0.206  15.306 -0.2635 -1.3388  1.3384
 4670SOL    HW225647   0.965   0.083  15.245  1.0562 -0.3345 -1.8830
 4671SOL     OW25648   0.495   2.426  12.765  0.2837 -0.4150  0.2317
 4671SOL    HW125649   0.542   2.478  12.830  0.1873  1.1991 -0.9988
 4671SOL    HW225650   0.540   2.342  12.775  1.5630  0.3530  0.9132
 4672SOL     OW25651   1.416   2.711  12.740 -0.8415  0.7911  0.0048
 4672SOL    HW125652   1.457   2.686  12.657 -0.3115 -0.4731  0.6491
 4672SOL    HW225653   1.433   2.805  12.741 -1.5179  0.9129 -0.1037
 4673SOL     OW25654   4.139   2.647   6.860  0.0044 -0.2871  0.0379
 4673SOL    HW125655   4.225   2.655   6.901 -0.6452  1.4373  1.0560
 4673SOL    HW225656   4.123   2.554   6.873  0.5421 -0.3397  0.2933
 4674SOL     OW25657   1.760   0.061   8.316 -0.3265 -0.7965 -0.3278
 4674SOL    HW125658   1.714   0.126   8.263 -1.5205 -0.7758  0.7313
 4674SOL    HW225659   1.687   0.003   8.339 -2.7236  1.7955 -1.4480
 4675SOL     OW25660   4.168   3.644   2.714 -0.3263 -0.1762  0.0698
 4675SOL    HW125661   4.200   3.648   2.624  2.4533 -0.9831  1.0214
 4675SOL    HW225662   4.073   3.640   2.703 -0.2948 -0.4887 -0.0820
 4676SOL     OW25663   1.323   3.162   8.106 -0.0393  0.5038 -0.7292
 4676SOL    HW125664   1.291   3.087   8.157  1.7822 -0.0642 -0.4347
 4676SOL    HW225665   1.402   3.181   8.155 -0.0504 -2.0722  0.2917
 4677SOL     OW25666   0.217   2.142   1.616  0.0129  0.1121  0.9504
 4677SOL    HW125667   0.240   2.137   1.523  1.7639  3.3439  1.2204
 4677SOL    HW225668   0.131   2.103   1.604 -0.0081 -0.3601  2.7673
 4678SOL     OW25669   2.426   3.427  15.531  0.3013  0.0206  0.1664
 4678SOL    HW125670   2.394   3.473  15.454  0.1060 -0.3085  0.0503
 4678SOL    HW225671   2.376   3.345  15.528  0.1682  0.1315 -0.6426
 4679SOL     OW25672   1.331   1.789   9.823 -0.5588  0.5301 -0.1144
 4679SOL    HW125673   1.287   1.707   9.843  0.2773  0.3748  1.0930
 4679SOL    HW225674   1.350   1.829   9.908 -1.9951  0.1388  0.3851
 4680SOL     OW25675   2.660   4.062   4.660  1.5123 -0.5295 -0.7561
 4680SOL    HW125676   2.671   3.988   4.600 -3.1778 -1.3148 -0.6621
 4680SOL    HW225677   2.651   4.015   4.744  0.6803  0.5735 -0.2201
 4681SOL     OW25678   4.058   0.995   2.443 -0.5364  0.3911  0.3668
 4681SOL    HW125679   4.061   1.043   2.360 -1.1613  0.3783  0.3423
 4681SOL    HW225680   3.990   0.937   2.408  2.2741 -2.2970 -0.7039
 4682SOL     OW25681   2.031   0.544   2.212  0.2185  0.0019 -0.1946
 4682SOL    HW125682   1.991   0.561   2.298 -0.4686  1.6944 -0.8597
 4682SOL    HW225683   2.081   0.463   2.223 -2.2130 -1.2575  1.5513
 4683SOL     OW25684   4.673   1.786   2.257  0.4391 -0.3028  0.4275
 4683SOL    HW125685   4.585   1.777   2.294  0.0564  2.8349  0.2905
 4683SOL    HW225686   4.693   1.696   2.235 -1.4764 -0.0763 -2.2560
 4684SOL     OW25687   2.809   3.793  14.034  0.5401 -0.0170 -0.0494
 4684SOL    HW125688   2.882   3.791  13.972 -0.9987 -0.3189 -1.8817
 4684SOL    HW225689   2.730   3.801  13.979  0.8093 -0.8561 -0.5594
 4685SOL     OW25690   0.516   2.910   1.837  0.1312 -0.1928  0.2056
 4685SOL    HW125691   0.470   2.973   1.892  1.7777  0.1620  1.1947
 4685SOL    HW225692   0.537   2.969   1.765 -3.4971 -0.4913 -1.0469
 4686SOL     OW25693   0.980   1.414   0.759 -0.2173 -0.2585 -0.0801
 4686SOL    HW125694   0.979   1.444   0.850  2.0634  1.4108 -0.6054
 4686SOL    HW225695   1.063   1.447   0.725  0.2040 -1.8879 -0.6159
 4687SOL     OW25696   4.674   2.884  14.699  0.0067  0.4449 -0.4624
 4687SOL    HW125697   4.622   2.953  14.739  0.0934  0.6254 -0.6642
 4687SOL    HW225698   0.024   2.907  14.723 -0.7926  2.5220  0.4838
 4688SOL     OW25699   1.157   0.166   1.770  0.3573 -0.2886  0.3737
 4688SOL    HW125700   1.241   0.202   1.740 -1.0163  1.6404 -1.1019
 4688SOL    HW225701   1.150   0.106   1.696 -2.0554 -0.4912  0.7849
 4689SOL     OW25702   4.445   0.269  16.537  0.1824 -0.0886 -0.6833
 4689SOL    HW125703   4.442   0.298  16.628  0.8171  0.1997 -0.7538
 4689SOL    HW225704   4.538   0.245  16.530  0.8710  2.0570  0.8030
 4690SOL     OW25705   2.011   0.387  12.498 -0.0011  0.1701 -0.1334
 4690SOL    HW125706   1.986   0.406  12.407 -1.0080  0.7360  0.2589
 4690SOL    HW225707   2.054   0.304  12.478 -0.8737 -0.0940 -0.9517
 4691SOL     OW25708   4.165   1.732   4.768 -0.4134 -0.3040  0.5780
 4691SOL    HW125709   4.250   1.697   4.794  0.6267  0.5642 -1.6739
 4691SOL    HW225710   4.157   1.688   4.683 -0.2714 -0.0396  0.4280
 4692SOL     OW25711   3.377   3.403   9.293  0.2024 -0.0109  0.3955
 4692SOL    HW125712   3.297   3.358   9.266  1.7540 -2.2644 -0.4502
 4692SOL    HW225713   3.434   3.390   9.217 -0.5200 -2.0717  0.1823
 4693SOL     OW25714   3.343   1.044   7.441  0.3648  0.3473  0.1454
 4693SOL    HW125715   3.353   0.951   7.420  1.7314  0.7615 -1.0583
 4693SOL    HW225716   3.273   1.037   7.506 -2.2789  0.6154 -2.6592
 4694SOL     OW25717   0.948   3.942  16.214 -0.4736 -0.1879  0.9183
 4694SOL    HW125718   0.901   4.016  16.175  2.7459  1.5529  0.3729
 4694SOL    HW225719   1.028   3.954  16.163 -0.5033 -0.8070  0.7251
 4695SOL     OW25720   4.585   2.597   5.014  0.2306 -0.3746 -0.1724
 4695SOL    HW125721   4.580   2.505   4.988 -1.9333 -0.7681  1.6790
 4695SOL    HW225722   4.674   2.588   5.048 -0.4303 -2.9629  0.9078
 4696SOL     OW25723   2.550   0.815  10.376  0.2899 -0.3759 -0.5211
 4696SOL    HW125724   2.526   0.789  10.464 -1.5134  1.1276 -0.5888
 4696SOL    HW225725   2.490   0.762  10.323 -2.2650  0.2442  1.7851
 4697SOL     OW25726   3.926   0.490   8.767  0.2429  0.1395 -0.1296
 4697SOL    HW125727   3.958   0.436   8.695  0.4706  1.2314 -0.8502
 4697SOL    HW225728   3.958   0.575   8.736  1.8584 -0.1102  0.8542
 4698SOL     OW25729   4.645   3.985   3.105  0.3403 -0.0673  0.3913
 4698SOL    HW125730   4.669   4.047   3.036 -1.5702  1.0885  0.7609
 4698SOL    HW225731   4.549   3.984   3.106  0.3268 -0.3247 -1.5677
 4699SOL     OW25732   1.381   2.074   8.754 -0.3882  0.8106  0.2549
 4699SOL    HW125733   1.382   2.170   8.747 -0.4219  0.6848 -1.6778
 4699SOL    HW225734   1.289   2.053   8.739 -0.6881  0.3994  2.6980
 4700SOL     OW25735   0.688   2.262   3.569  0.2234  0.4103 -0.0909
 4700SOL    HW125736   0.753   2.202   3.606 -0.0701  0.1311 -0.0341
 4700SOL    HW225737   0.746   2.332   3.538  0.6022  0.6728  1.2108
 4701SOL     OW25738   1.858   3.725   8.678  0.8154 -0.1510 -0.5240
 4701SOL    HW125739   1.852   3.668   8.601 -3.9385 -2.1550  1.3287
 4701SOL    HW225740   1.917   3.797   8.656 -1.8064  1.6048 -1.6945
 4702SOL     OW25741   4.581   3.428   3.889 -0.2559  0.5187 -0.3878
 4702SOL    HW125742   4.638   3.455   3.817 -1.6999  0.5939 -1.4781
 4702SOL    HW225743   4.596   3.505   3.944 -1.2786  2.0119 -2.2126
 4703SOL     OW25744   2.881   0.936   6.163  0.8411 -0.3476 -0.2040
 4703SOL    HW125745   2.875   1.012   6.106  2.9238  0.1146  0.1684
 4703SOL    HW225746   2.823   0.970   6.231  3.2945  4.0425 -0.3076
 4704SOL     OW25747   0.044   4.697   9.702  0.3749  0.0986  0.4568
 4704SOL    HW125748   4.699   4.695   9.746  0.9907  0.2550  1.6428
 4704SOL    HW225749   0.090   4.620   9.733 -0.5897 -0.9460 -0.7211
 4705SOL     OW25750   1.289   0.537   3.549 -0.3103  0.3507  0.6684
 4705SOL    HW125751   1.341   0.461   3.573 -2.7579 -2.0652 -1.7186
 4705SOL    HW225752   1.248   0.516   3.465  0.3938 -0.4531  0.5202
 4706SOL     OW25753   3.254   1.718   6.344  0.5586 -0.8855  0.0427
 4706SOL    HW125754   3.199   1.652   6.301 -0.8764  0.3402 -0.0220
 4706SOL    HW225755   3.225   1.804   6.314 -0.8939 -2.5970 -3.4144
 4707SOL     OW25756   3.613   3.480  14.249 -1.0137 -0.1017  0.0779
 4707SOL    HW125757   3.522   3.470  14.221 -0.8206 -0.8739 -0.2726
 4707SOL    HW225758   3.643   3.516  14.165  2.0328  3.6119  2.7406
 4708SOL     OW25759   3.085   0.313   2.439  0.1698 -0.6140 -0.6475
 4708SOL    HW125760   3.026   0.371   2.487  0.7635 -0.5847  0.0436
 4708SOL    HW225761   3.111   0.369   2.366  0.7494  0.6404  0.5065
 4709SOL     OW25762   4.386   1.827   5.971  0.7993 -0.0734  0.1865
 4709SOL    HW125763   4.436   1.746   5.984  0.7064  0.0766  1.5085
 4709SOL    HW225764   4.411   1.885   6.043 -0.8273  1.5506 -0.5643
 4710SOL     OW25765   3.952   1.265   4.641  0.1440 -0.4767  0.0743
 4710SOL    HW125766   4.018   1.218   4.691  0.5511 -0.3046 -0.3069
 4710SOL    HW225767   3.878   1.252   4.701 -1.6431 -0.1480 -2.0294
 4711SOL     OW25768   2.568   2.081   3.691 -0.0713 -0.1834  0.2426
 4711SOL    HW125769   2.656   2.099   3.657  0.1533  0.2399  1.0515
 4711SOL    HW225770   2.540   2.168   3.718  0.6058 -0.4148  1.6562
 4712SOL     OW25771   3.177   3.605   6.937  0.0386 -0.3739 -0.4772
 4712SOL    HW125772   3.212   3.624   7.025 -2.0495  2.3064 -0.2302
 4712SOL    HW225773   3.089   3.640   6.948  0.6401  1.5486 -1.9696
 4713SOL     OW25774   3.072   0.573   1.558 -0.3129 -0.3317  0.0542
 4713SOL    HW125775   3.085   0.662   1.592  0.5953 -0.0310 -1.0921
 4713SOL    HW225776   3.161   0.539   1.570 -1.2657 -2.8039  0.0450
 4714SOL     OW25777   2.551   1.242   6.604 -0.2018 -0.1119  0.0970
 4714SOL    HW125778   2.610   1.172   6.634  0.6595  0.7458  0.3874
 4714SOL    HW225779   2.466   1.204   6.626 -0.4028 -1.7832 -3.6134
 4715SOL     OW25780   4.257   4.037   4.232 -0.9161  0.0696 -0.4728
 4715SOL    HW125781   4.350   4.041   4.254 -0.4537 -1.8347 -2.1329
 4715SOL    HW225782   4.242   3.949   4.265 -3.2965 -0.6641 -3.5756
 4716SOL     OW25783   1.697   2.307   4.995  0.6029 -0.3003 -0.4338
 4716SOL    HW125784   1.717   2.214   4.997  0.1351 -0.3155  3.7788
 4716SOL    HW225785   1.752   2.336   4.922  0.5225 -0.1609 -0.4402
 4717SOL     OW25786   2.475   4.134  17.094  0.2078  0.1812 -0.1075
 4717SOL    HW125787   2.561   4.107  17.064 -0.2019  0.3676 -1.4609
 4717SOL    HW225788   2.503   4.146  17.185  0.9837 -0.3555 -0.2762
 4718SOL     OW25789   0.676   2.828   8.040 -0.0751  0.2424  0.5036
 4718SOL    HW125790   0.688   2.771   8.116 -2.0697  1.0068  1.3690
 4718SOL    HW225791   0.716   2.769   7.976 -0.3684  0.1502  0.4053
 4719SOL     OW25792   4.034   3.156   6.594  0.7047  0.0168 -0.1276
 4719SOL    HW125793   3.941   3.177   6.599  0.9158  1.3899 -1.8749
 4719SOL    HW225794   4.057   3.121   6.680 -0.4896  0.8661  0.5219
 4720SOL     OW25795   4.104   1.907   5.982  0.1802 -0.2664  0.4076
 4720SOL    HW125796   4.188   1.880   5.944 -0.4844 -0.5993 -0.8326
 4720SOL    HW225797   4.132   1.983   6.033 -0.0630 -0.4473  0.8079
 4721SOL     OW25798   3.796   2.126   1.807  0.0284 -1.3791  0.3671
 4721SOL    HW125799   3.701   2.112   1.810 -0.1240 -0.3234  0.1368
 4721SOL    HW225800   3.800   2.196   1.742 -2.4782 -2.0277 -0.4817
 4722SOL     OW25801   3.543   0.935   1.629  0.2629  0.5953 -0.2030
 4722SOL    HW125802   3.635   0.934   1.655  0.0657 -0.5571  0.4276
 4722SOL    HW225803   3.538   0.908   1.538 -0.5278 -4.0048  1.2184
 4723SOL     OW25804   0.708   3.703   7.707  0.0218 -0.2174  0.0848
 4723SOL    HW125805   0.797   3.694   7.742 -0.3861 -3.4092  0.2933
 4723SOL    HW225806   0.663   3.621   7.725  0.8884 -0.9455 -1.0648
 4724SOL     OW25807   2.025   3.882   8.932 -0.1187 -0.1484  0.0832
 4724SOL    HW125808   2.030   3.798   8.978 -0.3500 -0.4114 -0.3733
 4724SOL    HW225809   1.950   3.916   8.980 -1.1812  0.4189 -1.9841
 4725SOL     OW25810   1.474   3.220  12.892 -0.3261  0.2855 -0.0370
 4725SOL    HW125811   1.550   3.225  12.834 -0.0040 -2.4218  0.1541
 4725SOL    HW225812   1.450   3.128  12.886  2.0867 -0.3133 -0.1428
 4726SOL     OW25813   2.669   2.148   4.793  0.1799  0.3291 -0.2144
 4726SOL    HW125814   2.731   2.133   4.721 -0.8257  1.7607 -1.3810
 4726SOL    HW225815   2.717   2.215   4.842  0.6517  0.3742 -0.7395
 4727SOL     OW25816   4.474   2.308   1.679  0.3119 -0.3594 -0.3345
 4727SOL    HW125817   4.493   2.384   1.624 -0.3699 -0.2476 -0.4152
 4727SOL    HW225818   4.489   2.344   1.767 -1.4429 -2.1429  0.7149
 4728SOL     OW25819   4.039   2.769  12.307 -0.0351 -0.0574  1.0925
 4728SOL    HW125820   3.948   2.741  12.304  0.8328 -2.5485 -2.2822
 4728SOL    HW225821   4.085   2.690  12.279 -1.5271 -0.0579 -1.4076
 4729SOL     OW25822   4.518   3.214   3.067 -0.6414 -0.1311 -0.1045
 4729SOL    HW125823   4.552   3.138   3.020  1.4457 -0.6019  2.1398
 4729SOL    HW225824   4.557   3.285   3.017  0.1821 -0.6126 -0.1486
 4730SOL     OW25825   4.352   3.168   5.164 -0.5436 -0.3046 -0.3966
 4730SOL    HW125826   4.351   3.263   5.175  0.7538 -0.4916  1.4121
 4730SOL    HW225827   4.275   3.160   5.108 -0.2748  3.3347 -1.2829
 4731SOL     OW25828   4.570   1.563   7.477 -0.1290  0.3713  0.5969
 4731SOL    HW125829   4.589   1.520   7.560 -0.7126 -0.1215  0.4814
 4731SOL    HW225830   4.577   1.488   7.418 -0.3316  0.5285  0.3737
 4732SOL     OW25831   0.762   4.039   5.790  0.3744 -0.2571 -0.2131
 4732SOL    HW125832   0.776   4.131   5.814  1.2428  0.1605 -2.3273
 4732SOL    HW225833   0.712   4.052   5.710  3.3665 -0.4556 -2.1288
 4733SOL     OW25834   3.390   0.074   7.880 -0.1020 -0.2228  0.4233
 4733SOL    HW125835   3.390   0.159   7.922 -2.0816  0.0991 -0.2066
 4733SOL    HW225836   3.446   0.085   7.803 -0.2812 -1.4716  0.1093
 4734SOL     OW25837   0.575   0.311   5.515  0.5612  0.2772 -0.0017
 4734SOL    HW125838   0.633   0.368   5.464  0.0514  0.8904  0.0968
 4734SOL    HW225839   0.530   0.264   5.445 -0.6097  0.2943  0.7545
 4735SOL     OW25840   2.125   2.307  11.519 -0.4126 -0.1877 -0.6887
 4735SOL    HW125841   2.109   2.237  11.456 -1.2619  0.4628 -1.1888
 4735SOL    HW225842   2.181   2.368  11.470  0.8175 -0.7979 -0.0623
 4736SOL     OW25843   3.032   1.678   9.004 -0.1887  0.0639  0.6518
 4736SOL    HW125844   2.965   1.677   9.073 -0.7702 -1.6312  0.0629
 4736SOL    HW225845   2.990   1.627   8.935  0.4137 -0.3249  0.5694
 4737SOL     OW25846   2.683   0.828   5.993  0.6241  0.2005 -0.0817
 4737SOL    HW125847   2.729   0.855   6.072 -0.8057  0.1179  0.7782
 4737SOL    HW225848   2.621   0.763   6.026  0.9703 -0.7530 -1.3240
 4738SOL     OW25849   4.100   3.115   0.834  0.2461 -0.7153 -0.4425
 4738SOL    HW125850   4.117   3.094   0.926  0.4241  0.9576 -0.1000
 4738SOL    HW225851   4.082   3.027   0.798 -2.2325 -0.2234 -0.4201
 4739SOL     OW25852   2.288   3.837  11.422 -0.3409 -0.4004  0.4738
 4739SOL    HW125853   2.320   3.885  11.498  2.2990 -2.6165  0.7581
 4739SOL    HW225854   2.217   3.897  11.397 -1.0759 -0.6161  2.0595
 4740SOL     OW25855   2.846   3.638  10.641  0.6147  0.4218  0.0894
 4740SOL    HW125856   2.886   3.705  10.696 -0.2589  1.0556 -0.0540
 4740SOL    HW225857   2.791   3.696  10.588  0.6291  0.9257  0.6232
 4741SOL     OW25858   2.906   4.679   7.388  0.2033  0.4318  0.5926
 4741SOL    HW125859   2.862   4.645   7.310  2.4852  0.2025 -0.6241
 4741SOL    HW225860   2.894   0.033   7.372 -0.1054  0.3122  0.1191
 4742SOL     OW25861   1.218   1.627   9.381  0.0847  0.3161 -0.0511
 4742SOL    HW125862   1.274   1.685   9.433 -0.9568  1.0744  0.2083
 4742SOL    HW225863   1.272   1.548   9.390 -0.4681 -0.0929 -0.3650
 4743SOL     OW25864   1.330   1.011   6.252 -0.0035  0.4044  0.1266
 4743SOL    HW125865   1.243   1.004   6.293  0.3538 -0.0665  0.8043
 4743SOL    HW225866   1.387   1.026   6.327  1.0905  0.4904 -0.7200
 4744SOL     OW25867   0.518   1.610   9.414 -0.0226 -0.6816  0.3411
 4744SOL    HW125868   0.613   1.615   9.406 -0.0266 -1.2203 -0.0360
 4744SOL    HW225869   0.492   1.606   9.322  0.1574  0.3476  0.2457
 4745SOL     OW25870   2.201   3.350  16.464  0.3525 -0.0855 -0.7428
 4745SOL    HW125871   2.271   3.285  16.461 -0.0826 -0.4610 -2.6166
 4745SOL    HW225872   2.201   3.387  16.553  1.9272 -0.7057 -0.5031
 4746SOL     OW25873   0.812   1.639   2.342  0.0382  0.5698  0.4861
 4746SOL    HW125874   0.895   1.628   2.296 -0.0912 -0.5310  0.5164
 4746SOL    HW225875   0.846   1.631   2.431 -0.2767  0.3920  0.5908
 4747SOL     OW25876   0.327   4.652   2.958  0.4099  0.0916 -0.3112
 4747SOL    HW125877   0.418   4.640   2.985  0.0091 -0.7073  0.6580
 4747SOL    HW225878   0.335   4.738   2.916 -0.9879 -0.4428 -1.7006
 4748SOL     OW25879   4.094   3.580  17.044 -0.1825  0.2882  0.3253
 4748SOL    HW125880   4.148   3.606  17.119 -0.0674 -4.2438  1.8070
 4748SOL    HW225881   4.014   3.541  17.078 -0.4391  0.7761  0.2834
 4749SOL     OW25882   4.084   2.413   6.249 -0.2574  0.0790 -1.1406
 4749SOL    HW125883   4.156   2.460   6.205 -0.2050 -0.2954 -1.4574
 4749SOL    HW225884   4.087   2.455   6.335 -0.7327 -2.6987  0.2166
 4750SOL     OW25885   2.038   4.393   3.885  0.5162 -0.5310 -0.2197
 4750SOL    HW125886   2.037   4.464   3.821  2.2176  1.2402  1.6921
 4750SOL    HW225887   2.028   4.450   3.962 -2.4384 -2.2002  0.6025
 4751SOL     OW25888   1.161   0.286   4.115 -0.2654 -0.4937 -0.6977
 4751SOL    HW125889   1.146   0.220   4.182  1.1310  0.6864  0.7908
 4751SOL    HW225890   1.252   0.262   4.099 -0.0552  0.5699 -1.0887
 4752SOL     OW25891   3.824   3.657  14.822  0.1006  0.2228 -0.2351
 4752SOL    HW125892   3.848   3.614  14.740  1.3836  0.6353 -0.0841
 4752SOL    HW225893   3.788   3.583  14.870 -0.2012  1.1475  0.9604
 4753SOL     OW25894   2.495   2.430   4.833 -0.3978  0.2371  0.0923
 4753SOL    HW125895   2.540   2.506   4.796  0.4927 -0.1522  0.3780
 4753SOL    HW225896   2.490   2.368   4.760 -1.3703  0.5749 -0.1308
 4754SOL     OW25897   2.211   1.787   0.338  0.0509  0.3133 -0.3005
 4754SOL    HW125898   2.263   1.749   0.409 -1.3792  0.3660  0.7694
 4754SOL    HW225899   2.246   1.750   0.256 -1.4758 -1.8107  0.0000
 4755SOL     OW25900   2.663   3.277   3.299  0.1914 -0.3645  0.4283
 4755SOL    HW125901   2.640   3.288   3.207  0.3219  0.9414  0.5534
 4755SOL    HW225902   2.646   3.183   3.310 -0.2645 -0.1976  1.1772
 4756SOL     OW25903   2.311   4.127  10.470  0.0726 -0.1287 -0.1488
 4756SOL    HW125904   2.219   4.109  10.489 -0.2373  1.3417 -0.2759
 4756SOL    HW225905   2.283   4.170  10.389 -0.3458 -0.0389  0.0450
 4757SOL     OW25906   0.331   0.247   6.210  0.1395  0.4004  0.2642
 4757SOL    HW125907   0.305   0.202   6.129  0.4816  1.1272 -0.2451
 4757SOL    HW225908   0.408   0.296   6.181  0.5974  1.6326  3.6084
 4758SOL     OW25909   3.955   4.121   3.922  0.0097 -0.5951  0.2442
 4758SOL    HW125910   4.004   4.044   3.952 -0.2070 -0.8776 -0.1325
 4758SOL    HW225911   3.989   4.193   3.977  0.9534 -0.7219 -0.1648
 4759SOL     OW25912   3.843   0.795   5.596  0.0746 -0.4314 -0.8452
 4759SOL    HW125913   3.926   0.827   5.631  1.0437 -0.9087 -2.6907
 4759SOL    HW225914   3.778   0.860   5.623 -0.6466 -1.1870 -0.7826
 4760SOL     OW25915   1.033   0.826   5.675  0.2518  0.4652 -0.0986
 4760SOL    HW125916   1.051   0.740   5.713  0.6093  0.0850 -1.1121
 4760SOL    HW225917   0.987   0.872   5.745  0.4189 -0.0665  0.3599
 4761SOL     OW25918   0.748   2.577   3.900 -0.1244  0.0835 -1.0456
 4761SOL    HW125919   0.682   2.508   3.906 -0.2098  0.1685 -1.0062
 4761SOL    HW225920   0.797   2.574   3.982  0.8010 -0.0136 -1.6070
 4762SOL     OW25921   3.596   1.669  12.847 -0.4553  0.2940 -0.6910
 4762SOL    HW125922   3.534   1.598  12.830 -0.6954  0.6615 -1.3449
 4762SOL    HW225923   3.684   1.633  12.844  0.4890  2.8435 -3.1333
 4763SOL     OW25924   2.614   2.529   2.938 -0.0226 -0.2529  0.1247
 4763SOL    HW125925   2.578   2.454   2.891 -1.2401  0.9954 -0.9374
 4763SOL    HW225926   2.575   2.519   3.025  0.6575  0.8450  0.5599
 4764SOL     OW25927   3.945   0.452   1.335  0.2461  0.3258  0.3863
 4764SOL    HW125928   4.022   0.416   1.291  0.4649  0.3122  0.7804
 4764SOL    HW225929   3.902   0.477   1.253 -0.1180 -1.2608  0.0892
 4765SOL     OW25930   0.623   3.020   5.610 -0.4633 -0.4118 -0.3173
 4765SOL    HW125931   0.561   2.989   5.677 -0.0149 -0.5494  0.0337
 4765SOL    HW225932   0.647   3.099   5.657 -2.5953  0.8365 -1.3320
 4766SOL     OW25933   4.690   0.597   9.129 -0.1947  0.6452 -0.2056
 4766SOL    HW125934   4.636   0.671   9.100  2.1977  1.8312 -1.6591
 4766SOL    HW225935   4.719   0.632   9.213  2.3501 -1.1972 -0.3189
 4767SOL     OW25936   2.895   3.899   7.875 -0.4675  0.1410 -0.3467
 4767SOL    HW125937   2.935   3.862   7.797  1.7463  1.5592  0.1170
 4767SOL    HW225938   2.959   3.955   7.919 -1.7217  1.3984 -0.1171
 4768SOL     OW25939   1.073   3.552   8.912 -0.6418  0.0342 -0.2409
 4768SOL    HW125940   1.087   3.572   8.820  2.0193  1.1672  0.4371
 4768SOL    HW225941   0.997   3.494   8.899 -1.5439  1.0609  0.4675
 4769SOL     OW25942   1.858   1.588   3.501  0.3096 -0.0127 -0.5331
 4769SOL    HW125943   1.941   1.617   3.540  1.4577 -1.9815 -1.5280
 4769SOL    HW225944   1.793   1.624   3.562  0.3839  1.2895 -1.2194
 4770SOL     OW25945   1.996   2.787  15.388  0.8701 -0.4730  0.1263
 4770SOL    HW125946   2.026   2.840  15.462 -0.0145 -1.3499  1.1046
 4770SOL    HW225947   2.076   2.796  15.335  0.0220  3.7201 -0.4594
 4771SOL     OW25948   2.199   2.067   5.908 -0.0743 -0.0957  0.8235
 4771SOL    HW125949   2.157   2.147   5.877  0.1929 -1.0888 -2.1048
 4771SOL    HW225950   2.249   2.048   5.829  0.7153  1.7060  0.8882
 4772SOL     OW25951   2.047   3.070   9.248 -0.0235  0.4269 -0.1963
 4772SOL    HW125952   2.001   3.061   9.165 -2.2914  1.9757  0.9134
 4772SOL    HW225953   2.027   2.986   9.289 -1.2355  0.8049 -0.0375
 4773SOL     OW25954   2.831   0.784  12.910  0.0754  0.4399 -0.1225
 4773SOL    HW125955   2.827   0.781  13.005  3.2925  1.6247  0.0737
 4773SOL    HW225956   2.877   0.703  12.888 -1.0861 -0.2653  0.0836
 4774SOL     OW25957   3.132   3.610   4.037 -0.5751 -0.5100 -0.2381
 4774SOL    HW125958   3.128   3.657   4.120  3.8523 -0.8692  0.1886
 4774SOL    HW225959   3.225   3.604   4.013 -0.2732  1.1241  0.5665
 4775SOL     OW25960   0.580   0.612   4.735 -0.4515  0.1546 -0.8116
 4775SOL    HW125961   0.548   0.521   4.739  1.6516 -0.5328  0.1019
 4775SOL    HW225962   0.651   0.582   4.678  0.9420  0.2085  0.9026
 4776SOL     OW25963   0.956   1.049  14.682 -0.1202  0.0207 -0.2201
 4776SOL    HW125964   0.992   0.960  14.687  1.5716  0.6068 -2.0452
 4776SOL    HW225965   1.028   1.110  14.699  1.3772 -1.0738 -2.7102
 4777SOL     OW25966   4.615   4.217   8.046 -0.2134  0.2167  0.1564
 4777SOL    HW125967   4.659   4.143   8.087 -0.8419  0.6627  1.6008
 4777SOL    HW225968   4.594   4.183   7.959 -0.6395  0.7205  0.0657
 4778SOL     OW25969   1.312   0.029   2.877 -0.3938 -0.1332  0.0957
 4778SOL    HW125970   1.388   4.733   2.830  0.9734  1.1140  1.3836
 4778SOL    HW225971   1.346   0.013   2.965 -0.5255  0.0898  0.1856
 4779SOL     OW25972   1.030   1.651   9.169  0.3315  0.4224 -0.0821
 4779SOL    HW125973   1.095   1.695   9.115 -0.2033 -0.6398 -1.5832
 4779SOL    HW225974   1.093   1.647   9.241 -1.9559 -2.5616  1.7448
 4780SOL     OW25975   1.584   2.069   1.514  0.2394  0.2100 -0.5388
 4780SOL    HW125976   1.584   2.162   1.489 -1.3673  0.7661  1.5534
 4780SOL    HW225977   1.493   2.042   1.531  0.7890 -2.3604 -1.6857
 4781SOL     OW25978   0.547   0.326   0.271 -0.0817  0.9065 -0.2660
 4781SOL    HW125979   0.515   0.260   0.333 -0.0724  1.1177 -0.0357
 4781SOL    HW225980   0.642   0.312   0.277 -0.4629 -1.5126 -0.0536
 4782SOL     OW25981   3.726   4.036   2.685 -0.3411  0.2173  0.1235
 4782SOL    HW125982   3.726   4.068   2.775  0.6703  0.8901 -0.1074
 4782SOL    HW225983   3.638   4.002   2.673 -0.0392 -1.1095  1.8082
 4783SOL     OW25984   0.039   2.521   7.263  0.0827  0.3662  0.7341
 4783SOL    HW125985   4.734   2.439   7.242  1.7636 -0.5949  0.8943
 4783SOL    HW225986   0.074   2.507   7.350 -0.1387 -1.6337  0.5080
 4784SOL     OW25987   4.265   4.687  17.397 -0.2564  0.8282 -0.0889
 4784SOL    HW125988   4.209   0.011  17.353 -0.3328  1.0458  0.3221
 4784SOL    HW225989   4.275   4.729  17.482  0.1546  0.6524 -0.0472
 4785SOL     OW25990   3.482   1.292   9.273  0.2586 -0.0786 -0.1791
 4785SOL    HW125991   3.559   1.279   9.327 -0.1016 -0.5811  0.2105
 4785SOL    HW225992   3.429   1.216   9.297  0.0870 -0.5399 -2.0070
 4786SOL     OW25993   2.895   4.107   7.678 -0.5949 -0.0467  0.0300
 4786SOL    HW125994   2.853   4.080   7.596  1.4947  1.4395 -1.5164
 4786SOL    HW225995   2.873   4.041   7.744  0.5670 -1.1186 -0.6620
 4787SOL     OW25996   2.257   3.661  15.282  0.4907 -0.3601  0.3920
 4787SOL    HW125997   2.221   3.675  15.370  0.9697  2.6658  0.1095
 4787SOL    HW225998   2.313   3.736  15.264  1.0455 -1.0060 -0.6007
 4788SOL     OW25999   2.811   4.111   5.569 -0.1708  0.2477  0.1807
 4788SOL    HW126000   2.730   4.162   5.555 -1.0960 -1.7365 -1.6769
 4788SOL    HW226001   2.852   4.180   5.620 -2.1382  1.4917  0.1065
 4789SOL     OW26002   3.435   0.994  14.058  0.3045  0.3178  0.5057
 4789SOL    HW126003   3.371   1.063  14.071  0.2405  0.1051  1.3174
 4789SOL    HW226004   3.376   0.919  14.047 -2.0533  2.0929  1.3108
 4790SOL     OW26005   0.320   0.547  13.857  0.0553  0.1977  0.1102
 4790SOL    HW126006   0.247   0.534  13.918 -0.1601 -0.7926 -0.3505
 4790SOL    HW226007   0.374   0.578  13.930  0.2184 -1.1017  0.5453
 4791SOL     OW26008   1.510   0.255  12.087 -0.0985  0.1631 -0.2165
 4791SOL    HW126009   1.474   0.341  12.105 -0.6696 -0.0625 -0.2951
 4791SOL    HW226010   1.452   0.192  12.130  0.1156  0.2743  0.2405
 4792SOL     OW26011   0.588   1.620  11.971 -0.5575  0.2570 -0.7487
 4792SOL    HW126012   0.622   1.531  11.958  1.5557  1.2687 -2.0561
 4792SOL    HW226013   0.497   1.606  11.944 -0.2595  0.5820 -1.9076
 4793SOL     OW26014   2.932   2.568   1.508 -1.0951  0.2010 -0.6033
 4793SOL    HW126015   2.923   2.527   1.594 -2.8739 -2.5403 -2.1053
 4793SOL    HW226016   2.959   2.492   1.457 -5.1604 -0.8232 -1.2347
 4794SOL     OW26017   2.871   0.051  13.564  0.1726 -0.0264  0.1688
 4794SOL    HW126018   2.809   4.721  13.547  0.0053  0.2810 -0.4798
 4794SOL    HW226019   2.952   0.001  13.568  0.0346 -0.1385  1.4195
 4795SOL     OW26020   0.897   2.231   6.283  0.4340 -0.2431  0.4222
 4795SOL    HW126021   0.874   2.247   6.375 -1.9977  3.1971 -0.8016
 4795SOL    HW226022   0.952   2.153   6.295  0.6420 -0.4230 -1.7681
 4796SOL     OW26023   2.039   0.190   4.746  0.1639  0.1186 -0.2602
 4796SOL    HW126024   2.077   0.278   4.746 -0.2881  0.3036 -0.9112
 4796SOL    HW226025   2.077   0.157   4.828 -0.5351  1.8230  0.7479
 4797SOL     OW26026   0.689   3.082   2.895 -0.8752  0.1794  0.1369
 4797SOL    HW126027   0.647   3.158   2.853 -0.6199  0.8035  1.0011
 4797SOL    HW226028   0.780   3.109   2.884 -0.1091 -3.2113 -1.8121
 4798SOL     OW26029   2.645   2.459   5.786  0.1727 -0.2884  0.0263
 4798SOL    HW126030   2.663   2.466   5.692  1.6595  1.6749  0.4654
 4798SOL    HW226031   2.576   2.393   5.784 -2.0956  2.0719  0.7471
 4799SOL     OW26032   2.688   3.355   1.422 -0.0845 -0.4729 -0.3247
 4799SOL    HW126033   2.593   3.368   1.432  0.1525  2.1553 -1.4131
 4799SOL    HW226034   2.703   3.415   1.495  0.2884 -0.4444 -0.4247
 4800SOL     OW26035   3.923   0.417   0.058  0.5239 -0.4390  0.0576
 4800SOL    HW126036   4.017   0.435   0.059  0.5024 -0.4295  3.6338
 4800SOL    HW226037   3.884   0.473   0.126  0.7711  1.1652 -1.1346
 4801SOL     OW26038   3.231   1.447   8.397 -0.0717  0.1070 -0.0116
 4801SOL    HW126039   3.276   1.525   8.365  1.8075 -0.5896  0.8911
 4801SOL    HW226040   3.191   1.419   8.315  0.8560 -0.7402 -0.1754
 4802SOL     OW26041   4.601   4.716   3.378  0.4558 -0.0804 -0.6117
 4802SOL    HW126042   4.619   4.678   3.464 -2.1897  1.7253  0.7322
 4802SOL    HW226043   4.583   4.634   3.331  0.1373 -0.1693 -0.3351
 4803SOL     OW26044   3.783   3.934   4.646  0.1348  0.4863 -0.1489
 4803SOL    HW126045   3.876   3.948   4.630  0.4213  0.7168  1.7880
 4803SOL    HW226046   3.749   3.887   4.570  0.5362  1.3182 -0.8483
 4804SOL     OW26047   3.636   4.513   2.356  0.8935 -0.7442  0.3056
 4804SOL    HW126048   3.727   4.544   2.357 -0.3293  2.8495 -1.6772
 4804SOL    HW226049   3.630   4.473   2.269  0.3051 -1.5830  0.7380
 4805SOL     OW26050   2.282   2.035  14.170 -0.1037 -0.2127 -0.0888
 4805SOL    HW126051   2.292   2.107  14.108  0.0038 -0.5191 -0.4280
 4805SOL    HW226052   2.314   1.969  14.109  1.5411  1.5622 -1.1531
 4806SOL     OW26053   4.160   1.339   9.614 -0.4410 -0.4715 -0.2934
 4806SOL    HW126054   4.130   1.313   9.701  0.7681  0.6651  0.4549
 4806SOL    HW226055   4.109   1.279   9.560 -2.0991 -0.8716  1.7161
 4807SOL     OW26056   4.373   4.358  13.259 -0.2077  0.0079 -0.5440
 4807SOL    HW126057   4.458   4.393  13.287 -0.1999 -1.0186  0.7787
 4807SOL    HW226058   4.318   4.414  13.313  2.5779  0.1822  2.1387
 4808SOL     OW26059   1.116   3.617   2.277  0.2529  0.1768 -0.3505
 4808SOL    HW126060   1.123   3.534   2.229  0.3333  0.6939 -1.2234
 4808SOL    HW226061   1.078   3.680   2.216 -2.6612 -0.8502  0.4017
 4809SOL     OW26062   2.874   1.594   9.705 -0.2638  0.4944  0.4811
 4809SOL    HW126063   2.949   1.588   9.646  0.0385 -0.0199  0.9165
 4809SOL    HW226064   2.922   1.617   9.784 -0.4384  0.2322  0.6632
 4810SOL     OW26065   2.253   1.844   7.550 -0.1911  0.0228  0.0117
 4810SOL    HW126066   2.333   1.897   7.540  0.1857 -0.5515 -0.0402
 4810SOL    HW226067   2.208   1.901   7.611 -2.1059 -1.1756 -0.2862
 4811SOL     OW26068   1.162   4.221   2.471  0.3154  0.0848  0.2391
 4811SOL    HW126069   1.251   4.218   2.435  0.5553  1.1099  0.7780
 4811SOL    HW226070   1.144   4.132   2.502 -0.6176  0.9634  2.1984
 4812SOL     OW26071   0.430   0.937   6.816 -0.1210 -0.1767  0.2925
 4812SOL    HW126072   0.444   0.949   6.722  0.7615  3.5131  0.9032
 4812SOL    HW226073   0.447   1.025   6.848  2.1401 -0.6973  0.5237
 4813SOL     OW26074   4.560   3.223   7.172  0.1520  0.0692 -0.2428
 4813SOL    HW126075   4.480   3.270   7.195  0.7653  0.2836  1.4635
 4813SOL    HW226076   4.560   3.174   7.254  0.6740  0.7521  0.1652
 4814SOL     OW26077   0.798   4.261   6.560  0.3017  0.1257 -0.0903
 4814SOL    HW126078   0.844   4.344   6.573  1.1605 -0.4445  0.6189
 4814SOL    HW226079   0.810   4.212   6.642 -1.0561 -0.7680 -0.4295
 4815SOL     OW26080   0.593   3.182   3.150  0.1172  0.4883 -0.4540
 4815SOL    HW126081   0.652   3.158   3.078  1.5037  0.0354  0.8333
 4815SOL    HW226082   0.583   3.276   3.133  0.5822  1.0417  2.3331
 4816SOL     OW26083   4.350   2.213   9.947  0.0249 -0.0697  0.4088
 4816SOL    HW126084   4.415   2.190  10.014 -0.1019 -0.2724  0.4642
 4816SOL    HW226085   4.313   2.289   9.991 -1.1304 -2.1659  3.0592
 4817SOL     OW26086   2.417   3.350   9.248  0.1786  0.2022  0.1581
 4817SOL    HW126087   2.347   3.286   9.241  0.1433  0.2312  0.2478
 4817SOL    HW226088   2.429   3.346   9.343 -1.0304 -1.9643  0.2305
 4818SOL     OW26089   0.608   2.925  17.129  0.5446 -0.1612  0.3967
 4818SOL    HW126090   0.610   2.832  17.148 -1.9267 -0.0377  1.3826
 4818SOL    HW226091   0.550   2.946  17.056  1.7652 -0.9874 -0.7934
 4819SOL     OW26092   0.414   3.876  13.113  0.4388  0.2547 -0.2948
 4819SOL    HW126093   0.341   3.827  13.076  0.2244  1.1391 -1.0122
 4819SOL    HW226094   0.373   3.925  13.184  0.1542 -1.3293  0.6543
 4820SOL     OW26095   2.543   2.651   8.499  0.4280 -0.2629 -0.2220
 4820SOL    HW126096   2.563   2.745   8.504 -1.3391  0.2914 -3.8130
 4820SOL    HW226097   2.486   2.643   8.575 -0.3908  2.1519 -0.5613
 4821SOL     OW26098   1.387   0.796   8.599  0.3240  0.4568 -0.6882
 4821SOL    HW126099   1.466   0.750   8.572 -1.6146 -3.1041 -0.2134
 4821SOL    HW226100   1.438   0.870   8.632 -0.5701  0.2516  1.1231
 4822SOL     OW26101   1.850   3.061   3.818  0.1400 -0.2510 -0.1739
 4822SOL    HW126102   1.943   3.057   3.838 -0.1287 -2.1488  0.6550
 4822SOL    HW226103   1.812   3.076   3.904  1.2837  1.2578  0.0780
 4823SOL     OW26104   1.284   0.695   2.770 -0.5489  0.4571 -0.0937
 4823SOL    HW126105   1.267   0.622   2.829 -3.4608  1.3088  0.1293
 4823SOL    HW226106   1.245   0.771   2.813  1.6684  1.2799  0.4345
 4824SOL     OW26107   3.212   0.329   3.303 -0.2274 -0.1823  0.5427
 4824SOL    HW126108   3.283   0.355   3.244 -1.3655  0.4520 -0.5469
 4824SOL    HW226109   3.151   0.402   3.299 -1.1414 -0.9721  0.1765
 4825SOL     OW26110   3.446   2.617   9.020 -0.0660 -0.2435  0.0419
 4825SOL    HW126111   3.489   2.539   8.986  0.1782  1.1192 -2.7236
 4825SOL    HW226112   3.355   2.603   8.994  0.3537 -2.0126 -0.4745
 4826SOL     OW26113   1.455   2.943   6.386 -0.9289 -0.5241 -0.0131
 4826SOL    HW126114   1.466   3.011   6.320 -1.1965 -0.1909  0.2835
 4826SOL    HW226115   1.400   2.991   6.448 -2.6299 -0.2672 -1.7224
 4827SOL     OW26116   0.696   1.740   3.497 -0.2975  1.0353  0.1986
 4827SOL    HW126117   0.695   1.828   3.461  1.5742  0.9869  0.0361
 4827SOL    HW226118   0.602   1.741   3.515 -0.1598  0.2912  0.9707
 4828SOL     OW26119   4.385   3.457   5.476  0.0370  0.1137 -0.6289
 4828SOL    HW126120   4.413   3.412   5.556 -1.1015 -1.0572 -0.8758
 4828SOL    HW226121   4.291   3.452   5.492  0.0532 -3.5399 -1.4856
 4829SOL     OW26122   4.311   0.018  15.175 -0.3329  0.0828 -0.3110
 4829SOL    HW126123   4.308   0.075  15.098  0.5249  0.1727 -0.2701
 4829SOL    HW226124   4.404   4.737  15.175  0.0859  1.9766  1.7744
 4830SOL     OW26125   0.251   1.460   9.404  0.8539 -0.4705  0.1223
 4830SOL    HW126126   0.326   1.499   9.448  0.5337  2.2774 -1.7969
 4830SOL    HW226127   0.182   1.491   9.463 -0.5939 -2.3149 -0.5843
 4831SOL     OW26128   0.358   2.599   5.628  0.1785 -0.3809  0.2413
 4831SOL    HW126129   0.373   2.631   5.717 -0.2805 -0.0054  0.1866
 4831SOL    HW226130   0.272   2.560   5.646  0.4309 -0.8866  0.3315
 4832SOL     OW26131   1.454   1.705   7.387 -0.1516 -0.8048  0.2792
 4832SOL    HW126132   1.464   1.769   7.316  0.5643  0.8261  1.8490
 4832SOL    HW226133   1.380   1.743   7.433 -0.0802  0.8602 -1.0021
 4833SOL     OW26134   2.663   1.301   6.351 -0.5381  0.4241  0.1435
 4833SOL    HW126135   2.632   1.294   6.441 -1.9350  0.2911 -0.3456
 4833SOL    HW226136   2.612   1.373   6.313  0.0866  0.0300 -1.4708
 4834SOL     OW26137   3.102   4.344  14.916  0.1471 -0.2148  0.1924
 4834SOL    HW126138   3.057   4.378  14.993  1.2142  0.9921  0.2958
 4834SOL    HW226139   3.090   4.250  14.923 -1.5259 -0.2588 -3.0474
 4835SOL     OW26140   0.731   3.796   5.196 -0.0389 -0.3372 -0.1282
 4835SOL    HW126141   0.774   3.878   5.173 -0.0493 -0.1926  0.3718
 4835SOL    HW226142   0.780   3.734   5.141 -1.5302 -1.3879 -0.2808
 4836SOL     OW26143   4.064   2.781   6.085 -0.1930  0.1027  0.3398
 4836SOL    HW126144   3.997   2.764   6.151  1.5964 -1.0147  1.8627
 4836SOL    HW226145   4.051   2.716   6.016 -2.7858  2.5166 -1.4714
 4837SOL     OW26146   0.917   2.772  14.691  0.3907  0.1117 -0.1037
 4837SOL    HW126147   0.907   2.835  14.762 -0.9804 -1.3285  0.9695
 4837SOL    HW226148   0.934   2.689  14.734  1.4233  0.7547  0.7355
 4838SOL     OW26149   2.954   4.460   1.321 -0.3783 -0.4478 -0.2460
 4838SOL    HW126150   3.014   4.401   1.367  1.1833  0.4535 -1.1371
 4838SOL    HW226151   2.884   4.402   1.292 -0.5727  0.0079 -0.6942
 4839SOL     OW26152   3.005   2.992   1.564 -0.4148 -0.1686  0.1369
 4839SOL    HW126153   2.974   2.949   1.485  0.5679  0.7892 -0.7818
 4839SOL    HW226154   2.972   3.080   1.546  1.5544 -0.2462 -3.9058
 4840SOL     OW26155   4.535   0.499  13.738 -0.3315  0.8649 -0.2739
 4840SOL    HW126156   4.601   0.457  13.795 -1.4940  1.0755  1.2303
 4840SOL    HW226157   4.457   0.444  13.741  0.8299 -0.8544 -1.6636
 4841SOL     OW26158   2.098   1.039  12.733  0.8235 -0.2374  0.0385
 4841SOL    HW126159   2.178   1.001  12.769  0.5101  1.3534  2.4200
 4841SOL    HW226160   2.146   1.114  12.696 -0.5110  1.1966  1.2325
 4842SOL     OW26161   3.465   0.115  10.997 -0.0151  0.3425  0.3069
 4842SOL    HW126162   3.549   0.160  11.005  0.5895 -0.7983  0.4272
 4842SOL    HW226163   3.434   0.155  10.916 -1.7102  0.3274  0.9458
 4843SOL     OW26164   2.653   3.754  13.610  0.5854  0.4140 -0.8059
 4843SOL    HW126165   2.645   3.699  13.532 -0.0815 -0.3086 -0.2222
 4843SOL    HW226166   2.573   3.805  13.595 -0.8950 -2.1897 -1.7915
 4844SOL     OW26167   3.983   1.599   5.809 -0.6246 -0.7934 -0.3022
 4844SOL    HW126168   3.939   1.589   5.725  0.6578  2.7941 -1.3981
 4844SOL    HW226169   3.973   1.692   5.830  1.6268 -0.4152 -0.8828
 4845SOL     OW26170   0.082   0.357   3.698 -0.3341 -0.7264 -0.0678
 4845SOL    HW126171   0.012   0.397   3.646 -0.8009 -0.0417  1.0917
 4845SOL    HW226172   0.067   0.267   3.669  2.0496 -0.6451 -1.5323
 4846SOL     OW26173   1.623   3.337   9.457 -0.3553  0.1114  0.2593
 4846SOL    HW126174   1.604   3.297   9.372 -1.3026  0.2837  0.3982
 4846SOL    HW226175   1.560   3.293   9.514 -0.7369  1.4012  0.8337
 4847SOL     OW26176   1.405   0.141   1.397 -0.2647  0.3106  0.3536
 4847SOL    HW126177   1.431   0.103   1.481  2.6633 -2.1093 -1.6415
 4847SOL    HW226178   1.482   0.193   1.375 -1.0652  0.1273 -2.7723
 4848SOL     OW26179   4.474   3.797   0.943 -0.3069  0.2435 -0.3774
 4848SOL    HW126180   4.551   3.851   0.921 -1.0790  0.8351 -1.6401
 4848SOL    HW226181   4.409   3.829   0.880 -1.0474  0.4976  0.5208
 4849SOL     OW26182   0.870   4.169  10.212  0.3347 -0.7384  0.1520
 4849SOL    HW126183   0.963   4.187  10.197 -0.0355  1.7483  0.8028
 4849SOL    HW226184   0.874   4.162  10.308 -4.7000  2.0416  0.5786
 4850SOL     OW26185   0.471   4.486  16.081 -0.5794  0.3799 -0.3863
 4850SOL    HW126186   0.545   4.541  16.056  0.6837 -2.0774 -2.0557
 4850SOL    HW226187   0.437   4.538  16.154 -0.2902 -0.2126  0.1714
 4851SOL     OW26188   3.956   2.461   5.002 -0.0378 -0.3453 -0.1045
 4851SOL    HW126189   3.972   2.366   4.998  1.2029 -0.1437  0.1334
 4851SOL    HW226190   4.025   2.478   5.066  0.3423 -3.8177  0.4241
 4852SOL     OW26191   3.186   1.877   5.555 -0.0395 -0.6182 -0.0793
 4852SOL    HW126192   3.116   1.812   5.559 -1.4283  0.7928 -1.8346
 4852SOL    HW226193   3.154   1.953   5.603  2.8115 -1.0364  2.5654
 4853SOL     OW26194   4.054   1.539   1.081 -0.4368  0.6146  0.5652
 4853SOL    HW126195   4.128   1.580   1.035  0.2106  0.0157  1.0775
 4853SOL    HW226196   3.984   1.568   1.023  1.9580  1.0863 -2.0785
 4854SOL     OW26197   2.135   1.175   1.853  0.7121 -0.5251  0.4481
 4854SOL    HW126198   2.128   1.218   1.938 -1.9513  0.8185 -0.4668
 4854SOL    HW226199   2.174   1.090   1.873 -1.2523 -1.5595 -0.1010
 4855SOL     OW26200   2.134   1.110   3.877  0.0332  0.4198 -0.2542
 4855SOL    HW126201   2.147   1.029   3.925  1.6578 -0.6479 -2.5012
 4855SOL    HW226202   2.106   1.172   3.945 -0.0434  0.4214 -0.2865
 4856SOL     OW26203   2.091   3.448   8.447 -0.1557  0.5113  0.0376
 4856SOL    HW126204   2.053   3.535   8.456 -0.3510  0.6415 -1.8910
 4856SOL    HW226205   2.025   3.387   8.478 -0.4496 -0.2705 -2.0778
 4857SOL     OW26206   3.614   3.649   9.389 -0.3350 -0.3849 -0.2317
 4857SOL    HW126207   3.630   3.631   9.481 -0.3189 -0.6652 -0.2870
 4857SOL    HW226208   3.621   3.743   9.372  0.1243 -0.4946 -0.6754
 4858SOL     OW26209   3.522   0.389   3.970 -0.1294  0.3916 -0.4932
 4858SOL    HW126210   3.582   0.404   3.897 -0.8576  0.1393 -1.1491
 4858SOL    HW226211   3.441   0.388   3.919 -0.9267 -0.2674  0.7702
 4859SOL     OW26212   4.081   0.535  14.081  0.1875 -0.1636  0.7588
 4859SOL    HW126213   4.147   0.556  14.015 -1.4617  1.2939 -0.4117
 4859SOL    HW226214   4.031   0.472  14.029  1.7551 -0.4484 -0.3918
 4860SOL     OW26215   0.337   2.680  13.115  0.1301 -0.5248 -0.2964
 4860SOL    HW126216   0.360   2.717  13.030 -0.3202 -0.0210 -0.1980
 4860SOL    HW226217   0.331   2.750  13.180  1.6850 -1.2146  0.5833
 4861SOL     OW26218   0.831   0.834  13.989  0.1927 -0.0999 -0.2166
 4861SOL    HW126219   0.876   0.812  14.071  2.3292  3.1582 -0.5289
 4861SOL    HW226220   0.830   0.929  14.001 -1.4183 -0.1609  0.1427
 4862SOL     OW26221   3.058   3.764   2.282 -0.1532 -0.1102 -0.0168
 4862SOL    HW126222   3.129   3.804   2.332 -0.1767  0.5516 -0.5078
 4862SOL    HW226223   2.984   3.820   2.306 -0.8286 -0.7216 -0.7028
 4863SOL     OW26224   3.074   0.813   0.133  0.2663 -0.9774 -0.3443
 4863SOL    HW126225   3.162   0.796   0.098 -0.2924 -0.6106 -1.9255
 4863SOL    HW226226   3.090   0.797   0.226 -2.6152 -0.7112  0.2039
 4864SOL     OW26227   2.535   0.872   4.468  0.2914  0.3878  0.8173
 4864SOL    HW126228   2.485   0.802   4.510  0.6394 -0.2015  0.2478
 4864SOL    HW226229   2.563   0.825   4.390 -1.4922 -0.5597  0.7550
 4865SOL     OW26230   0.016   2.878   8.833  0.1405 -0.0799  0.2264
 4865SOL    HW126231   0.078   2.937   8.876 -0.0592 -1.2806  2.1618
 4865SOL    HW226232   0.020   2.795   8.880 -1.7474  0.4758  1.3890
 4866SOL     OW26233   3.050   0.065   0.813 -0.3455  0.5898  0.0404
 4866SOL    HW126234   2.980   0.010   0.849 -0.4544  1.8975  1.8893
 4866SOL    HW226235   2.994   0.143   0.805 -0.0802  0.7338 -0.3719
 4867SOL     OW26236   3.406   2.014  16.373  0.4881 -0.0940 -0.6613
 4867SOL    HW126237   3.465   2.079  16.411  1.5310 -1.3871 -0.0687
 4867SOL    HW226238   3.474   1.951  16.350 -1.4127 -1.5351 -2.3803
 4868SOL     OW26239   0.846   2.487  13.132  0.1338 -0.2182  0.1069
 4868SOL    HW126240   0.933   2.515  13.160  0.0903 -0.9019  0.9413
 4868SOL    HW226241   0.820   2.556  13.072  1.4494  1.1546  1.1309
 4869SOL     OW26242   3.104   2.824  15.930 -0.4513  0.2888 -0.2811
 4869SOL    HW126243   3.050   2.784  15.862  0.7247 -1.9923  0.1290
 4869SOL    HW226244   3.194   2.795  15.913 -0.6956  0.4706 -1.8627
 4870SOL     OW26245   0.066   1.116   1.448  0.4092 -0.1442  0.0796
 4870SOL    HW126246   0.044   1.041   1.502 -1.5229 -0.5187 -1.1944
 4870SOL    HW226247   0.157   1.092   1.432  0.3241 -0.4396  0.0312
 4871SOL     OW26248   1.019   2.668  12.172  0.2415 -1.0262 -0.5251
 4871SOL    HW126249   1.071   2.715  12.106  1.8752  0.4611  1.8250
 4871SOL    HW226250   0.939   2.714  12.148 -0.7664 -2.4011  0.2427
 4872SOL     OW26251   1.024   4.085   9.365  0.1925  0.3831  0.1153
 4872SOL    HW126252   1.064   4.033   9.295 -1.6116 -2.2956  1.0979
 4872SOL    HW226253   0.975   4.156   9.322 -2.7137 -1.4561  0.4182
 4873SOL     OW26254   3.006   2.699  17.045  0.4267 -0.0168 -0.1289
 4873SOL    HW126255   3.026   2.780  17.092 -0.5094  0.2586 -0.1915
 4873SOL    HW226256   3.081   2.648  17.074  1.3488  1.2079 -0.4033
 4874SOL     OW26257   3.373   3.204   3.424  0.4040 -0.1026 -0.6903
 4874SOL    HW126258   3.297   3.235   3.375  0.2854  0.7244  0.0091
 4874SOL    HW226259   3.443   3.232   3.365  1.7730 -0.3404  0.8062
 4875SOL     OW26260   0.175   1.312   6.876  0.9231  0.3615  0.6538
 4875SOL    HW126261   0.095   1.364   6.877 -0.0152 -1.0674  0.5669
 4875SOL    HW226262   0.157   1.256   6.801  0.8016  1.4416 -0.1108
 4876SOL     OW26263   0.965   1.934  12.929  0.0558 -0.0531 -0.1062
 4876SOL    HW126264   0.876   1.948  12.895  0.2289 -1.8574 -1.2835
 4876SOL    HW226265   1.021   1.971  12.861 -1.2599  0.0195 -1.1616
 4877SOL     OW26266   0.430   1.426   3.999  0.3389  0.2038 -0.0760
 4877SOL    HW126267   0.419   1.345   3.948 -0.9716  0.0368  0.4649
 4877SOL    HW226268   0.433   1.489   3.927 -1.2272 -2.0934 -2.1635
 4878SOL     OW26269   2.872   0.099   3.586  0.1411 -0.5606 -0.0285
 4878SOL    HW126270   2.922   0.116   3.506  0.7819 -0.8951  0.2960
 4878SOL    HW226271   2.931   0.134   3.653  1.1438 -0.8840 -0.7408
 4879SOL     OW26272   2.096   0.606   4.242 -0.2024 -0.2433  0.5518
 4879SOL    HW126273   2.102   0.614   4.337  0.7614 -0.0060  0.4669
 4879SOL    HW226274   2.022   0.663   4.219 -1.2588 -2.0429 -0.4731
 4880SOL     OW26275   2.724   3.465   4.681  0.4344  0.1642 -0.4404
 4880SOL    HW126276   2.693   3.376   4.669 -1.0951  0.9493 -2.3071
 4880SOL    HW226277   2.667   3.523   4.629 -0.6893 -0.1195  0.4783
 4881SOL     OW26278   1.766   2.416   4.232  0.0148 -0.1778 -0.1821
 4881SOL    HW126279   1.823   2.434   4.157  0.6147 -1.1938  0.0328
 4881SOL    HW226280   1.835   2.382   4.288 -1.6376 -2.5893  0.3903
 4882SOL     OW26281   3.003   1.185   5.326  0.3320 -0.6257  0.6200
 4882SOL    HW126282   2.981   1.132   5.402  0.9799 -1.3783  0.2790
 4882SOL    HW226283   3.040   1.121   5.265  1.3806  1.1558 -0.6013
 4883SOL     OW26284   4.677   4.472   4.258  0.1790 -0.0588  0.0582
 4883SOL    HW126285   0.021   4.518   4.253 -0.9044  1.7903 -1.1629
 4883SOL    HW226286   4.624   4.511   4.327  1.8012 -1.1406  1.8929
 4884SOL     OW26287   3.424   3.383   6.125 -0.1297  0.1098 -0.4907
 4884SOL    HW126288   3.445   3.339   6.207  1.7287  1.7669 -0.0768
 4884SOL    HW226289   3.333   3.357   6.112 -1.4453  2.7475  3.4548
 4885SOL     OW26290   0.240   3.156   0.540  0.4400 -0.3490 -0.2116
 4885SOL    HW126291   0.156   3.115   0.517  1.0882 -2.0163  0.4288
 4885SOL    HW226292   0.257   3.187   0.451 -0.7486  0.5222 -0.1395
 4886SOL     OW26293   2.015   3.286   1.354  0.0366  0.6706  0.5627
 4886SOL    HW126294   2.092   3.343   1.351 -0.1629  0.8781 -0.7280
 4886SOL    HW226295   2.048   3.197   1.364  0.3739  0.6934 -0.3462
 4887SOL     OW26296   3.839   0.569   0.255  0.0437  0.1000 -0.3713
 4887SOL    HW126297   3.810   0.537   0.340  2.3005  1.4811  0.9102
 4887SOL    HW226298   3.875   0.655   0.275 -1.3050  0.4907  0.3431
 4888SOL     OW26299   1.644   4.266   9.362 -0.6271 -0.0852 -0.7124
 4888SOL    HW126300   1.732   4.230   9.364 -0.0890  1.4953  3.2851
 4888SOL    HW226301   1.654   4.352   9.321 -0.4734 -0.2679 -1.0527
 4889SOL     OW26302   0.845   2.593   4.186 -0.3447 -0.1947 -0.0341
 4889SOL    HW126303   0.879   2.504   4.179 -1.9409 -0.9414  1.5706
 4889SOL    HW226304   0.883   2.619   4.270  0.0671  1.2555 -0.6571
 4890SOL     OW26305   4.452   2.767   7.337 -0.3725  0.6067 -0.2765
 4890SOL    HW126306   4.394   2.724   7.273 -0.9551 -0.6208  1.0661
 4890SOL    HW226307   4.395   2.795   7.409  0.6828  1.7382  0.1192
 4891SOL     OW26308   1.379   0.317   1.713 -0.0343 -0.2343  0.4087
 4891SOL    HW126309   1.429   0.359   1.783 -1.1353 -0.2169  1.1767
 4891SOL    HW226310   1.384   0.381   1.642 -0.2789 -0.9753 -0.2755
 4892SOL     OW26311   2.407   3.387   1.569 -0.1397 -0.1481 -0.1896
 4892SOL    HW126312   2.341   3.426   1.626  0.1296  0.7618 -0.4869
 4892SOL    HW226313   2.433   3.315   1.626 -0.8058  1.6128  2.3167
 4893SOL     OW26314   4.420   0.122   5.487  0.4393  0.0861 -0.5304
 4893SOL    HW126315   4.425   0.100   5.394 -1.4181 -0.8782 -0.3908
 4893SOL    HW226316   4.424   0.217   5.477 -1.9303  0.0404 -1.8156
 4894SOL     OW26317   0.734   1.495  10.611  0.3737 -0.7401 -0.0447
 4894SOL    HW126318   0.657   1.506  10.667 -0.2358 -0.6644 -0.9011
 4894SOL    HW226319   0.796   1.461  10.676 -0.4044  0.2844  1.2473
 4895SOL     OW26320   0.506   0.202   4.006  0.1113  0.4955  0.6024
 4895SOL    HW126321   0.587   0.161   4.035  0.8663  0.2385 -1.8648
 4895SOL    HW226322   0.455   0.121   4.002  0.1347  0.4390  1.5518
 4896SOL     OW26323   3.914   4.521   2.661  0.4068 -0.4741 -0.2605
 4896SOL    HW126324   3.848   4.453   2.671 -0.3996  0.2944 -0.3525
 4896SOL    HW226325   3.990   4.477   2.699  0.4116 -0.8666 -0.7244
 4897SOL     OW26326   4.283   0.191   8.545 -0.0835 -0.6742 -0.0715
 4897SOL    HW126327   4.253   0.100   8.547  0.8580 -0.9548  0.7108
 4897SOL    HW226328   4.289   0.206   8.451 -1.6025  1.1903  0.1373
 4898SOL     OW26329   2.389   3.773   4.010  0.0140  0.3476 -0.5138
 4898SOL    HW126330   2.454   3.761   3.941  1.0684  0.2956  0.4960
 4898SOL    HW226331   2.369   3.865   3.995  0.3791  0.5935  0.5407
 4899SOL     OW26332   1.735   0.878   3.729 -0.3334  0.1318 -0.3123
 4899SOL    HW126333   1.813   0.919   3.692 -1.9723  1.5025 -2.2736
 4899SOL    HW226334   1.772   0.817   3.793  2.1077  0.5466 -1.3329
 4900SOL     OW26335   0.930   2.734   2.974  0.4293  0.1006 -0.5895
 4900SOL    HW126336   0.860   2.736   3.040  0.9017  0.4240 -0.0948
 4900SOL    HW226337   0.889   2.761   2.892 -0.1909 -1.8931 -0.9372
 4901SOL     OW26338   2.097   3.277  12.718 -0.6642  0.0692  0.2598
 4901SOL    HW126339   2.160   3.209  12.697 -1.6460 -1.6046  2.7170
 4901SOL    HW226340   2.039   3.275  12.642  0.2489 -0.3140 -0.4280
 4902SOL     OW26341   2.094   2.224  11.792 -0.4646  0.1161 -0.6513
 4902SOL    HW126342   2.093   2.244  11.698 -0.0793 -0.1038 -0.7014
 4902SOL    HW226343   2.007   2.186  11.800 -0.1399 -0.1107  1.5805
 4903SOL     OW26344   2.528   2.359  12.874  0.4603  0.3001  0.4829
 4903SOL    HW126345   2.457   2.424  12.875  0.4559  0.3333 -1.7327
 4903SOL    HW226346   2.530   2.332  12.782 -1.5326 -0.1159  0.5731
 4904SOL     OW26347   3.823   2.036  10.089 -0.0307  0.3515 -0.3099
 4904SOL    HW126348   3.818   2.132  10.089 -0.1634  0.3495 -1.2777
 4904SOL    HW226349   3.846   2.026   9.996  0.4132  1.5091 -0.3222
 4905SOL     OW26350   2.686   2.290   3.361 -0.0984  0.0234  0.0962
 4905SOL    HW126351   2.712   2.382   3.356 -2.8037  0.7574 -0.6691
 4905SOL    HW226352   2.625   2.285   3.288 -0.4124  0.2344  0.3460
 4906SOL     OW26353   3.905   1.049   0.752  0.1614 -0.1015 -0.6775
 4906SOL    HW126354   3.820   1.082   0.723  1.3635  0.4637 -3.5438
 4906SOL    HW226355   3.937   1.116   0.813 -1.4314 -1.5241  1.6943
 4907SOL     OW26356   0.773   0.642   8.054  0.0158  0.0758 -0.6193
 4907SOL    HW126357   0.734   0.599   7.978  1.8184 -1.6990 -0.5334
 4907SOL    HW226358   0.696   0.683   8.093  1.4157  2.0966  0.0124
 4908SOL     OW26359   2.582   4.023   0.598  0.3300 -0.1730 -0.1519
 4908SOL    HW126360   2.636   3.991   0.670  0.8168 -2.5277 -1.6055
 4908SOL    HW226361   2.635   4.100   0.576 -0.8959  0.3675 -1.2425
 4909SOL     OW26362   0.899   0.059   1.888 -0.0495  0.4323 -0.6943
 4909SOL    HW126363   0.889   4.704   1.890 -1.3472  0.5850  0.0194
 4909SOL    HW226364   0.993   0.060   1.870  0.1567  0.1597  0.3351
 4910SOL     OW26365   0.288   1.809   8.928  0.6981  0.3375  0.3083
 4910SOL    HW126366   0.225   1.808   8.856  0.6260 -1.3458  0.4058
 4910SOL    HW226367   0.282   1.900   8.959  1.1494  0.4622  0.0269
 4911SOL     OW26368   2.900   2.646  16.272  0.1944  0.5717 -0.2950
 4911SOL    HW126369   2.828   2.583  16.279  2.2564 -1.6568  1.0651
 4911SOL    HW226370   2.879   2.690  16.190 -0.1606 -2.3127 -1.7836
 4912SOL     OW26371   2.609   3.836  13.875 -0.0081  0.5071 -0.1177
 4912SOL    HW126372   2.520   3.864  13.856 -0.4621 -0.8318 -0.0095
 4912SOL    HW226373   2.629   3.787  13.795 -1.0640  0.2624 -0.2298
 4913SOL     OW26374   3.949   2.714   4.882  0.2777 -0.2968 -0.2493
 4913SOL    HW126375   3.947   2.620   4.902  0.8296  0.1335  1.8234
 4913SOL    HW226376   3.899   2.716   4.801 -0.9703 -0.5862  0.5199
 4914SOL     OW26377   3.671   2.368   4.678  0.3804 -0.3677 -0.2652
 4914SOL    HW126378   3.741   2.313   4.643  0.5386 -0.5944  0.4109
 4914SOL    HW226379   3.693   2.359   4.770 -1.1684  2.1323  0.3598
 4915SOL     OW26380   3.866   4.458  17.216 -0.1584 -0.4228  0.3643
 4915SOL    HW126381   3.777   4.488  17.200  0.1607  0.5116  0.3124
 4915SOL    HW226382   3.890   4.462  17.123  0.7237 -1.2495  0.5660
 4916SOL     OW26383   3.370   0.762   1.105 -0.3616 -0.7427  0.1953
 4916SOL    HW126384   3.315   0.684   1.116 -0.4060 -0.7204  0.1317
 4916SOL    HW226385   3.440   0.729   1.161 -1.4391 -0.5425  1.6570
 4917SOL     OW26386   3.550   3.364   1.422 -0.1965 -0.0279 -0.0812
 4917SOL    HW126387   3.579   3.455   1.417 -2.0475  0.4417 -2.0898
 4917SOL    HW226388   3.457   3.377   1.439 -0.4251  0.2574 -1.5678
 4918SOL     OW26389   4.428   2.865   2.103  0.4447 -0.5640 -0.1246
 4918SOL    HW126390   4.333   2.870   2.106  0.5495  1.2926 -0.0947
 4918SOL    HW226391   4.444   2.784   2.152 -2.1187 -0.5708  0.6800
 4919SOL     OW26392   3.805   3.869   9.458 -0.3822  0.4071 -0.0052
 4919SOL    HW126393   3.824   3.876   9.552  3.7475 -0.5104 -0.7989
 4919SOL    HW226394   3.808   3.961   9.432 -0.3252  0.3338 -0.2526
 4920SOL     OW26395   1.123   3.229   0.090 -0.3700  0.4438 -0.1153
 4920SOL    HW126396   1.094   3.317   0.066 -3.1232 -0.2098  0.7987
 4920SOL    HW226397   1.217   3.232   0.077 -0.1081 -0.2690  1.6559
 4921SOL     OW26398   1.075   1.999   6.332  0.1681 -0.1636  0.5166
 4921SOL    HW126399   1.033   1.917   6.310  1.8316 -1.4333  2.0532
 4921SOL    HW226400   1.164   1.977   6.359  0.3257 -1.0564 -0.7988
 4922SOL     OW26401   1.200   1.522   6.810 -0.5282 -0.2985 -0.1841
 4922SOL    HW126402   1.281   1.471   6.808 -0.4909 -0.1181 -2.8794
 4922SOL    HW226403   1.132   1.462   6.781 -2.0165  0.5651  1.5150
 4923SOL     OW26404   4.017   2.419   4.722  0.1659 -0.0430  0.1272
 4923SOL    HW126405   4.088   2.376   4.674  0.4621 -1.8789  2.2461
 4923SOL    HW226406   4.001   2.357   4.792  2.4879 -0.2666  0.4525
 4924SOL     OW26407   3.419   2.117   4.193 -0.5005  0.0839  0.1102
 4924SOL    HW126408   3.390   2.187   4.135  0.7905  0.5354 -0.0056
 4924SOL    HW226409   3.511   2.141   4.208 -0.7919  1.0820  0.2675
 4925SOL     OW26410   1.280   2.900   2.737  0.4471  0.7870  0.4184
 4925SOL    HW126411   1.375   2.889   2.736  0.3724  0.4354 -3.1077
 4925SOL    HW226412   1.249   2.857   2.657  0.7495  3.1037 -0.9374
 4926SOL     OW26413   3.017   4.125   8.287 -0.3771  0.5839 -0.3533
 4926SOL    HW126414   3.105   4.161   8.296 -0.8930  1.7099  0.0909
 4926SOL    HW226415   2.953   4.180   8.331 -2.0260 -1.6605  0.0943
 4927SOL     OW26416   0.806   0.265   3.771 -0.2390  0.7141  0.2338
 4927SOL    HW126417   0.774   0.281   3.683  0.6928 -0.4541 -0.3175
 4927SOL    HW226418   0.830   0.173   3.759  0.7269  0.8543  1.1046
 4928SOL     OW26419   1.992   1.558  12.180  0.2414  0.0338  0.2164
 4928SOL    HW126420   1.931   1.547  12.253 -0.3795  0.2619 -0.2686
 4928SOL    HW226421   2.041   1.635  12.207 -1.1166 -0.0564  2.9768
 4929SOL     OW26422   2.548   2.095   5.888 -0.0411 -0.5184 -0.6062
 4929SOL    HW126423   2.485   2.061   5.824 -0.3442 -2.1967  0.5873
 4929SOL    HW226424   2.503   2.177   5.909  2.4201  0.7792 -0.3015
 4930SOL     OW26425   3.545   4.714  11.227 -0.2124  0.5956  0.2066
 4930SOL    HW126426   3.506   4.732  11.142 -0.1613 -0.2640  0.0003
 4930SOL    HW226427   3.555   0.063  11.261  3.3362  0.1111  0.3830
 4931SOL     OW26428   1.710   0.474  14.811 -0.3415  0.4644 -0.4509
 4931SOL    HW126429   1.661   0.403  14.853  0.4675 -1.2675 -2.4731
 4931SOL    HW226430   1.772   0.428  14.756  0.0905  2.1037 -1.3535
 4932SOL     OW26431   2.487   1.484   2.762  0.6135  0.5095 -0.0510
 4932SOL    HW126432   2.464   1.533   2.841 -4.0347 -2.2587  0.3643
 4932SOL    HW226433   2.581   1.501   2.759  0.6576  0.6755  2.3830
 4933SOL     OW26434   3.069   0.716  16.685  0.0254 -0.3627 -0.1659
 4933SOL    HW126435   3.114   0.779  16.630 -0.4834  1.0165  0.9963
 4933SOL    HW226436   2.980   0.698  16.653  0.2738 -2.4057  0.3192
 4934SOL     OW26437   4.314   3.305  14.078  0.1592  0.5510 -0.0173
 4934SOL    HW126438   4.333   3.280  14.168  0.6778 -1.8847 -0.8227
 4934SOL    HW226439   4.404   3.327  14.056  0.4893 -0.5983  0.1874
 4935SOL     OW26440   1.256   1.628   6.262  0.0824  0.3929  0.3266
 4935SOL    HW126441   1.320   1.692   6.229  0.3335 -0.1494 -0.2374
 4935SOL    HW226442   1.229   1.669   6.345  0.8941  0.0638  0.7542
 4936SOL     OW26443   2.336   2.252   8.529 -0.2163  0.2406  0.1965
 4936SOL    HW126444   2.296   2.219   8.610 -2.2349 -0.4360 -1.0896
 4936SOL    HW226445   2.324   2.183   8.465 -3.7134 -0.1160  1.2251
 4937SOL     OW26446   1.602   3.131   8.778  0.2239  0.4062  0.8657
 4937SOL    HW126447   1.685   3.124   8.826  0.3637 -1.7752  0.3409
 4937SOL    HW226448   1.613   3.221   8.749 -2.2498  0.1362 -0.8185
 4938SOL     OW26449   3.415   3.926   1.600 -0.3015 -0.7727  0.2002
 4938SOL    HW126450   3.500   3.917   1.643  0.2755  0.1694 -0.7378
 4938SOL    HW226451   3.372   3.846   1.629 -0.1965 -1.0761 -0.4771
 4939SOL     OW26452   1.089   2.324  11.401  0.0361  0.5110 -0.1188
 4939SOL    HW126453   1.096   2.417  11.421 -1.4363  0.6641 -0.3019
 4939SOL    HW226454   1.043   2.319  11.317  2.7666  0.9788 -1.6223
 4940SOL     OW26455   3.072   0.645   7.474  0.4435 -0.1607  0.6324
 4940SOL    HW126456   3.162   0.616   7.457  0.4553  0.0983  0.2501
 4940SOL    HW226457   3.075   0.730   7.429  0.7039 -1.0176 -0.9819
 4941SOL     OW26458   2.835   3.079  15.934 -0.0348  0.0408  0.1022
 4941SOL    HW126459   2.802   2.994  15.904 -3.5028  1.5085 -0.1867
 4941SOL    HW226460   2.762   3.112  15.986 -1.9000 -1.6800 -1.4315
 4942SOL     OW26461   0.297   2.398   1.323  0.6360  0.2374  0.5161
 4942SOL    HW126462   0.273   2.307   1.342 -0.5210  0.8048  1.8312
 4942SOL    HW226463   0.229   2.431   1.264  0.7647 -4.0518 -2.0306
 4943SOL     OW26464   1.511   1.523  12.362  0.0855 -0.3481  0.0497
 4943SOL    HW126465   1.416   1.524  12.378  0.3744  0.1089  1.6754
 4943SOL    HW226466   1.535   1.598  12.415  2.9347 -0.0277 -1.7237
 4944SOL     OW26467   2.043   1.375   6.990 -0.1706 -0.0907  0.1437
 4944SOL    HW126468   2.074   1.382   7.080 -0.7195  0.9219  0.2508
 4944SOL    HW226469   2.025   1.281   6.998 -2.9819  0.5172  1.0218
 4945SOL     OW26470   2.772   3.510  11.887 -0.0109  0.1569  0.1244
 4945SOL    HW126471   2.729   3.481  11.967  0.7597  0.3257  0.6000
 4945SOL    HW226472   2.724   3.588  11.858  0.0678 -0.5681 -1.9360
 4946SOL     OW26473   3.159   1.225  16.677 -0.1796 -0.3973  0.2013
 4946SOL    HW126474   3.172   1.133  16.697 -0.9277 -0.8046 -1.1477
 4946SOL    HW226475   3.190   1.236  16.587 -4.0627  0.4442 -1.0283
 4947SOL     OW26476   2.270   3.558  10.036  0.3430 -0.4285  0.3667
 4947SOL    HW126477   2.338   3.578  10.100  0.7294 -0.3273 -0.0682
 4947SOL    HW226478   2.209   3.631  10.050 -0.4997 -1.2567  0.9936
 4948SOL     OW26479   1.442   2.014   3.147 -0.1566 -0.2901 -0.3909
 4948SOL    HW126480   1.349   2.009   3.168  0.0330  2.0789  1.0252
 4948SOL    HW226481   1.464   1.926   3.117 -1.4862 -0.6540 -0.3041
 4949SOL     OW26482   4.197   3.082   5.387  0.2842 -0.0122 -0.4391
 4949SOL    HW126483   4.261   3.114   5.323  1.8682 -1.6466  0.3349
 4949SOL    HW226484   4.191   2.989   5.366 -0.5403  0.4386 -2.2113
 4950SOL     OW26485   0.858   3.988   3.020  0.4079 -0.0744 -0.5543
 4950SOL    HW126486   0.938   4.019   3.063  0.7532 -0.4002 -0.9623
 4950SOL    HW226487   0.796   4.009   3.090  0.4244  1.6041 -1.0355
 4951SOL     OW26488   4.068   3.327   9.213 -0.2516 -0.4585 -0.5156
 4951SOL    HW126489   4.109   3.392   9.270 -0.1681 -0.4720 -0.5596
 4951SOL    HW226490   4.118   3.331   9.131 -1.8510 -0.1575 -1.4669
 4952SOL     OW26491   3.949   1.144   2.799  0.4567  0.5194 -0.5869
 4952SOL    HW126492   3.976   1.233   2.775 -1.0401  1.4010  1.0401
 4952SOL    HW226493   3.960   1.156   2.893  0.0913 -0.5421 -0.4205
 4953SOL     OW26494   4.105   2.066  11.208 -0.1156 -0.9210  0.7029
 4953SOL    HW126495   4.176   2.107  11.159  0.1133 -1.9897  0.1521
 4953SOL    HW226496   4.055   2.141  11.239 -1.3973 -1.4593 -0.0772
 4954SOL     OW26497   3.882   3.624   6.773 -0.3096 -0.1846  0.1137
 4954SOL    HW126498   3.838   3.616   6.858  0.4342 -0.6566  0.4570
 4954SOL    HW226499   3.959   3.676   6.796  0.2608 -0.1415 -1.8464
 4955SOL     OW26500   2.832   2.187   2.120 -0.5113  0.1457  0.6912
 4955SOL    HW126501   2.821   2.263   2.063  0.6833 -1.0807 -1.2195
 4955SOL    HW226502   2.927   2.181   2.128 -0.5152  0.5738  1.0327
 4956SOL     OW26503   2.113   1.837   8.237 -0.3294 -0.2598 -0.1268
 4956SOL    HW126504   2.024   1.865   8.254 -0.0776 -0.3495  1.3246
 4956SOL    HW226505   2.166   1.889   8.297 -0.2890 -0.1163 -0.2870
 4957SOL     OW26506   3.701   3.898   9.204  0.3513  0.5618 -0.3243
 4957SOL    HW126507   3.738   3.910   9.291  0.6379 -3.5895  0.1513
 4957SOL    HW226508   3.609   3.921   9.221  0.1235  0.6904 -1.7539
 4958SOL     OW26509   0.630   1.621   2.833 -0.3436  0.0182  0.1314
 4958SOL    HW126510   0.651   1.649   2.922 -1.0936 -0.4550  0.4518
 4958SOL    HW226511   0.703   1.653   2.780  0.2124 -1.5299 -0.0201
 4959SOL     OW26512   0.244   1.486   9.705 -0.7311 -0.8624  0.8075
 4959SOL    HW126513   0.212   1.410   9.754 -2.0688 -1.2686 -0.7135
 4959SOL    HW226514   0.337   1.465   9.706 -0.2671  1.1574  0.1992
 4960SOL     OW26515   3.827   0.898   7.150 -0.5254  0.4028  0.0190
 4960SOL    HW126516   3.747   0.884   7.100 -1.7592  1.9158  1.5786
 4960SOL    HW226517   3.821   0.992   7.168 -0.0840  0.4392 -0.0167
 4961SOL     OW26518   2.756   0.498  15.988  0.3560 -0.4700 -0.3452
 4961SOL    HW126519   2.850   0.518  15.981  0.2031  0.3116 -0.0914
 4961SOL    HW226520   2.721   0.585  16.005 -2.5395 -1.6717 -0.2627
 4962SOL     OW26521   1.250   2.636   6.982 -0.3270 -0.0213 -0.4490
 4962SOL    HW126522   1.199   2.669   7.056 -1.1325 -1.7455 -0.2321
 4962SOL    HW226523   1.195   2.571   6.937 -1.3805  0.2932  0.3938
 4963SOL     OW26524   2.897   0.401  14.898 -0.1027  0.1018 -0.3130
 4963SOL    HW126525   2.873   0.417  14.807  2.1513 -0.8576 -1.0850
 4963SOL    HW226526   2.991   0.383  14.893 -0.2421  0.0869 -2.8899
 4964SOL     OW26527   0.890   4.333   9.296  0.2882 -0.5360  0.4986
 4964SOL    HW126528   0.872   4.327   9.202  1.5424 -0.3937  0.2542
 4964SOL    HW226529   0.932   4.419   9.297  0.5064 -0.5739 -2.7218
 4965SOL     OW26530   3.157   0.500   7.204 -0.5074  0.1813 -0.2333
 4965SOL    HW126531   3.081   0.557   7.213 -1.2149 -0.4435 -2.2967
 4965SOL    HW226532   3.124   0.427   7.151  2.4888 -2.1512  1.0690
 4966SOL     OW26533   0.615   1.295   9.219  0.5386  1.0102 -0.2857
 4966SOL    HW126534   0.700   1.293   9.264  0.5110  1.7850 -0.1994
 4966SOL    HW226535   0.550   1.300   9.288  1.0085  0.7080  0.1751
 4967SOL     OW26536   2.774   1.513   2.345 -0.4395  0.0152  0.0630
 4967SOL    HW126537   2.869   1.515   2.332 -0.4387 -3.9476 -0.6856
 4967SOL    HW226538   2.780   1.477   2.434 -0.1820 -1.4311 -0.5337
 4968SOL     OW26539   1.799   0.779   0.152 -0.0394 -0.4625 -0.0202
 4968SOL    HW126540   1.801   0.745   0.063  1.5818 -0.2992 -0.0466
 4968SOL    HW226541   1.850   0.859   0.133 -3.1117  1.2964 -0.8378
 4969SOL     OW26542   0.094   1.516  15.088 -0.1111  0.1636  0.2214
 4969SOL    HW126543   0.033   1.447  15.061  1.7713 -0.9924 -1.0046
 4969SOL    HW226544   0.057   1.601  15.064  0.7448 -0.2309 -2.4671
 4970SOL     OW26545   4.333   1.599   0.544  0.1793 -0.2644 -0.0531
 4970SOL    HW126546   4.428   1.591   0.557  0.0141 -1.2872  0.4980
 4970SOL    HW226547   4.322   1.682   0.591  1.8374  0.8428 -1.6515
 4971SOL     OW26548   1.498   1.752   3.073 -0.0938 -0.1392  0.4397
 4971SOL    HW126549   1.439   1.679   3.057  0.8364 -0.8629  0.3595
 4971SOL    HW226550   1.577   1.705   3.096 -0.4076 -0.8909 -0.0066
 4972SOL     OW26551   2.196   1.110   2.537 -0.5109 -0.2844  0.1340
 4972SOL    HW126552   2.105   1.139   2.538  0.3290  2.3975 -0.6456
 4972SOL    HW226553   2.241   1.186   2.575 -0.3110 -0.5496  0.4337
 4973SOL     OW26554   0.412   4.247   8.048 -1.1967 -0.1298  0.3509
 4973SOL    HW126555   0.463   4.325   8.070  0.3114 -1.1690  0.5796
 4973SOL    HW226556   0.323   4.274   8.070 -1.2865  0.6580 -0.9975
 4974SOL     OW26557   4.489   2.833   0.633 -0.2147 -0.1545  0.5083
 4974SOL    HW126558   4.441   2.888   0.695 -0.9151 -0.8018  0.5474
 4974SOL    HW226559   4.573   2.878   0.632  1.1821 -2.8559 -2.5530
 4975SOL     OW26560   0.486   1.802  16.151 -0.2530 -0.4456 -0.3546
 4975SOL    HW126561   0.542   1.846  16.086 -1.3686 -1.6944 -2.1502
 4975SOL    HW226562   0.434   1.740  16.101 -0.7398 -0.5604  0.2964
 4976SOL     OW26563   4.665   1.038   7.949  0.1477  0.0325 -0.0097
 4976SOL    HW126564   4.668   1.072   8.038  2.3814 -0.0279 -0.0430
 4976SOL    HW226565   4.640   1.115   7.898 -1.9336 -1.2889 -0.9567
 4977SOL     OW26566   1.922   3.576  10.832  0.5133 -0.3579 -0.4045
 4977SOL    HW126567   1.871   3.605  10.756  1.3213  1.5693 -0.2224
 4977SOL    HW226568   1.974   3.653  10.857 -1.0585  0.3233  0.8307
 4978SOL     OW26569   2.711   1.485  10.132  0.1703 -0.1059  0.5402
 4978SOL    HW126570   2.623   1.461  10.164 -0.0698 -0.9107 -0.7382
 4978SOL    HW226571   2.695   1.520  10.045  0.9554 -1.0634  0.0136
 4979SOL     OW26572   1.067   4.413   3.333 -0.0849  0.1004  0.1771
 4979SOL    HW126573   1.059   4.435   3.426  0.4571 -2.2359  0.7828
 4979SOL    HW226574   1.008   4.469   3.283 -1.8683 -1.2757  0.7111
 4980SOL     OW26575   0.033   1.547   0.757 -0.5046 -0.0760  0.1427
 4980SOL    HW126576   0.104   1.610   0.774 -2.1649  1.3768  1.7532
 4980SOL    HW226577   0.083   1.471   0.729 -2.0528 -0.9826 -0.1397
 4981SOL     OW26578   3.156   4.431  17.624  0.0185 -0.1863 -0.2403
 4981SOL    HW126579   3.187   4.364  17.563  0.3870  0.0907 -0.3522
 4981SOL    HW226580   3.163   4.388  17.710 -0.6356 -0.0192 -0.1039
 4982SOL     OW26581   3.973   0.728  16.936 -0.3236 -0.3704 -0.6751
 4982SOL    HW126582   3.998   0.667  16.866  1.4187 -0.4056 -0.0319
 4982SOL    HW226583   3.975   0.671  17.013  0.7747  0.7014  0.0839
 4983SOL     OW26584   2.964   4.332   0.448  0.1219  0.1538  0.1362
 4983SOL    HW126585   2.942   4.407   0.394 -1.3199 -0.8010 -0.6042
 4983SOL    HW226586   2.989   4.268   0.381 -0.7155  1.5700 -1.5306
 4984SOL     OW26587   3.497   0.131   2.652  0.6434 -0.4215  0.0968
 4984SOL    HW126588   3.481   0.084   2.570  0.7801  0.2840 -0.3372
 4984SOL    HW226589   3.414   0.177   2.641  0.4489 -0.8101 -0.0598
 4985SOL     OW26590   1.642   1.558   2.271 -0.2607  0.0017  0.0275
 4985SOL    HW126591   1.580   1.498   2.312 -1.2702 -0.9206 -2.9248
 4985SOL    HW226592   1.659   1.611   2.350  1.3708 -2.7160  1.4934
 4986SOL     OW26593   1.974   1.510   5.138 -0.2175 -0.5665  0.2689
 4986SOL    HW126594   1.887   1.532   5.105  0.4574  0.9819 -0.4719
 4986SOL    HW226595   1.959   1.425   5.179  2.1100 -0.2980  1.7158
 4987SOL     OW26596   4.332   1.926   2.392  0.0928  0.5137 -0.1831
 4987SOL    HW126597   4.373   1.871   2.325 -0.4264 -0.7289  0.5302
 4987SOL    HW226598   4.316   1.867   2.465  0.1179  1.1304  0.3229
 4988SOL     OW26599   3.713   4.135   8.234  0.1669  0.2135 -0.0216
 4988SOL    HW126600   3.645   4.150   8.169  1.3599  2.0702 -0.8448
 4988SOL    HW226601   3.742   4.051   8.200  0.1177 -1.0646  3.0833
 4989SOL     OW26602   1.652   2.620   3.726  0.1983 -0.4791  0.1215
 4989SOL    HW126603   1.590   2.659   3.787 -1.7477 -0.6166 -1.7565
 4989SOL    HW226604   1.649   2.686   3.657 -1.3932  0.3883  1.0077
 4990SOL     OW26605   1.384   1.217  11.703 -0.2542 -0.0054  0.0019
 4990SOL    HW126606   1.339   1.285  11.753 -0.0763  0.9759 -1.1738
 4990SOL    HW226607   1.423   1.166  11.774 -1.1592 -1.7696 -0.7545
 4991SOL     OW26608   2.736   0.752   7.896 -0.0691 -0.2529 -0.7901
 4991SOL    HW126609   2.764   0.696   7.969 -0.8199  0.5073  0.0968
 4991SOL    HW226610   2.820   0.763   7.852  0.3148 -0.8790 -0.2055
 4992SOL     OW26611   0.668   2.568   0.743 -0.3103  0.3418 -0.7605
 4992SOL    HW126612   0.644   2.477   0.761  0.0458  0.5996  1.0972
 4992SOL    HW226613   0.622   2.610   0.816  0.6079 -2.2331  1.3191
 4993SOL     OW26614   3.925   0.504   4.492 -0.1614  0.2667  0.5728
 4993SOL    HW126615   3.884   0.581   4.454 -0.8659  0.1946  1.1990
 4993SOL    HW226616   3.848   0.449   4.506  0.7716 -1.5541 -1.4300
 4994SOL     OW26617   0.344   3.296   6.385  0.0380  0.1875 -0.2423
 4994SOL    HW126618   0.347   3.365   6.319  0.7600  1.3352  0.9952
 4994SOL    HW226619   0.396   3.339   6.453 -1.4551  1.9773 -0.2196
 4995SOL     OW26620   3.414   1.567  15.750  0.1567  0.0160 -0.4623
 4995SOL    HW126621   3.330   1.606  15.725 -0.9715 -1.8201  0.4726
 4995SOL    HW226622   3.474   1.641  15.743  2.4121 -1.7286  0.4606
 4996SOL     OW26623   0.347   3.900   4.234  0.0436  0.2631  0.5633
 4996SOL    HW126624   0.350   3.983   4.187  0.2102 -0.0256  0.0621
 4996SOL    HW226625   0.356   3.845   4.156  3.1550  1.3815  0.1072
 4997SOL     OW26626   1.681   2.337  12.596  0.2816 -0.2378  0.0117
 4997SOL    HW126627   1.721   2.255  12.624 -2.5812 -1.1183  1.5933
 4997SOL    HW226628   1.615   2.315  12.530 -0.6568  1.3445  0.4283
 4998SOL     OW26629   1.200   0.030   8.516  0.3103 -0.0911 -0.0279
 4998SOL    HW126630   1.225   0.041   8.608  1.8817  0.0309 -0.4732
 4998SOL    HW226631   1.122   0.086   8.519  0.8309  0.6906 -0.8980
 4999SOL     OW26632   1.160   0.857  13.512 -0.1350 -0.2718  0.4177
 4999SOL    HW126633   1.164   0.831  13.603 -1.3388 -3.0611 -0.3344
 4999SOL    HW226634   1.078   0.906  13.523 -1.0443 -1.4297 -1.2071
 5000SOL     OW26635   4.641   3.859  15.793 -0.4831  0.0387  0.0398
 5000SOL    HW126636   4.639   3.945  15.751 -1.3487  0.9534  1.9484
 5000SOL    HW226637   4.636   3.792  15.725 -2.0534 -1.2380  1.4099
 5001SOL     OW26638   2.819   2.118  14.279 -0.0807 -0.1852  0.3751
 5001SOL    HW126639   2.807   2.209  14.303 -0.5356 -0.0017 -0.5819
 5001SOL    HW226640   2.810   2.132  14.185  3.0982  0.0095  0.0909
 5002SOL     OW26641   2.362   4.356   6.403  0.4339 -0.1358  0.1121
 5002SOL    HW126642   2.389   4.338   6.313  0.5071  0.8478 -0.0644
 5002SOL    HW226643   2.285   4.412   6.394  1.2018  0.9129  0.0031
 5003SOL     OW26644   3.550   4.604   6.284 -0.3021  0.1311 -0.4076
 5003SOL    HW126645   3.623   4.665   6.274  0.8335 -0.6154  3.1363
 5003SOL    HW226646   3.504   4.615   6.201  0.8719 -2.6446 -1.4580
 5004SOL     OW26647   3.965   1.914   4.779  0.0391  0.4896 -0.5816
 5004SOL    HW126648   4.047   1.866   4.794  0.3191  0.7240 -1.3920
 5004SOL    HW226649   3.928   1.879   4.698 -0.4589 -0.0535 -0.1156
 5005SOL     OW26650   3.573   4.082   8.001  0.7606  0.7818 -0.0892
 5005SOL    HW126651   3.630   4.119   7.933  0.8680  0.5866 -0.1078
 5005SOL    HW226652   3.490   4.085   7.954  1.9847 -0.0844 -2.2978
 5006SOL     OW26653   2.171   3.368   7.797 -0.1909  0.0055  0.1495
 5006SOL    HW126654   2.222   3.288   7.810 -0.1787  0.1643  1.1021
 5006SOL    HW226655   2.142   3.360   7.707  1.7470  0.6831 -0.5361
 5007SOL     OW26656   0.507   2.026   8.728  0.1965 -0.7436 -0.2691
 5007SOL    HW126657   0.431   1.996   8.778 -1.0964  0.6351 -1.4335
 5007SOL    HW226658   0.515   1.967   8.652  0.1845  2.8070 -3.0001
 5008SOL     OW26659   0.369   0.017  14.147  0.8817 -0.4741  0.5395
 5008SOL    HW126660   0.420   0.094  14.122  1.2937 -0.1336  2.3862
 5008SOL    HW226661   0.277   0.041  14.158  1.1461  0.6614  0.3035
 5009SOL     OW26662   0.687   2.210   1.902 -0.0486 -0.0863  0.6601
 5009SOL    HW126663   0.661   2.293   1.863  1.7572  0.1878  0.0113
 5009SOL    HW226664   0.613   2.181   1.955 -0.2356  1.4384  1.2371
 5010SOL     OW26665   0.361   4.056   3.192  0.7472 -0.3624  0.5315
 5010SOL    HW126666   0.350   4.135   3.139  2.6316 -0.7255 -0.4147
 5010SOL    HW226667   0.400   3.999   3.125  0.5834 -0.2096  0.3026
 5011SOL     OW26668   1.927   2.011   9.182 -0.4167 -0.2515 -0.0348
 5011SOL    HW126669   1.986   1.982   9.112 -1.9056  1.1453 -1.8758
 5011SOL    HW226670   1.988   2.014   9.255 -0.9070  1.4655  0.2978
 5012SOL     OW26671   3.729   2.799   8.245 -0.2386 -0.3841  0.3986
 5012SOL    HW126672   3.804   2.813   8.303  1.0205 -0.7942 -1.1205
 5012SOL    HW226673   3.778   2.789   8.164  2.5281 -1.2646  2.1852
 5013SOL     OW26674   2.082   1.167  15.220 -1.0387  0.2922  0.0228
 5013SOL    HW126675   2.096   1.107  15.292  0.3347  0.2031 -0.3155
 5013SOL    HW226676   2.169   1.196  15.192 -0.9195 -1.0702 -1.0058
 5014SOL     OW26677   4.728   2.022   5.122 -0.0865  0.5439  0.0128
 5014SOL    HW126678   4.711   2.036   5.029  0.3164 -1.4129 -0.3606
 5014SOL    HW226679   4.711   1.927   5.123 -0.4561  0.6154  0.4947
 5015SOL     OW26680   4.720   2.468   3.090 -0.6533 -0.2505 -0.2061
 5015SOL    HW126681   4.640   2.481   3.040 -1.9685  0.6426  2.1345
 5015SOL    HW226682   0.045   2.427   3.033  0.8989  1.8351  0.0710
 5016SOL     OW26683   3.426   0.106   2.167 -0.1821  0.7791 -0.0682
 5016SOL    HW126684   3.471   0.076   2.246 -1.9377  0.0281  0.6389
 5016SOL    HW226685   3.334   0.122   2.187 -0.5507 -0.4917 -0.7619
 5017SOL     OW26686   1.572   1.232   9.840 -0.0818 -0.1066 -0.2659
 5017SOL    HW126687   1.599   1.205   9.928 -2.3662 -1.7812 -0.0834
 5017SOL    HW226688   1.492   1.180   9.831 -0.4945  0.4197  0.2568
 5018SOL     OW26689   1.387   4.349   6.422  0.2828 -0.0173 -0.4555
 5018SOL    HW126690   1.301   4.327   6.457 -0.8586  1.0796 -2.5882
 5018SOL    HW226691   1.373   4.438   6.390  1.4176  0.1723 -0.4169
 5019SOL     OW26692   2.010   1.736   2.680  0.1206 -0.0149  0.2758
 5019SOL    HW126693   2.077   1.670   2.663  0.2271  0.4366 -1.0929
 5019SOL    HW226694   2.050   1.817   2.648  2.2231 -1.9987 -2.0249
 5020SOL     OW26695   3.835   0.237   8.336 -0.2009 -0.0085  0.5288
 5020SOL    HW126696   3.744   0.262   8.350 -0.4726  0.4516 -2.0029
 5020SOL    HW226697   3.869   0.323   8.311  1.1062 -0.9118 -0.8358
 5021SOL     OW26698   2.037   1.874   5.168  0.5294  0.4857  0.4843
 5021SOL    HW126699   2.045   1.817   5.092  0.0080  1.2454 -0.1447
 5021SOL    HW226700   1.944   1.865   5.189  0.2599  0.9372 -0.5166
 5022SOL     OW26701   0.375   3.944   2.628  0.2739 -0.0062 -0.0577
 5022SOL    HW126702   0.322   3.916   2.553 -0.0952  2.7044 -0.7786
 5022SOL    HW226703   0.314   3.978   2.693 -1.0939  1.3639 -2.0854
 5023SOL     OW26704   3.473   4.507   7.357 -0.0972 -0.2830 -0.2884
 5023SOL    HW126705   3.385   4.531   7.326  0.4842 -0.3890 -2.0072
 5023SOL    HW226706   3.482   4.551   7.441 -1.1938 -0.6156  0.0114
 5024SOL     OW26707   1.019   0.160   2.368 -0.0253  0.1749 -1.0640
 5024SOL    HW126708   0.974   0.110   2.299 -0.2612  0.4240 -1.0883
 5024SOL    HW226709   0.968   0.128   2.442  0.1823  0.5808 -0.7499
 5025SOL     OW26710   4.512   1.884  12.946  0.2070  0.1721  0.2617
 5025SOL    HW126711   4.583   1.837  12.988  0.4851 -1.1363 -1.6411
 5025SOL    HW226712   4.445   1.885  13.014 -2.1513  2.2485 -2.0782
 5026SOL     OW26713   2.226   0.155   1.936  0.1210 -0.3155  0.8740
 5026SOL    HW126714   2.153   0.174   1.877  1.2637 -0.7087 -0.6453
 5026SOL    HW226715   2.297   0.159   1.873 -1.0811 -0.6401 -0.5045
 5027SOL     OW26716   0.067   0.968   2.336 -0.5231 -0.2098  0.2107
 5027SOL    HW126717   0.016   0.971   2.256  2.9328  0.7282 -1.9625
 5027SOL    HW226718   0.057   0.875   2.352 -1.0465 -0.3931 -1.2109
 5028SOL     OW26719   2.040   0.174   7.349 -0.1944  0.1286 -0.2082
 5028SOL    HW126720   1.964   0.115   7.339 -0.6874  0.6456  0.4843
 5028SOL    HW226721   2.108   0.107   7.350 -0.2299  0.0855 -1.0729
 5029SOL     OW26722   0.924   4.211  12.456 -0.6362 -0.6881 -0.7454
 5029SOL    HW126723   0.896   4.291  12.412  0.6571 -0.8124 -1.8261
 5029SOL    HW226724   0.840   4.171  12.474 -1.7014  0.3919 -3.3858
 5030SOL     OW26725   0.509   0.806   4.354  0.0403  0.2236 -0.1428
 5030SOL    HW126726   0.585   0.795   4.413  0.2233 -2.5719 -0.9222
 5030SOL    HW226727   0.558   0.807   4.272 -2.5646 -1.4944 -1.6984
 5031SOL     OW26728   3.956   0.812   2.134  0.2922  0.4596 -0.0854
 5031SOL    HW126729   3.999   0.897   2.124  1.2735  0.0008  0.3163
 5031SOL    HW226730   4.019   0.751   2.172  1.2330  0.0747 -2.2287
 5032SOL     OW26731   4.266   0.038   0.133 -0.3930  0.5403  1.2485
 5032SOL    HW126732   4.240   0.092   0.059 -0.8955  0.9492  1.7246
 5032SOL    HW226733   4.336   0.098   0.161 -0.6309  0.9840  0.8856
 5033SOL     OW26734   4.734   2.063   6.267  0.0318 -0.4672  0.5887
 5033SOL    HW126735   0.032   2.139   6.311 -1.9557  0.1899  1.1627
 5033SOL    HW226736   0.047   2.060   6.187 -0.8345 -1.4472  0.0460
 5034SOL     OW26737   2.923   2.553  13.557 -0.2368  0.1926 -0.0566
 5034SOL    HW126738   2.999   2.586  13.606 -0.1954  1.2461 -0.8451
 5034SOL    HW226739   2.935   2.591  13.470 -0.3338 -0.5417 -0.3893
 5035SOL     OW26740   2.933   3.744   8.671 -0.3225 -0.6354 -1.1305
 5035SOL    HW126741   2.976   3.785   8.596 -2.1867  1.1202 -1.2468
 5035SOL    HW226742   2.842   3.764   8.648 -0.2393  0.0874 -0.8563
 5036SOL     OW26743   3.224   1.211   4.008  0.5758  0.3049 -0.2235
 5036SOL    HW126744   3.166   1.228   4.082 -1.2883 -0.2054 -1.5451
 5036SOL    HW226745   3.297   1.269   4.029 -0.0872  0.0107  2.9192
 5037SOL     OW26746   2.897   0.443  14.108  0.0127  0.6283  0.1472
 5037SOL    HW126747   2.850   0.482  14.182 -0.8678  0.5564 -0.3678
 5037SOL    HW226748   2.955   0.519  14.098 -1.0841  1.4825  0.2074
 5038SOL     OW26749   2.001   0.503   7.268 -0.4290 -0.1333  0.6792
 5038SOL    HW126750   1.982   0.409   7.262 -1.0904  0.1177 -0.9804
 5038SOL    HW226751   1.924   0.543   7.308 -1.6000 -0.1902 -1.5457
 5039SOL     OW26752   3.595   0.327   3.492  0.8721 -0.0089 -0.5414
 5039SOL    HW126753   3.625   0.364   3.575 -1.8168 -1.5369  1.0978
 5039SOL    HW226754   3.501   0.334   3.506  0.8524  0.6426 -0.9811
 5040SOL     OW26755   4.048   1.094   7.466 -0.1249 -0.0312 -0.0334
 5040SOL    HW126756   4.106   1.035   7.514  0.9133 -1.0181 -2.4691
 5040SOL    HW226757   4.040   1.166   7.528 -0.9068  0.0442 -0.2183
 5041SOL     OW26758   3.908   1.304   6.458 -0.4484  0.5773 -0.0115
 5041SOL    HW126759   3.886   1.355   6.380  0.5994  1.7877  0.4782
 5041SOL    HW226760   3.982   1.361   6.478 -0.8998  1.0741  0.2463
 5042SOL     OW26761   2.502   4.108   8.666  0.0943 -0.1597  0.3609
 5042SOL    HW126762   2.525   4.050   8.593 -3.9752 -1.1728 -0.1271
 5042SOL    HW226763   2.407   4.103   8.661  0.1663 -1.2246 -0.0915
 5043SOL     OW26764   2.903   3.183   7.781 -0.2533 -0.6646  0.5797
 5043SOL    HW126765   2.946   3.265   7.805  0.4796 -1.1819  1.0732
 5043SOL    HW226766   2.851   3.161   7.858 -0.9037 -2.1623 -0.2775
 5044SOL     OW26767   4.509   0.527  12.939  0.1972 -0.7787  0.6485
 5044SOL    HW126768   4.521   0.592  12.870 -0.2335 -0.7567  0.5930
 5044SOL    HW226769   4.436   0.561  12.990 -1.0639 -2.0170 -0.3195
 5045SOL     OW26770   0.897   0.578   8.592  0.5993 -0.4772 -0.4563
 5045SOL    HW126771   0.942   0.554   8.511 -0.1595  3.0765 -1.9279
 5045SOL    HW226772   0.965   0.634   8.631 -1.4392  2.3944 -1.0450
 5046SOL     OW26773   2.481   3.936   7.491  0.0449 -0.2319 -0.0806
 5046SOL    HW126774   2.522   3.916   7.407 -1.4156  0.3626 -0.9412
 5046SOL    HW226775   2.418   3.864   7.496 -0.1809  0.0227  0.7184
 5047SOL     OW26776   3.946   1.899   7.393 -0.5791  0.1126  0.7125
 5047SOL    HW126777   3.867   1.868   7.437 -0.5538 -1.7864 -0.5672
 5047SOL    HW226778   4.016   1.863   7.446 -0.4574 -1.3637 -0.4638
 5048SOL     OW26779   0.141   0.731   6.808 -0.2075 -0.1602  0.2166
 5048SOL    HW126780   0.165   0.722   6.900  1.0553 -2.1860 -0.2968
 5048SOL    HW226781   0.212   0.686   6.762  0.8364  0.9220  0.7652
 5049SOL     OW26782   2.721   2.147  17.711  0.6513 -0.0809 -0.8693
 5049SOL    HW126783   2.759   2.135   0.040  0.8488  3.3311 -0.5008
 5049SOL    HW226784   2.712   2.062  17.668  0.5098  1.5076 -4.0093
 5050SOL     OW26785   1.004   0.242   3.481  0.6115 -0.1068 -0.0699
 5050SOL    HW126786   1.098   0.235   3.492  0.8392  2.4014 -0.4413
 5050SOL    HW226787   0.998   0.338   3.484 -0.5651 -0.1466 -1.0052
 5051SOL     OW26788   1.442   0.109   4.065 -0.1154 -0.5759  0.0115
 5051SOL    HW126789   1.486   0.193   4.071  1.1752 -1.3011  0.5966
 5051SOL    HW226790   1.468   0.061   4.143  0.3064 -0.4375 -0.0463
 5052SOL     OW26791   0.748   4.381   2.575 -0.0941  0.1925 -0.2312
 5052SOL    HW126792   0.710   4.392   2.662 -0.6865 -1.1948 -0.3009
 5052SOL    HW226793   0.842   4.369   2.592  0.0213  0.2603 -0.8225
 5053SOL     OW26794   1.000   1.966   9.019 -0.3939  0.3939  0.1806
 5053SOL    HW126795   0.987   2.059   9.035  0.2694  0.4130  0.5923
 5053SOL    HW226796   0.933   1.942   8.956  1.1142 -0.4310 -1.1018
 5054SOL     OW26797   0.274   0.651   7.847 -0.4695  0.0820  0.4619
 5054SOL    HW126798   0.220   0.728   7.831 -0.1463  0.3643  0.7408
 5054SOL    HW226799   0.307   0.631   7.759  0.4074 -1.0392  1.0470
 5055SOL     OW26800   2.338   1.625   6.932  1.0275  0.1367 -0.0999
 5055SOL    HW126801   2.336   1.657   7.022  0.4301 -0.2768  0.0317
 5055SOL    HW226802   2.258   1.661   6.893  2.1535  0.1096 -2.4524
 5056SOL     OW26803   2.231   0.536  10.964 -0.6854 -0.6857  0.2231
 5056SOL    HW126804   2.301   0.516  11.026 -0.7782 -0.3206  0.4463
 5056SOL    HW226805   2.161   0.554  11.027 -0.2042  1.9857  0.0135
 5057SOL     OW26806   0.772   3.024   9.292  0.1447  0.0091  0.5987
 5057SOL    HW126807   0.711   3.027   9.218  0.1722 -1.8349  0.4800
 5057SOL    HW226808   0.847   3.068   9.251 -1.5201 -0.0816 -2.5776
 5058SOL     OW26809   0.819   4.533   8.321  0.1563  0.1077  0.7532
 5058SOL    HW126810   0.849   4.518   8.411  0.5378 -0.8217  0.4754
 5058SOL    HW226811   0.789   4.622   8.338  0.5650 -0.3112  3.6683
 5059SOL     OW26812   0.471   0.327   6.523  0.4238 -0.5752  0.4014
 5059SOL    HW126813   0.448   0.262   6.457 -1.1348  0.3624  0.0232
 5059SOL    HW226814   0.454   0.281   6.605  0.7293  0.1942  0.8957
 5060SOL     OW26815   3.484   1.793   4.958 -0.0850 -0.3477 -0.2208
 5060SOL    HW126816   3.488   1.699   4.973  0.6325 -0.2553  0.1762
 5060SOL    HW226817   3.469   1.835   5.043  2.7913 -1.3569  0.7832
 5061SOL     OW26818   2.771   0.600   6.591 -0.7102  0.2754  0.7298
 5061SOL    HW126819   2.824   0.606   6.512 -0.9898 -0.2985  0.5002
 5061SOL    HW226820   2.729   0.686   6.585  1.1924  0.8131 -4.0753
 5062SOL     OW26821   1.626   0.177   2.765  0.0351  0.3363  0.1312
 5062SOL    HW126822   1.592   0.091   2.790  0.0140  0.9985  2.3562
 5062SOL    HW226823   1.640   0.163   2.672 -2.0156  0.0968 -0.1451
 5063SOL     OW26824   3.523   0.842  10.958 -0.0505  0.0388  0.0768
 5063SOL    HW126825   3.551   0.906  11.023 -0.6175 -0.8690  1.2204
 5063SOL    HW226826   3.568   0.880  10.883  1.2048 -1.5641  0.0123
 5064SOL     OW26827   3.955   0.683   3.680  0.2792  0.5837 -0.3350
 5064SOL    HW126828   3.937   0.635   3.761 -1.3886  2.4191  0.3769
 5064SOL    HW226829   4.043   0.718   3.698  0.4549 -0.1356  0.2221
 5065SOL     OW26830   0.925   2.985   6.211 -0.0961  0.1123 -0.1470
 5065SOL    HW126831   0.918   2.903   6.162 -1.8574  0.0543  0.2287
 5065SOL    HW226832   1.003   2.979   6.267 -0.1780 -0.4797 -0.0966
 5066SOL     OW26833   3.597   3.953   7.047 -0.4286 -0.1156  0.7441
 5066SOL    HW126834   3.573   3.954   7.140  0.0767  1.2191  0.8643
 5066SOL    HW226835   3.539   4.017   7.006 -0.9267 -1.6865 -0.9932
 5067SOL     OW26836   2.339   4.444   8.493  0.0336 -0.1491  0.3309
 5067SOL    HW126837   2.251   4.474   8.516 -0.5084 -1.9530  0.6099
 5067SOL    HW226838   2.387   4.471   8.572 -0.2042  0.2580  0.3375
 5068SOL     OW26839   3.709   2.750   7.608 -1.2326  0.5287 -0.0735
 5068SOL    HW126840   3.716   2.809   7.682  1.1896 -1.1191  0.9797
 5068SOL    HW226841   3.795   2.709   7.614 -1.8851 -0.5583  1.7871
 5069SOL     OW26842   2.561   1.719  11.914  0.3078  0.6892  0.0530
 5069SOL    HW126843   2.617   1.793  11.936  2.4942 -1.2079  0.8054
 5069SOL    HW226844   2.618   1.658  11.868  1.8149  0.4536  2.2642
 5070SOL     OW26845   2.486   1.534   8.382 -0.4635 -0.1409  0.0084
 5070SOL    HW126846   2.463   1.509   8.292  0.6385  1.2908 -0.6668
 5070SOL    HW226847   2.496   1.450   8.426 -0.6105 -0.7463 -1.1162
 5071SOL     OW26848   4.294   1.025   5.355 -0.3742  0.6418 -0.0718
 5071SOL    HW126849   4.306   1.117   5.378  2.2699 -0.2479  2.0778
 5071SOL    HW226850   4.303   1.041   5.261  3.0512 -0.8924 -0.0144
 5072SOL     OW26851   0.399   0.534   9.750 -0.0423  0.1857  0.1411
 5072SOL    HW126852   0.335   0.553   9.682  1.3567  1.4686 -0.8241
 5072SOL    HW226853   0.485   0.539   9.708  0.7224  0.3462  1.7248
 5073SOL     OW26854   4.544   0.587   2.142 -0.2634  0.1037  0.0820
 5073SOL    HW126855   4.601   0.577   2.066 -1.7681  0.8078 -1.1403
 5073SOL    HW226856   4.479   0.520   2.121 -0.9218  1.2297 -1.4437
 5074SOL     OW26857   3.231   1.334   3.587 -0.6393  0.3483 -0.4296
 5074SOL    HW126858   3.239   1.268   3.519  3.1368 -1.0081  1.3491
 5074SOL    HW226859   3.311   1.385   3.577 -0.9875  0.4150 -2.8351
 5075SOL     OW26860   3.164   1.673  17.319  0.2586 -0.0237 -0.0186
 5075SOL    HW126861   3.228   1.610  17.286 -0.7820 -0.1380 -1.8162
 5075SOL    HW226862   3.216   1.751  17.339 -0.2261  0.6995 -1.6559
 5076SOL     OW26863   1.655   1.248   8.064  0.0665 -0.4981 -0.1359
 5076SOL    HW126864   1.730   1.273   8.010  0.8992 -0.4232  1.0445
 5076SOL    HW226865   1.591   1.223   7.998 -1.8706  0.9499  1.1697
 5077SOL     OW26866   0.378   1.349   6.418  0.3849  0.3133 -0.4255
 5077SOL    HW126867   0.401   1.438   6.391 -1.2428  0.9777  0.4181
 5077SOL    HW226868   0.428   1.301   6.352 -2.2059 -2.7571 -0.1716
 5078SOL     OW26869   2.129   3.348   5.894  0.2672 -0.0095 -0.3887
 5078SOL    HW126870   2.045   3.302   5.900  0.8315 -0.9551  0.4655
 5078SOL    HW226871   2.176   3.316   5.971  0.2743  0.5557 -0.1639
 5079SOL     OW26872   4.509   2.844  12.705 -0.2938  0.5150  0.2959
 5079SOL    HW126873   4.522   2.823  12.797 -1.3017 -1.2796  0.0300
 5079SOL    HW226874   4.423   2.887  12.710  0.3746  1.8575  0.2664
 5080SOL     OW26875   1.505   4.310   8.867  0.0525  0.5500 -0.7411
 5080SOL    HW126876   1.449   4.336   8.940 -1.1222  0.2457 -1.5433
 5080SOL    HW226877   1.550   4.395   8.862  0.2924  0.3962 -1.1470
 5081SOL     OW26878   2.109   0.223   8.714 -0.0444  0.2110 -0.2762
 5081SOL    HW126879   2.151   0.142   8.742 -0.4204  0.2977  0.5340
 5081SOL    HW226880   2.033   0.195   8.662  0.1185 -2.5423  0.9497
 5082SOL     OW26881   3.999   2.002   2.382  0.4615  0.1465 -0.7228
 5082SOL    HW126882   3.979   2.034   2.294  0.0373  0.9739 -0.3310
 5082SOL    HW226883   4.069   1.939   2.365  1.0711  0.6543 -0.0759
 5083SOL     OW26884   2.144   1.954   9.029 -0.8766  1.1708  0.1061
 5083SOL    HW126885   2.168   1.904   8.951  0.2433 -1.5458  2.1839
 5083SOL    HW226886   2.224   2.005   9.042  1.0328 -1.8957  0.2469
 5084SOL     OW26887   1.549   4.639   2.855 -0.4810  0.3574  0.2065
 5084SOL    HW126888   1.564   4.583   2.931  0.0867 -0.0140 -0.1741
 5084SOL    HW226889   1.607   4.600   2.790 -0.7572 -0.5378  0.5024
 5085SOL     OW26890   4.495   4.034   1.884  0.1098 -0.3447  0.4108
 5085SOL    HW126891   4.475   4.128   1.890 -2.6029 -1.0307  1.9683
 5085SOL    HW226892   4.579   4.045   1.839  0.1321 -2.3730 -0.0270
 5086SOL     OW26893   0.315   1.808  10.932  0.3219 -0.1547 -0.2159
 5086SOL    HW126894   0.328   1.766  11.017 -0.3242 -1.0741 -0.5709
 5086SOL    HW226895   0.234   1.859  10.933  1.2863  1.3638  0.2245
 5087SOL     OW26896   1.473   4.308  12.107  0.2216  0.0999  0.1329
 5087SOL    HW126897   1.409   4.292  12.176  1.0221 -0.4646  0.7623
 5087SOL    HW226898   1.426   4.286  12.027  1.5905 -0.2131 -0.5864
 5088SOL     OW26899   0.934   3.330   9.745 -0.0415 -0.1252 -0.7030
 5088SOL    HW126900   0.892   3.315   9.830  0.0266 -1.6719 -0.9368
 5088SOL    HW226901   0.881   3.391   9.694 -2.9726 -3.1101 -1.2267
 5089SOL     OW26902   2.197   0.237  14.368 -0.8841 -0.1738 -0.1112
 5089SOL    HW126903   2.289   0.241  14.394 -0.8354  1.7164 -0.5407
 5089SOL    HW226904   2.208   0.187  14.287 -0.0538  0.6040 -0.4838
 5090SOL     OW26905   1.686   3.306  12.416  0.2308  0.2299  0.2879
 5090SOL    HW126906   1.729   3.383  12.378 -0.1933 -0.2541 -1.1631
 5090SOL    HW226907   1.626   3.271  12.351 -2.5033  1.2046  2.3002
 5091SOL     OW26908   0.694   0.864  14.921 -1.0674  0.2774  0.1296
 5091SOL    HW126909   0.757   0.836  14.854 -2.8284 -1.4283 -0.8194
 5091SOL    HW226910   0.617   0.841  14.870 -0.6060  0.0389 -0.4664
 5092SOL     OW26911   3.811   1.267  13.088 -0.4446 -0.2293  0.7812
 5092SOL    HW126912   3.787   1.184  13.129 -1.2658 -0.9651 -1.2069
 5092SOL    HW226913   3.874   1.232  13.026 -0.5057  1.2269 -0.1192
 5093SOL     OW26914   0.964   3.069   7.573 -0.2217  0.4107  0.2341
 5093SOL    HW126915   1.040   3.027   7.614 -1.1741 -0.2631  1.3234
 5093SOL    HW226916   0.979   3.062   7.479  4.0795 -1.0739  1.0421
 5094SOL     OW26917   3.847   2.010  16.358 -0.2810  0.2068 -0.0270
 5094SOL    HW126918   3.939   1.980  16.360 -0.3210  0.1873  1.4378
 5094SOL    HW226919   3.853   2.094  16.401  0.5530  0.1638 -0.0427
 5095SOL     OW26920   0.872   4.480  13.032 -0.3387  0.0908 -0.5359
 5095SOL    HW126921   0.908   4.433  13.107 -0.8914 -0.7462 -0.7912
 5095SOL    HW226922   0.912   4.567  13.040  1.0278 -0.5216 -0.6379
 5096SOL     OW26923   0.473   3.393   1.857 -0.2915  0.0734  0.9712
 5096SOL    HW126924   0.413   3.457   1.818 -0.6070 -1.9345 -1.8189
 5096SOL    HW226925   0.547   3.414   1.800 -1.3813 -0.3100 -0.5613
 5097SOL     OW26926   1.678   1.125   3.366  1.4565 -0.0173  0.1624
 5097SOL    HW126927   1.740   1.175   3.419 -2.4812  3.4548  1.4204
 5097SOL    HW226928   1.741   1.107   3.295 -0.2957 -0.5563 -1.2674
 5098SOL     OW26929   3.417   0.859   8.467 -0.3232 -0.0889 -0.0250
 5098SOL    HW126930   3.326   0.883   8.483 -0.4052 -0.8591  0.6595
 5098SOL    HW226931   3.409   0.766   8.446 -0.9942  0.5286 -2.4317
 5099SOL     OW26932   4.427   1.366   3.005  0.3297 -0.1727  0.4952
 5099SOL    HW126933   4.443   1.357   3.099 -0.8805  2.0541  0.9000
 5099SOL    HW226934   4.353   1.425   2.996 -0.0336 -0.7397 -0.2207
 5100SOL     OW26935   1.192   3.986   7.964  0.1650 -0.5240  0.4120
 5100SOL    HW126936   1.285   3.975   7.945 -0.0525  1.3961 -1.7649
 5100SOL    HW226937   1.203   4.081   7.964 -1.9194 -0.3176 -3.0663
 5101SOL     OW26938   4.631   0.110  15.408  0.2279 -0.8712 -0.5782
 5101SOL    HW126939   4.563   0.136  15.470  0.7354 -1.9139  0.4091
 5101SOL    HW226940   4.629   0.016  15.424 -0.3344 -0.6007  0.9854
 5102SOL     OW26941   4.183   4.606  14.889 -0.2643 -0.0231  0.1774
 5102SOL    HW126942   4.275   4.609  14.914 -0.7999  1.6305  2.0355
 5102SOL    HW226943   4.183   4.555  14.808  0.9604 -0.5659  0.5300
 5103SOL     OW26944   2.703   1.833   1.654  0.3346 -0.3299  0.4016
 5103SOL    HW126945   2.675   1.756   1.705  0.2063  0.8863  2.1768
 5103SOL    HW226946   2.653   1.812   1.575  2.1073 -1.7988 -0.3350
 5104SOL     OW26947   1.475   3.500  14.088 -0.1963  0.5323  0.2717
 5104SOL    HW126948   1.468   3.580  14.141 -0.7538  1.6124 -1.4292
 5104SOL    HW226949   1.564   3.475  14.112 -1.1167 -3.4666 -0.4864
 5105SOL     OW26950   1.209   4.185  16.216 -0.4165  0.1323 -0.0946
 5105SOL    HW126951   1.303   4.204  16.221 -0.8240  2.5375 -1.4579
 5105SOL    HW226952   1.178   4.273  16.193 -0.2727  0.1123 -0.3587
 5106SOL     OW26953   1.924   4.332   0.283  0.3803  0.4621  0.3032
 5106SOL    HW126954   1.878   4.416   0.279  0.2619  0.4483  1.3610
 5106SOL    HW226955   1.882   4.286   0.356 -0.6477  0.0760 -0.5325
 5107SOL     OW26956   1.980   1.231   7.532  0.1919  0.2022 -0.0739
 5107SOL    HW126957   2.015   1.319   7.516 -1.2516  0.7047 -0.4848
 5107SOL    HW226958   2.056   1.176   7.513 -0.4915 -0.9949  0.7069
 5108SOL     OW26959   3.829   0.042   7.403 -0.7897 -0.2880 -0.2156
 5108SOL    HW126960   3.821   4.690   7.378 -1.1000  0.3486 -2.3974
 5108SOL    HW226961   3.752   0.074   7.358 -1.6176 -2.8354 -0.5976
 5109SOL     OW26962   1.614   2.373   1.766  0.0496 -0.9703 -0.0895
 5109SOL    HW126963   1.568   2.301   1.811  0.5262 -1.8248 -0.9702
 5109SOL    HW226964   1.699   2.329   1.774  1.5662  1.9710 -0.1565
 5110SOL     OW26965   2.071   4.526   8.622  0.0673 -0.3433 -0.1769
 5110SOL    HW126966   1.993   4.484   8.587 -0.2986  0.8618 -0.8085
 5110SOL    HW226967   2.066   4.610   8.577  1.8056  0.1615  0.5890
 5111SOL     OW26968   1.064   4.573   7.191  0.5723 -0.2028 -0.0023
 5111SOL    HW126969   1.024   4.549   7.107 -2.3075 -1.3054  1.6749
 5111SOL    HW226970   1.092   4.661   7.168 -2.7013  0.4954 -1.3758
 5112SOL     OW26971   4.407   2.549   2.507  0.3334 -0.0147  0.5320
 5112SOL    HW126972   4.374   2.569   2.419 -0.5504  0.6649  1.0201
 5112SOL    HW226973   4.355   2.473   2.534 -0.9543  0.6317 -0.1896
 5113SOL     OW26974   4.704   0.609   5.202 -0.7188  0.0535 -0.3700
 5113SOL    HW126975   4.719   0.548   5.274 -0.5161 -1.7083 -1.9143
 5113SOL    HW226976   0.038   0.589   5.145 -0.8005  1.8184 -1.0840
 5114SOL     OW26977   1.573   2.289   3.964 -0.2758 -1.3677  0.6030
 5114SOL    HW126978   1.542   2.306   3.875  3.9780 -0.2464 -0.6551
 5114SOL    HW226979   1.662   2.320   3.945 -2.1574  2.0695 -2.4865
 5115SOL     OW26980   4.573   2.652   4.160 -0.4169  0.1771 -0.3652
 5115SOL    HW126981   4.642   2.701   4.204 -1.9440  2.9106 -1.0206
 5115SOL    HW226982   4.632   2.610   4.098  0.1222  1.8794 -1.0041
 5116SOL     OW26983   1.646   4.590  16.998 -0.3712 -0.0016 -0.0354
 5116SOL    HW126984   1.554   4.587  17.024 -0.0666  0.6163  1.0964
 5116SOL    HW226985   1.649   4.520  16.932 -4.2726 -0.8628  0.6855
 5117SOL     OW26986   4.074   1.718   1.330  0.1852  0.2084  0.2906
 5117SOL    HW126987   4.041   1.648   1.385 -0.7723 -0.7138 -1.4678
 5117SOL    HW226988   4.083   1.670   1.248 -1.4883 -0.0941  0.2745
 5118SOL     OW26989   1.093   2.355   9.366  0.2462  0.1583 -0.4092
 5118SOL    HW126990   1.178   2.353   9.322  0.3850 -2.0040 -0.0146
 5118SOL    HW226991   1.080   2.450   9.372  3.1486  0.5827 -0.7283
 5119SOL     OW26992   0.003   4.390   6.120 -0.8225 -0.0640  0.2567
 5119SOL    HW126993   4.677   4.435   6.172  1.3228 -0.2578  3.1099
 5119SOL    HW226994   0.089   4.413   6.155  0.5978 -1.2214 -2.4109
 5120SOL     OW26995   2.264   1.231   3.681 -0.0445  0.1561  0.2060
 5120SOL    HW126996   2.240   1.309   3.731  0.1453 -0.9686  2.0490
 5120SOL    HW226997   2.228   1.164   3.739  0.7247 -0.2857  0.1650
 5121SOL     OW26998   3.904   3.658   7.683  0.2591  0.4249 -0.1225
 5121SOL    HW126999   3.879   3.686   7.595  0.5495  2.3614  0.4232
 5121SOL    HW227000   3.821   3.648   7.730 -0.3215 -0.1954 -1.2870
 5122SOL     OW27001   2.973   0.967  17.514  0.3333  0.2083 -0.0911
 5122SOL    HW127002   3.055   0.935  17.477  1.3286  1.2624  1.1736
 5122SOL    HW227003   2.908   0.926  17.458 -0.6364  0.7191  0.6514
 5123SOL     OW27004   2.411   4.173   9.301 -0.4977 -0.1532  0.6065
 5123SOL    HW127005   2.366   4.256   9.285 -0.7039 -0.4198 -0.1819
 5123SOL    HW227006   2.346   4.142   9.364 -0.2344  1.3613  1.6175
 5124SOL     OW27007   1.896   1.605  13.246 -0.2362  0.2189  0.5545
 5124SOL    HW127008   1.967   1.613  13.311 -0.9298 -2.1352  1.6334
 5124SOL    HW227009   1.938   1.635  13.166 -1.7645  1.5518  0.2634
 5125SOL     OW27010   3.709   0.440   4.232  0.5793 -0.1799 -0.6918
 5125SOL    HW127011   3.681   0.531   4.228 -0.2164 -0.4923 -2.2885
 5125SOL    HW227012   3.643   0.407   4.171  0.5578 -0.6491 -0.4124
 5126SOL     OW27013   4.300   3.916   8.366  0.0810 -0.6276  0.0193
 5126SOL    HW127014   4.314   3.956   8.452 -2.4274  0.5551 -0.1432
 5126SOL    HW227015   4.325   3.992   8.314 -0.9986 -0.3593 -0.0933
 5127SOL     OW27016   2.132   0.361  14.052 -0.4412  0.3887 -0.4501
 5127SOL    HW127017   2.092   0.321  13.974  1.6477 -0.5407 -1.0524
 5127SOL    HW227018   2.226   0.347  14.038 -0.0208  1.3897  1.3686
 5128SOL     OW27019   1.090   1.152   8.354 -0.0637 -0.0326 -0.0580
 5128SOL    HW127020   1.082   1.136   8.260  2.0839  2.9592 -0.7503
 5128SOL    HW227021   1.119   1.243   8.346  1.8200 -0.3241  3.6384
 5129SOL     OW27022   0.628   3.971  16.041  0.1310 -0.4794 -0.0165
 5129SOL    HW127023   0.536   3.995  16.037  0.6134  1.7604  2.0768
 5129SOL    HW227024   0.663   4.055  16.011  1.4297 -1.1497 -0.4099
 5130SOL     OW27025   4.141   3.850  16.712 -0.1848 -0.3166 -0.1123
 5130SOL    HW127026   4.160   3.845  16.618  1.2038  0.0707  0.1402
 5130SOL    HW227027   4.156   3.943  16.730  0.6043 -0.6147  0.7961
 5131SOL     OW27028   1.020   3.217   5.091 -0.1331 -0.6413  0.2436
 5131SOL    HW127029   0.954   3.264   5.141  0.8689  0.5138  0.4953
 5131SOL    HW227030   1.004   3.129   5.123  0.2090 -0.3470  1.2240
 5132SOL     OW27031   1.260   2.589   2.080 -0.3283 -0.7640 -0.4266
 5132SOL    HW127032   1.213   2.627   2.006 -0.1479  0.0304 -0.1289
 5132SOL    HW227033   1.273   2.499   2.050 -4.2146 -1.5450  0.2162
 5133SOL     OW27034   2.637   3.580   9.334  0.3848 -0.0412  0.4032
 5133SOL    HW127035   2.548   3.604   9.362  0.6788  2.5259 -0.8224
 5133SOL    HW227036   2.634   3.577   9.239 -0.0858  0.4954  0.3990
 5134SOL     OW27037   1.107   3.976   2.556  0.1814 -0.3618  0.0828
 5134SOL    HW127038   1.095   3.987   2.650  1.0572  0.0064  0.1495
 5134SOL    HW227039   1.048   3.902   2.542 -2.1207  1.1885  1.7385
 5135SOL     OW27040   2.136   0.547   5.314 -0.0638 -0.3012 -0.5901
 5135SOL    HW127041   2.088   0.584   5.240  1.4005  2.5221 -0.1556
 5135SOL    HW227042   2.215   0.514   5.272  0.9892  0.9930  0.3562
 5136SOL     OW27043   0.348   4.055  17.282  0.5160 -0.4680 -0.0690
 5136SOL    HW127044   0.348   4.067  17.187 -0.6764  1.2189  0.1556
 5136SOL    HW227045   0.310   3.968  17.292  0.6121 -0.6359 -1.1600
 5137SOL     OW27046   0.159   0.739   7.102 -0.4002 -0.0902 -0.1256
 5137SOL    HW127047   0.137   0.739   7.196  0.0578  0.7005 -0.0209
 5137SOL    HW227048   0.240   0.789   7.102  0.7318 -1.8779  2.0253
 5138SOL     OW27049   1.600   0.685   9.379 -0.1844 -0.1797  0.7048
 5138SOL    HW127050   1.561   0.769   9.355 -0.0444 -0.1855  0.4644
 5138SOL    HW227051   1.673   0.720   9.430 -1.3804  0.5205  1.9543
 5139SOL     OW27052   0.196   2.304   5.866 -0.0131  0.4842  0.1134
 5139SOL    HW127053   0.167   2.354   5.790  0.2937  0.9492  0.2948
 5139SOL    HW227054   0.201   2.378   5.927 -0.0584  2.7312 -2.5793
 5140SOL     OW27055   1.139   2.727   6.686 -0.1114 -0.0438 -0.4199
 5140SOL    HW127056   1.212   2.699   6.631 -0.9035 -0.2822 -1.3548
 5140SOL    HW227057   1.186   2.751   6.765 -1.2522  0.3331  0.1494
 5141SOL     OW27058   0.996   1.576   9.936 -0.5286 -0.1167  0.0428
 5141SOL    HW127059   0.983   1.637  10.009  0.2023  1.6311 -1.2649
 5141SOL    HW227060   0.909   1.536   9.931  0.4852 -2.2641 -0.1513
 5142SOL     OW27061   0.648   2.265  12.949 -0.0348 -0.2804  0.1229
 5142SOL    HW127062   0.601   2.342  12.982  0.8091 -0.0391  0.7621
 5142SOL    HW227063   0.578   2.202  12.938 -0.0758 -0.0885 -0.6829
 5143SOL     OW27064   1.548   2.361   7.851  0.9068 -0.4484 -0.2364
 5143SOL    HW127065   1.639   2.371   7.878  0.9692  1.2855 -1.1127
 5143SOL    HW227066   1.485   2.336   7.918  0.3389  0.2392 -0.5159
 5144SOL     OW27067   4.076   0.709  10.120 -0.5470  0.4222  0.7734
 5144SOL    HW127068   4.145   0.662  10.168 -0.5032  0.4677  0.7537
 5144SOL    HW227069   4.128   0.737  10.045  0.4373 -2.0421  0.5267
 5145SOL     OW27070   4.652   0.830  11.698  0.3730 -0.1113 -0.3219
 5145SOL    HW127071   4.658   0.745  11.741 -1.3463 -0.3554 -0.5437
 5145SOL    HW227072   4.707   0.879  11.759 -0.8416 -1.0798  1.5611
 5146SOL     OW27073   0.376   0.767   3.978 -0.5069 -0.3373  0.3499
 5146SOL    HW127074   0.290   0.747   3.941 -0.4738 -2.2999  1.2813
 5146SOL    HW227075   0.364   0.834   4.046  0.8115 -0.3678  0.6110
 5147SOL     OW27076   0.800   1.538   9.036  0.1404  0.1350 -0.2124
 5147SOL    HW127077   0.872   1.558   9.096 -0.2123  1.4743 -0.2585
 5147SOL    HW227078   0.819   1.591   8.959  1.0862  3.0213  2.0218
 5148SOL     OW27079   1.070   1.852  10.130  0.0853 -0.5074  0.4394
 5148SOL    HW127080   0.996   1.807  10.170  0.2114 -0.2893  0.9152
 5148SOL    HW227081   1.135   1.827  10.196  1.4277  1.6282 -0.0584
 5149SOL     OW27082   2.842   3.511   6.495 -0.2723  0.5501  0.0411
 5149SOL    HW127083   2.763   3.512   6.550 -0.3827 -0.6912 -0.0814
 5149SOL    HW227084   2.896   3.578   6.536  1.2197 -1.1535  0.8645
 5150SOL     OW27085   1.027   4.058   6.030 -0.2427 -0.5809  0.1425
 5150SOL    HW127086   1.079   4.072   5.951 -0.8576 -3.5028 -0.7872
 5150SOL    HW227087   1.093   4.063   6.100 -0.1761 -0.4143  0.0672
 5151SOL     OW27088   1.787   4.332   7.588 -0.6272  0.0074 -0.2653
 5151SOL    HW127089   1.832   4.292   7.662  0.4527 -0.9391 -1.4288
 5151SOL    HW227090   1.704   4.363   7.625 -0.0866 -0.8203  1.6497
 5152SOL     OW27091   3.019   3.541   9.131 -0.7011  0.1041 -0.3138
 5152SOL    HW127092   2.936   3.549   9.085 -0.6352 -1.0364 -0.6378
 5152SOL    HW227093   3.007   3.596   9.209  0.8425  0.2665 -0.1919
 5153SOL     OW27094   3.189   4.427   7.265  0.5742  0.6351  0.4230
 5153SOL    HW127095   3.108   4.456   7.223 -0.6177 -0.7667  1.7257
 5153SOL    HW227096   3.188   4.490   7.337 -1.4067  0.7215  0.3113
 5154SOL     OW27097   1.539   3.483   3.983  0.2278 -0.8677 -0.6153
 5154SOL    HW127098   1.501   3.491   3.895 -0.7502  1.4716  0.0141
 5154SOL    HW227099   1.624   3.443   3.963  0.7605  0.6258 -1.3172
 5155SOL     OW27100   1.547   3.869   1.771  0.3670  0.5461  0.0392
 5155SOL    HW127101   1.605   3.943   1.755 -0.5266  1.5572  1.4765
 5155SOL    HW227102   1.593   3.804   1.717 -2.5339 -0.6205 -1.0477
 5156SOL     OW27103   2.841   2.306  13.529 -0.0535  0.1362  0.3170
 5156SOL    HW127104   2.864   2.398  13.541  0.7249 -0.1749  1.1971
 5156SOL    HW227105   2.829   2.300  13.434 -2.3679  2.2492  0.4870
 5157SOL     OW27106   0.626   3.262   9.015 -0.5125 -0.0380 -0.5048
 5157SOL    HW127107   0.686   3.323   9.057 -1.2599  0.2683  0.1159
 5157SOL    HW227108   0.560   3.324   8.985  0.4034  0.3325 -1.7441
 5158SOL     OW27109   1.765   4.531   7.402  0.1017  0.0023  0.6894
 5158SOL    HW127110   1.683   4.505   7.360  1.0870 -2.9560  0.6110
 5158SOL    HW227111   1.767   4.460   7.467 -0.3450  0.0885  0.8026
 5159SOL     OW27112   1.468   1.822  12.849  0.5659 -0.4940 -0.8834
 5159SOL    HW127113   1.404   1.773  12.798 -0.6213 -0.6997  0.8042
 5159SOL    HW227114   1.426   1.843  12.932  1.4304 -1.1256 -0.2876
 5160SOL     OW27115   1.211   3.845  12.295 -0.3744 -0.0045  0.0791
 5160SOL    HW127116   1.190   3.911  12.229 -0.2589 -1.5458 -1.4735
 5160SOL    HW227117   1.298   3.828  12.258 -1.4092 -3.0865 -0.8367
 5161SOL     OW27118   2.070   2.997   6.623  0.1917  0.4296  0.0288
 5161SOL    HW127119   2.086   3.071   6.564  2.7864 -1.3785 -1.5058
 5161SOL    HW227120   2.157   2.959   6.638  0.5997  1.5749  0.5935
 5162SOL     OW27121   0.002   1.998   2.996  0.0621  0.2143  0.0713
 5162SOL    HW127122   0.077   1.942   3.019 -0.2974  0.2303  1.2680
 5162SOL    HW227123   0.025   2.044   2.915 -1.4660  0.8594  0.0001
 5163SOL     OW27124   1.585   1.946  17.155 -0.0893 -0.2374 -0.2222
 5163SOL    HW127125   1.615   1.976  17.069  0.1589 -0.3440 -0.1752
 5163SOL    HW227126   1.510   2.001  17.176 -0.7596 -1.0149 -0.5718
 5164SOL     OW27127   1.828   3.513  15.442  0.0312  0.6894 -0.5824
 5164SOL    HW127128   1.846   3.575  15.371 -1.1623 -0.5345 -1.9386
 5164SOL    HW227129   1.915   3.473  15.452  0.2987  1.0159 -1.5802
 5165SOL     OW27130   0.809   1.003  12.883  0.2833  0.0972  0.4017
 5165SOL    HW127131   0.742   1.022  12.949 -0.7246  0.9564 -0.8763
 5165SOL    HW227132   0.827   0.911  12.899  0.3581 -0.0743 -0.6725
 5166SOL     OW27133   0.153   3.182   2.621  0.4579 -0.0707  0.3383
 5166SOL    HW127134   0.061   3.166   2.597  1.0935 -1.7881 -0.9269
 5166SOL    HW227135   0.183   3.093   2.636 -2.3372 -1.3192 -1.5011
 5167SOL     OW27136   4.611   3.710  10.001  0.6985  0.3519 -1.0825
 5167SOL    HW127137   4.542   3.754  10.050  0.2546  1.2290 -2.4962
 5167SOL    HW227138   4.658   3.667  10.072 -0.8797 -0.9447 -0.8202
 5168SOL     OW27139   1.708   4.341   3.955  0.0343 -0.6839 -0.1463
 5168SOL    HW127140   1.721   4.427   3.997 -1.0157  0.3962 -2.0569
 5168SOL    HW227141   1.711   4.367   3.863 -0.2121 -1.6804 -0.4273
 5169SOL     OW27142   1.482   4.044   8.738 -0.1724 -0.2017 -0.1839
 5169SOL    HW127143   1.568   4.007   8.719 -0.4175 -1.2685  0.7477
 5169SOL    HW227144   1.515   4.114   8.794  2.0565 -0.6281 -0.9661
 5170SOL     OW27145   0.804   0.763   7.147  0.6242 -0.3898  0.1889
 5170SOL    HW127146   0.763   0.747   7.063 -0.4574 -1.0469  0.8429
 5170SOL    HW227147   0.854   0.842   7.126  0.1185 -0.4930 -1.3929
 5171SOL     OW27148   0.872   4.630   9.413  0.2259 -0.6345  0.2154
 5171SOL    HW127149   0.905   4.719   9.425 -1.0083 -0.5919  3.0550
 5171SOL    HW227150   0.953   4.582   9.395 -0.9401 -1.6453 -2.3310
 5172SOL     OW27151   1.294   1.138  16.160 -0.4170  0.3254  0.6264
 5172SOL    HW127152   1.343   1.057  16.173  1.1927  0.6292 -3.5468
 5172SOL    HW227153   1.205   1.105  16.146 -0.5287  0.9221 -0.0914
 5173SOL     OW27154   1.717   2.118   3.022  0.0246 -0.1454 -0.3995
 5173SOL    HW127155   1.684   2.030   3.009 -1.5209  0.4197 -0.2829
 5173SOL    HW227156   1.724   2.150   2.932  0.4034  1.7012  0.2768
 5174SOL     OW27157   0.522   3.687   0.909 -0.4014  0.1702 -0.2354
 5174SOL    HW127158   0.497   3.760   0.966  0.2136 -0.4476  0.8322
 5174SOL    HW227159   0.453   3.621   0.907 -1.0380  0.6396  5.2607
 5175SOL     OW27160   2.005   3.507   6.455 -0.4071 -0.2835  0.4100
 5175SOL    HW127161   2.068   3.485   6.387  0.1217  2.6760 -0.0410
 5175SOL    HW227162   2.012   3.602   6.461 -0.3448 -0.1945 -1.0889
 5176SOL     OW27163   0.675   0.384   2.490 -0.3640 -0.4282 -0.1608
 5176SOL    HW127164   0.628   0.437   2.554 -1.2995 -1.5579  0.1011
 5176SOL    HW227165   0.662   0.435   2.410  0.9693  1.0871  0.5956
 5177SOL     OW27166   2.995   0.577  15.948  0.3647 -0.0413 -0.1680
 5177SOL    HW127167   2.977   0.659  15.901 -0.3944 -1.2323 -1.9490
 5177SOL    HW227168   3.091   0.577  15.956  0.2193 -2.4358  1.3523
 5178SOL     OW27169   4.128   3.611  12.403  0.5812  0.1192 -0.0618
 5178SOL    HW127170   4.049   3.644  12.362  1.0392  1.7339  0.3653
 5178SOL    HW227171   4.176   3.587  12.324  1.5143  1.1612  0.1933
 5179SOL     OW27172   1.146   4.292  17.586 -0.0202  0.1256  0.2771
 5179SOL    HW127173   1.090   4.254  17.518  0.2374  1.5320 -0.7167
 5179SOL    HW227174   1.225   4.267  17.540 -1.0545 -0.9495 -0.9100
 5180SOL     OW27175   2.745   2.260   1.721 -0.4282 -0.1015 -0.1137
 5180SOL    HW127176   2.818   2.275   1.661 -0.3584  1.3906  0.3269
 5180SOL    HW227177   2.779   2.187   1.773  2.1881  0.6298 -0.7695
 5181SOL     OW27178   2.611   2.145   1.514  0.3296 -0.3407 -0.1107
 5181SOL    HW127179   2.649   2.194   1.587  0.5229  0.4159 -0.7076
 5181SOL    HW227180   2.601   2.058   1.551  1.3472 -0.1708  0.5620
 5182SOL     OW27181   3.878   0.692  15.353 -0.1499 -0.1786  0.5957
 5182SOL    HW127182   3.821   0.719  15.425 -0.7804  1.9238 -0.6858
 5182SOL    HW227183   3.866   0.597  15.349 -1.7355  0.0565 -0.3657
 5183SOL     OW27184   3.719   3.358   7.996  0.6889 -0.2615  0.3782
 5183SOL    HW127185   3.756   3.378   8.082 -1.3129 -1.5678  1.5733
 5183SOL    HW227186   3.784   3.298   7.960  1.0073  0.5797 -0.4355
 5184SOL     OW27187   2.114   2.708   8.208 -0.5995 -0.1832  0.4412
 5184SOL    HW127188   2.113   2.676   8.298 -0.0326  1.0151  0.8688
 5184SOL    HW227189   2.052   2.646   8.170 -1.0964  2.5128 -3.0877
 5185SOL     OW27190   3.948   2.380   7.617 -0.0305 -0.5775  0.1021
 5185SOL    HW127191   3.960   2.286   7.602  1.6333 -0.4272  0.4820
 5185SOL    HW227192   3.967   2.410   7.528  0.7646 -1.2628  0.0372
 5186SOL     OW27193   0.546   2.648  13.412  0.1379 -0.8411  0.7847
 5186SOL    HW127194   0.493   2.720  13.376  2.0011  0.1218 -0.0606
 5186SOL    HW227195   0.519   2.654  13.503  0.2636 -1.8780  0.8878
 5187SOL     OW27196   4.704   0.374  13.929 -0.0502 -0.3158  0.2759
 5187SOL    HW127197   0.032   0.332  13.876 -0.4478 -0.3457 -0.2111
 5187SOL    HW227198   0.012   0.451  13.960 -0.8679 -0.7372  2.5592
 5188SOL     OW27199   4.059   3.187  11.116 -0.4963  0.2077 -0.7462
 5188SOL    HW127200   4.095   3.265  11.073  1.0407  0.9047  1.7893
 5188SOL    HW227201   4.095   3.115  11.065  0.9029 -0.4947  1.2452
 5189SOL     OW27202   1.911   3.219  14.147 -0.1126 -0.1842 -0.2966
 5189SOL    HW127203   1.912   3.262  14.232 -0.7084 -1.1325  0.1916
 5189SOL    HW227204   1.855   3.142  14.157 -1.3869  0.8784  0.7803
 5190SOL     OW27205   3.220   1.159   0.562  0.2786 -0.2958 -0.0233
 5190SOL    HW127206   3.194   1.197   0.479  2.0520  0.4688 -0.2362
 5190SOL    HW227207   3.264   1.080   0.531 -1.3836 -1.4274  0.4951
 5191SOL     OW27208   2.752   0.644  14.265 -0.1944 -0.2326  0.2099
 5191SOL    HW127209   2.803   0.660  14.345  0.6689 -1.7876 -0.0517
 5191SOL    HW227210   2.684   0.585  14.298 -0.0122  0.0274  1.0743
 5192SOL     OW27211   3.015   3.797   7.665 -0.2242 -0.0169  0.3060
 5192SOL    HW127212   2.983   3.739   7.595 -1.6848  1.6346 -0.4211
 5192SOL    HW227213   3.073   3.848   7.608 -0.2062 -0.5577 -0.1600
 5193SOL     OW27214   2.825   2.595   9.365  0.2841 -0.3108 -0.9896
 5193SOL    HW127215   2.826   2.508   9.326  1.8200 -0.5365 -0.4407
 5193SOL    HW227216   2.731   2.613   9.359  0.7635  2.1553 -1.3613
 5194SOL     OW27217   3.104   4.520   3.079 -0.3447 -0.2570  0.4416
 5194SOL    HW127218   3.177   4.484   3.029 -0.9997 -2.2166  0.8802
 5194SOL    HW227219   3.101   4.609   3.046  1.5578  0.6906  2.8717
 5195SOL     OW27220   3.628   3.460   4.850  0.3379 -0.8286  0.2538
 5195SOL    HW127221   3.611   3.420   4.935  0.5148 -1.1106  0.1573
 5195SOL    HW227222   3.715   3.497   4.869  0.5287 -0.9367 -0.4254
 5196SOL     OW27223   4.293   0.909  15.454 -0.7547  0.3281 -0.0197
 5196SOL    HW127224   4.233   0.970  15.498  1.6563  1.5286  1.6571
 5196SOL    HW227225   4.373   0.951  15.486 -2.1988  1.9293  1.4987
 5197SOL     OW27226   2.279   2.202   7.249  0.1237  1.0632 -0.1983
 5197SOL    HW127227   2.185   2.183   7.249  0.6252 -1.4006 -0.2689
 5197SOL    HW227228   2.304   2.162   7.165  0.1359 -1.1106  0.8259
 5198SOL     OW27229   4.117   3.131   5.001  0.5701  0.2001 -0.3202
 5198SOL    HW127230   4.093   3.078   4.924 -1.7064  0.6178  0.1069
 5198SOL    HW227231   4.029   3.155   5.028  0.3856 -0.3476 -0.4325
 5199SOL     OW27232   2.231   4.472   5.098  0.1963  0.1167 -0.0234
 5199SOL    HW127233   2.179   4.527   5.157 -0.4000 -0.9511  0.4362
 5199SOL    HW227234   2.210   4.512   5.013 -0.3937 -0.5432 -0.1866
 5200SOL     OW27235   4.473   0.068   7.702 -0.4266 -0.1425  0.2531
 5200SOL    HW127236   4.530   0.057   7.779  0.9168  0.2198 -0.6950
 5200SOL    HW227237   4.513   0.145   7.663  2.7801 -2.2309 -0.5333
 5201SOL     OW27238   3.185   0.331   7.791 -0.4187  0.1598  0.0611
 5201SOL    HW127239   3.259   0.390   7.799 -0.0898 -0.5580  2.3026
 5201SOL    HW227240   3.127   0.404   7.771 -0.8054 -0.7139 -2.0442
 5202SOL     OW27241   2.733   1.400   3.393  0.1814  0.5636 -0.4471
 5202SOL    HW127242   2.697   1.423   3.479 -0.1349 -1.0009 -0.1580
 5202SOL    HW227243   2.721   1.486   3.353 -1.3265  0.3954 -0.3761
 5203SOL     OW27244   0.880   1.283   4.260  0.1485 -0.2758 -0.1744
 5203SOL    HW127245   0.973   1.277   4.277 -0.4319 -3.0589  1.9782
 5203SOL    HW227246   0.870   1.367   4.304 -0.8496 -0.2416 -0.4553
 5204SOL     OW27247   1.945   2.855   1.273 -0.6052  0.3567 -0.8142
 5204SOL    HW127248   1.862   2.863   1.320  0.4864 -1.8435  1.4852
 5204SOL    HW227249   1.942   2.766   1.237 -1.3145  0.3538 -0.7580
 5205SOL     OW27250   1.235   0.337   7.004 -0.1443 -1.2028  0.2991
 5205SOL    HW127251   1.299   0.391   7.050 -1.4548  1.0376 -0.4649
 5205SOL    HW227252   1.162   0.396   7.024  0.2303 -0.9672  0.9695
 5206SOL     OW27253   1.896   4.535  10.385 -0.4882  0.9331  0.6386
 5206SOL    HW127254   1.880   4.609  10.444 -0.8841  0.5181  1.0508
 5206SOL    HW227255   1.971   4.576  10.342 -0.1739  1.4054  1.6482
 5207SOL     OW27256   2.232   2.650   1.984  0.3851 -0.1561 -0.1851
 5207SOL    HW127257   2.237   2.745   1.974  0.0107 -0.1121  0.0341
 5207SOL    HW227258   2.184   2.632   1.903  1.8660 -2.6102 -0.5263
 5208SOL     OW27259   3.898   3.759   3.593 -0.3114  0.1152  0.1755
 5208SOL    HW127260   3.971   3.723   3.543 -1.1512 -2.1357  0.5471
 5208SOL    HW227261   3.838   3.784   3.522 -0.9782 -0.2548  0.5996
 5209SOL     OW27262   3.075   4.198   1.445  0.0325  0.2594 -0.0995
 5209SOL    HW127263   3.071   4.112   1.488  0.0878  1.3528  2.1334
 5209SOL    HW227264   3.016   4.181   1.372  0.4515  2.2760 -0.9065
 5210SOL     OW27265   1.744   1.714   3.717  0.1014 -0.0863 -0.1976
 5210SOL    HW127266   1.745   1.647   3.785 -2.6342 -0.5785 -0.6434
 5210SOL    HW227267   1.656   1.748   3.734  0.2321  0.2911 -0.2755
 5211SOL     OW27268   4.428   1.725   3.084 -0.1715  0.5975  0.3475
 5211SOL    HW127269   4.437   1.820   3.072  2.5192  0.4837  1.3835
 5211SOL    HW227270   4.365   1.724   3.156 -1.2811 -1.1580 -0.6672
 5212SOL     OW27271   4.288   0.445  17.697  0.2588  0.0662  0.1861
 5212SOL    HW127272   4.241   0.507  17.751 -0.0828 -0.5596  0.6093
 5212SOL    HW227273   4.253   0.471  17.611  1.4340 -0.6832 -0.5226
 5213SOL     OW27274   3.155   2.730   3.482 -0.1342 -0.6295 -0.4528
 5213SOL    HW127275   3.124   2.668   3.548 -1.0357  1.1525  0.7972
 5213SOL    HW227276   3.235   2.773   3.512 -0.4380 -0.7116  0.4889
 5214SOL     OW27277   4.462   0.927   2.532  0.4728 -0.2749  0.2924
 5214SOL    HW127278   4.545   0.904   2.573 -0.9895 -2.0049  2.3439
 5214SOL    HW227279   4.466   0.900   2.441 -3.3601  0.4467 -0.1211
 5215SOL     OW27280   2.899   0.300   2.919 -0.7561  0.0036 -0.2515
 5215SOL    HW127281   2.820   0.352   2.905 -0.2184  0.8467 -0.1621
 5215SOL    HW227282   2.919   0.269   2.831  1.2324  0.6654 -0.0309
 5216SOL     OW27283   4.680   4.004   6.224 -0.0963  0.6622 -0.2409
 5216SOL    HW127284   4.666   3.973   6.135 -0.5607 -0.7538  0.3266
 5216SOL    HW227285   4.714   3.925   6.266  0.9022  1.4192  0.3516
 5217SOL     OW27286   4.119   4.230   2.168 -1.0702 -0.0990  0.1038
 5217SOL    HW127287   4.167   4.150   2.145  1.9639  1.2679  1.6845
 5217SOL    HW227288   4.029   4.199   2.181 -2.0669  1.8767 -2.0971
 5218SOL     OW27289   4.472   4.412   8.963  0.2110  0.1085 -0.0546
 5218SOL    HW127290   4.428   4.486   9.005 -1.1299 -0.3152 -0.7102
 5218SOL    HW227291   4.529   4.399   9.039 -0.2569  0.0294  0.2787
 5219SOL     OW27292   1.684   2.128   1.122 -0.3932 -0.4310  0.2549
 5219SOL    HW127293   1.742   2.100   1.050 -0.1775 -1.1426  0.7078
 5219SOL    HW227294   1.747   2.155   1.189 -0.3033  0.8724 -0.3406
 5220SOL     OW27295   0.285   3.613  14.729  0.1308  0.2549  0.4674
 5220SOL    HW127296   0.240   3.580  14.651  0.9518  0.5338 -0.1268
 5220SOL    HW227297   0.376   3.584  14.716  0.9929  3.7932 -1.7171
 5221SOL     OW27298   0.488   1.258  10.609  0.2874  0.4853 -0.0732
 5221SOL    HW127299   0.480   1.163  10.621  0.8765  0.4881  0.3574
 5221SOL    HW227300   0.573   1.256  10.565 -0.1553 -1.6388 -0.8637
 5222SOL     OW27301   0.677   0.491  10.049  0.0106  0.1279  0.2193
 5222SOL    HW127302   0.731   0.568  10.069  1.6806 -1.0820  0.3720
 5222SOL    HW227303   0.589   0.525  10.064  0.1885  0.7102 -0.0376
 5223SOL     OW27304   3.104   1.984   6.803 -0.1102 -0.3382 -0.3193
 5223SOL    HW127305   3.085   1.906   6.856  3.3047 -0.2502  1.0257
 5223SOL    HW227306   3.016   2.022   6.799 -0.5116 -1.1602  0.6485
 5224SOL     OW27307   1.333   3.952  16.807 -0.2118  0.1709  0.0793
 5224SOL    HW127308   1.264   3.899  16.847  1.4040 -2.9662 -1.3121
 5224SOL    HW227309   1.358   3.884  16.744 -1.2959  0.0340 -0.2138
 5225SOL     OW27310   2.666   2.346  11.551  0.3105 -0.5405 -0.7315
 5225SOL    HW127311   2.670   2.321  11.643  2.9693  1.3878 -0.3179
 5225SOL    HW227312   2.676   2.262  11.505 -1.2947 -0.6335 -0.9096
 5226SOL     OW27313   0.620   1.246   2.166 -0.6238  0.2777  1.0684
 5226SOL    HW127314   0.606   1.340   2.180  0.1980  0.6620 -0.6018
 5226SOL    HW227315   0.565   1.227   2.090  1.1809 -1.7551  0.2639
 5227SOL     OW27316   1.765   3.781   3.885  0.3929  0.1883  0.0760
 5227SOL    HW127317   1.855   3.749   3.890 -0.5023 -2.1557  0.8839
 5227SOL    HW227318   1.776   3.869   3.848  0.2525  1.0114  1.9995
 5228SOL     OW27319   0.419   2.257   7.991  0.5037  0.1683  0.1383
 5228SOL    HW127320   0.427   2.348   8.020 -0.6207  1.3580 -3.3944
 5228SOL    HW227321   0.353   2.273   7.925 -0.7431  0.0674  1.3644
 5229SOL     OW27322   2.805   2.381  12.406  0.1791  0.1092 -0.5966
 5229SOL    HW127323   2.738   2.427  12.355 -1.0512  0.1706  1.0644
 5229SOL    HW227324   2.876   2.429  12.364  0.8071  1.2227  1.7222
 5230SOL     OW27325   2.326   4.506   2.221  0.2809  0.1447 -0.3883
 5230SOL    HW127326   2.234   4.479   2.223 -0.2675  2.0091 -0.2734
 5230SOL    HW227327   2.311   4.600   2.214 -1.1150  0.0703  1.5458
 5231SOL     OW27328   4.411   1.662  13.938  0.1697 -0.0283  0.2854
 5231SOL    HW127329   4.426   1.745  13.893  1.6259 -0.1225  0.6197
 5231SOL    HW227330   4.434   1.686  14.028 -1.1214 -1.5635  1.0172
 5232SOL     OW27331   4.601   0.460   3.580  0.6732  0.1382 -0.4793
 5232SOL    HW127332   4.571   0.548   3.601  0.2166  1.0310 -4.8080
 5232SOL    HW227333   4.536   0.399   3.614  0.9781 -0.2111 -0.5182
 5233SOL     OW27334   4.517   2.770   4.472  0.1448  0.5435 -0.3329
 5233SOL    HW127335   4.554   2.724   4.547  0.1742  1.0280 -0.0491
 5233SOL    HW227336   4.525   2.863   4.495 -0.7571  1.0847 -2.1166
 5234SOL     OW27337   0.006   1.569   4.494  0.3017  0.0365  0.0099
 5234SOL    HW127338   0.043   1.484   4.471  0.8279  0.8239 -2.0651
 5234SOL    HW227339   0.083   1.617   4.524  0.1066  0.4913 -0.2143
 5235SOL     OW27340   1.161   1.187   2.968  0.4316 -0.5756  0.0027
 5235SOL    HW127341   1.175   1.171   3.061  0.5797 -1.3669 -0.1599
 5235SOL    HW227342   1.070   1.163   2.949  0.9526 -3.2131  0.8717
 5236SOL     OW27343   4.127   4.265   8.892  0.2841  0.2566  0.3237
 5236SOL    HW127344   4.117   4.339   8.951 -1.8667  0.8449 -0.7802
 5236SOL    HW227345   4.084   4.299   8.813  0.5541  0.2456  0.1703
 5237SOL     OW27346   2.040   2.477   8.392 -0.7755  0.5836  0.0701
 5237SOL    HW127347   2.134   2.468   8.412 -0.7461  0.5003 -0.1018
 5237SOL    HW227348   2.027   2.409   8.326  1.3450 -1.6253  1.9026
 5238SOL     OW27349   3.421   0.654  12.817  0.0923 -0.2008  0.6276
 5238SOL    HW127350   3.351   0.605  12.859 -0.6632  0.4198  0.0830
 5238SOL    HW227351   3.466   0.700  12.889  2.0660 -1.4752  0.1863
 5239SOL     OW27352   4.162   3.127  12.061 -0.2993  0.4723  0.3043
 5239SOL    HW127353   4.129   3.217  12.065 -0.1664  0.6391 -2.2718
 5239SOL    HW227354   4.255   3.142  12.045  0.3256 -1.2863  2.3181
 5240SOL     OW27355   1.528   4.165   6.290 -0.1169  0.0532 -0.1030
 5240SOL    HW127356   1.486   4.242   6.329  2.2142  0.8896  0.8000
 5240SOL    HW227357   1.465   4.095   6.308 -1.2291  1.1433  0.2816
 5241SOL     OW27358   1.085   3.040  11.838  0.2811  0.2914  0.6153
 5241SOL    HW127359   1.065   2.947  11.838  1.4656  0.0497 -1.9213
 5241SOL    HW227360   1.006   3.072  11.794 -0.8412 -2.7560  0.4253
 5242SOL     OW27361   0.697   1.234  10.351 -0.3370  0.6419  0.1397
 5242SOL    HW127362   0.669   1.143  10.341  0.1094  0.3682  1.4242
 5242SOL    HW227363   0.792   1.228  10.340 -0.2073  1.1637  1.0637
 5243SOL     OW27364   2.935   4.668   8.600  0.1581 -0.3452 -0.1396
 5243SOL    HW127365   2.929   4.630   8.512  0.7445 -1.0315  0.1108
 5243SOL    HW227366   2.972   4.603   8.661  1.1382 -0.0478 -0.4228
 5244SOL     OW27367   0.445   4.115   1.815  0.0281 -0.1447  0.0310
 5244SOL    HW127368   0.472   4.099   1.724 -0.5350 -0.9255  0.0013
 5244SOL    HW227369   0.450   4.210   1.817 -0.3331 -0.1351  0.4195
 5245SOL     OW27370   0.512   4.434   3.184 -0.2061 -0.1901 -0.2678
 5245SOL    HW127371   0.575   4.362   3.180 -0.9493 -0.8882  0.3583
 5245SOL    HW227372   0.554   4.517   3.165  1.3378 -1.2303 -1.4036
 5246SOL     OW27373   1.418   4.087   7.437 -0.1972 -0.0348 -0.1365
 5246SOL    HW127374   1.346   4.116   7.494  0.9488  1.1939  0.6926
 5246SOL    HW227375   1.448   4.003   7.472 -2.8377 -1.5280 -1.3917
 5247SOL     OW27376   3.553   3.240   0.407  0.3521  0.1075  0.1377
 5247SOL    HW127377   3.590   3.215   0.492 -1.9146 -1.4694  0.6664
 5247SOL    HW227378   3.626   3.278   0.358 -0.2403 -0.6734 -1.3519
 5248SOL     OW27379   4.729   3.070   1.517 -0.7242 -0.1562 -0.4385
 5248SOL    HW127380   4.733   3.099   1.608 -0.5672 -1.4016 -0.0464
 5248SOL    HW227381   4.689   2.985   1.535 -0.4283  0.0662  1.2726
 5249SOL     OW27382   0.409   4.342   0.866 -0.1532 -0.1606 -0.7256
 5249SOL    HW127383   0.441   4.355   0.955  0.5874 -1.1917 -0.8399
 5249SOL    HW227384   0.355   4.420   0.852  0.0356  0.4097  1.8421
 5250SOL     OW27385   3.337   0.669  16.924  0.4585 -0.2845 -0.1250
 5250SOL    HW127386   3.421   0.668  16.877 -0.5837 -0.8437 -1.9804
 5250SOL    HW227387   3.277   0.657  16.850  0.7724 -2.3422 -0.0366
 5251SOL     OW27388   2.320   1.209   1.373  0.1713 -0.1296  0.1365
 5251SOL    HW127389   2.289   1.187   1.460  2.0781 -0.5739  0.6944
 5251SOL    HW227390   2.288   1.130   1.329  0.9066  0.5873 -1.6875
 5252SOL     OW27391   4.434   1.972  12.691  0.0826 -0.0761 -0.0164
 5252SOL    HW127392   4.466   1.934  12.773  2.8450  1.0278 -0.6128
 5252SOL    HW227393   4.459   2.064  12.699 -1.5532  0.5436 -1.9435
 5253SOL     OW27394   3.776   1.522   7.332 -0.1004 -0.2213  0.6136
 5253SOL    HW127395   3.706   1.565   7.382  0.2216  2.1507 -0.9545
 5253SOL    HW227396   3.813   1.469   7.402 -0.8505 -0.3055  0.9461
 5254SOL     OW27397   4.337   4.591   4.164 -0.4955 -0.5647 -0.4042
 5254SOL    HW127398   4.421   4.634   4.152 -1.2387  1.0868  0.4100
 5254SOL    HW227399   4.294   4.643   4.232 -2.1969  0.8838 -2.5774
 5255SOL     OW27400   4.434   4.053   9.854  0.4999  0.1752  0.2722
 5255SOL    HW127401   4.483   4.133   9.836  2.2131 -0.6065  1.3415
 5255SOL    HW227402   4.355   4.091   9.892  1.1241  2.7038 -0.9639
 5256SOL     OW27403   1.066   2.247   8.462  0.7713  0.5697 -0.1059
 5256SOL    HW127404   1.139   2.301   8.491  0.3833  0.9922  0.0841
 5256SOL    HW227405   1.058   2.284   8.374  1.6947 -1.7074 -1.1235
 5257SOL     OW27406   0.188   4.382   2.021  0.4074 -0.5225 -0.0932
 5257SOL    HW127407   0.222   4.295   2.002 -1.5275 -1.5610  1.1855
 5257SOL    HW227408   0.273   4.425   2.033  1.2037 -1.9822 -0.5551
 5258SOL     OW27409   0.827   3.436   1.898  0.0919  0.4185  0.6577
 5258SOL    HW127410   0.817   3.430   1.994 -2.4361  2.7913  0.5522
 5258SOL    HW227411   0.741   3.455   1.860  0.9217 -0.8833 -1.8243
 5259SOL     OW27412   4.371   0.150   3.385 -0.1608 -0.0217 -0.1896
 5259SOL    HW127413   4.368   0.223   3.322 -0.5279  0.5999  0.5524
 5259SOL    HW227414   4.455   0.105   3.371  0.6067  0.4728  2.9645
 5260SOL     OW27415   2.498   1.291   2.371 -0.0548 -0.0366 -0.0416
 5260SOL    HW127416   2.583   1.271   2.411 -0.5362 -0.5573  0.7307
 5260SOL    HW227417   2.479   1.208   2.328  0.5891 -0.9009  1.3184
 5261SOL     OW27418   2.981   0.125   6.068 -0.7625  0.8806  0.1963
 5261SOL    HW127419   2.888   0.145   6.054 -1.0974  0.2015  1.3663
 5261SOL    HW227420   2.982   0.171   6.152 -0.2260 -0.8768  1.1549
 5262SOL     OW27421   3.457   0.681   9.762  0.5940 -0.7239 -0.4028
 5262SOL    HW127422   3.539   0.716   9.728 -0.1305  2.4463  1.1443
 5262SOL    HW227423   3.424   0.624   9.692  1.6190 -1.6833 -0.1032
 5263SOL     OW27424   0.019   4.636   3.857  0.4266 -0.5110 -0.1099
 5263SOL    HW127425   0.081   4.565   3.874  3.4216  1.6814 -1.8620
 5263SOL    HW227426   0.020   4.668   3.948 -1.5639  2.3081 -1.0988
 5264SOL     OW27427   4.276   0.515   1.725 -0.2406  0.0455 -0.2206
 5264SOL    HW127428   4.191   0.480   1.697  0.0114  0.4452 -1.4519
 5264SOL    HW227429   4.252   0.545   1.813  2.3720  0.3372  0.3951
 5265SOL     OW27430   2.336   3.917   2.824 -0.4480 -0.1858  0.0246
 5265SOL    HW127431   2.287   3.996   2.843 -2.0039 -0.8129 -1.3290
 5265SOL    HW227432   2.282   3.889   2.750 -2.1447  2.6082  0.2379
 5266SOL     OW27433   2.503   0.544   6.339 -0.5474  0.0055 -0.3510
 5266SOL    HW127434   2.481   0.471   6.396  0.6340 -0.1550 -0.1124
 5266SOL    HW227435   2.462   0.617   6.386  1.8389  1.1540 -0.0196
 5267SOL     OW27436   3.334   0.368   3.542  0.4008  0.3047  0.7170
 5267SOL    HW127437   3.277   0.351   3.467 -0.8051 -2.4651  2.2668
 5267SOL    HW227438   3.274   0.322   3.602 -0.6540 -1.8275 -1.9396
 5268SOL     OW27439   2.950   4.127  16.548 -0.6916 -0.0173 -0.3246
 5268SOL    HW127440   2.910   4.070  16.614 -2.2093 -1.1680 -2.2289
 5268SOL    HW227441   2.939   4.077  16.467  0.5315  0.8990 -1.0471
 5269SOL     OW27442   2.785   2.668  10.832  0.1362  0.1843 -0.3886
 5269SOL    HW127443   2.855   2.617  10.872 -1.2453  1.0002  3.1413
 5269SOL    HW227444   2.750   2.722  10.903  2.5864 -1.3149  1.9725
 5270SOL     OW27445   2.977   4.372   7.985 -0.4822 -0.1664  0.0152
 5270SOL    HW127446   2.937   4.456   8.009 -0.2583  0.2837 -1.1743
 5270SOL    HW227447   2.905   4.315   8.013  0.3101 -0.5904  1.1837
 5271SOL     OW27448   0.568   4.653  15.092 -0.0881 -0.2232  0.2169
 5271SOL    HW127449   0.503   4.722  15.101 -1.4366 -1.6663  1.3112
 5271SOL    HW227450   0.527   4.572  15.120  3.3693 -2.2920 -0.7084
 5272SOL     OW27451   2.499   3.869   9.289  0.1235  0.0857 -0.1644
 5272SOL    HW127452   2.591   3.887   9.271  0.5946 -1.5610  0.6212
 5272SOL    HW227453   2.453   3.949   9.264  0.5424 -0.0406 -1.3193
 5273SOL     OW27454   0.312   1.171  11.836  0.2963  0.1114  0.4727
 5273SOL    HW127455   0.377   1.240  11.827 -1.4931  2.0767  2.5091
 5273SOL    HW227456   0.243   1.205  11.893 -1.0615  1.2783 -1.8672
 5274SOL     OW27457   2.004   3.791   0.864  0.3977  0.2493 -0.4096
 5274SOL    HW127458   2.052   3.870   0.888 -0.5789  0.1425  1.8852
 5274SOL    HW227459   2.033   3.728   0.930  1.4858  1.2881  0.1022
 5275SOL     OW27460   2.576   4.460  12.690  0.3594 -0.2240 -0.2235
 5275SOL    HW127461   2.621   4.535  12.650  1.7222 -0.0604  1.6144
 5275SOL    HW227462   2.574   4.392  12.623  0.0210 -1.1005  0.6888
 5276SOL     OW27463   1.303   1.534  16.200  0.4250  0.3529  0.1672
 5276SOL    HW127464   1.397   1.520  16.195  0.3010  0.1756 -1.5543
 5276SOL    HW227465   1.273   1.466  16.261  0.7495  1.6087  1.7122
 5277SOL     OW27466   0.710   1.229  17.056 -0.0606  0.0456 -0.2039
 5277SOL    HW127467   0.726   1.200  17.146 -0.9141  2.7141  0.7979
 5277SOL    HW227468   0.647   1.163  17.025  0.7187 -1.3827  1.2251
 5278SOL     OW27469   3.608   1.789  13.894  0.5256 -0.2034  0.3945
 5278SOL    HW127470   3.523   1.771  13.854  0.6284 -0.5145  0.3193
 5278SOL    HW227471   3.671   1.766  13.826 -1.0162 -0.7198 -0.8659
 5279SOL     OW27472   0.086   4.229  14.374 -0.5314  0.1462  0.2806
 5279SOL    HW127473   0.151   4.295  14.398 -0.7867  0.4446  0.1606
 5279SOL    HW227474   0.032   4.266  14.304 -1.2783 -2.4951 -0.5189
 5280SOL     OW27475   3.264   4.300   4.100  0.3300  0.0296 -0.1164
 5280SOL    HW127476   3.254   4.301   4.005 -1.9557  0.4676  0.1064
 5280SOL    HW227477   3.193   4.362   4.118 -0.0660 -0.1392 -1.1281
 5281SOL     OW27478   2.613   2.017   9.162  0.4842  0.0639 -0.2332
 5281SOL    HW127479   2.568   1.940   9.126  0.4555  0.0155 -0.0953
 5281SOL    HW227480   2.604   1.993   9.254 -1.2803 -1.3307 -0.7592
 5282SOL     OW27481   1.045   1.433   5.230  0.0890  0.6217 -0.2023
 5282SOL    HW127482   0.955   1.450   5.255 -0.1647  0.0409 -0.7216
 5282SOL    HW227483   1.055   1.342   5.257  0.4140  0.3428 -1.2554
 5283SOL     OW27484   0.797   1.954   3.151 -0.8480  0.5527 -0.2802
 5283SOL    HW127485   0.828   1.950   3.061 -1.0573  0.2174 -0.3381
 5283SOL    HW227486   0.710   1.918   3.137 -1.3307  1.4492  0.4106
 5284SOL     OW27487   2.105   4.727   9.039 -0.1930  0.0919 -0.2705
 5284SOL    HW127488   2.084   4.635   9.026 -1.9465  0.4108  0.3917
 5284SOL    HW227489   2.034   0.019   9.094 -0.9618  0.8279 -1.6871
 5285SOL     OW27490   2.671   1.421   1.649  0.3354 -0.4767  0.2157
 5285SOL    HW127491   2.605   1.437   1.581 -1.8905 -1.4265  2.1582
 5285SOL    HW227492   2.616   1.386   1.719 -1.7311 -1.2153 -1.7716
 5286SOL     OW27493   4.110   1.200   8.006 -0.3301  0.1055  0.0444
 5286SOL    HW127494   4.031   1.232   7.963  0.3644  0.2726 -1.0880
 5286SOL    HW227495   4.163   1.279   8.010 -0.9507  0.4649  1.3922
 5287SOL     OW27496   1.314   1.491   3.744 -0.1036  0.2005 -0.1819
 5287SOL    HW127497   1.384   1.496   3.809  0.6963 -3.7829 -0.7327
 5287SOL    HW227498   1.246   1.441   3.789  0.6719 -0.5348  0.1617
 5288SOL     OW27499   1.517   0.402   5.652 -0.8335  0.3326 -0.1690
 5288SOL    HW127500   1.571   0.392   5.573  1.3918  0.1044  1.3708
 5288SOL    HW227501   1.455   0.469   5.622 -0.7587  0.3261 -0.3363
 5289SOL     OW27502   2.582   0.375   6.587 -0.2563  0.6594  0.3943
 5289SOL    HW127503   2.633   0.311   6.636  1.8251  2.1193  0.1499
 5289SOL    HW227504   2.642   0.448   6.601  0.2735 -0.0799  1.8572
 5290SOL     OW27505   1.387   2.162  15.352  0.3260 -0.4028  0.3102
 5290SOL    HW127506   1.380   2.077  15.394  0.3388 -0.9867 -0.8828
 5290SOL    HW227507   1.316   2.157  15.288 -0.3351 -1.5531  1.1304
 5291SOL     OW27508   3.878   4.666   6.775  0.0143  0.0518  0.0222
 5291SOL    HW127509   3.932   4.618   6.713 -0.5013  0.8414 -1.0323
 5291SOL    HW227510   3.839   4.731   6.717  1.8804  0.1049 -1.1489
 5292SOL     OW27511   0.935   4.512   8.582  0.1625 -0.0589  0.5534
 5292SOL    HW127512   0.891   4.543   8.661  0.6175 -1.9020  1.5178
 5292SOL    HW227513   1.004   4.577   8.574  0.5335 -0.2679  2.1718
 5293SOL     OW27514   1.958   0.825   2.746  0.5906 -0.1208  0.2580
 5293SOL    HW127515   2.005   0.836   2.663 -1.2632 -2.8418 -1.1763
 5293SOL    HW227516   2.015   0.758   2.784  0.7031  1.0076  2.0303
 5294SOL     OW27517   0.991   2.570   7.703 -0.1373  0.2743 -0.5056
 5294SOL    HW127518   0.920   2.541   7.645 -0.7991  0.2309  0.3290
 5294SOL    HW227519   1.067   2.520   7.674 -0.4851 -0.4223 -0.2367
 5295SOL     OW27520   4.440   2.476   6.761  0.1456 -0.4584 -0.3666
 5295SOL    HW127521   4.435   2.564   6.801  1.8939 -0.5383  0.0349
 5295SOL    HW227522   4.535   2.481   6.758  0.1975  1.1422  3.4258
 5296SOL     OW27523   1.489   2.483  16.510 -0.2217  0.3579  0.1293
 5296SOL    HW127524   1.464   2.394  16.487  1.0618  0.4187 -1.5368
 5296SOL    HW227525   1.475   2.525  16.425  1.0460  0.1221 -0.1980
 5297SOL     OW27526   3.745   1.241   3.862 -0.5074 -0.4889 -0.0803
 5297SOL    HW127527   3.790   1.324   3.849  1.1905 -1.3221  0.5766
 5297SOL    HW227528   3.655   1.271   3.850 -1.3162 -2.6443  0.6029
 5298SOL     OW27529   0.111   1.908  11.223 -0.3182  0.4230  0.1907
 5298SOL    HW127530   0.163   1.829  11.209  0.2778  0.4407  2.2766
 5298SOL    HW227531   0.042   1.879  11.282  0.4956 -1.9813 -0.0449
 5299SOL     OW27532   0.654   2.109   5.633  1.0768 -0.2161  0.1395
 5299SOL    HW127533   0.574   2.092   5.683  0.7288  2.0029  0.3567
 5299SOL    HW227534   0.633   2.073   5.547  1.3300 -0.0130 -0.0096
 5300SOL     OW27535   4.486   4.450   8.696 -0.4937 -0.7972 -0.3142
 5300SOL    HW127536   4.542   4.396   8.640  0.1860  0.0951 -0.4966
 5300SOL    HW227537   4.494   4.412   8.783  1.2769 -2.2969 -1.1383
 5301SOL     OW27538   4.228   1.786  11.218  0.1441  0.6350  0.2331
 5301SOL    HW127539   4.170   1.862  11.216 -1.0546 -0.2596  1.1366
 5301SOL    HW227540   4.251   1.785  11.311 -0.8885 -1.0756  0.4617
 5302SOL     OW27541   4.134   2.476   4.255  0.3363  0.3223 -0.3039
 5302SOL    HW127542   4.175   2.484   4.341  0.3934 -1.8250 -0.1296
 5302SOL    HW227543   4.207   2.491   4.195  0.7310  0.1666  0.1458
 5303SOL     OW27544   0.511   3.533  16.116  0.5337  0.0453  0.3922
 5303SOL    HW127545   0.549   3.616  16.142  0.2181  0.4450 -0.4109
 5303SOL    HW227546   0.558   3.506  16.037  0.5321  1.2677 -0.0207
 5304SOL     OW27547   3.397   2.520   4.732 -0.3607 -0.3836  0.4232
 5304SOL    HW127548   3.480   2.474   4.718 -0.8532 -1.0916 -0.2040
 5304SOL    HW227549   3.424   2.595   4.785  2.2341 -0.1566 -1.2541
 5305SOL     OW27550   1.409   4.131   8.377  0.6191  0.9074  0.1981
 5305SOL    HW127551   1.406   4.163   8.467  4.5760 -0.2783  0.7378
 5305SOL    HW227552   1.349   4.059   8.399  2.2263 -0.6902 -0.6009
 5306SOL     OW27553   2.900   3.622  14.451 -0.5831 -0.7432  1.0737
 5306SOL    HW127554   2.873   3.686  14.516 -1.0309  1.7112 -1.5486
 5306SOL    HW227555   2.864   3.658  14.370  0.9109 -1.2957  0.1574
 5307SOL     OW27556   3.688   3.835  13.454  0.0201  0.7994 -0.6118
 5307SOL    HW127557   3.724   3.919  13.426  2.3918 -1.2142 -3.5672
 5307SOL    HW227558   3.754   3.802  13.514 -0.0995  0.5613 -0.6119
 5308SOL     OW27559   4.426   4.557   0.683 -0.2410 -0.0042 -0.2235
 5308SOL    HW127560   4.427   4.635   0.738 -0.7519  0.2235 -0.5367
 5308SOL    HW227561   4.391   4.591   0.601 -0.0167  1.8515  0.4705
 5309SOL     OW27562   0.514   0.961   7.303  0.3122  0.0447 -0.4909
 5309SOL    HW127563   0.492   1.054   7.311 -0.5010 -0.1850 -0.0718
 5309SOL    HW227564   0.537   0.943   7.394 -1.8916 -0.4261 -0.0210
 5310SOL     OW27565   3.824   0.425   3.320 -0.3553  0.0675  0.0702
 5310SOL    HW127566   3.870   0.469   3.392 -0.5882  0.8586 -0.2660
 5310SOL    HW227567   3.760   0.377   3.373  0.1136  0.9823  1.4946
 5311SOL     OW27568   4.543   3.747  12.915 -0.1275  0.2842  0.1015
 5311SOL    HW127569   4.630   3.719  12.943  0.1804  2.0263  0.9033
 5311SOL    HW227570   4.500   3.783  12.993 -1.9040 -0.8376 -0.3758
 5312SOL     OW27571   1.579   1.725   7.948 -0.0291  0.1147  0.4160
 5312SOL    HW127572   1.569   1.820   7.958 -1.6081 -0.1143  0.9695
 5312SOL    HW227573   1.536   1.688   8.025 -1.1243 -0.2350 -0.3604
 5313SOL     OW27574   1.298   3.767  16.551  0.4488  0.2379 -0.0974
 5313SOL    HW127575   1.356   3.715  16.497 -2.0078 -1.6135 -0.9398
 5313SOL    HW227576   1.272   3.840  16.495 -2.3541  0.0403  0.9391
 5314SOL     OW27577   0.774   4.034   7.164  0.1153 -0.5420  0.0879
 5314SOL    HW127578   0.848   3.974   7.153  0.5507 -0.1765  1.0705
 5314SOL    HW227579   0.800   4.119   7.128  1.6001 -0.2477  1.8563
 5315SOL     OW27580   2.743   3.745   9.525 -0.4299  0.1991  0.2984
 5315SOL    HW127581   2.794   3.802   9.466 -1.0528  1.5350  1.0450
 5315SOL    HW227582   2.730   3.668   9.470  0.7187  0.4729 -0.3536
 5316SOL     OW27583   4.323   0.425   2.022 -0.2565 -0.1680 -0.3237
 5316SOL    HW127584   4.325   0.329   2.032 -1.6872  0.0579  2.0449
 5316SOL    HW227585   4.236   0.444   2.058  0.9718  1.6837  1.6544
 5317SOL     OW27586   2.448   4.707   1.507 -0.6893 -0.5472 -0.2079
 5317SOL    HW127587   2.389   0.011   1.445  0.4281  0.3948 -0.5947
 5317SOL    HW227588   2.536   4.724   1.473 -1.3876  1.9181 -0.7304
 5318SOL     OW27589   4.089   3.710   8.497  0.1184 -0.4228  0.1282
 5318SOL    HW127590   4.105   3.687   8.406  1.2604 -0.5279  0.3561
 5318SOL    HW227591   4.160   3.772   8.516 -0.1621  0.1347 -0.6282
 5319SOL     OW27592   4.738   0.001   0.816 -0.7167 -0.3858  0.1168
 5319SOL    HW127593   4.697   4.672   0.868  1.0823 -1.6643 -0.1286
 5319SOL    HW227594   4.664   0.060   0.807  1.2803  1.6570 -2.8078
 5320SOL     OW27595   4.655   0.629   6.694  0.3938  0.4841  0.1356
 5320SOL    HW127596   4.686   0.598   6.609  1.4531  1.2109  0.2568
 5320SOL    HW227597   4.740   0.652   6.732  0.0279  3.1550 -0.7068
 5321SOL     OW27598   2.662   4.478  17.122 -0.6286  0.1933 -0.2307
 5321SOL    HW127599   2.698   4.485  17.211  0.0648 -1.2426 -0.4029
 5321SOL    HW227600   2.589   4.416  17.128 -0.0806 -0.4856 -0.6168
 5322SOL     OW27601   3.843   2.516   8.300 -0.4057  0.3778 -0.7081
 5322SOL    HW127602   3.845   2.606   8.333 -0.5657  0.1470 -0.0750
 5322SOL    HW227603   3.929   2.516   8.257 -0.0250 -1.0326  0.0472
 5323SOL     OW27604   3.631   0.714   5.865 -0.4736  0.0636  0.0675
 5323SOL    HW127605   3.591   0.744   5.947  1.3004  4.0615 -0.5709
 5323SOL    HW227606   3.600   0.778   5.802 -1.4969  0.1739  0.6853
 5324SOL     OW27607   1.876   3.334  10.626  0.6495 -0.3093  0.1744
 5324SOL    HW127608   1.819   3.268  10.587  0.5970 -0.7652  1.0425
 5324SOL    HW227609   1.940   3.349  10.556  2.3800 -2.6336  1.2773
 5325SOL     OW27610   0.315   0.188   5.448  0.3634  0.2483  0.2230
 5325SOL    HW127611   0.225   0.161   5.429  0.6209 -0.5036  0.1001
 5325SOL    HW227612   0.310   0.192   5.544  1.0911  0.5189  0.2450
 5326SOL     OW27613   3.182   3.080   1.804 -0.1916 -0.4829 -0.3671
 5326SOL    HW127614   3.145   3.168   1.805  0.8073 -0.0563 -1.7886
 5326SOL    HW227615   3.134   3.041   1.732 -1.2440 -0.7336  0.4679
 5327SOL     OW27616   2.463   1.809   9.068 -0.2677 -0.0923 -0.1504
 5327SOL    HW127617   2.443   1.733   9.123 -2.4962 -0.2866 -1.2194
 5327SOL    HW227618   2.466   1.773   8.979  0.4714  0.0426 -0.1794
 5328SOL     OW27619   2.205   2.404  12.266  0.0705  0.8171 -0.4861
 5328SOL    HW127620   2.249   2.485  12.294  1.5451  0.3310 -1.4077
 5328SOL    HW227621   2.202   2.402  12.171  1.0162  1.1574 -0.5234
 5329SOL     OW27622   1.878   0.811   4.967  0.1620  0.0560  0.2308
 5329SOL    HW127623   1.873   0.906   4.962 -1.4258 -0.0666 -0.6185
 5329SOL    HW227624   1.905   0.789   5.056 -1.4555  0.7800  0.8971
 5330SOL     OW27625   1.349   1.661   4.391  0.1526  0.0290  0.0727
 5330SOL    HW127626   1.427   1.675   4.444 -0.8494  2.2813  0.9352
 5330SOL    HW227627   1.356   1.712   4.310 -0.4058  0.3467  0.2226
 5331SOL     OW27628   3.881   4.325   7.967 -0.2068 -0.1400  0.0583
 5331SOL    HW127629   3.830   4.296   7.891 -0.1527  0.1616 -0.0926
 5331SOL    HW227630   3.819   4.379   8.016  0.4960  1.3910 -0.7402
 5332SOL     OW27631   0.349   4.596   8.872 -0.0967 -0.0532 -0.5699
 5332SOL    HW127632   0.303   4.609   8.789  0.2616  0.1946 -0.7296
 5332SOL    HW227633   0.291   4.531   8.911 -1.1384  1.0427 -0.3206
 5333SOL     OW27634   3.382   4.685   3.493 -0.5925  0.5364  0.5253
 5333SOL    HW127635   3.369   4.621   3.422  0.4408  1.1353 -0.2002
 5333SOL    HW227636   3.456   4.735   3.458 -0.3281 -0.3135 -0.1476
 5334SOL     OW27637   3.153   3.442   7.613  0.7261 -0.1479 -0.5363
 5334SOL    HW127638   3.158   3.409   7.703  0.4006  0.3348 -0.3416
 5334SOL    HW227639   3.223   3.507   7.615 -2.1257  2.8841  0.8142
 5335SOL     OW27640   1.218   1.033   2.074 -0.4709 -0.6407  0.0358
 5335SOL    HW127641   1.233   1.127   2.077 -1.4142 -0.4888 -0.0484
 5335SOL    HW227642   1.277   1.007   2.145  0.7805 -0.7348 -1.0472
 5336SOL     OW27643   1.280   2.807  15.184 -0.2975  0.6054 -0.4426
 5336SOL    HW127644   1.286   2.902  15.190 -1.4838  0.8019 -2.3436
 5336SOL    HW227645   1.364   2.780  15.221 -0.1790  1.0464 -0.3884
 5337SOL     OW27646   3.615   2.042   7.896 -0.3303 -0.1507 -0.7670
 5337SOL    HW127647   3.666   2.069   7.972 -0.3959  0.2425 -0.8665
 5337SOL    HW227648   3.690   2.045   7.837 -2.3690  3.0020 -3.1554
 5338SOL     OW27649   3.685   3.430   9.226 -0.7561 -0.1609 -0.9189
 5338SOL    HW127650   3.669   3.497   9.293  0.3183  0.4950 -1.3277
 5338SOL    HW227651   3.660   3.357   9.283 -0.9896 -1.4592 -2.6858
 5339SOL     OW27652   2.535   3.645   6.080  0.2475  0.3759  0.7399
 5339SOL    HW127653   2.477   3.702   6.131 -0.1671 -0.0529  0.7465
 5339SOL    HW227654   2.610   3.636   6.139  1.2624  1.6363 -0.3702
 5340SOL     OW27655   2.324   4.172   7.324  0.2864  0.1716  0.8531
 5340SOL    HW127656   2.264   4.101   7.345 -1.4694  1.7370  1.0991
 5340SOL    HW227657   2.280   4.250   7.358 -0.4171  0.2591 -0.2637
 5341SOL     OW27658   2.482   4.220   1.697 -0.0382 -0.4720 -0.3734
 5341SOL    HW127659   2.425   4.236   1.772  0.5429 -0.3168  0.0323
 5341SOL    HW227660   2.549   4.160   1.730 -1.7122 -0.2491  3.4316
 5342SOL     OW27661   0.153   2.446  12.494  0.0217 -0.1683  0.1593
 5342SOL    HW127662   0.115   2.455  12.406 -2.4172 -2.6617  0.9476
 5342SOL    HW227663   0.242   2.472  12.470 -0.3092 -0.0367 -0.9158
 5343SOL     OW27664   1.663   2.264   0.751  0.0690  0.1365 -0.2151
 5343SOL    HW127665   1.636   2.220   0.670  0.7276  1.2200 -1.0278
 5343SOL    HW227666   1.751   2.229   0.767  0.7645  0.6859 -2.7055
 5344SOL     OW27667   4.394   2.104   2.659  0.0756  0.3917  0.7382
 5344SOL    HW127668   4.300   2.099   2.645 -0.0712  0.7311  1.6150
 5344SOL    HW227669   4.426   2.021   2.693  0.5630  1.0514  1.8798
 5345SOL     OW27670   1.290   4.176   2.816 -0.4050  0.0870 -0.2222
 5345SOL    HW127671   1.264   4.267   2.827  2.0166  0.7429  0.0839
 5345SOL    HW227672   1.212   4.124   2.836  0.2541 -0.8185 -0.0003
 5346SOL     OW27673   0.638   0.624   9.667 -0.2925  0.6645 -0.1909
 5346SOL    HW127674   0.655   0.628   9.573 -0.0711 -0.6781 -0.2117
 5346SOL    HW227675   0.721   0.609   9.713 -0.5935 -0.0629  0.1163
 5347SOL     OW27676   4.533   0.042   4.062 -0.1142  0.1227  0.8098
 5347SOL    HW127677   4.539   0.098   3.985 -1.5294 -0.0071  0.6034
 5347SOL    HW227678   4.616   0.055   4.107 -0.2101  1.6758  0.5388
 5348SOL     OW27679   0.268   0.811   2.128 -0.1613 -0.0398 -0.3699
 5348SOL    HW127680   0.194   0.857   2.088 -0.2810  1.0368  1.0971
 5348SOL    HW227681   0.232   0.793   2.215  0.9486 -1.4240 -0.2161
 5349SOL     OW27682   2.844   0.383   3.198  0.1941  0.4267 -0.2459
 5349SOL    HW127683   2.871   0.298   3.232 -0.0848  0.7995  0.9087
 5349SOL    HW227684   2.870   0.382   3.106  3.2481 -3.8054  0.6839
 5350SOL     OW27685   3.577   0.090   3.379 -0.4665  0.7796 -0.4232
 5350SOL    HW127686   3.673   0.083   3.375 -0.5845 -1.5886  0.7158
 5350SOL    HW227687   3.571   0.179   3.413 -2.4269  0.0216  1.2518
 5351SOL     OW27688   4.497   3.025   5.911 -0.0760 -0.8709 -0.4525
 5351SOL    HW127689   4.487   3.109   5.956  2.7390 -0.2652 -0.9268
 5351SOL    HW227690   4.407   2.995   5.919  0.5007 -3.0355 -1.8297
 5352SOL     OW27691   2.544   2.032   6.805  0.5074  0.0374  0.5699
 5352SOL    HW127692   2.607   1.960   6.813  0.5407  0.1813  1.5598
 5352SOL    HW227693   2.492   1.985   6.739  0.0254 -0.9810  1.6766
 5353SOL     OW27694   1.769   2.312   5.990 -0.1047 -0.1578 -0.0845
 5353SOL    HW127695   1.792   2.274   5.905  1.3868 -2.3354  1.2685
 5353SOL    HW227696   1.789   2.234   6.041  0.1528 -1.2491 -1.8290
 5354SOL     OW27697   4.285   2.650   3.886 -0.3740 -0.1035 -1.0238
 5354SOL    HW127698   4.356   2.661   3.822 -0.7969  1.9477 -1.1333
 5354SOL    HW227699   4.261   2.741   3.905  0.2835 -0.3259  0.8965
 5355SOL     OW27700   2.536   3.071  16.359 -0.4434 -0.0702 -0.1166
 5355SOL    HW127701   2.585   3.035  16.285  0.3119 -0.8133  0.7406
 5355SOL    HW227702   2.518   3.001  16.421  0.2909 -0.9333 -0.8851
 5356SOL     OW27703   3.191   0.658  15.650  0.1325  0.1228  0.8334
 5356SOL    HW127704   3.235   0.618  15.724  1.1701 -0.7247 -0.2407
 5356SOL    HW227705   3.122   0.700  15.701  0.1400  0.3458  0.6628
 5357SOL     OW27706   4.126   3.459  11.012  0.2699 -0.0302 -0.3625
 5357SOL    HW127707   4.058   3.526  11.019 -1.8311 -2.6257  3.5904
 5357SOL    HW227708   4.202   3.515  11.030  0.5422  0.4170 -2.8344
 5358SOL     OW27709   1.186   4.013   5.807 -0.3391  0.5172 -0.2253
 5358SOL    HW127710   1.278   4.022   5.832 -0.2852 -1.6220  0.3848
 5358SOL    HW227711   1.185   4.032   5.713  1.2691  0.7592 -0.1873
 5359SOL     OW27712   0.768   2.416   8.889 -0.3257  0.4910  0.2292
 5359SOL    HW127713   0.772   2.511   8.887 -1.8686  0.5550  0.0766
 5359SOL    HW227714   0.683   2.402   8.930  0.3169  1.0978  1.7724
 5360SOL     OW27715   3.886   2.490  12.499  0.1046 -0.3631 -0.2163
 5360SOL    HW127716   3.795   2.465  12.488  0.4908 -1.2490 -1.4020
 5360SOL    HW227717   3.908   2.503  12.407 -0.1725 -0.2001 -0.2602
 5361SOL     OW27718   0.300   4.502   5.838 -0.2337 -0.4389  0.1950
 5361SOL    HW127719   0.221   4.536   5.796 -0.8193 -2.2883 -0.1904
 5361SOL    HW227720   0.260   4.435   5.894 -0.3930  0.4533  1.1523
 5362SOL     OW27721   4.104   3.348  14.378  0.3583  0.4278  0.1448
 5362SOL    HW127722   4.040   3.348  14.306  0.2808 -1.7454  0.2084
 5362SOL    HW227723   4.056   3.307  14.451  0.7075  0.1181  0.2017
 5363SOL     OW27724   1.271   3.616   9.080  0.2314 -0.6005  0.1787
 5363SOL    HW127725   1.190   3.608   9.131 -0.4459 -0.0216 -0.8117
 5363SOL    HW227726   1.229   3.647   9.000 -2.9256 -0.8966  1.7166
 5364SOL     OW27727   1.701   2.960   0.215  0.1947 -0.3862 -0.1617
 5364SOL    HW127728   1.795   2.977   0.226  0.1666  1.3689 -2.6289
 5364SOL    HW227729   1.669   2.978   0.304 -0.0944 -0.2042 -0.3040
 5365SOL     OW27730   2.928   0.459   8.720 -0.2014 -0.3159 -0.5224
 5365SOL    HW127731   2.844   0.424   8.750  1.2349 -1.5315  2.0668
 5365SOL    HW227732   2.989   0.386   8.720 -0.9666 -0.9450 -1.2523
 5366SOL     OW27733   2.298   3.657   5.905 -0.2851  0.0458 -0.6791
 5366SOL    HW127734   2.280   3.569   5.939 -0.4824 -0.3396 -1.7692
 5366SOL    HW227735   2.375   3.686   5.954 -1.5143  1.0720  0.6329
 5367SOL     OW27736   4.303   0.071   6.096  0.0788  0.0444 -0.2407
 5367SOL    HW127737   4.253   0.142   6.056  0.6133 -1.1135 -2.9729
 5367SOL    HW227738   4.242   0.019   6.148 -1.6868  1.1845 -1.1706
 5368SOL     OW27739   4.142   2.912   3.966 -0.0420  0.3305  0.3812
 5368SOL    HW127740   4.124   2.879   4.054  0.7928  2.6749  1.4516
 5368SOL    HW227741   4.054   2.948   3.950  0.4015  1.0135 -0.5068
 5369SOL     OW27742   1.746   1.849   2.917 -0.3696 -0.4978 -0.5391
 5369SOL    HW127743   1.750   1.756   2.894 -0.0556 -1.0097  1.5801
 5369SOL    HW227744   1.752   1.845   3.013 -0.2968 -1.8218 -0.5932
 5370SOL     OW27745   4.597   4.629   3.646 -0.3484  0.7535  0.1222
 5370SOL    HW127746   4.658   4.627   3.719  0.2741 -0.9224 -0.4394
 5370SOL    HW227747   4.516   4.584   3.673 -0.3388  0.0481 -0.9739
 5371SOL     OW27748   1.303   1.481   2.220  0.8544  0.2005 -0.1382
 5371SOL    HW127749   1.319   1.548   2.153 -1.7802  0.4484 -0.5040
 5371SOL    HW227750   1.219   1.515   2.251  0.6581 -1.4640  1.1685
 5372SOL     OW27751   3.970   3.483   1.355  0.0512  0.1240 -0.0601
 5372SOL    HW127752   3.930   3.414   1.303  1.9239 -1.5063  0.6547
 5372SOL    HW227753   4.019   3.521   1.281  0.8161  0.2349  0.5009
 5373SOL     OW27754   3.296   2.705  15.764 -0.2939  0.6956  0.1053
 5373SOL    HW127755   3.346   2.784  15.786  0.7939 -0.1641  0.7169
 5373SOL    HW227756   3.294   2.724  15.670 -1.4150  0.4490  0.0861
 5374SOL     OW27757   2.724   3.227  12.066  0.1185  0.5514  0.4478
 5374SOL    HW127758   2.697   3.205  12.155 -1.8380 -0.1327 -0.3171
 5374SOL    HW227759   2.816   3.252  12.077  0.5057 -0.8672  0.4181
 5375SOL     OW27760   3.579   1.714   7.979 -0.1351 -0.4004 -0.6664
 5375SOL    HW127761   3.506   1.653   7.971 -0.0357 -0.4902 -0.8656
 5375SOL    HW227762   3.539   1.766   8.049 -1.0351 -2.3567  0.2521
 5376SOL     OW27763   2.704   4.044  12.463  0.0360 -0.8227  0.5368
 5376SOL    HW127764   2.622   4.025  12.416 -0.0948 -0.5261  0.6453
 5376SOL    HW227765   2.761   4.054  12.387 -0.5932  1.6320  0.3839
 5377SOL     OW27766   1.797   0.130  10.966  0.0506  0.2778  0.0378
 5377SOL    HW127767   1.764   0.142  11.055  0.3184 -0.3307  0.2165
 5377SOL    HW227768   1.726   0.117  10.903 -0.8554  0.0096  1.1093
 5378SOL     OW27769   1.242   0.048   6.142 -0.5331  0.0142  0.1306
 5378SOL    HW127770   1.188   0.117   6.105 -0.2125  0.1573 -0.0687
 5378SOL    HW227771   1.323   0.095   6.163  0.6414 -0.9243 -2.3200
 5379SOL     OW27772   0.163   3.777  11.588 -0.1958 -0.4012  0.0146
 5379SOL    HW127773   0.147   3.871  11.602 -0.0224 -0.4458  0.5132
 5379SOL    HW227774   0.172   3.745  11.678  0.9929  0.6850  0.2866
 5380SOL     OW27775   1.637   2.112  11.989 -0.0982  0.1584  0.2066
 5380SOL    HW127776   1.660   2.142  12.077  0.8830  2.0639 -0.7039
 5380SOL    HW227777   1.549   2.088  12.017 -0.4873  1.1628 -0.1617
 5381SOL     OW27778   1.867   2.717   9.822  0.2272  0.6764 -0.1098
 5381SOL    HW127779   1.902   2.714   9.911  1.1581 -1.6360 -0.5492
 5381SOL    HW227780   1.947   2.715   9.769  0.4950 -0.5737  0.3460
 5382SOL     OW27781   4.161   2.796  14.628 -0.1906 -0.0801 -0.1529
 5382SOL    HW127782   4.216   2.863  14.588  0.1062  1.8109  3.4983
 5382SOL    HW227783   4.089   2.859  14.631  1.2305  1.5851 -1.1681
 5383SOL     OW27784   1.164   1.889   2.536  0.0077 -0.1239  0.9048
 5383SOL    HW127785   1.106   1.965   2.546  2.5047  2.0094 -0.6499
 5383SOL    HW227786   1.162   1.870   2.442  0.2403 -0.1248  0.8990
 5384SOL     OW27787   3.009   2.030   5.691  0.3058  0.5977 -0.0635
 5384SOL    HW127788   3.009   2.095   5.620 -0.5135  0.6755 -0.0005
 5384SOL    HW227789   2.951   2.074   5.753 -1.1155 -1.9965  0.4424
 5385SOL     OW27790   1.750   4.414   2.222  0.1533  0.6754  0.1734
 5385SOL    HW127791   1.700   4.442   2.299 -0.3496 -0.4792  0.2567
 5385SOL    HW227792   1.802   4.493   2.207  1.1911  0.1186  0.7968
 5386SOL     OW27793   3.803   0.298   5.507  0.2948 -0.5589 -0.2308
 5386SOL    HW127794   3.782   0.388   5.533  1.0648  0.0746 -1.7927
 5386SOL    HW227795   3.825   0.306   5.414  1.6265  2.3587  0.3065
 5387SOL     OW27796   0.686   1.882   2.227 -0.0930  0.2133 -0.2213
 5387SOL    HW127797   0.755   1.820   2.251 -0.2206  0.5297  0.9562
 5387SOL    HW227798   0.629   1.865   2.302  2.0031  2.6191  1.8973
 5388SOL     OW27799   2.720   0.174   4.085  0.2824  0.0854 -0.1965
 5388SOL    HW127800   2.685   0.201   4.169  0.3847  1.1204 -0.4956
 5388SOL    HW227801   2.700   0.080   4.087  0.9770 -0.1225 -2.0290
 5389SOL     OW27802   3.545   1.733   6.761 -0.5703  0.2656  0.8831
 5389SOL    HW127803   3.486   1.670   6.720 -0.9304  2.5451 -2.0906
 5389SOL    HW227804   3.496   1.811   6.735  1.9888  1.4910 -0.2467
 5390SOL     OW27805   4.215   1.183   6.451  0.0237  0.0473  0.5124
 5390SOL    HW127806   4.180   1.272   6.461  1.1036  0.5317 -0.0408
 5390SOL    HW227807   4.158   1.134   6.511  0.1853 -0.6758  0.0726
 5391SOL     OW27808   2.232   1.171   3.101  0.8600  0.1119  0.6863
 5391SOL    HW127809   2.212   1.092   3.051  0.5518  0.2662  0.5638
 5391SOL    HW227810   2.327   1.178   3.108  0.7909  0.6431  1.0944
 5392SOL     OW27811   2.898   2.146   6.572  0.2556  0.2902 -0.1201
 5392SOL    HW127812   2.963   2.207   6.606  0.0456  0.0767  0.6602
 5392SOL    HW227813   2.869   2.107   6.654  0.5795  0.6675  0.1733
 5393SOL     OW27814   2.597   4.647  15.396 -0.0954  0.2163 -0.5555
 5393SOL    HW127815   2.528   4.711  15.412  0.4565  0.6582  0.0594
 5393SOL    HW227816   2.562   4.563  15.368  0.8281  0.2113 -1.6904
 5394SOL     OW27817   3.036   1.936  14.347  0.0499 -0.4109  0.2371
 5394SOL    HW127818   2.966   1.997  14.371 -0.9136 -1.6208  0.4804
 5394SOL    HW227819   3.012   1.920  14.256 -0.1648  0.3551  0.1531
 5395SOL     OW27820   3.247   2.355   9.096  0.1732  0.8768 -0.6719
 5395SOL    HW127821   3.201   2.437   9.077  0.0512  0.8963 -0.2852
 5395SOL    HW227822   3.184   2.292   9.131  2.0319  0.8577  2.6657
 5396SOL     OW27823   2.279   2.085  12.743 -0.6551  0.5045 -0.0033
 5396SOL    HW127824   2.305   2.034  12.666 -1.2240  0.6685 -0.3039
 5396SOL    HW227825   2.191   2.114  12.720 -1.1452 -1.3734 -0.4945
 5397SOL     OW27826   4.672   2.483   8.643 -0.2122 -0.4809  0.1360
 5397SOL    HW127827   0.020   2.448   8.630  1.1885  3.3554 -0.5146
 5397SOL    HW227828   4.682   2.578   8.637 -1.4429 -0.3405  0.2132
 5398SOL     OW27829   2.728   2.742  14.785 -0.3462 -0.1274  0.5704
 5398SOL    HW127830   2.804   2.754  14.729 -0.4558 -1.5549  0.1188
 5398SOL    HW227831   2.665   2.750  14.713  0.3268 -0.1736 -0.0199
 5399SOL     OW27832   3.947   3.527   5.484 -0.6193 -0.5014  0.5434
 5399SOL    HW127833   3.854   3.506   5.479 -0.3897 -1.5092  0.5414
 5399SOL    HW227834   3.944   3.622   5.473 -1.6920 -0.5752  0.1851
 5400SOL     OW27835   1.387   3.318   9.765  0.0946 -0.3428  0.4340
 5400SOL    HW127836   1.411   3.317   9.672  1.3382 -1.4338  0.7619
 5400SOL    HW227837   1.406   3.226   9.784  1.7874 -0.0717  0.0675
 5401SOL     OW27838   1.624   1.500   3.342 -0.0170  0.1789 -0.2197
 5401SOL    HW127839   1.700   1.521   3.396  1.6821 -0.7913 -2.2538
 5401SOL    HW227840   1.669   1.504   3.258 -1.9314  0.9827 -1.1922
 5402SOL     OW27841   1.953   4.054  13.072 -0.2749  0.1088 -0.4699
 5402SOL    HW127842   1.878   3.995  13.067 -1.1277  1.3496 -2.0765
 5402SOL    HW227843   2.016   3.991  13.038  0.4911 -0.3213  1.7536
 5403SOL     OW27844   0.578   0.358   6.043  0.6185  0.3739 -0.0192
 5403SOL    HW127845   0.542   0.337   5.956 -0.1778 -1.8259  0.8443
 5403SOL    HW227846   0.558   0.452   6.051 -0.3182  0.2303 -0.5320
 5404SOL     OW27847   3.340   0.574   7.516 -0.2851  0.3008  0.0225
 5404SOL    HW127848   3.370   0.568   7.606  1.0357  0.7705 -0.3892
 5404SOL    HW227849   3.337   0.483   7.487  0.0657  0.0385  0.8226
 5405SOL     OW27850   1.101   3.655   1.862 -0.1707 -0.0114 -0.5036
 5405SOL    HW127851   1.146   3.591   1.918 -0.2348 -0.1418 -0.6012
 5405SOL    HW227852   1.180   3.685   1.818 -0.6767  0.2629 -1.2054
 5406SOL     OW27853   3.785   4.283  16.984 -0.0943 -0.0696  0.0808
 5406SOL    HW127854   3.808   4.203  16.937  1.8913  1.0889 -0.9238
 5406SOL    HW227855   3.768   4.250  17.072 -1.0326 -2.3567 -0.9776
 5407SOL     OW27856   0.478   3.807   8.992  0.6362 -0.1383 -0.0945
 5407SOL    HW127857   0.504   3.853   9.071 -0.3490  1.1148 -0.4996
 5407SOL    HW227858   0.390   3.840   8.974  0.6665  1.2674  2.4892
 5408SOL     OW27859   0.402   4.138   0.697  0.1992 -0.2402  0.1991
 5408SOL    HW127860   0.386   4.223   0.739 -0.2277 -0.0682 -0.3180
 5408SOL    HW227861   0.491   4.145   0.665 -0.5162  1.4423 -1.3952
 5409SOL     OW27862   1.760   0.550  11.676  0.1775 -0.3231  0.0112
 5409SOL    HW127863   1.824   0.597  11.729 -1.1803 -0.6059  1.9051
 5409SOL    HW227864   1.733   0.497  11.751 -3.2834  0.3908 -0.7370
 5410SOL     OW27865   1.856   1.507   8.800 -0.3356  0.0819  0.2429
 5410SOL    HW127866   1.794   1.434   8.801 -1.7183  1.2497  0.0260
 5410SOL    HW227867   1.891   1.500   8.889  0.0320 -0.6607  0.0348
 5411SOL     OW27868   1.760   4.566   9.007  0.4464 -0.2072 -0.0332
 5411SOL    HW127869   1.710   4.575   8.925  1.0173 -0.0130 -0.3655
 5411SOL    HW227870   1.842   4.535   8.968  0.4568  0.1336 -0.2830
 5412SOL     OW27871   0.552   0.806  17.505 -0.4731  0.0944  0.0706
 5412SOL    HW127872   0.535   0.900  17.493  0.6181  0.4773  1.5688
 5412SOL    HW227873   0.638   0.794  17.545 -0.8623 -1.5453  0.4243
 5413SOL     OW27874   2.289   3.010   9.732 -0.4903 -0.2915 -0.0857
 5413SOL    HW127875   2.325   2.930   9.769  0.3056  1.6104  3.2871
 5413SOL    HW227876   2.358   3.050   9.680 -0.7591 -0.5643 -0.6464
 5414SOL     OW27877   1.577   3.903   4.517  0.6994  0.5095  0.6600
 5414SOL    HW127878   1.640   3.966   4.553  0.3328  0.1917  1.8606
 5414SOL    HW227879   1.572   3.931   4.426 -3.1422  1.6058  1.1906
 5415SOL     OW27880   3.293   1.839  15.795 -0.7409  0.0163 -0.4926
 5415SOL    HW127881   3.379   1.839  15.838 -0.6798  1.8869 -0.5898
 5415SOL    HW227882   3.302   1.912  15.734 -0.1300  1.0137  0.7725
 5416SOL     OW27883   0.610   0.321   2.831  0.1640 -0.1293 -0.4132
 5416SOL    HW127884   0.700   0.329   2.800  0.8366 -0.4395  1.4294
 5416SOL    HW227885   0.595   0.416   2.826 -0.5016 -0.2135 -0.1025
 5417SOL     OW27886   4.270   3.312   1.605  0.0191 -0.6333  0.0054
 5417SOL    HW127887   4.316   3.228   1.597  2.6278  0.4988  2.9587
 5417SOL    HW227888   4.288   3.320   1.699 -1.2038 -3.3764  0.4819
 5418SOL     OW27889   1.947   1.291   5.335  0.1218 -0.1574  1.0118
 5418SOL    HW127890   1.899   1.293   5.418  1.1251  1.2832  1.5545
 5418SOL    HW227891   2.036   1.295   5.369  0.6574  2.1534 -0.6725
 5419SOL     OW27892   2.949   4.455   5.544  0.3644  0.6156  0.2746
 5419SOL    HW127893   3.024   4.396   5.545 -1.1575 -1.3161  0.5041
 5419SOL    HW227894   2.910   4.439   5.630  0.0527 -0.9178 -0.1531
 5420SOL     OW27895   4.088   0.026  13.804  0.4820 -0.5669 -0.1523
 5420SOL    HW127896   4.020   0.019  13.871 -1.8914 -0.2403 -2.5485
 5420SOL    HW227897   4.058   0.088  13.738  1.0281 -0.2504 -0.1003
 5421SOL     OW27898   0.892   0.533  12.388 -0.0711  0.0972  0.0057
 5421SOL    HW127899   0.920   0.447  12.419 -0.3529  0.3045  0.8388
 5421SOL    HW227900   0.807   0.545  12.429  0.7832  0.2553  1.7181
 5422SOL     OW27901   3.715   1.410   9.105  0.2515 -0.2663 -0.0079
 5422SOL    HW127902   3.663   1.337   9.139  1.9657 -1.2433  0.5403
 5422SOL    HW227903   3.720   1.385   9.012 -1.4100  0.9842 -0.4170
 5423SOL     OW27904   1.492   0.449  16.708  0.0426 -0.2572  0.0414
 5423SOL    HW127905   1.420   0.389  16.690  0.5890 -0.2552 -2.0817
 5423SOL    HW227906   1.474   0.459  16.802 -0.8111  2.8640 -0.4423
 5424SOL     OW27907   1.761   3.677   1.916 -0.4543  0.0522  0.0027
 5424SOL    HW127908   1.784   3.657   1.825 -1.3961  2.1917 -0.6917
 5424SOL    HW227909   1.694   3.745   1.906 -1.6403 -1.0659  0.3564
 5425SOL     OW27910   3.099   3.848   1.694 -0.4203 -0.1269 -0.3241
 5425SOL    HW127911   3.117   3.852   1.788 -0.9846  0.1527 -0.2265
 5425SOL    HW227912   3.172   3.789   1.675  0.2717  0.9760 -1.0792
 5426SOL     OW27913   0.860   0.825   3.278  0.6670  0.3688  0.0304
 5426SOL    HW127914   0.850   0.852   3.186  0.5368 -1.3246 -0.4551
 5426SOL    HW227915   0.953   0.847   3.284  0.8127 -0.2371  0.0178
 5427SOL     OW27916   4.566   2.720   4.741 -0.1108  0.1866 -0.0392
 5427SOL    HW127917   4.581   2.711   4.835  0.1313 -1.7428 -0.2674
 5427SOL    HW227918   4.476   2.752   4.736  0.0095  0.4983 -0.2302
 5428SOL     OW27919   1.550   3.662   7.352  0.6825 -0.2741 -0.0525
 5428SOL    HW127920   1.509   3.727   7.294  1.2737 -1.0224 -1.3125
 5428SOL    HW227921   1.488   3.678   7.423 -0.1276 -0.3537 -0.7306
 5429SOL     OW27922   1.005   1.649   2.530 -0.1678  0.6989  0.3992
 5429SOL    HW127923   1.067   1.577   2.520 -1.3306 -0.0793 -1.0977
 5429SOL    HW227924   1.075   1.714   2.538  0.0809  0.3645  0.8797
 5430SOL     OW27925   2.884   3.298   8.645 -0.3544 -0.2402  0.0727
 5430SOL    HW127926   2.827   3.276   8.572  2.0452 -1.9382 -1.2945
 5430SOL    HW227927   2.821   3.279   8.714  0.0595  1.9998  1.0892
 5431SOL     OW27928   1.934   2.424   1.578 -0.0614 -0.0002  0.3658
 5431SOL    HW127929   1.868   2.474   1.530 -0.1790 -0.3677  0.1433
 5431SOL    HW227930   1.882   2.379   1.644 -1.6364  0.3094 -0.6541
 5432SOL     OW27931   4.679   4.388   4.536 -0.2294  0.0412  0.1505
 5432SOL    HW127932   4.708   4.323   4.472  1.0332  2.1920 -1.4393
 5432SOL    HW227933   4.584   4.375   4.530 -0.4017 -0.1094  3.2357
 5433SOL     OW27934   4.127   0.229   5.404  0.2159 -0.0808 -0.7288
 5433SOL    HW127935   4.131   0.159   5.469  0.8378 -0.9861 -1.7557
 5433SOL    HW227936   4.215   0.266   5.417 -0.1257  0.2267  0.7097
 5434SOL     OW27937   1.074   4.065  10.401  0.0007  0.0853 -0.2438
 5434SOL    HW127938   1.028   3.987  10.431  0.3484  0.0107  0.1086
 5434SOL    HW227939   1.040   4.119  10.473 -0.5390 -0.7183  0.0991
 5435SOL     OW27940   2.724   2.209  14.017 -0.4826  0.5987 -0.1879
 5435SOL    HW127941   2.639   2.252  14.032 -0.3062  1.3008 -1.1791
 5435SOL    HW227942   2.729   2.227  13.923  0.9345 -0.6874 -0.3612
 5436SOL     OW27943   4.393   0.933   8.556 -0.1346  0.7676 -0.3748
 5436SOL    HW127944   4.373   0.883   8.635 -2.5422  0.8388 -0.9505
 5436SOL    HW227945   4.405   0.873   8.483 -0.5535  1.2887 -0.8698
 5437SOL     OW27946   4.402   4.316   4.215 -0.3032  0.0552 -0.2853
 5437SOL    HW127947   4.372   4.405   4.199  0.3956  0.6941  2.0159
 5437SOL    HW227948   4.455   4.331   4.293 -0.2793  0.4842 -0.3847
 5438SOL     OW27949   4.175   4.323   5.077  0.2754 -0.0587  0.5229
 5438SOL    HW127950   4.236   4.320   5.151 -0.4352 -0.7983  1.0745
 5438SOL    HW227951   4.191   4.235   5.042  1.9665  0.3606  0.2138
 5439SOL     OW27952   0.320   0.646  17.456 -0.6722  0.5354  0.4800
 5439SOL    HW127953   0.294   0.609  17.541  0.5682  0.8257  0.9909
 5439SOL    HW227954   0.401   0.688  17.483 -0.4254  0.0660  0.4610
 5440SOL     OW27955   1.692   4.641   9.766  0.3587 -0.4408 -0.4100
 5440SOL    HW127956   1.661   4.572   9.708 -0.3383  0.0407 -0.6077
 5440SOL    HW227957   1.635   4.716   9.751  0.9121 -0.3869 -2.1735
 5441SOL     OW27958   3.501   1.374   5.904  0.4535  0.3163  0.0962
 5441SOL    HW127959   3.584   1.403   5.865  0.6215 -1.4638 -0.8433
 5441SOL    HW227960   3.499   1.417   5.990  0.2056  1.6767 -0.5871
 5442SOL     OW27961   4.402   3.160   5.599 -0.5126  0.3971  0.1696
 5442SOL    HW127962   4.319   3.123   5.630  0.3152 -1.6982 -0.0667
 5442SOL    HW227963   4.404   3.115   5.514 -2.6312  1.6091 -0.5374
 5443SOL     OW27964   3.489   1.806   5.540  0.0105  0.6341  0.0259
 5443SOL    HW127965   3.525   1.823   5.627 -0.8476  0.6715  0.3687
 5443SOL    HW227966   3.400   1.840   5.547 -0.0074  0.9418 -1.6578
 5444SOL     OW27967   3.429   0.020   5.654 -0.2383 -0.7493  0.0940
 5444SOL    HW127968   3.338   0.050   5.655  0.3889  1.1515  0.5360
 5444SOL    HW227969   3.476   0.084   5.708  1.9264 -1.5013 -0.9001
 5445SOL     OW27970   4.171   3.789  13.474  0.2362  0.2798  0.0035
 5445SOL    HW127971   4.188   3.715  13.415 -3.6952 -0.0102 -0.7821
 5445SOL    HW227972   4.205   3.763  13.559 -0.9046 -2.4425 -0.3584
 5446SOL     OW27973   0.833   0.934   3.032 -0.0007  0.1868  0.4813
 5446SOL    HW127974   0.866   0.923   2.943 -1.6452  2.2307 -0.3824
 5446SOL    HW227975   0.799   1.023   3.018  0.9074  0.1133 -2.2103
 5447SOL     OW27976   2.445   1.912   8.155 -0.2510  0.6476  0.4979
 5447SOL    HW127977   2.381   1.861   8.106 -0.3495  0.5372  0.7434
 5447SOL    HW227978   2.524   1.873   8.119  0.1939  3.3175 -1.3929
 5448SOL     OW27979   2.133   4.288   8.018  0.0042  0.0423 -0.0428
 5448SOL    HW127980   2.225   4.281   8.045  0.6326  1.9106 -1.7207
 5448SOL    HW227981   2.128   4.378   7.986 -0.9329  0.4255  1.2066
 5449SOL     OW27982   1.890   2.572   1.064  0.0893 -0.4274  0.5364
 5449SOL    HW127983   1.966   2.538   1.110  0.3125  0.8318  1.0995
 5449SOL    HW227984   1.904   2.530   0.979  0.1237 -1.6297  1.1487
 5450SOL     OW27985   1.500   2.731   6.901 -0.5861  0.2042 -0.1053
 5450SOL    HW127986   1.423   2.675   6.912 -0.2723  0.2333  2.3465
 5450SOL    HW227987   1.452   2.811   6.922 -0.0919  1.0381 -2.1962
 5451SOL     OW27988   1.075   2.615  13.196  0.5720 -0.1379 -0.1874
 5451SOL    HW127989   1.074   2.698  13.243  1.4153  0.6293 -1.5483
 5451SOL    HW227990   1.152   2.618  13.141 -0.1359  0.4874 -1.1399
 5452SOL     OW27991   3.377   2.189  11.156  0.2598  0.3793 -0.2039
 5452SOL    HW127992   3.323   2.256  11.196  0.5562  1.1844 -1.1552
 5452SOL    HW227993   3.448   2.184  11.220 -1.0163  1.4346  1.2797
 5453SOL     OW27994   1.054   3.618   4.147 -0.0882  0.0517 -0.6438
 5453SOL    HW127995   1.104   3.626   4.066 -0.3391  2.5065 -0.5542
 5453SOL    HW227996   1.032   3.711   4.152  2.3146  0.7082 -2.3358
 5454SOL     OW27997   1.101   0.754   8.022 -0.4815  0.7985  0.1887
 5454SOL    HW127998   1.025   0.714   8.064  1.2811 -0.7071  1.9495
 5454SOL    HW227999   1.101   0.694   7.947 -0.2594  0.1959  0.6687
 5455SOL     OW28000   3.439   3.505   8.418  0.1755  0.3074  0.2737
 5455SOL    HW128001   3.528   3.527   8.388  0.0358 -0.1292 -0.4771
 5455SOL    HW228002   3.420   3.589   8.458 -1.5319  0.5751 -1.1207
 5456SOL     OW28003   4.343   2.967  16.433  0.5941 -0.1510  0.4109
 5456SOL    HW128004   4.401   2.956  16.357  0.6299 -0.5612  0.4971
 5456SOL    HW228005   4.284   2.892  16.426 -0.6705  0.8684  0.1341
 5457SOL     OW28006   2.672   4.342   7.532 -0.3934 -0.0714 -0.0710
 5457SOL    HW128007   2.720   4.285   7.471  1.8250 -0.8370  2.3683
 5457SOL    HW228008   2.726   4.332   7.610  1.2250  2.7363 -0.8446
 5458SOL     OW28009   4.320   2.772  14.218 -0.6142  0.1192  0.0075
 5458SOL    HW128010   4.308   2.733  14.131  2.0899 -1.0506  0.1454
 5458SOL    HW228011   4.321   2.866  14.201 -1.3047  0.4929  1.9682
 5459SOL     OW28012   3.096   3.093  16.000  0.3457  0.0392  0.0416
 5459SOL    HW128013   3.005   3.105  15.972  0.6842 -0.0286 -1.0897
 5459SOL    HW228014   3.107   3.001  15.979  0.4038  0.3992 -1.5202
 5460SOL     OW28015   4.727   0.313   4.969  0.2512  0.3697  0.4505
 5460SOL    HW128016   0.040   0.233   4.966 -0.4712 -0.1150  0.7354
 5460SOL    HW228017   4.665   0.288   5.038 -0.5667  0.8609 -0.1077
 5461SOL     OW28018   2.059   1.371   9.460 -0.0417 -0.3337 -0.0195
 5461SOL    HW128019   2.026   1.327   9.381 -1.1728  2.5629 -1.1621
 5461SOL    HW228020   1.996   1.439   9.481  0.7205  0.3373  0.1013
 5462SOL     OW28021   1.340   2.365   9.244  0.4038 -0.8469 -0.2285
 5462SOL    HW128022   1.368   2.366   9.336 -3.5156 -1.6553  0.9975
 5462SOL    HW228023   1.357   2.273   9.221 -1.5815 -0.3443 -3.5888
 5463SOL     OW28024   1.902   2.600   8.599 -0.5614  0.3523  0.1819
 5463SOL    HW128025   1.890   2.524   8.656  1.0928 -0.8315 -1.0249
 5463SOL    HW228026   1.943   2.556   8.524  0.9312 -0.3574  1.4234
 5464SOL     OW28027   3.694   4.138   3.843 -0.4878 -0.3100  0.1214
 5464SOL    HW128028   3.781   4.162   3.876 -0.2355 -1.4879  0.3400
 5464SOL    HW228029   3.663   4.073   3.907  0.6854 -0.0892  0.9142
 5465SOL     OW28030   4.482   0.879   4.777 -0.2088  0.1083  0.4891
 5465SOL    HW128031   4.566   0.852   4.812  0.1053 -0.0887 -0.4250
 5465SOL    HW228032   4.463   0.958   4.828 -1.5940  0.1362 -0.0699
 5466SOL     OW28033   1.724   4.179   1.460 -0.0680 -0.6320 -0.0720
 5466SOL    HW128034   1.637   4.216   1.444 -0.9754 -2.0461  1.5870
 5466SOL    HW228035   1.782   4.251   1.432  1.7877 -2.0501  0.1037
 5467SOL     OW28036   3.532   0.879   8.211 -0.2878  0.1071  0.3997
 5467SOL    HW128037   3.623   0.848   8.220  0.4891  1.5734 -2.5444
 5467SOL    HW228038   3.500   0.861   8.299 -0.6704 -2.4905 -0.2755
 5468SOL     OW28039   0.525   2.201   5.025 -0.0090  0.3984  0.1189
 5468SOL    HW128040   0.484   2.285   5.046 -3.3905 -1.8937  2.6719
 5468SOL    HW228041   0.613   2.210   5.062  0.7002 -0.2744 -1.4288
 5469SOL     OW28042   3.666   2.673   5.142 -0.3300  0.0170  0.1052
 5469SOL    HW128043   3.621   2.705   5.064  0.7201  0.4337 -0.3345
 5469SOL    HW228044   3.704   2.754   5.176 -2.9322  1.0427  0.5690
 5470SOL     OW28045   0.461   0.368   4.724  0.4843 -0.2869 -0.7369
 5470SOL    HW128046   0.456   0.297   4.787  0.7351  1.8573  1.7118
 5470SOL    HW228047   0.510   0.323   4.655  1.5773 -1.9739  1.1327
 5471SOL     OW28048   2.983   3.864  11.156  0.2560 -0.1420  0.1418
 5471SOL    HW128049   2.893   3.871  11.186 -0.1333 -1.0939 -0.7877
 5471SOL    HW228050   2.989   3.936  11.093  1.5284 -0.7528 -0.4475
 5472SOL     OW28051   1.425   2.226   7.639  0.0933 -1.0804  0.9920
 5472SOL    HW128052   1.469   2.277   7.707 -1.7281  2.6804 -0.6090
 5472SOL    HW228053   1.372   2.172   7.697  0.7682 -2.2463  0.5035
 5473SOL     OW28054   0.923   3.486   4.673  0.1434 -0.2284  0.5114
 5473SOL    HW128055   0.888   3.479   4.762 -1.6535 -1.4724 -0.3016
 5473SOL    HW228056   1.018   3.484   4.686  0.3548 -1.0883 -1.1845
 5474SOL     OW28057   3.767   1.296   1.078  0.1703  0.9138  0.0431
 5474SOL    HW128058   3.848   1.272   1.034  1.2901  1.1708  1.9832
 5474SOL    HW228059   3.771   1.389   1.059  0.1997  0.9986  0.4706
 5475SOL     OW28060   1.317   0.483   4.572 -0.5870 -0.1965  0.3827
 5475SOL    HW128061   1.404   0.453   4.598 -0.2524 -1.3011 -1.9769
 5475SOL    HW228062   1.331   0.574   4.598  2.4328 -0.5306 -0.0332
 5476SOL     OW28063   0.885   1.692   9.697 -0.3510 -0.1106  0.6981
 5476SOL    HW128064   0.876   1.682   9.792 -0.3355 -1.3765  0.5782
 5476SOL    HW228065   0.793   1.689   9.669  1.7891  0.0854 -6.3623
 5477SOL     OW28066   4.720   4.380   7.779  0.5995  0.2219 -0.2339
 5477SOL    HW128067   0.051   4.322   7.806  0.4929  0.3689  0.3673
 5477SOL    HW228068   4.690   4.404   7.867 -0.4470  1.8771 -1.0322
 5478SOL     OW28069   2.199   3.425  14.834  0.1987  0.2873  0.1019
 5478SOL    HW128070   2.257   3.358  14.798  1.3779  0.1639  2.1779
 5478SOL    HW228071   2.259   3.495  14.859 -0.6755  0.3059  2.1823
 5479SOL     OW28072   2.487   2.735   7.195  0.0406  0.3058 -0.5658
 5479SOL    HW128073   2.582   2.727   7.193  0.0929  1.3257 -2.3941
 5479SOL    HW228074   2.458   2.647   7.220  0.3225  0.6964  1.1393
 5480SOL     OW28075   3.434   4.080  11.219 -0.3678  0.4597 -0.4469
 5480SOL    HW128076   3.520   4.044  11.239 -0.6638  0.5114  0.9281
 5480SOL    HW228077   3.401   4.014  11.158  0.7385  0.5454 -1.1221
 5481SOL     OW28078   2.215   4.402   7.420 -0.2147 -0.5511  0.4787
 5481SOL    HW128079   2.185   4.439   7.502 -2.4144 -0.0083 -0.5854
 5481SOL    HW228080   2.152   4.428   7.353  0.1580  0.4082  0.5039
 5482SOL     OW28081   1.511   1.745   8.736 -0.0529  0.4588 -0.3438
 5482SOL    HW128082   1.487   1.661   8.774  1.4728  0.5452  0.8306
 5482SOL    HW228083   1.487   1.808   8.804 -0.6015 -0.0798 -0.0371
 5483SOL     OW28084   2.602   4.728   3.117 -0.3392  0.3035 -0.4689
 5483SOL    HW128085   2.664   0.012   3.047 -0.4127 -1.4088 -1.1005
 5483SOL    HW228086   2.639   4.645   3.147  1.6734  1.3049 -0.1347
 5484SOL     OW28087   4.349   2.199   4.134 -0.0982  0.2159  0.0121
 5484SOL    HW128088   4.354   2.295   4.142 -1.6083  0.2766  0.3123
 5484SOL    HW228089   4.369   2.184   4.041  1.6360 -1.7378  0.7154
 5485SOL     OW28090   2.200   1.220   4.790 -0.0938  0.6270 -0.2434
 5485SOL    HW128091   2.263   1.264   4.732  0.5600 -0.7831 -0.5838
 5485SOL    HW228092   2.136   1.285   4.818 -1.6125 -1.5886  1.3777
 5486SOL     OW28093   3.605   2.352   8.278 -0.4489 -0.2841 -0.2840
 5486SOL    HW128094   3.558   2.410   8.338  2.4863  0.2223  1.5014
 5486SOL    HW228095   3.693   2.388   8.283 -0.3215 -0.5895 -0.3399
 5487SOL     OW28096   3.830   3.873  12.066 -0.2815 -0.0646  0.1577
 5487SOL    HW128097   3.816   3.968  12.070  1.7019  0.2230  0.2300
 5487SOL    HW228098   3.747   3.838  12.032  0.1084 -0.3626 -0.4827
 5488SOL     OW28099   3.103   4.603  12.946 -0.1278 -0.4005 -0.7028
 5488SOL    HW128100   3.011   4.627  12.938  0.0823  0.8796  0.7033
 5488SOL    HW228101   3.138   4.686  12.980 -2.8443  1.1213 -1.6449
 5489SOL     OW28102   2.069   3.393   9.281 -0.2202 -0.3834  0.1243
 5489SOL    HW128103   2.109   3.315   9.319 -1.4537 -1.1665 -0.1779
 5489SOL    HW228104   1.986   3.356   9.250  0.6193 -2.1514  0.0250
 5490SOL     OW28105   1.573   3.083  11.633 -0.2355  0.5789  0.2510
 5490SOL    HW128106   1.547   3.057  11.545  0.1183  0.2986  0.2236
 5490SOL    HW228107   1.491   3.112  11.671 -2.0221 -1.0844 -2.3151
 5491SOL     OW28108   0.412   4.448  15.153 -0.7895 -0.0936 -0.5613
 5491SOL    HW128109   0.349   4.474  15.085 -3.6825 -1.3176  1.6433
 5491SOL    HW228110   0.355   4.437  15.229 -0.7799 -0.1383 -0.5607
 5492SOL     OW28111   4.208   2.971  11.025  0.3913  0.2039  0.0121
 5492SOL    HW128112   4.263   2.986  11.102  0.6703 -1.6332  0.1786
 5492SOL    HW228113   4.242   2.885  10.999  2.2709  0.6704  0.9311
 5493SOL     OW28114   1.044   2.901   5.068  0.3184  0.3573 -0.2654
 5493SOL    HW128115   1.137   2.887   5.083  0.6047  2.8755  0.2744
 5493SOL    HW228116   1.034   2.852   4.986  0.2818  1.7914 -1.1293
 5494SOL     OW28117   0.687   0.113   9.900  0.9138 -0.1667 -0.1299
 5494SOL    HW128118   0.620   0.144   9.962  0.3609 -3.5730  0.9758
 5494SOL    HW228119   0.626   0.094   9.829  0.8887  0.7505 -0.3578
 5495SOL     OW28120   4.210   2.236   5.251  0.0651  0.1376 -0.1702
 5495SOL    HW128121   4.203   2.329   5.226  0.9305  0.7486  1.8554
 5495SOL    HW228122   4.304   2.236   5.269 -0.0057 -0.3631  0.2014
 5496SOL     OW28123   2.528   0.666  10.635 -0.1110 -0.0543 -0.4142
 5496SOL    HW128124   2.543   0.743  10.690  0.9914 -0.5899  0.0382
 5496SOL    HW228125   2.619   0.644  10.614  0.5057  0.0547  2.1309
 5497SOL     OW28126   4.571   4.388  15.213  0.3315 -0.3842 -0.2877
 5497SOL    HW128127   4.535   4.339  15.139  1.2228 -0.6350 -0.5592
 5497SOL    HW228128   4.556   4.330  15.288 -0.2709 -0.6045 -0.5744
 5498SOL     OW28129   2.534   0.469  14.311 -0.2974  0.0242  0.1362
 5498SOL    HW128130   2.457   0.506  14.269 -1.8857 -1.6680  1.5532
 5498SOL    HW228131   2.490   0.399  14.360 -0.2551 -1.6733 -2.2906
 5499SOL     OW28132   0.548   3.313  15.069 -0.0879  0.2553 -0.6764
 5499SOL    HW128133   0.542   3.221  15.097 -0.2782 -0.3142 -2.5466
 5499SOL    HW228134   0.640   3.340  15.069  0.4635 -1.5572  3.3742
 5500SOL     OW28135   2.851   3.952   8.894 -0.1114 -0.5211 -1.0558
 5500SOL    HW128136   2.814   4.028   8.849  0.2333  0.3154  0.0613
 5500SOL    HW228137   2.859   3.889   8.822  1.8166 -1.9197  0.3544
 5501SOL     OW28138   0.479   0.268   1.566 -0.4477  0.2601  0.3702
 5501SOL    HW128139   0.431   0.189   1.592  1.2481 -0.4147  1.4409
 5501SOL    HW228140   0.546   0.273   1.634  0.4088  0.0205 -0.4659
 5502SOL     OW28141   3.910   4.097   6.944  0.4167 -0.1643  0.1940
 5502SOL    HW128142   3.955   4.169   6.987 -0.0403 -0.4783  1.1903
 5502SOL    HW228143   3.836   4.152   6.916  0.4303  0.1378  0.7514
 5503SOL     OW28144   3.286   2.395   7.956 -0.3807  0.1498  0.2465
 5503SOL    HW128145   3.366   2.444   7.973 -0.4662  0.3569  0.0423
 5503SOL    HW228146   3.304   2.350   7.874  0.0020 -2.0077  1.4907
 5504SOL     OW28147   0.719   0.980   6.621 -0.0671 -0.0664 -0.0071
 5504SOL    HW128148   0.812   0.969   6.639 -0.7347 -0.4098  3.1165
 5504SOL    HW228149   0.724   1.001   6.527 -1.0251 -1.3518 -0.3436
 5505SOL     OW28150   0.960   0.921   7.550  0.3643 -0.0863  0.2531
 5505SOL    HW128151   0.945   0.967   7.632  0.7867 -0.1721  0.3790
 5505SOL    HW228152   1.040   0.870   7.563  0.0619 -0.5110  0.4254
 5506SOL     OW28153   2.910   4.194   4.614 -0.2189  0.4825 -0.3668
 5506SOL    HW128154   2.825   4.160   4.640  0.0930 -1.6191 -2.1095
 5506SOL    HW228155   2.913   4.277   4.661  1.1931 -0.0777  0.5472
 5507SOL     OW28156   3.145   3.978   7.527  0.1031  0.1201  0.3428
 5507SOL    HW128157   3.131   4.064   7.566 -1.3958  0.0140  0.0602
 5507SOL    HW228158   3.189   4.000   7.445  1.9048 -3.1179  0.4369
 5508SOL     OW28159   1.991   1.482   2.364 -0.1073 -0.1929 -0.5046
 5508SOL    HW128160   1.989   1.575   2.341  0.4327 -0.3598 -1.2045
 5508SOL    HW228161   2.086   1.483   2.357 -0.1468 -3.2225 -1.5658
 5509SOL     OW28162   1.499   3.700   5.859  0.4494 -0.1115 -0.5272
 5509SOL    HW128163   1.578   3.656   5.828  1.7529  0.0494  2.5714
 5509SOL    HW228164   1.505   3.683   5.952 -0.9614  1.0639 -0.2170
 5510SOL     OW28165   4.179   3.355   7.416 -0.4195 -0.2300 -0.2125
 5510SOL    HW128166   4.240   3.381   7.347  2.6809 -0.4766  2.4464
 5510SOL    HW228167   4.238   3.354   7.491 -1.0776  0.9344  0.3310
 5511SOL     OW28168   3.608   3.457  15.523 -0.6902 -0.5324 -0.1187
 5511SOL    HW128169   3.560   3.529  15.564  0.5260 -0.5357  1.2801
 5511SOL    HW228170   3.540   3.389  15.514 -1.7058  0.5648 -0.7536
 5512SOL     OW28171   1.057   3.175   4.576  0.0982  0.2572 -0.3120
 5512SOL    HW128172   1.031   3.099   4.629 -0.3151 -0.3301 -1.3588
 5512SOL    HW228173   1.091   3.228   4.647  0.3644  0.1598 -0.3671
 5513SOL     OW28174   4.739   0.936   5.861  0.4506 -0.2979  1.1397
 5513SOL    HW128175   4.671   0.910   5.924  0.4699 -2.1832  0.3776
 5513SOL    HW228176   4.695   0.937   5.776  0.4665  3.6174  1.1573
 5514SOL     OW28177   0.525   3.137  12.470 -0.3232 -0.2778 -0.3913
 5514SOL    HW128178   0.595   3.094  12.421 -1.2202  0.6758 -2.5008
 5514SOL    HW228179   0.458   3.159  12.406  1.4667 -0.0213 -2.1765
 5515SOL     OW28180   0.109   2.462   5.651 -0.2202 -0.3880 -0.8943
 5515SOL    HW128181   0.133   2.426   5.566  2.0641  0.7955 -0.7615
 5515SOL    HW228182   0.016   2.441   5.654 -0.2094 -0.3204 -0.1466
 5516SOL     OW28183   0.309   3.822   6.573 -0.4506  0.4715 -0.3714
 5516SOL    HW128184   0.222   3.852   6.546  0.8202  1.5843 -3.2785
 5516SOL    HW228185   0.349   3.905   6.548  0.7222 -0.1911 -0.7054
 5517SOL     OW28186   3.108   3.409  16.395  0.4001 -0.2866  0.2603
 5517SOL    HW128187   3.089   3.316  16.380 -0.9641  0.1319 -0.5972
 5517SOL    HW228188   3.024   3.451  16.376  0.1985 -0.7742  0.0684
 5518SOL     OW28189   0.283   3.575   1.806 -0.3008  0.4532  0.5631
 5518SOL    HW128190   0.260   3.668   1.814  1.6906  0.9725  0.2870
 5518SOL    HW228191   0.204   3.549   1.760  0.0947 -0.9447  0.6704
 5519SOL     OW28192   2.889   0.488   0.575  0.4077  0.9738  0.1710
 5519SOL    HW128193   2.927   0.476   0.488  4.4084 -0.0983  2.0612
 5519SOL    HW228194   2.971   0.499   0.624  0.7695 -2.7062  0.4587
 5520SOL     OW28195   1.863   4.288  14.781  0.0043  0.4200  0.4512
 5520SOL    HW128196   1.933   4.250  14.833  0.6501  0.9879 -0.0068
 5520SOL    HW228197   1.864   4.226  14.708  1.2310 -0.8242  1.5371
 5521SOL     OW28198   0.272   4.173   2.241 -0.0989 -0.0472  0.1441
 5521SOL    HW128199   0.244   4.098   2.189 -0.1605 -0.1133  0.2736
 5521SOL    HW228200   0.329   4.120   2.296  1.0307 -1.5133 -2.4285
 5522SOL     OW28201   0.788   4.500   4.000 -0.0284 -0.1302 -0.1040
 5522SOL    HW128202   0.790   4.407   4.023  2.5700 -0.5537 -2.1223
 5522SOL    HW228203   0.880   4.524   4.008  0.2938 -1.0243 -1.2598
 5523SOL     OW28204   2.849   4.136  13.948 -0.1603  0.0285 -0.1633
 5523SOL    HW128205   2.863   4.043  13.961  0.6883 -0.1119 -2.1220
 5523SOL    HW228206   2.818   4.135  13.858 -4.1399  0.1938  1.2094
 5524SOL     OW28207   0.719   1.345   7.005  0.6481  0.1621  0.4023
 5524SOL    HW128208   0.680   1.258   7.018 -2.3877  1.5596  0.7706
 5524SOL    HW228209   0.759   1.357   7.090 -0.9023  3.7977  0.6212
 5525SOL     OW28210   0.895   4.722   3.739  0.0178  0.4434  0.1418
 5525SOL    HW128211   0.952   0.016   3.808 -0.7648  1.4934  0.2615
 5525SOL    HW228212   0.820   4.702   3.796  2.4195 -2.4231  2.3731
 5526SOL     OW28213   0.887   3.378  10.267  0.0063  0.2063  0.0145
 5526SOL    HW128214   0.863   3.286  10.260  0.7858 -0.1747  2.7542
 5526SOL    HW228215   0.982   3.380  10.278 -0.1942  1.3250  1.5103
 5527SOL     OW28216   2.073   3.289  13.910 -0.6125 -0.4789  0.2179
 5527SOL    HW128217   2.039   3.296  13.999  2.0137  2.1935  1.0024
 5527SOL    HW228218   1.995   3.257  13.864 -0.6294  0.4509 -0.3888
 5528SOL     OW28219   4.466   3.176   4.383 -0.5799 -0.0948 -0.0388
 5528SOL    HW128220   4.476   3.129   4.465 -2.5064 -2.0271 -0.9152
 5528SOL    HW228221   4.541   3.234   4.373 -0.7104  0.2144  0.7733
 5529SOL     OW28222   2.878   1.870   9.736  0.0454  0.0771 -1.2607
 5529SOL    HW128223   2.811   1.870   9.804  0.5689 -0.5243 -0.7457
 5529SOL    HW228224   2.885   1.776   9.723 -0.2466 -0.3633  1.8865
 5530SOL     OW28225   0.016   4.191  11.710 -0.5936  0.0022 -0.0228
 5530SOL    HW128226   4.722   4.106  11.683  0.8119 -0.7207  0.4976
 5530SOL    HW228227   0.108   4.180  11.687 -0.5717 -1.2983  0.7202
 5531SOL     OW28228   4.374   3.667   5.769  0.1498  0.4950  0.1703
 5531SOL    HW128229   4.280   3.687   5.768  0.0657  0.0441 -0.4654
 5531SOL    HW228230   4.367   3.577   5.738  1.8284 -0.0069  1.2361
 5532SOL     OW28231   4.565   1.577   0.927  0.3443 -0.5532 -0.7970
 5532SOL    HW128232   4.535   1.486   0.927  1.0699 -0.7846  1.8876
 5532SOL    HW228233   4.629   1.575   0.856 -0.3631  0.3318 -1.4554
 5533SOL     OW28234   0.902   1.640   8.412  0.1883 -0.1153  0.0432
 5533SOL    HW128235   0.822   1.666   8.366  0.6031 -0.3758 -0.8223
 5533SOL    HW228236   0.963   1.632   8.339  1.6894  1.7177  1.0968
 5534SOL     OW28237   0.981   0.870   4.126 -0.0327  0.7641  0.2548
 5534SOL    HW128238   1.046   0.924   4.171 -0.9632  0.3431  2.1127
 5534SOL    HW228239   1.036   0.808   4.077  1.4830  3.2233 -1.1034
 5535SOL     OW28240   3.868   0.905   9.616 -0.4802  0.0814  0.3474
 5535SOL    HW128241   3.888   0.992   9.651  1.0465  0.0584 -0.4776
 5535SOL    HW228242   3.952   0.864   9.632 -0.7168 -0.4816  0.1499
 5536SOL     OW28243   1.599   0.152   4.829 -0.0595  0.1617  0.4652
 5536SOL    HW128244   1.555   0.217   4.884  0.4215  1.2800 -0.4823
 5536SOL    HW228245   1.667   0.109   4.881 -0.8127 -1.6002 -0.0426
 5537SOL     OW28246   4.366   2.310  11.435 -0.6527  0.0491 -0.1611
 5537SOL    HW128247   4.422   2.337  11.362  0.5575 -1.5869  0.1658
 5537SOL    HW228248   4.377   2.388  11.489  1.3278 -0.5778  0.3107
 5538SOL     OW28249   2.609   1.718   2.407  0.0559 -0.2680  0.7065
 5538SOL    HW128250   2.669   1.664   2.357  0.8735 -0.3133  1.7465
 5538SOL    HW228251   2.528   1.699   2.359  0.1332  0.4231  0.2998
 5539SOL     OW28252   3.155   2.938   5.321  0.0452 -0.7575  0.2423
 5539SOL    HW128253   3.173   2.875   5.391 -0.2650 -1.6658 -0.4884
 5539SOL    HW228254   3.237   2.987   5.318  0.4657 -1.3416  2.0474
 5540SOL     OW28255   1.376   0.727   5.075 -0.0359  0.6182  0.6835
 5540SOL    HW128256   1.384   0.724   4.980  0.0801 -2.1276  0.7700
 5540SOL    HW228257   1.285   0.699   5.084 -0.1369  1.2600  1.6902
 5541SOL     OW28258   3.919   4.681   3.648 -0.7139  0.1901  0.1211
 5541SOL    HW128259   3.965   4.598   3.658 -0.6499  0.2982  0.7155
 5541SOL    HW228260   3.946   4.725   3.728 -1.5858  0.1831  0.4184
 5542SOL     OW28261   3.450   0.111   1.896  0.2684 -0.4445 -0.4225
 5542SOL    HW128262   3.482   0.027   1.863  0.3643 -0.5470 -0.0750
 5542SOL    HW228263   3.449   0.097   1.991  0.2467  1.2633 -0.1541
 5543SOL     OW28264   3.097   1.377  12.247 -0.5241 -0.1537  0.2580
 5543SOL    HW128265   3.175   1.416  12.209  1.7494 -1.0167  4.0313
 5543SOL    HW228266   3.080   1.297  12.197 -0.3052 -1.0177  1.5515
 5544SOL     OW28267   4.229   1.740  12.826  0.2885  0.0045  0.2506
 5544SOL    HW128268   4.236   1.801  12.900 -1.8898 -0.2006  0.6156
 5544SOL    HW228269   4.299   1.676  12.841  0.7600  0.6247  0.7170
 5545SOL     OW28270   4.584   2.288  10.861  0.0898 -0.2845 -0.2927
 5545SOL    HW128271   4.568   2.194  10.852 -1.2280 -0.2379  1.3777
 5545SOL    HW228272   4.494   2.313  10.840 -0.3988 -2.5786 -0.9150
 5546SOL     OW28273   3.912   2.529  12.240  0.1255 -0.6541  0.4192
 5546SOL    HW128274   3.950   2.462  12.183  0.8201  0.6590 -0.6744
 5546SOL    HW228275   3.873   2.583  12.171 -1.4604 -1.5545  0.6240
 5547SOL     OW28276   2.491   3.692   2.659 -0.4595 -0.1182  0.0021
 5547SOL    HW128277   2.421   3.641   2.618  1.6082 -3.1139  0.2637
 5547SOL    HW228278   2.482   3.648   2.743 -0.4618  0.5821  0.3736
 5548SOL     OW28279   0.173   4.656   6.469  0.1107  0.0256  0.2825
 5548SOL    HW128280   0.191   4.655   6.563 -1.2997  1.1015  0.5697
 5548SOL    HW228281   0.102   4.721   6.464  0.0935 -0.1358 -1.6088
 5549SOL     OW28282   1.742   1.929   9.703 -0.3945 -0.5976 -0.4689
 5549SOL    HW128283   1.723   1.845   9.662  0.4451 -1.0438  0.0569
 5549SOL    HW228284   1.785   1.902   9.784  1.2043  3.5364  0.0788
 5550SOL     OW28285   4.124   3.547   1.586  0.0851  0.2394  0.0563
 5550SOL    HW128286   4.064   3.521   1.516 -3.1960  0.0056  2.9695
 5550SOL    HW228287   4.165   3.461   1.596  2.1680  1.0162 -1.8055
 5551SOL     OW28288   2.806   2.170   5.834 -0.2159 -0.4523 -0.2513
 5551SOL    HW128289   2.717   2.148   5.861 -1.5153  2.0183 -2.4867
 5551SOL    HW228290   2.821   2.249   5.886 -1.4503  1.3555 -2.6058
 5552SOL     OW28291   2.120   4.560   6.103  0.1485 -0.0056 -0.3417
 5552SOL    HW128292   2.112   4.539   6.196  1.0266  2.3887  0.2974
 5552SOL    HW228293   2.055   4.628   6.083 -1.3479 -0.6112  2.4122
 5553SOL     OW28294   3.963   2.651   7.615 -0.2831 -0.2861  0.7554
 5553SOL    HW128295   4.030   2.657   7.547 -2.1557  0.9307 -0.9732
 5553SOL    HW228296   3.972   2.556   7.630 -2.4711 -0.6285 -0.1497
 5554SOL     OW28297   3.630   0.505  15.032  0.0099 -0.0904  0.4785
 5554SOL    HW128298   3.677   0.505  15.115  0.6288 -1.4146  0.1311
 5554SOL    HW228299   3.699   0.523  14.968 -1.9475 -2.2374 -2.2472
 5555SOL     OW28300   4.188   2.735  16.391 -0.6448 -0.3761 -0.2566
 5555SOL    HW128301   4.150   2.736  16.303  0.4379  1.0665 -0.7132
 5555SOL    HW228302   4.112   2.729  16.448 -0.0860  1.5247  0.6825
 5556SOL     OW28303   1.502   0.811   3.855  0.3051 -0.2531 -0.2881
 5556SOL    HW128304   1.582   0.823   3.804  1.5336  1.0590  1.9731
 5556SOL    HW228305   1.466   0.899   3.844  0.6626 -0.1542 -0.6702
 5557SOL     OW28306   0.700   2.630   6.997 -0.1726  0.4994  0.5510
 5557SOL    HW128307   0.619   2.641   7.047  0.1148  0.4093  1.0378
 5557SOL    HW228308   0.661   2.578   6.927 -0.0720 -0.6338  1.3323
 5558SOL     OW28309   1.083   3.592   7.237 -0.8231 -0.0977  0.0276
 5558SOL    HW128310   0.990   3.586   7.261 -0.6925 -0.5860  0.4165
 5558SOL    HW228311   1.103   3.513   7.186  1.3614  0.0782  0.6126
 5559SOL     OW28312   0.739   3.075   7.378  0.0217  0.1242  0.1185
 5559SOL    HW128313   0.801   3.125   7.325  0.6585 -0.5996  0.1826
 5559SOL    HW228314   0.750   3.104   7.469 -0.8170  2.3671 -0.4971
 5560SOL     OW28315   3.708   0.662  11.811  0.0286 -0.4374  1.0879
 5560SOL    HW128316   3.715   0.745  11.857 -2.4441 -1.5806  3.5902
 5560SOL    HW228317   3.789   0.671  11.762 -0.6328  0.6586  0.1904
 5561SOL     OW28318   0.249   1.497  13.850  0.3317 -0.0649 -0.6789
 5561SOL    HW128319   0.318   1.452  13.898  0.0950 -2.0061 -2.1710
 5561SOL    HW228320   0.228   1.435  13.781 -0.1659 -0.1269 -0.4733
 5562SOL     OW28321   3.083   3.667   6.312  0.2444  0.0621  0.1356
 5562SOL    HW128322   3.126   3.706   6.236 -0.5735  1.4938  0.3933
 5562SOL    HW228323   3.003   3.636   6.269 -0.4422  2.0740 -0.0738
 5563SOL     OW28324   2.811   2.534   9.705 -0.1476  0.5501 -0.3245
 5563SOL    HW128325   2.827   2.453   9.753 -1.3808 -0.1297 -1.0707
 5563SOL    HW228326   2.897   2.554   9.667 -1.3706 -0.3907 -3.5988
 5564SOL     OW28327   1.504   1.333   5.888  0.4457 -0.0276 -0.4872
 5564SOL    HW128328   1.557   1.277   5.943  0.0381  1.4997  1.4872
 5564SOL    HW228329   1.553   1.341   5.807 -2.7527 -1.5245 -2.5557
 5565SOL     OW28330   2.409   3.576  14.801  0.6532 -0.0038 -0.0243
 5565SOL    HW128331   2.408   3.666  14.770  0.9213 -0.6938 -2.0102
 5565SOL    HW228332   2.502   3.566  14.784  0.2224 -2.9729 -0.6094
 5566SOL     OW28333   1.468   0.096  11.135 -0.4427  0.2312  0.2102
 5566SOL    HW128334   1.530   0.053  11.193 -1.0149  0.6718  1.1559
 5566SOL    HW228335   1.392   0.042  11.157 -0.8641  0.5795 -0.3671
 5567SOL     OW28336   4.632   4.043   8.547 -0.2814 -0.0934 -0.3324
 5567SOL    HW128337   4.538   4.061   8.547 -0.0428  1.0712  4.6552
 5567SOL    HW228338   4.667   4.132   8.544  0.3413 -0.2783  1.4799
 5568SOL     OW28339   3.689   0.061   7.954 -0.1132  0.5304 -0.1069
 5568SOL    HW128340   3.623   0.108   8.006 -0.0512 -0.2321  0.6645
 5568SOL    HW228341   3.760   0.060   8.018 -1.2759  2.0463  1.2031
 5569SOL     OW28342   2.618   1.159   9.260 -0.3076  0.0999 -0.6089
 5569SOL    HW128343   2.558   1.087   9.244  0.3344  0.6096 -5.2759
 5569SOL    HW228344   2.565   1.231   9.225 -0.7144 -0.2673 -0.7379
 5570SOL     OW28345   1.613   3.446   0.766  0.3242 -0.3112  0.0861
 5570SOL    HW128346   1.625   3.354   0.739  1.9001 -0.5756  1.7013
 5570SOL    HW228347   1.560   3.481   0.695 -1.0112 -0.0859  1.1944
 5571SOL     OW28348   2.472   3.879   6.225  0.2552  0.3175 -0.2177
 5571SOL    HW128349   2.487   3.935   6.149 -0.4276 -1.8197 -1.9016
 5571SOL    HW228350   2.381   3.856   6.207  0.1203  0.5384  0.1811
 5572SOL     OW28351   3.175   1.482   1.851 -0.3851  0.0872  0.0750
 5572SOL    HW128352   3.091   1.442   1.874 -1.0531  2.2442  1.3568
 5572SOL    HW228353   3.234   1.406   1.850 -2.4959 -1.5075 -1.0821
 5573SOL     OW28354   1.565   1.107   6.108  0.0517 -0.4873 -0.0364
 5573SOL    HW128355   1.552   1.067   6.022 -0.3245 -1.1648  0.3349
 5573SOL    HW228356   1.486   1.095   6.161  0.5073 -2.0537  0.2906
 5574SOL     OW28357   4.601   4.665   7.053  0.0006  0.0015  0.0356
 5574SOL    HW128358   4.672   4.632   7.108  1.0748  1.5347 -0.4419
 5574SOL    HW228359   4.540   4.637   7.121 -1.7911  1.1326 -1.1194
 5575SOL     OW28360   0.889   1.315   9.317 -0.3040 -0.3560  0.1496
 5575SOL    HW128361   0.918   1.379   9.382 -0.5650  0.8534 -0.9286
 5575SOL    HW228362   0.939   1.338   9.238 -2.3620  0.5994 -0.8754
 5576SOL     OW28363   1.713   0.814   7.182  0.1222  0.6466  0.3425
 5576SOL    HW128364   1.745   0.773   7.101 -4.8718  0.3912 -1.4845
 5576SOL    HW228365   1.620   0.797   7.177  0.3889 -1.3957  2.3334
 5577SOL     OW28366   3.420   4.331   1.793  0.0208 -0.2174  0.3155
 5577SOL    HW128367   3.459   4.358   1.710 -0.2053  2.5868  1.1271
 5577SOL    HW228368   3.373   4.410   1.819  2.0638  0.8019  0.8675
 5578SOL     OW28369   3.170   4.206   3.035  0.4776 -0.3131 -0.1461
 5578SOL    HW128370   3.109   4.245   2.973  1.7748  0.9655 -0.6378
 5578SOL    HW228371   3.243   4.226   2.977  1.5714  0.4276  1.4717
 5579SOL     OW28372   3.037   4.235  15.508  0.1424 -0.2664 -0.7888
 5579SOL    HW128373   3.021   4.171  15.438 -0.4213 -2.5934  1.4581
 5579SOL    HW228374   3.127   4.259  15.490  0.6308 -0.4278  1.5120
 5580SOL     OW28375   2.134   1.392   6.288  0.1935  0.8197 -0.5165
 5580SOL    HW128376   2.184   1.316   6.258  0.8152 -0.4805  3.8132
 5580SOL    HW228377   2.177   1.462   6.240 -0.9058  2.4441  0.8635
 5581SOL     OW28378   4.622   3.749   2.950  0.0421 -0.2270 -0.3578
 5581SOL    HW128379   4.654   3.821   3.004 -0.3415 -2.0587  2.3275
 5581SOL    HW228380   4.586   3.689   3.016  1.0905 -1.8493 -1.2618
 5582SOL     OW28381   2.509   1.168   7.344 -0.5392 -0.6759  0.0520
 5582SOL    HW128382   2.601   1.144   7.358  0.0318  1.8272  0.5643
 5582SOL    HW228383   2.520   1.259   7.371 -1.0549 -0.6494  0.1774
 5583SOL     OW28384   4.155   1.953  16.701  0.5008  0.0747 -0.6894
 5583SOL    HW128385   4.229   1.892  16.693  2.5371  2.3857  0.3478
 5583SOL    HW228386   4.187   2.034  16.661  1.8318 -0.0596  0.0962
 5584SOL     OW28387   0.030   0.847   3.166  0.4764  0.0435 -0.1381
 5584SOL    HW128388   4.705   0.856   3.097 -1.5328  4.0098  2.2613
 5584SOL    HW228389   4.705   0.840   3.237 -0.9580 -0.4562 -1.5096
 5585SOL     OW28390   2.355   1.941   6.648  0.3285  0.1879 -0.3381
 5585SOL    HW128391   2.321   1.955   6.560 -0.5843 -1.5603 -0.2606
 5585SOL    HW228392   2.268   1.947   6.688 -0.0607 -0.5386 -1.0932
 5586SOL     OW28393   1.655   3.420   4.759  0.0247  0.1684  0.2241
 5586SOL    HW128394   1.696   3.471   4.689  0.8918  1.1907  1.4705
 5586SOL    HW228395   1.706   3.432   4.839  1.8405 -3.1638 -0.4172
 5587SOL     OW28396   1.660   1.265   6.527 -0.0990  0.3328  0.6053
 5587SOL    HW128397   1.722   1.301   6.464 -1.7455 -0.6746 -1.6002
 5587SOL    HW228398   1.716   1.272   6.604 -1.1086  0.0917  1.3596
 5588SOL     OW28399   0.520   1.375   0.417 -0.5345 -0.1384 -0.7534
 5588SOL    HW128400   0.434   1.390   0.455  0.4646 -0.4009  1.5952
 5588SOL    HW228401   0.531   1.460   0.374 -0.3077  1.1280  1.8133
 5589SOL     OW28402   3.669   3.083   8.552 -0.0567  0.0114 -0.1956
 5589SOL    HW128403   3.645   3.165   8.595 -0.2411 -1.3705  2.3211
 5589SOL    HW228404   3.641   3.024   8.622 -1.9096  1.9279  0.6815
 5590SOL     OW28405   2.206   3.031   8.730  0.0149 -0.7410 -0.1521
 5590SOL    HW128406   2.193   2.949   8.777  1.0019 -0.3297  0.8364
 5590SOL    HW228407   2.172   3.004   8.645 -0.6818  0.5305 -0.2784
 5591SOL     OW28408   1.287   1.528  14.030 -0.5434  0.1927 -0.0933
 5591SOL    HW128409   1.286   1.565  14.118 -3.7593 -1.2013  0.4348
 5591SOL    HW228410   1.333   1.602  13.990 -2.0797  0.3338 -1.5733
 5592SOL     OW28411   2.098   2.735   9.690  0.1855  0.0497 -0.2803
 5592SOL    HW128412   2.160   2.760   9.759  0.3202  0.7171 -0.6444
 5592SOL    HW228413   2.151   2.744   9.611 -1.8531  0.8154 -1.5579
 5593SOL     OW28414   2.748   0.245   0.572 -0.6260  0.4513 -0.2222
 5593SOL    HW128415   2.777   0.312   0.634  0.7134 -0.3469  0.0102
 5593SOL    HW228416   2.828   0.204   0.540 -0.2426  1.3458 -0.4165
 5594SOL     OW28417   4.392   2.480   7.608 -0.0318 -0.0685  0.2740
 5594SOL    HW128418   4.344   2.518   7.681 -1.6973 -0.9524 -0.3545
 5594SOL    HW228419   4.460   2.424   7.644  0.0250 -0.4082 -0.3557
 5595SOL     OW28420   1.844   4.027   3.749 -0.4175 -0.1172  0.3609
 5595SOL    HW128421   1.776   4.094   3.750  0.4499  0.7350  2.0814
 5595SOL    HW228422   1.856   4.024   3.654  0.0832  2.5058  0.3375
 5596SOL     OW28423   1.016   1.008   6.701  0.2283 -0.5832 -0.4761
 5596SOL    HW128424   1.061   0.928   6.673 -0.8361 -1.0862 -0.7748
 5596SOL    HW228425   1.096   1.060   6.700 -0.6071  0.7542  1.1955
 5597SOL     OW28426   2.075   0.509  11.611 -0.1967 -0.0715 -0.4108
 5597SOL    HW128427   2.062   0.600  11.584 -0.7527  0.0936  0.4098
 5597SOL    HW228428   2.074   0.469  11.524 -0.9430 -0.0324 -0.4150
 5598SOL     OW28429   1.634   1.720  12.476 -0.9864  0.0969  0.1785
 5598SOL    HW128430   1.611   1.808  12.444  0.3506  0.5209  0.4046
 5598SOL    HW228431   1.662   1.733  12.566  2.5649 -1.7077 -0.6828
 5599SOL     OW28432   0.070   3.091   4.597 -1.1058 -0.4580 -0.0124
 5599SOL    HW128433   0.138   3.159   4.594 -1.5555  0.0108  0.3913
 5599SOL    HW228434   0.093   3.026   4.530 -0.6008 -0.5002  0.1999
 5600SOL     OW28435   0.891   0.403  17.430 -0.3201  0.2508  0.0105
 5600SOL    HW128436   0.890   0.311  17.406 -0.8591  0.2623 -0.0043
 5600SOL    HW228437   0.824   0.403  17.498 -1.7407 -1.1321 -1.4122
 5601SOL     OW28438   0.136   0.262   7.346  0.2621 -0.5949 -0.1099
 5601SOL    HW128439   0.064   0.321   7.324  1.8037  1.1689 -0.5107
 5601SOL    HW228440   0.205   0.312   7.302  0.9783  0.8315  2.5953
 5602SOL     OW28441   2.179   2.484   1.200 -0.0454 -0.0077  0.1170
 5602SOL    HW128442   2.178   2.542   1.276  2.4158 -2.8928  2.3031
 5602SOL    HW228443   2.272   2.465   1.187  0.1691  1.2761 -0.2332
 5603SOL     OW28444   0.525   1.320   2.464  0.1366  0.0543  0.6474
 5603SOL    HW128445   0.610   1.363   2.469  0.2774 -0.1662  0.1597
 5603SOL    HW228446   0.463   1.386   2.433  0.5929 -0.3366 -1.0891
 5604SOL     OW28447   3.389   4.180   2.930  0.0087 -0.7369 -0.1232
 5604SOL    HW128448   3.476   4.144   2.913  0.3823  0.4798 -0.7269
 5604SOL    HW228449   3.404   4.235   3.007 -1.0577  1.1889 -1.3029
 5605SOL     OW28450   1.416   4.350  16.421 -0.2801  0.2732  1.0365
 5605SOL    HW128451   1.438   4.258  16.438 -3.5297 -0.2577  2.3730
 5605SOL    HW228452   1.498   4.378  16.381 -1.1563 -0.4385 -1.2598
 5606SOL     OW28453   1.619   3.744   5.140 -0.1538  0.1203  0.0259
 5606SOL    HW128454   1.550   3.717   5.079  1.1953  0.5640 -1.7075
 5606SOL    HW228455   1.687   3.736   5.072 -0.1914 -3.0617  0.3640
 5607SOL     OW28456   2.246   3.081   1.870 -0.6286  0.5497  0.4139
 5607SOL    HW128457   2.300   3.127   1.806  0.3476 -0.3472  0.5773
 5607SOL    HW228458   2.257   2.991   1.837 -1.4697  0.8650 -0.7534
 5608SOL     OW28459   4.712   2.072   1.501  0.5562 -0.5004  0.6745
 5608SOL    HW128460   4.694   2.005   1.435  0.1652 -0.9058  1.1871
 5608SOL    HW228461   4.624   2.098   1.528  1.1261  0.8868  1.1569
 5609SOL     OW28462   2.715   4.076  17.024 -0.1370  0.2503 -0.0895
 5609SOL    HW128463   2.771   3.999  17.033  0.3543  0.4373 -1.4812
 5609SOL    HW228464   2.764   4.138  16.970 -0.1199  0.3574  0.0500
 5610SOL     OW28465   2.212   1.560   2.679 -0.0475 -0.0123 -0.2438
 5610SOL    HW128466   2.287   1.578   2.735 -0.6316 -0.0174  0.5482
 5610SOL    HW228467   2.230   1.477   2.636 -0.6007 -0.2705  0.0248
 5611SOL     OW28468   0.813   1.567   1.593 -0.2670 -0.1927 -0.5405
 5611SOL    HW128469   0.730   1.544   1.636  0.0512 -0.1340  0.0998
 5611SOL    HW228470   0.823   1.502   1.524 -0.2626 -0.6032 -0.1517
 5612SOL     OW28471   0.461   3.148  16.930 -0.0686  0.3466  0.1763
 5612SOL    HW128472   0.370   3.160  16.957 -0.5278 -0.5867 -0.9534
 5612SOL    HW228473   0.458   3.174  16.838  6.1743  0.5449  0.0108
 5613SOL     OW28474   4.450   2.498   5.591 -0.0132 -0.2034 -0.4263
 5613SOL    HW128475   4.506   2.535   5.659  1.1939  1.0549 -2.1005
 5613SOL    HW228476   4.387   2.454   5.648 -0.8783  0.6935 -0.6791
 5614SOL     OW28477   4.153   2.743   7.449  0.0109  0.2219  0.0587
 5614SOL    HW128478   4.223   2.785   7.500  0.8985  1.1451 -1.9325
 5614SOL    HW228479   4.093   2.813   7.426  0.7672  2.0046  3.5572
 5615SOL     OW28480   0.020   2.807  16.032  0.9840  0.0196 -0.4846
 5615SOL    HW128481   0.073   2.771  16.104  0.0350 -2.7403 -1.1766
 5615SOL    HW228482   0.065   2.889  16.013  1.2647 -0.0919 -0.3045
 5616SOL     OW28483   4.181   1.746   3.281  0.1818  0.4338  0.0630
 5616SOL    HW128484   4.136   1.731   3.364 -0.6886 -4.6279 -1.3121
 5616SOL    HW228485   4.111   1.767   3.219  0.1653 -1.5905 -0.6175
 5617SOL     OW28486   3.581   2.516  15.126 -0.4606 -0.3673  0.0874
 5617SOL    HW128487   3.560   2.595  15.075 -0.0486 -0.3354 -0.0256
 5617SOL    HW228488   3.569   2.445  15.064  0.8533 -0.1371 -0.4232
 5618SOL     OW28489   4.018   2.329   4.042 -0.1602  0.3866 -0.0942
 5618SOL    HW128490   4.067   2.355   4.120  0.2589  0.6965 -0.4644
 5618SOL    HW228491   4.084   2.307   3.977 -1.6532  0.4181 -1.6309
 5619SOL     OW28492   1.920   0.666   1.960  0.8877  0.0762  0.0216
 5619SOL    HW128493   1.944   0.752   1.995  0.2683 -0.1385  0.9476
 5619SOL    HW228494   1.959   0.622   2.035 -0.5525 -0.1124  0.6534
 5620SOL     OW28495   4.492   3.919  12.037  0.0613  0.1173  0.4296
 5620SOL    HW128496   4.399   3.916  12.014  0.0644 -2.5040  0.7906
 5620SOL    HW228497   4.498   3.872  12.121 -2.1163 -0.6795  0.1511
 5621SOL     OW28498   3.557   0.365   0.945 -0.1326  0.1106 -0.1115
 5621SOL    HW128499   3.499   0.435   0.916  0.4067  1.3133  1.6629
 5621SOL    HW228500   3.602   0.335   0.866  0.6132 -1.1745  0.8008
 5622SOL     OW28501   4.373   3.969   3.123  0.1402  0.1696 -0.2198
 5622SOL    HW128502   4.329   3.936   3.045  2.3937  2.0409 -2.2574
 5622SOL    HW228503   4.328   4.054   3.125 -0.4470 -0.1077 -1.7435
 5623SOL     OW28504   1.617   3.070   4.684  0.0771  0.7157 -0.9045
 5623SOL    HW128505   1.679   3.117   4.740  2.5599 -1.7793 -1.5475
 5623SOL    HW228506   1.549   3.138   4.681  0.1063  0.7710 -0.1676
 5624SOL     OW28507   0.165   3.215  14.704 -0.1220  0.0326 -0.3300
 5624SOL    HW128508   0.249   3.212  14.750 -1.3463 -4.3283  1.5750
 5624SOL    HW228509   0.126   3.291  14.748  2.4550  1.2902 -0.2064
 5625SOL     OW28510   1.237   1.383  15.003  0.2778  0.6208 -0.2045
 5625SOL    HW128511   1.331   1.368  15.016  0.2872 -0.4712 -1.5457
 5625SOL    HW228512   1.197   1.352  15.085 -0.7652 -0.2752 -1.0648
 5626SOL     OW28513   3.398   4.665   8.551 -0.1372 -0.2410  0.7487
 5626SOL    HW128514   3.455   0.002   8.541  1.1909 -1.2089  0.8840
 5626SOL    HW228515   3.452   4.593   8.519 -1.8480 -0.6441 -1.2050
 5627SOL     OW28516   0.438   4.285   5.633 -0.2311 -0.6523 -0.7667
 5627SOL    HW128517   0.429   4.224   5.706 -0.3848 -0.2590 -0.4569
 5627SOL    HW228518   0.391   4.243   5.561 -1.2699  0.5005 -0.7577
 5628SOL     OW28519   2.805   2.660   3.809 -0.2461 -0.7555  0.7015
 5628SOL    HW128520   2.755   2.591   3.766  0.7646 -0.2058 -1.3642
 5628SOL    HW228521   2.757   2.733   3.770  1.5321  0.1284  0.1386
 5629SOL     OW28522   2.470   2.623  10.802  0.0567  0.2723 -0.1900
 5629SOL    HW128523   2.461   2.701  10.747  0.1031  1.5180  1.5979
 5629SOL    HW228524   2.564   2.601  10.802 -0.0884 -0.3815 -1.1935
 5630SOL     OW28525   3.453   3.589   4.349  0.0702  0.3707  0.2405
 5630SOL    HW128526   3.444   3.627   4.262  1.0730  0.6709  0.2657
 5630SOL    HW228527   3.531   3.630   4.387 -0.3477  1.2167  0.1721
 5631SOL     OW28528   1.085   2.551  11.755 -0.0654  0.5054 -0.2244
 5631SOL    HW128529   1.027   2.627  11.745  1.6673  2.0001  0.8226
 5631SOL    HW228530   1.141   2.566  11.679  2.0655 -1.8231  0.8925
 5632SOL     OW28531   3.262   0.960  16.702 -0.1453 -0.7389 -0.0235
 5632SOL    HW128532   3.338   1.019  16.703 -0.5344 -0.1994 -2.2884
 5632SOL    HW228533   3.269   0.916  16.617 -0.4135  0.1433 -0.4969
 5633SOL     OW28534   0.317   4.229   5.975  0.0387  0.3434  0.4518
 5633SOL    HW128535   0.331   4.151   5.922  0.1052  1.1344 -0.6865
 5633SOL    HW228536   0.385   4.228   6.042  1.6814  0.1347 -1.2332
 5634SOL     OW28537   4.400   1.904   8.909  0.5268 -0.0626  0.5318
 5634SOL    HW128538   4.488   1.883   8.940  0.7925 -0.3535 -0.4054
 5634SOL    HW228539   4.366   1.818   8.882  1.1686 -0.2611  0.3577
 5635SOL     OW28540   0.674   4.432   4.481  0.5318 -0.2572  0.3730
 5635SOL    HW128541   0.717   4.383   4.411 -0.6282 -0.0952 -0.4573
 5635SOL    HW228542   0.594   4.379   4.481  0.3183  0.0898 -3.4092
 5636SOL     OW28543   0.214   1.574   9.022  0.0364  0.1024  0.0360
 5636SOL    HW128544   0.297   1.543   8.987  0.0739  0.4064 -0.1439
 5636SOL    HW228545   0.219   1.665   8.992 -3.4810  0.2099 -0.3291
 5637SOL     OW28546   0.990   0.079   7.456 -0.4913 -0.1550  0.6645
 5637SOL    HW128547   0.938   0.010   7.498 -0.4182 -0.7679 -0.2332
 5637SOL    HW228548   0.951   0.094   7.370  0.5028  0.1352  0.2541
 5638SOL     OW28549   3.037   0.536   7.718 -0.3783  0.2714  0.1705
 5638SOL    HW128550   3.028   0.579   7.633 -0.2499 -1.7413 -0.8483
 5638SOL    HW228551   3.020   0.604   7.783 -1.4039 -1.0616  1.2906
 5639SOL     OW28552   2.691   3.644  15.771  0.7305  0.2713  0.2599
 5639SOL    HW128553   2.672   3.719  15.714  4.2906  1.1896  0.2850
 5639SOL    HW228554   2.753   3.597  15.715 -1.8094  1.1428 -3.3181
 5640SOL     OW28555   3.657   4.088   2.391 -0.0707 -0.7760  0.2582
 5640SOL    HW128556   3.572   4.130   2.383  0.0043 -0.5344  0.7412
 5640SOL    HW228557   3.677   4.108   2.482  2.1973  0.2649 -0.4622
 5641SOL     OW28558   0.314   2.799  16.772  0.3128  0.1729 -0.3074
 5641SOL    HW128559   0.257   2.729  16.803  1.6818  0.9799  4.1663
 5641SOL    HW228560   0.403   2.773  16.797 -1.2231 -3.5828  1.2187
 5642SOL     OW28561   4.694   3.255   6.508 -0.0868  0.4844 -0.7296
 5642SOL    HW128562   4.646   3.277   6.587 -0.2374 -3.6059  0.3025
 5642SOL    HW228563   4.632   3.194   6.467  1.4114 -2.8174  1.8550
 5643SOL     OW28564   3.785   3.757   7.454 -0.5261 -0.1327 -0.1030
 5643SOL    HW128565   3.818   3.746   7.365  1.1321 -0.3300  0.5434
 5643SOL    HW228566   3.691   3.737   7.449 -0.6988  0.1245  2.3716
 5644SOL     OW28567   2.184   1.089   7.746 -0.0208  0.1986 -0.6700
 5644SOL    HW128568   2.207   1.142   7.670  0.2875  2.1160  0.7490
 5644SOL    HW228569   2.271   1.052   7.756 -0.2266  0.1081  0.7773
 5645SOL     OW28570   2.754   4.237   8.100 -0.0942 -0.1227  0.3291
 5645SOL    HW128571   2.713   4.152   8.116  0.3520 -0.0024  2.0997
 5645SOL    HW228572   2.753   4.256   8.194 -0.4388  0.9156  0.1137
 5646SOL     OW28573   1.033   4.572   4.854 -0.1438 -0.0493 -0.2179
 5646SOL    HW128574   0.968   4.541   4.918  0.0869 -1.6836 -0.7719
 5646SOL    HW228575   0.996   4.528   4.777 -3.2628  1.9920  0.1118
 5647SOL     OW28576   2.227   1.170   8.368 -0.0371  0.3343 -0.1223
 5647SOL    HW128577   2.162   1.133   8.308  0.5708  0.2990 -0.7616
 5647SOL    HW228578   2.195   1.260   8.373  1.1610  0.8294 -1.3316
 5648SOL     OW28579   1.733   2.566  16.250 -0.1642  0.0447  0.1071
 5648SOL    HW128580   1.689   2.489  16.286 -1.8177  2.2682  2.8503
 5648SOL    HW228581   1.659   2.609  16.207  0.5060  1.4894  0.4085
 5649SOL     OW28582   4.557   2.328  13.739 -0.0632  0.0276 -0.0190
 5649SOL    HW128583   4.475   2.377  13.735 -1.6309 -2.7405 -1.0354
 5649SOL    HW228584   4.537   2.235  13.731 -1.7584  0.0928  3.3073
 5650SOL     OW28585   2.740   1.930  16.181  0.4428 -0.0972 -0.1633
 5650SOL    HW128586   2.746   1.997  16.248 -1.1041 -2.0207  1.9044
 5650SOL    HW228587   2.646   1.911  16.185  0.5323 -0.5833 -0.3585
 5651SOL     OW28588   0.695   2.754  14.117 -0.2529  0.2857  0.4548
 5651SOL    HW128589   0.779   2.720  14.147  0.4452  1.0114 -0.6889
 5651SOL    HW228590   0.704   2.843  14.152  0.7718  0.2085  0.3812
 5652SOL     OW28591   1.503   1.454   7.711  0.7309 -0.4684  0.1345
 5652SOL    HW128592   1.569   1.471   7.643 -0.6287  0.8851 -0.8478
 5652SOL    HW228593   1.540   1.515   7.774  0.9968 -1.3615  0.8470
 5653SOL     OW28594   2.764   1.964  11.227 -0.5213  0.3102  0.0095
 5653SOL    HW128595   2.737   2.009  11.147  0.5322  1.8157  0.4913
 5653SOL    HW228596   2.751   1.871  11.209 -0.6206  0.2631  0.3184
 5654SOL     OW28597   2.788   4.550  13.157  0.2866 -0.3332 -0.1640
 5654SOL    HW128598   2.702   4.538  13.117  0.3363  2.5574 -1.1539
 5654SOL    HW228599   2.833   4.611  13.099 -0.5192  0.1036 -0.3293
 5655SOL     OW28600   3.914   1.754   6.522  0.7162  0.4171  0.3304
 5655SOL    HW128601   3.934   1.784   6.610  1.9601 -0.0063  0.1929
 5655SOL    HW228602   3.967   1.810   6.465  0.0189 -0.0057 -0.7362
 5656SOL     OW28603   3.175   4.312   9.063  0.5679 -0.1768 -0.4423
 5656SOL    HW128604   3.249   4.273   9.111  0.1086  0.3356  0.6920
 5656SOL    HW228605   3.133   4.233   9.028  0.8485 -0.9041  0.8587
 5657SOL     OW28606   3.176   1.858  12.471 -0.0058 -0.1203  0.0794
 5657SOL    HW128607   3.193   1.913  12.395  0.1114 -0.6405 -0.2757
 5657SOL    HW228608   3.217   1.908  12.542  0.6017 -0.6643  0.1188
 5658SOL     OW28609   3.413   3.875   3.228  0.0505  0.1998 -0.2062
 5658SOL    HW128610   3.332   3.903   3.270 -1.4199 -3.1509 -0.8046
 5658SOL    HW228611   3.399   3.912   3.140  1.9903 -0.2711 -0.7174
 5659SOL     OW28612   3.492   3.531   2.265 -0.6834 -0.3146 -0.4203
 5659SOL    HW128613   3.499   3.505   2.357 -0.1547  0.8616 -0.1252
 5659SOL    HW228614   3.560   3.597   2.257  0.2857 -1.0039  2.0931
 5660SOL     OW28615   3.397   2.945  15.812 -0.0556 -0.5819 -0.3975
 5660SOL    HW128616   3.395   2.998  15.732 -1.6233 -0.0102  0.0236
 5660SOL    HW228617   3.395   3.017  15.875  0.8932 -0.4570 -0.5123
 5661SOL     OW28618   3.846   1.198   4.414 -0.0548 -0.6510 -0.5511
 5661SOL    HW128619   3.873   1.220   4.503 -1.3833 -0.9912 -0.0635
 5661SOL    HW228620   3.824   1.107   4.435 -2.3545 -0.3818 -1.7987
 5662SOL     OW28621   2.384   4.613   7.892  0.4443 -0.0899  0.0386
 5662SOL    HW128622   2.405   4.526   7.859 -0.0219 -0.4197  0.6093
 5662SOL    HW228623   2.472   4.649   7.904  0.1692  0.7750 -0.5780
 5663SOL     OW28624   4.124   1.521   4.272  0.0365 -0.6261 -0.2083
 5663SOL    HW128625   4.061   1.473   4.217  0.0500 -0.0295 -0.7384
 5663SOL    HW228626   4.078   1.605   4.274  1.8815  0.3648 -0.3399
 5664SOL     OW28627   1.040   1.699   3.569  0.0099 -0.0282 -0.0579
 5664SOL    HW128628   1.134   1.712   3.554  0.3726 -1.2833  1.0927
 5664SOL    HW228629   0.996   1.713   3.486  1.5007  0.8442 -0.7094
 5665SOL     OW28630   0.036   2.819   2.084 -0.2280 -0.2748 -0.3806
 5665SOL    HW128631   0.125   2.843   2.057  0.8459 -3.5004  0.2731
 5665SOL    HW228632   4.715   2.878   2.041 -2.9299 -1.5136  1.7450
 5666SOL     OW28633   2.213   2.485   2.198  0.4157  0.0422  0.7907
 5666SOL    HW128634   2.220   2.533   2.116  0.5868  0.0132  0.7881
 5666SOL    HW228635   2.219   2.560   2.257 -0.4835 -1.5033  2.8774
 5667SOL     OW28636   4.263   4.357   5.371  0.2400 -0.3437 -0.0854
 5667SOL    HW128637   4.310   4.274   5.369 -0.0653 -0.5309  0.5796
 5667SOL    HW228638   4.187   4.330   5.422 -0.3850  0.5901 -0.5116
 5668SOL     OW28639   3.057   0.771   4.374 -0.3848  0.2442 -0.2870
 5668SOL    HW128640   2.971   0.809   4.391 -1.0938 -2.7717  2.9701
 5668SOL    HW228641   3.110   0.848   4.356 -0.8750  0.3668 -1.2432
 5669SOL     OW28642   2.788   2.550   3.450  0.1327  0.3451  0.2289
 5669SOL    HW128643   2.787   2.630   3.502 -1.0618  0.1389  0.5227
 5669SOL    HW228644   2.812   2.578   3.362  0.3082 -1.3190 -0.2499
 5670SOL     OW28645   2.283   0.368   1.451  0.2007  0.0273 -0.5664
 5670SOL    HW128646   2.268   0.449   1.400 -0.7116 -0.6424 -1.3767
 5670SOL    HW228647   2.378   0.361   1.456  0.2554  0.4346 -0.9790
 5671SOL     OW28648   3.950   1.330   4.209  0.1832 -0.4689  0.0641
 5671SOL    HW128649   3.930   1.270   4.281 -1.3604  0.6946  0.5965
 5671SOL    HW228650   3.865   1.373   4.211  0.3755 -0.1167  0.9844
 5672SOL     OW28651   3.541   3.607   3.555  0.0723 -0.4782 -0.3380
 5672SOL    HW128652   3.457   3.601   3.508  1.1154  1.4978 -2.4315
 5672SOL    HW228653   3.611   3.562   3.509 -0.0893  1.0646 -2.0946
 5673SOL     OW28654   3.758   4.553   7.300  0.2035  0.4007 -0.0496
 5673SOL    HW128655   3.663   4.548   7.290  0.2731 -1.1450  0.0806
 5673SOL    HW228656   3.781   4.533   7.209  1.0138 -1.6507  0.6229
 5674SOL     OW28657   1.597   4.391   6.137  0.0802  0.9920  0.4473
 5674SOL    HW128658   1.607   4.319   6.199  2.6465  1.8765  1.0589
 5674SOL    HW228659   1.550   4.459   6.186 -2.4060  0.3262 -1.0154
 5675SOL     OW28660   3.784   1.007   1.912  0.3611  0.0913 -0.0362
 5675SOL    HW128661   3.691   1.031   1.911 -0.0150 -1.3415 -0.7973
 5675SOL    HW228662   3.770   0.915   1.934  0.5250  0.4957  1.7340
 5676SOL     OW28663   3.535   2.669   6.741  0.0939 -0.4208  0.3032
 5676SOL    HW128664   3.614   2.632   6.779  0.3000  0.4656  0.7191
 5676SOL    HW228665   3.568   2.758   6.733  1.0809 -0.7792  0.3865
 5677SOL     OW28666   1.556   0.291   4.597 -0.1697  0.0888  0.5620
 5677SOL    HW128667   1.574   0.231   4.670  0.4154  0.8848  1.0719
 5677SOL    HW228668   1.606   0.369   4.621 -0.2555  0.4380 -0.3870
 5678SOL     OW28669   1.396   3.478   8.179  0.2668  0.1929  0.1790
 5678SOL    HW128670   1.414   3.557   8.128  1.2649 -0.0246  0.1908
 5678SOL    HW228671   1.334   3.432   8.122  0.4768 -0.4504  0.4658
 5679SOL     OW28672   1.221   2.310  14.112 -0.1785 -0.2730  0.0011
 5679SOL    HW128673   1.314   2.313  14.131 -0.2273  1.1563 -0.0030
 5679SOL    HW228674   1.230   2.287  14.020  0.7909 -2.1185  0.5483
 5680SOL     OW28675   4.003   1.760   4.225 -0.0486 -0.3662  0.0722
 5680SOL    HW128676   3.935   1.819   4.194  0.3966  0.0345 -0.1326
 5680SOL    HW228677   4.078   1.820   4.224  0.9208 -1.5976 -1.6010
 5681SOL     OW28678   0.953   0.653   2.253 -0.1979 -0.3163  0.4113
 5681SOL    HW128679   0.898   0.731   2.247  2.0811  1.3600  1.2834
 5681SOL    HW228680   1.036   0.683   2.291 -1.2819  2.4937  0.5412
 5682SOL     OW28681   2.130   2.620   1.449  0.5220  0.5000 -0.3725
 5682SOL    HW128682   2.113   2.709   1.480  1.0708  0.5128 -0.1119
 5682SOL    HW228683   2.040   2.587   1.454  1.6267 -2.3718  0.7408
 5683SOL     OW28684   4.232   1.278   7.115  0.0499  0.9719 -0.2485
 5683SOL    HW128685   4.182   1.292   7.196 -2.2437 -0.6025 -1.3981
 5683SOL    HW228686   4.277   1.197   7.139 -0.4899  1.3634  2.1542
 5684SOL     OW28687   3.951   4.284   6.583 -0.1239  0.2921 -0.2096
 5684SOL    HW128688   4.035   4.240   6.600  0.8167  1.3573 -2.0138
 5684SOL    HW228689   3.898   4.216   6.622  1.3749 -1.3469 -1.0064
 5685SOL     OW28690   0.954   4.113   0.392 -0.2628  0.0803 -0.2919
 5685SOL    HW128691   1.018   4.181   0.373  1.4006 -1.3275  0.3132
 5685SOL    HW228692   0.957   4.099   0.487 -0.8394 -2.1672 -0.6011
 5686SOL     OW28693   1.951   2.854   3.667  0.6997 -0.8125  0.7813
 5686SOL    HW128694   1.912   2.923   3.721 -2.0032 -2.0976  0.4875
 5686SOL    HW228695   2.012   2.904   3.613 -1.1231  0.7445  0.1604
 5687SOL     OW28696   0.644   2.438   4.462  0.0450 -0.2388 -0.2648
 5687SOL    HW128697   0.671   2.522   4.501 -0.3478  0.2954 -1.1298
 5687SOL    HW228698   0.603   2.387   4.532  2.3832 -0.1506  1.1761
 5688SOL     OW28699   3.415   2.946   4.073 -0.5778  0.3607 -0.0360
 5688SOL    HW128700   3.478   3.000   4.026 -1.3743  1.0965 -0.2569
 5688SOL    HW228701   3.352   2.937   4.002  1.4749  2.1530 -2.0844
 5689SOL     OW28702   1.909   3.158   0.798 -0.1384  0.1263 -0.1120
 5689SOL    HW128703   1.936   3.068   0.811  0.5505  0.4706  0.8296
 5689SOL    HW228704   1.816   3.146   0.821 -0.3413  0.3103 -0.8525
 5690SOL     OW28705   3.461   3.345   7.990  0.4587  0.0387  0.1306
 5690SOL    HW128706   3.444   3.423   7.938 -0.0098  0.6316  1.1664
 5690SOL    HW228707   3.557   3.342   7.993  0.4245 -1.4215 -0.1642
 5691SOL     OW28708   0.521   1.184   8.436 -0.0334  0.3187 -0.3816
 5691SOL    HW128709   0.605   1.219   8.406 -0.1019  0.5589 -0.2949
 5691SOL    HW228710   0.540   1.093   8.457  0.8530  0.8368  1.0787
 5692SOL     OW28711   3.421   4.393  11.111 -0.2338 -0.3390  0.3194
 5692SOL    HW128712   3.385   4.463  11.055  0.5236  0.5297  0.9270
 5692SOL    HW228713   3.377   4.320  11.067 -0.1562 -0.4531  0.4326
 5693SOL     OW28714   4.009   1.759   5.517 -0.5690 -0.1464  0.0896
 5693SOL    HW128715   4.027   1.665   5.525 -1.0892 -0.1889  0.7105
 5693SOL    HW228716   3.914   1.751   5.517 -0.3093 -3.2545  0.5489
 5694SOL     OW28717   3.913   0.903   2.950  0.2029  0.0230 -0.2812
 5694SOL    HW128718   4.007   0.914   2.934  0.2310 -1.2365 -1.0256
 5694SOL    HW228719   3.888   0.952   2.872 -0.8924  0.3824  0.2970
 5695SOL     OW28720   0.261   2.233   9.393 -0.6186 -0.0613 -0.5335
 5695SOL    HW128721   0.317   2.156   9.397 -0.7911 -0.0326  2.3474
 5695SOL    HW228722   0.193   2.206   9.455  1.5913 -1.1234  1.4437
 5696SOL     OW28723   3.842   4.316   4.641 -0.2173 -0.2355 -0.7547
 5696SOL    HW128724   3.766   4.277   4.685  0.8854  0.8474  2.0745
 5696SOL    HW228725   3.918   4.277   4.683 -1.5070 -1.9138  0.0223
 5697SOL     OW28726   3.084   2.209   5.492  0.2182  0.1493  0.4220
 5697SOL    HW128727   3.173   2.245   5.488  0.2728 -0.1582 -1.2195
 5697SOL    HW228728   3.034   2.270   5.547 -0.5789  0.7189 -0.9242
 5698SOL     OW28729   2.831   2.417  14.347  0.2672 -0.7360  0.4044
 5698SOL    HW128730   2.832   2.405  14.442 -1.0207 -0.5325  0.4502
 5698SOL    HW228731   2.810   2.511  14.347  1.2632 -0.5235  1.3297
 5699SOL     OW28732   3.834   0.614   1.539  0.0145  0.2601 -0.0194
 5699SOL    HW128733   3.859   0.603   1.447  0.1764 -2.5198  0.3701
 5699SOL    HW228734   3.857   0.705   1.557  0.4707  0.3881 -1.2689
 5700SOL     OW28735   0.397   3.386  10.224 -0.0697  0.5185  0.2093
 5700SOL    HW128736   0.399   3.462  10.282 -1.2286  0.1396  0.7340
 5700SOL    HW228737   0.309   3.353  10.238 -0.8295  2.6627  0.5696
 5701SOL     OW28738   1.719   2.185  11.016 -0.1556 -0.0094 -0.1659
 5701SOL    HW128739   1.749   2.276  11.027 -1.1093  0.6228 -2.7639
 5701SOL    HW228740   1.628   2.201  11.042 -0.2304  1.4114 -1.3016
 5702SOL     OW28741   0.859   3.751   1.771 -0.8244 -0.1029 -0.4652
 5702SOL    HW128742   0.945   3.728   1.806 -0.1762  2.0942 -0.6107
 5702SOL    HW228743   0.805   3.782   1.843 -1.6408 -0.7258 -0.8084
 5703SOL     OW28744   1.169   0.696   8.394  0.7494  0.1557 -0.0857
 5703SOL    HW128745   1.108   0.623   8.382  0.1194  0.6490  0.1175
 5703SOL    HW228746   1.175   0.706   8.489  0.3717 -1.7154  0.1259
 5704SOL     OW28747   2.735   3.916   9.140 -0.7484 -0.0732 -0.1329
 5704SOL    HW128748   2.759   3.880   9.054 -2.0697 -0.5798 -0.2852
 5704SOL    HW228749   2.711   4.004   9.109 -1.0356  0.0486  0.4467
 5705SOL     OW28750   4.241   4.131   1.444  0.7788  0.5286  0.3396
 5705SOL    HW128751   4.225   4.058   1.384  0.7390  2.1084 -1.5504
 5705SOL    HW228752   4.320   4.092   1.482  1.8374  2.5499  0.1901
 5706SOL     OW28753   3.238   0.302   5.485  0.6847 -0.0217 -0.0071
 5706SOL    HW128754   3.312   0.282   5.428  0.2441 -0.0072 -0.5789
 5706SOL    HW228755   3.283   0.299   5.570 -0.9668 -0.4121  0.8727
 5707SOL     OW28756   1.551   3.329  12.143 -0.0589 -0.0436  0.0556
 5707SOL    HW128757   1.472   3.276  12.149 -0.4647  0.5763  0.1777
 5707SOL    HW228758   1.561   3.332  12.048 -1.6074 -1.3369 -0.1391
 5708SOL     OW28759   4.194   4.613   2.363  0.3350 -0.0538  0.3552
 5708SOL    HW128760   4.243   4.665   2.299 -0.1521  0.6922  0.5883
 5708SOL    HW228761   4.132   4.563   2.311  3.4175 -0.7735 -2.6009
 5709SOL     OW28762   0.740   1.577   4.532 -0.7174  0.1564  0.3497
 5709SOL    HW128763   0.799   1.572   4.456 -0.7410  2.1957  0.1906
 5709SOL    HW228764   0.794   1.598   4.608 -2.7621  0.8062  1.6210
 5710SOL     OW28765   1.894   2.571   8.074 -0.1723  0.1408 -0.6655
 5710SOL    HW128766   1.877   2.478   8.085 -1.5583  0.2717 -1.7096
 5710SOL    HW228767   1.815   2.600   8.120  0.8704 -1.1163  1.9035
 5711SOL     OW28768   4.648   2.112   4.862  0.0150 -0.5283 -0.2772
 5711SOL    HW128769   4.595   2.062   4.800  0.2195 -2.5019  1.1355
 5711SOL    HW228770   4.585   2.178   4.890  1.4503 -0.1471  2.0288
 5712SOL     OW28771   2.810   0.474   5.751 -0.1080  0.0352  0.1741
 5712SOL    HW128772   2.717   0.482   5.729  0.2248  0.9998 -0.9207
 5712SOL    HW228773   2.823   0.384   5.724  3.2358  0.9564 -1.2413
 5713SOL     OW28774   0.796   0.225   6.500  0.1776  0.1299 -0.2897
 5713SOL    HW128775   0.859   0.154   6.500  0.1749  0.1307  0.1626
 5713SOL    HW228776   0.739   0.199   6.573  1.4626 -0.8765  0.3438
 5714SOL     OW28777   2.533   4.013   7.957  0.3096 -0.2539 -0.5587
 5714SOL    HW128778   2.438   4.005   7.971  0.0387 -0.7679 -2.7591
 5714SOL    HW228779   2.568   4.028   8.045 -1.4380  3.7578 -0.5431
 5715SOL     OW28780   3.804   3.191   8.795 -0.1486  0.1716 -0.1738
 5715SOL    HW128781   3.724   3.240   8.774  0.0743  0.0784 -1.2309
 5715SOL    HW228782   3.817   3.208   8.888  0.1278 -0.0459 -0.1751
 5716SOL     OW28783   4.534   2.316   8.218 -0.3510  0.1571  0.9835
 5716SOL    HW128784   4.614   2.333   8.269 -1.0691  2.8519  1.2039
 5716SOL    HW228785   4.521   2.403   8.180  2.0007  0.8702  1.7748
 5717SOL     OW28786   1.082   2.458  10.933  0.1324 -0.2030 -0.0169
 5717SOL    HW128787   1.169   2.495  10.918  0.9092 -2.0788 -0.0589
 5717SOL    HW228788   1.090   2.373  10.890  1.0346 -0.2108  0.1698
 5718SOL     OW28789   3.811   0.686  12.685 -0.1546  0.0376  0.1222
 5718SOL    HW128790   3.745   0.632  12.728 -0.3599  1.0008  1.0104
 5718SOL    HW228791   3.813   0.648  12.597 -0.0537  0.7047 -0.1655
 5719SOL     OW28792   2.924   4.159   6.727  0.2113 -0.3866 -0.2439
 5719SOL    HW128793   2.990   4.091   6.732 -1.0606 -1.5622  0.5660
 5719SOL    HW228794   2.890   4.162   6.637  1.8964  2.2257 -0.7937
 5720SOL     OW28795   1.299   2.534   7.300  0.1295  0.0235  0.8266
 5720SOL    HW128796   1.382   2.565   7.266 -0.1157  0.0308  0.2351
 5720SOL    HW228797   1.295   2.456   7.244 -0.3995 -0.4732  1.5602
 5721SOL     OW28798   0.824   1.689  16.595  0.5366 -0.1418  0.5303
 5721SOL    HW128799   0.786   1.699  16.508 -0.3151  0.6232  0.9951
 5721SOL    HW228800   0.808   1.596  16.613 -1.3174  0.1388  0.3341
 5722SOL     OW28801   0.011   0.153   3.241  0.4423  0.3877  0.3047
 5722SOL    HW128802   4.707   0.083   3.288  0.3685  1.6215  2.0733
 5722SOL    HW228803   4.727   0.131   3.151  2.5415  0.4851 -0.2949
 5723SOL     OW28804   1.044   0.697  10.902  0.3871 -0.5587 -0.4817
 5723SOL    HW128805   1.098   0.771  10.929 -0.6731 -1.2079  3.3693
 5723SOL    HW228806   1.014   0.726  10.816  1.3086  0.0815 -0.5823
 5724SOL     OW28807   2.356   2.143   3.129 -0.1283  0.5895  0.1184
 5724SOL    HW128808   2.334   2.104   3.214  1.9490 -0.7380  0.0378
 5724SOL    HW228809   2.277   2.193   3.109  0.9307  2.4537  0.6651
 5725SOL     OW28810   1.763   2.503   3.928 -0.5300 -0.0575  0.2221
 5725SOL    HW128811   1.744   2.578   3.985 -1.8030  0.6246 -1.1235
 5725SOL    HW228812   1.731   2.535   3.844  0.3163  1.1578  0.3705
 5726SOL     OW28813   2.593   4.455   1.616  0.0294 -0.3624 -0.0657
 5726SOL    HW128814   2.514   4.491   1.576 -0.6748 -0.5771  1.1232
 5726SOL    HW228815   2.567   4.369   1.650 -0.4081 -0.1736  0.0840
 5727SOL     OW28816   1.957   0.760   5.248  0.0025 -0.2269  0.2463
 5727SOL    HW128817   1.943   0.849   5.278 -2.1460 -0.8981  1.2822
 5727SOL    HW228818   1.904   0.708   5.308 -3.5079  3.5130  0.3701
 5728SOL     OW28819   4.693   4.653   9.181 -0.1234 -0.5252 -0.1137
 5728SOL    HW128820   4.647   4.730   9.214 -0.5291 -0.4095 -0.9360
 5728SOL    HW228821   4.715   4.681   9.092 -1.0492 -0.8719 -0.4515
 5729SOL     OW28822   3.918   3.806   9.060  0.1143  0.0820  0.3130
 5729SOL    HW128823   3.877   3.733   9.013  1.3096 -0.9421  0.8969
 5729SOL    HW228824   3.843   3.852   9.098 -2.0830 -1.3372 -2.3212
 5730SOL     OW28825   0.673   4.728   7.028  0.2626  0.1070  0.7168
 5730SOL    HW128826   0.598   0.040   7.057  0.2271  1.2306 -1.4396
 5730SOL    HW228827   0.633   4.672   6.962  3.1823  0.2084 -1.1433
 5731SOL     OW28828   4.206   4.188   6.594 -0.4001 -0.3209 -0.3449
 5731SOL    HW128829   4.276   4.216   6.653 -1.6116 -1.7684  1.7882
 5731SOL    HW228830   4.260   4.161   6.520 -0.2569 -0.2127 -0.2817
 5732SOL     OW28831   1.291   2.079   7.812 -0.1497  0.1540 -0.0910
 5732SOL    HW128832   1.216   2.080   7.753  0.6673  0.7942 -1.1280
 5732SOL    HW228833   1.244   2.053   7.891 -1.3151 -1.5610 -1.3601
 5733SOL     OW28834   1.825   0.929   8.826  0.5242  0.2010 -0.1192
 5733SOL    HW128835   1.881   0.976   8.764  0.6230 -0.1037 -0.2575
 5733SOL    HW228836   1.851   0.839   8.809  1.4807  0.3818  0.3633
 5734SOL     OW28837   4.719   1.202   4.867 -0.3961 -0.2803 -0.1179
 5734SOL    HW128838   0.063   1.247   4.879 -1.7299  1.8684  1.2869
 5734SOL    HW228839   4.706   1.223   4.775 -0.6668 -1.3890 -0.3255
 5735SOL     OW28840   1.218   3.666   3.908  0.4783 -0.1110  0.2136
 5735SOL    HW128841   1.148   3.670   3.843 -0.1563  1.4445  0.9721
 5735SOL    HW228842   1.260   3.752   3.898  2.4424 -1.1295 -0.3605
 5736SOL     OW28843   2.546   1.777   1.425 -0.1283 -0.1916  0.3962
 5736SOL    HW128844   2.494   1.701   1.398 -0.8995  0.6435 -0.4912
 5736SOL    HW228845   2.609   1.776   1.354  0.6838 -0.2219  1.1223
 5737SOL     OW28846   3.856   1.864  15.532  0.3190 -0.2164 -0.8232
 5737SOL    HW128847   3.800   1.893  15.460  0.5655 -2.8360 -2.1023
 5737SOL    HW228848   3.941   1.898  15.505 -0.1321 -1.1795 -3.4688
 5738SOL     OW28849   0.745   0.592  13.921 -0.1714 -0.5831  0.1916
 5738SOL    HW128850   0.767   0.680  13.950  0.7237 -0.5317 -0.6246
 5738SOL    HW228851   0.670   0.607  13.864  0.4250  1.9733  0.1024
 5739SOL     OW28852   4.385   0.464   4.462  0.4445  0.3882  0.5023
 5739SOL    HW128853   4.443   0.414   4.518  0.0469  0.9782  1.4492
 5739SOL    HW228854   4.370   0.541   4.517 -0.9164  1.7643 -1.7967
 5740SOL     OW28855   4.219   1.467  13.005  0.7703 -0.2172  0.5491
 5740SOL    HW128856   4.252   1.392  13.055 -0.7398 -2.0154 -1.1835
 5740SOL    HW228857   4.297   1.494  12.956 -0.4905 -0.9995 -1.8525
 5741SOL     OW28858   4.350   1.655  13.321 -0.0303  0.4575  0.0376
 5741SOL    HW128859   4.352   1.614  13.407 -0.6604 -0.2150 -0.2775
 5741SOL    HW228860   4.259   1.646  13.295 -0.1768  1.2970  0.2372
 5742SOL     OW28861   0.786   3.965   4.802  0.4324 -0.0045 -0.3778
 5742SOL    HW128862   0.877   3.936   4.810 -0.0689 -1.4284  0.1588
 5742SOL    HW228863   0.771   3.999   4.890  0.5893 -0.6282 -0.1119
 5743SOL     OW28864   2.682   2.447  11.119 -0.2043 -0.2003 -0.3476
 5743SOL    HW128865   2.678   2.463  11.025 -3.1137 -1.1115 -0.3631
 5743SOL    HW228866   2.608   2.501  11.147  0.3110 -0.6238  1.8543
 5744SOL     OW28867   0.320   2.807   3.568  0.1829 -0.0678  0.8301
 5744SOL    HW128868   0.375   2.779   3.495 -1.4226 -0.0645 -0.3924
 5744SOL    HW228869   0.377   2.773   3.637  2.8018 -1.4876 -2.0396
 5745SOL     OW28870   1.574   2.335  13.505 -0.5629  0.3412 -0.5472
 5745SOL    HW128871   1.578   2.398  13.577  0.9663 -1.7807  1.2171
 5745SOL    HW228872   1.491   2.356  13.462 -1.0581  2.6558  1.4983
 5746SOL     OW28873   3.943   3.380   1.997  0.7249 -0.1383  0.0283
 5746SOL    HW128874   3.910   3.467   1.972 -2.1661 -1.7396 -1.7741
 5746SOL    HW228875   3.912   3.395   2.087 -0.9704 -0.4851 -0.4933
 5747SOL     OW28876   1.282   1.894   5.043  0.1543 -0.1280 -0.3439
 5747SOL    HW128877   1.342   1.821   5.060  0.5350  0.2026 -0.2690
 5747SOL    HW228878   1.304   1.947   5.119 -1.1194 -1.8751  1.2329
 5748SOL     OW28879   1.857   0.063   9.089  0.4739 -0.3536 -0.2676
 5748SOL    HW128880   1.805   4.724   9.072  0.1916 -0.3422  0.5307
 5748SOL    HW228881   1.863   0.101   9.001  0.0459 -0.5497 -0.3827
 5749SOL     OW28882   0.735   0.156   7.790 -0.2658  0.2910 -0.4801
 5749SOL    HW128883   0.760   0.235   7.741  0.9526  0.0747 -0.1946
 5749SOL    HW228884   0.645   0.186   7.802 -0.7882 -0.7023 -1.8544
 5750SOL     OW28885   2.788   1.553   7.868 -0.6389 -0.0591 -0.0851
 5750SOL    HW128886   2.864   1.515   7.823 -1.7002 -1.1061 -0.9817
 5750SOL    HW228887   2.836   1.573   7.948  1.6951 -4.4867 -0.3742
 5751SOL     OW28888   3.721   3.045  14.755  0.4618 -0.4127 -0.4112
 5751SOL    HW128889   3.657   2.973  14.753 -0.3038  0.2354  0.5710
 5751SOL    HW228890   3.693   3.092  14.834 -0.3900 -2.6654  0.6301
 5752SOL     OW28891   4.182   1.233   4.006 -0.1756  0.3270  0.3054
 5752SOL    HW128892   4.129   1.287   3.948  0.1833 -1.0586 -1.3211
 5752SOL    HW228893   4.115   1.217   4.072  0.4572  1.0443  1.1193
 5753SOL     OW28894   0.657   1.791  15.895 -0.1477  0.2593  0.1976
 5753SOL    HW128895   0.677   1.883  15.915 -0.4440  0.4092 -0.2000
 5753SOL    HW228896   0.652   1.793  15.800  2.8342 -1.2765  0.0062
 5754SOL     OW28897   3.407   0.575   2.759  0.0237 -0.1443 -0.1520
 5754SOL    HW128898   3.473   0.545   2.822 -0.1033  2.4729  1.2297
 5754SOL    HW228899   3.454   0.569   2.676  1.4205  1.0430  0.5580
 5755SOL     OW28900   3.229   2.525   8.206  0.0985 -0.0131  0.2714
 5755SOL    HW128901   3.229   2.472   8.126  1.1328 -0.3100  0.4711
 5755SOL    HW228902   3.321   2.526   8.231  0.0027 -0.9846  0.6637
 5756SOL     OW28903   0.275   2.759   6.432 -0.1501  0.6013  0.2484
 5756SOL    HW128904   0.355   2.794   6.392  0.6455  0.5756  1.8555
 5756SOL    HW228905   0.279   2.786   6.523 -0.1841 -1.2707  0.7988
 5757SOL     OW28906   1.943   3.557   4.145  0.0225 -0.2399 -0.0417
 5757SOL    HW128907   1.999   3.592   4.076  1.8374 -1.5938  0.7137
 5757SOL    HW228908   1.865   3.612   4.150  0.2732  0.1589 -0.6458
 5758SOL     OW28909   2.168   4.437   3.277 -0.1821 -0.1212 -0.7433
 5758SOL    HW128910   2.109   4.382   3.225 -1.3229  1.1451 -0.7723
 5758SOL    HW228911   2.120   4.519   3.278 -1.6603 -1.0329  2.8463
 5759SOL     OW28912   2.523   1.646   2.986 -0.2343  0.1490 -0.6440
 5759SOL    HW128913   2.489   1.732   3.010 -1.7021 -1.1107  1.7822
 5759SOL    HW228914   2.475   1.594   3.051  1.6521  0.7009  1.2144
 5760SOL     OW28915   2.864   0.869   1.431 -1.0228  0.2696 -0.4794
 5760SOL    HW128916   2.783   0.873   1.480 -0.5084  0.9655  0.3097
 5760SOL    HW228917   2.846   0.799   1.368 -0.3334 -0.5332  0.2111
 5761SOL     OW28918   2.188   1.829   5.381  0.5644 -0.1591 -0.1851
 5761SOL    HW128919   2.281   1.843   5.363  1.1466 -1.8000  1.5817
 5761SOL    HW228920   2.150   1.835   5.293  2.6204 -1.7363 -1.1802
 5762SOL     OW28921   3.845   2.171  12.302 -0.0473 -0.1314 -0.2651
 5762SOL    HW128922   3.913   2.224  12.260  1.1676  0.7186  2.8380
 5762SOL    HW228923   3.788   2.148  12.229  0.6448  0.4943 -1.0098
 5763SOL     OW28924   4.164   3.313   4.012 -0.2492  0.1608 -0.5844
 5763SOL    HW128925   4.114   3.358   3.944  0.0619 -1.9847 -2.2093
 5763SOL    HW228926   4.241   3.272   3.973 -2.1036 -1.9537 -2.0247
 5764SOL     OW28927   1.358   0.364   7.901 -0.0359  0.6302  0.1921
 5764SOL    HW128928   1.406   0.418   7.964 -0.3940 -1.8400  2.6005
 5764SOL    HW228929   1.388   0.275   7.919  0.9744  0.1669 -3.7126
 5765SOL     OW28930   2.840   0.042   6.630 -0.5159 -0.0894 -0.3864
 5765SOL    HW128931   2.921   0.085   6.605 -1.3745  1.1090 -1.1264
 5765SOL    HW228932   2.809   0.016   6.544 -1.2632 -2.0321  0.4686
 5766SOL     OW28933   1.007   1.315   9.072  0.2708 -0.0579  0.2497
 5766SOL    HW128934   1.096   1.301   9.039  0.6681 -0.6524  1.5794
 5766SOL    HW228935   0.961   1.343   8.993  0.7978  1.7631  0.5973
 5767SOL     OW28936   4.424   4.410   6.428  0.2864 -0.6136 -0.3887
 5767SOL    HW128937   4.462   4.332   6.470  1.3244  1.2079  2.0661
 5767SOL    HW228938   4.427   4.467   6.505  2.6571  0.0114 -0.9322
 5768SOL     OW28939   4.360   3.807  13.168 -0.1044  0.2025  0.6027
 5768SOL    HW128940   4.360   3.883  13.226  0.4879  2.2271 -2.0674
 5768SOL    HW228941   4.280   3.757  13.185 -0.0318  0.5768  2.0102
 5769SOL     OW28942   2.016   4.648  13.080 -0.0378  0.3458  0.0281
 5769SOL    HW128943   1.977   4.598  13.009  1.2431 -0.7904  0.1434
 5769SOL    HW228944   2.058   4.575  13.124 -0.6982  0.3952  0.7385
 5770SOL     OW28945   2.417   1.336   4.607 -0.6940 -0.3093 -0.6494
 5770SOL    HW128946   2.443   1.273   4.540  0.9799 -0.1167 -0.1805
 5770SOL    HW228947   2.497   1.382   4.634 -1.7140  0.8020  0.4988
 5771SOL     OW28948   0.247   1.199   5.630 -0.4005 -0.3058 -0.5671
 5771SOL    HW128949   0.342   1.197   5.631 -0.4128 -0.4198  0.2330
 5771SOL    HW228950   0.237   1.285   5.589 -2.7496 -1.1090 -1.6691
 5772SOL     OW28951   2.063   4.321   4.236 -0.1644 -0.0999  0.7335
 5772SOL    HW128952   2.008   4.358   4.305 -1.7687  1.9805 -1.6596
 5772SOL    HW228953   1.996   4.285   4.177 -0.2827 -1.2284  1.5670
 5773SOL     OW28954   1.470   0.074   8.189 -0.1935  0.1138 -1.1026
 5773SOL    HW128955   1.499   0.087   8.099 -2.0457  0.6521 -1.6029
 5773SOL    HW228956   1.401   0.012   8.169  0.0788  0.0626 -1.8655
 5774SOL     OW28957   2.700   4.261   0.551 -0.3572  0.4743  0.2904
 5774SOL    HW128958   2.668   4.284   0.463 -0.4995 -1.5220 -0.1831
 5774SOL    HW228959   2.791   4.288   0.545  0.0432 -0.5550  1.9268
 5775SOL     OW28960   4.705   4.566  10.505 -0.4870 -0.7500  0.3208
 5775SOL    HW128961   0.057   4.571  10.530 -0.3112 -0.1109 -0.4610
 5775SOL    HW228962   4.709   4.539  10.414  0.1546 -0.3029  0.2136
 5776SOL     OW28963   2.647   3.141   0.861 -0.1051 -0.0487 -0.0936
 5776SOL    HW128964   2.608   3.217   0.818 -0.5676  0.0814  0.5554
 5776SOL    HW228965   2.715   3.191   0.906 -1.1219  1.5745 -0.3605
 5777SOL     OW28966   1.283   0.550   5.729  0.1166 -0.0980  0.4016
 5777SOL    HW128967   1.298   0.455   5.724  0.7559  0.0288 -0.0893
 5777SOL    HW228968   1.192   0.545   5.760 -0.3082  0.6575 -0.7209
 5778SOL     OW28969   0.332   3.345  13.529 -0.0093 -0.7773 -0.0033
 5778SOL    HW128970   0.417   3.307  13.506  0.1913  0.4654 -1.3179
 5778SOL    HW228971   0.296   3.274  13.582 -0.8784  0.2495  0.7779
 5779SOL     OW28972   2.699   3.807  10.058 -0.2463  0.8242 -0.0831
 5779SOL    HW128973   2.781   3.773  10.093 -0.8132 -0.4504  0.0120
 5779SOL    HW228974   2.731   3.885  10.012  2.0831 -0.2304 -0.2300
 5780SOL     OW28975   0.827   2.103   2.123 -0.0828  0.1868 -0.0739
 5780SOL    HW128976   0.786   2.026   2.161 -2.1285  1.8999  1.2102
 5780SOL    HW228977   0.760   2.140   2.065 -2.7706 -1.3992  2.0249
 5781SOL     OW28978   1.545   0.003   1.639  0.4982 -0.1745  0.1640
 5781SOL    HW128979   1.584   0.079   1.682 -1.2630  0.5477  0.4788
 5781SOL    HW228980   1.534   4.690   1.717  0.5536 -1.9207 -1.0109
 5782SOL     OW28981   2.377   4.397   7.725 -0.2496 -0.2744  0.3570
 5782SOL    HW128982   2.420   4.315   7.700  2.2667  0.3161  2.7831
 5782SOL    HW228983   2.283   4.381   7.721  0.0641 -1.6216 -1.6586
 5783SOL     OW28984   1.563   2.385   1.102 -0.4916 -0.1236 -0.0503
 5783SOL    HW128985   1.525   2.350   1.182 -2.3504 -0.3983 -1.0634
 5783SOL    HW228986   1.614   2.310   1.071  0.8038  1.4797 -1.7961
 5784SOL     OW28987   0.214   4.045   7.060 -0.3898  0.3580 -0.4918
 5784SOL    HW128988   0.186   3.969   7.009 -1.0372  0.1586  0.1692
 5784SOL    HW228989   0.273   4.092   7.001  0.2381 -1.0501 -0.9814
 5785SOL     OW28990   1.026   1.106   9.579 -0.3606 -0.0067 -0.0363
 5785SOL    HW128991   1.061   1.028   9.622  1.2033  1.4373  1.3112
 5785SOL    HW228992   0.932   1.095   9.566 -0.3066  0.9145 -1.1257
 5786SOL     OW28993   4.617   2.140   3.176  0.5692  0.2114  0.0717
 5786SOL    HW128994   4.687   2.104   3.121 -0.7941  1.0575 -2.2216
 5786SOL    HW228995   4.600   2.211   3.114 -2.4678  0.3140  1.0469
 5787SOL     OW28996   3.897   2.894   2.100 -0.0274  0.3101 -0.5299
 5787SOL    HW128997   3.833   2.899   2.171  0.4524  1.9464 -0.2237
 5787SOL    HW228998   3.914   2.800   2.096 -1.4611  0.1227 -2.2780
 5788SOL     OW28999   2.879   2.078   4.366 -0.4406  0.2008 -0.0096
 5788SOL    HW129000   2.816   2.143   4.337 -1.4771 -0.9510 -0.3462
 5788SOL    HW229001   2.958   2.100   4.316 -1.3247  0.5504 -1.2573
 5789SOL     OW29002   2.936   2.321  17.014 -0.1175  0.2527 -0.2054
 5789SOL    HW129003   2.983   2.249  16.971 -0.1084 -1.0352  1.9703
 5789SOL    HW229004   2.990   2.315  17.093 -1.0705 -1.1984  0.3220
 5790SOL     OW29005   2.166   3.985   6.692  0.0402 -0.7286  0.0639
 5790SOL    HW129006   2.220   4.054   6.653  0.2079 -0.1210  1.3676
 5790SOL    HW229007   2.212   3.911   6.652  2.0779 -0.0387  1.1017
 5791SOL     OW29008   1.444   3.919   7.972  0.4197 -0.5290 -0.3006
 5791SOL    HW129009   1.465   3.831   8.004  0.7060 -0.8191 -1.2876
 5791SOL    HW229010   1.511   3.971   8.016  1.5711  1.0051 -3.9266
 5792SOL     OW29011   1.201   3.177   3.005 -0.6843 -0.1663 -0.0834
 5792SOL    HW129012   1.114   3.208   2.979 -0.9480 -1.2510 -0.4966
 5792SOL    HW229013   1.243   3.183   2.919  3.3644  0.2643  1.9367
 5793SOL     OW29014   2.368   2.240  10.039 -0.0602  0.4221  0.0626
 5793SOL    HW129015   2.427   2.226   9.965  0.4166  0.9146  0.3464
 5793SOL    HW229016   2.429   2.238  10.112 -0.8947 -0.1804  0.7405
 5794SOL     OW29017   3.895   1.132   8.940 -0.4449  0.0245  0.0129
 5794SOL    HW129018   3.927   1.108   9.027  0.7740  0.6609 -0.2670
 5794SOL    HW229019   3.806   1.166   8.948 -0.9907 -1.9344  2.4542
 5795SOL     OW29020   2.132   1.776   9.250 -0.0385 -1.0315  0.1210
 5795SOL    HW129021   2.158   1.834   9.178  0.3306 -0.7871  0.4514
 5795SOL    HW229022   2.119   1.843   9.317 -2.5461  0.2413 -1.6449
 5796SOL     OW29023   3.985   1.686  10.272  1.0726  0.1754  0.5563
 5796SOL    HW129024   3.896   1.707  10.244  1.3345  0.5309 -0.0130
 5796SOL    HW229025   4.032   1.672  10.190  0.1832  0.0950  0.0601
 5797SOL     OW29026   1.663   1.672   1.962 -0.0096  0.1469  0.2923
 5797SOL    HW129027   1.643   1.691   2.054 -0.3423  0.0450  0.2397
 5797SOL    HW229028   1.739   1.615   1.973 -0.6987 -0.5302  1.6004
 5798SOL     OW29029   1.999   2.169  13.328  0.2991  0.4587  0.3133
 5798SOL    HW129030   1.926   2.155  13.268 -1.6971 -0.1094  2.8810
 5798SOL    HW229031   2.075   2.160  13.270  0.3377  0.9444  0.2867
 5799SOL     OW29032   4.175   0.475  16.335  0.3452 -0.0672 -0.1574
 5799SOL    HW129033   4.159   0.503  16.245 -2.2621 -4.3941 -1.0113
 5799SOL    HW229034   4.241   0.539  16.364  1.2522 -0.7188 -0.7929
 5800SOL     OW29035   0.757   1.332   4.958  0.4577 -0.0647  0.2660
 5800SOL    HW129036   0.842   1.329   4.914 -0.3524 -0.7597 -1.2567
 5800SOL    HW229037   0.744   1.426   4.970  1.3215  0.0532  0.3008
 5801SOL     OW29038   4.541   2.118   9.183  0.3425  0.2571 -1.1805
 5801SOL    HW129039   4.488   2.078   9.252 -2.0834  2.6836 -1.6604
 5801SOL    HW229040   4.546   2.211   9.205 -2.3693  0.6120 -2.0654
 5802SOL     OW29041   1.548   4.547   9.544  0.1774  0.0252  0.0325
 5802SOL    HW129042   1.480   4.487   9.513  2.3011 -2.3858  0.0761
 5802SOL    HW229043   1.496   4.626   9.557 -1.4148 -0.8169 -1.1313
 5803SOL     OW29044   1.542   0.695  17.083  0.6328 -0.0998  0.5887
 5803SOL    HW129045   1.545   0.688  17.179  0.4230  3.7211  0.8754
 5803SOL    HW229046   1.613   0.756  17.062  0.4853 -0.7245 -1.6847
 5804SOL     OW29047   0.274   3.822   5.647 -0.6521 -0.0538 -0.7469
 5804SOL    HW129048   0.198   3.828   5.706  0.0197 -2.2926  0.3427
 5804SOL    HW229049   0.256   3.877   5.571 -1.2225  1.2058  0.2780
 5805SOL     OW29050   2.871   0.935   0.010  0.1691  0.1635  0.4082
 5805SOL    HW129051   2.943   0.882   0.045  1.0609  0.8955 -0.3228
 5805SOL    HW229052   2.890   0.924  17.675 -2.5147 -0.1130 -0.0849
 5806SOL     OW29053   2.009   4.218   7.002 -0.4520  0.3873 -0.0608
 5806SOL    HW129054   1.945   4.264   7.056 -1.5847 -0.7050 -0.4781
 5806SOL    HW229055   2.000   4.259   6.916  1.2734  0.6955 -0.1014
 5807SOL     OW29056   0.834   3.512   9.453 -0.0660  0.6304  0.2203
 5807SOL    HW129057   0.755   3.484   9.500  0.7790 -1.4128  0.4332
 5807SOL    HW229058   0.839   3.601   9.486  0.9962  0.4114  0.6453
 5808SOL     OW29059   0.923   4.573   4.256 -0.2716  0.0066 -0.2790
 5808SOL    HW129060   0.880   4.489   4.273 -1.0497  0.2506 -0.9920
 5808SOL    HW229061   0.881   4.626   4.324 -0.3870  0.2684 -0.5469
 5809SOL     OW29062   2.413   1.218  12.328 -0.2605 -0.0885  0.1289
 5809SOL    HW129063   2.389   1.211  12.421  2.5520 -1.1323  0.7767
 5809SOL    HW229064   2.486   1.156  12.326 -0.8282 -0.6982 -1.1858
 5810SOL     OW29065   1.332   2.295   6.474  0.5480 -0.0238  0.3274
 5810SOL    HW129066   1.413   2.345   6.462  0.1214  0.6436  0.2206
 5810SOL    HW229067   1.275   2.318   6.401  1.5284  2.8011  0.4393
 5811SOL     OW29068   3.719   0.979   3.529 -0.1992 -0.0792  0.3528
 5811SOL    HW129069   3.762   0.941   3.452  1.5304  0.7275  0.9163
 5811SOL    HW229070   3.781   0.957   3.599  1.9389 -2.0032 -2.1576
 5812SOL     OW29071   4.559   2.674  11.096  0.3113  0.1543  0.0551
 5812SOL    HW129072   4.555   2.769  11.095  1.4291  0.2162  2.1970
 5812SOL    HW229073   4.556   2.657  11.001 -0.6119  3.2242 -0.4791
 5813SOL     OW29074   0.320   2.246   2.409  0.8787  0.3919 -0.2206
 5813SOL    HW129075   0.315   2.326   2.461  0.9309  0.1737  0.1222
 5813SOL    HW229076   0.302   2.283   2.323 -1.0507 -0.5302 -0.1987
 5814SOL     OW29077   0.611   4.648   1.034  0.3178 -0.0998 -0.7191
 5814SOL    HW129078   0.684   4.675   0.977  0.5099 -0.5723 -0.6949
 5814SOL    HW229079   0.541   4.638   0.969 -0.2675 -0.7973  0.0215
 5815SOL     OW29080   0.914   3.072   4.368 -0.0047  0.2254 -0.2896
 5815SOL    HW129081   0.972   3.140   4.402  0.6583 -0.7674  0.5736
 5815SOL    HW229082   0.966   2.993   4.356 -1.6973 -1.0608  0.8697
 5816SOL     OW29083   2.858   1.126  16.725 -0.0925 -0.2838 -0.1000
 5816SOL    HW129084   2.953   1.125  16.717 -0.0288  3.0536 -0.0128
 5816SOL    HW229085   2.848   1.071  16.802  0.5368  1.6856  1.3972
 5817SOL     OW29086   3.413   0.507   6.255 -0.1590  0.1932  0.2334
 5817SOL    HW129087   3.391   0.414   6.246  0.7141  0.0916 -0.8060
 5817SOL    HW229088   3.428   0.528   6.163 -1.2463 -3.2777 -0.7497
 5818SOL     OW29089   3.586   1.632   9.644 -0.0642  0.0793 -0.3268
 5818SOL    HW129090   3.625   1.717   9.623 -0.5321 -0.0422 -1.7398
 5818SOL    HW229091   3.514   1.620   9.581 -1.0388  3.1005  0.1641
 5819SOL     OW29092   2.556   4.188   2.376 -0.0319 -0.2916  0.3709
 5819SOL    HW129093   2.591   4.256   2.433 -1.3672  1.2609 -0.6476
 5819SOL    HW229094   2.499   4.140   2.436  1.3268 -2.0085  0.2586
 5820SOL     OW29095   4.239   1.531  13.756 -0.4667  0.1557  0.7631
 5820SOL    HW129096   4.320   1.545  13.804 -0.1953  0.1224  0.3156
 5820SOL    HW229097   4.175   1.542  13.826  1.4464  1.3005  2.3390
 5821SOL     OW29098   4.401   1.783   2.178  0.4504  0.1047  0.1278
 5821SOL    HW129099   4.433   1.693   2.186 -0.9683 -0.3867  0.4011
 5821SOL    HW229100   4.396   1.781   2.082  1.6762  2.4468  0.0157
 5822SOL     OW29101   2.845   0.111   4.893 -0.3384  0.3368  0.0157
 5822SOL    HW129102   2.830   0.045   4.960  1.0979 -0.3328 -0.3133
 5822SOL    HW229103   2.829   0.049   4.822 -0.5085  0.1700  0.2004
 5823SOL     OW29104   1.791   4.158   2.118 -0.6332 -0.4055  0.4094
 5823SOL    HW129105   1.880   4.148   2.152 -1.0177  0.1460  1.5715
 5823SOL    HW229106   1.756   4.233   2.167 -1.3208  0.2605 -1.1044
 5824SOL     OW29107   2.116   4.002   3.174  0.0200  1.0640  0.6913
 5824SOL    HW129108   2.049   3.940   3.201 -1.0450  1.8944 -0.0675
 5824SOL    HW229109   2.185   3.987   3.239  1.6831 -0.7249 -1.5033
 5825SOL     OW29110   3.672   2.631   9.419 -0.8432  0.2804  0.2139
 5825SOL    HW129111   3.691   2.538   9.425  0.4886  0.6698  2.3312
 5825SOL    HW229112   3.694   2.653   9.510  0.7803  0.9878 -0.3465
 5826SOL     OW29113   3.378   0.895   9.508  0.1447 -0.7189 -1.0655
 5826SOL    HW129114   3.436   0.964   9.541 -2.6810  0.7989  0.7367
 5826SOL    HW229115   3.440   0.826   9.530 -2.0505 -1.6219  2.2071
 5827SOL     OW29116   0.230   2.298   9.131 -0.0809  0.3150  0.3784
 5827SOL    HW129117   0.297   2.365   9.126 -1.9349  2.0116 -1.5322
 5827SOL    HW229118   0.232   2.277   9.224  0.9074  0.2582  0.3465
 5828SOL     OW29119   2.713   2.730   5.956 -0.0190  0.9027  0.0866
 5828SOL    HW129120   2.714   2.636   5.976 -1.1139  0.3377 -2.4773
 5828SOL    HW229121   2.620   2.751   5.966 -0.5682 -2.5453  2.4138
 5829SOL     OW29122   2.956   1.218   8.049  1.0083 -0.7148  0.3622
 5829SOL    HW129123   2.865   1.240   8.068  1.4950 -0.7020  2.7997
 5829SOL    HW229124   2.975   1.226   7.956  1.1906 -1.9541  0.2864
 5830SOL     OW29125   2.459   1.616   8.870 -0.3388  0.2187  0.2013
 5830SOL    HW129126   2.496   1.615   8.782 -0.5305 -1.0390  0.1273
 5830SOL    HW229127   2.488   1.533   8.908 -0.5374 -0.1340 -0.4121
 5831SOL     OW29128   1.160   2.736  12.394 -0.3358 -0.1893  0.8426
 5831SOL    HW129129   1.204   2.652  12.408  0.3578  0.3158  1.6754
 5831SOL    HW229130   1.091   2.702  12.337 -0.8876  0.8611  0.8873
 5832SOL     OW29131   3.467   2.150   0.233 -0.0321  0.2405 -0.1562
 5832SOL    HW129132   3.544   2.154   0.175 -0.1649  0.1979 -0.3354
 5832SOL    HW229133   3.422   2.232   0.210  0.6366  1.0020  1.2986
 5833SOL     OW29134   0.271   2.958   9.972 -0.5014 -0.1833  0.4292
 5833SOL    HW129135   0.356   2.995   9.947 -0.3263  0.0429  1.3502
 5833SOL    HW229136   0.279   2.879   9.919  1.5246  0.2291  0.1046
 5834SOL     OW29137   1.447   0.534  12.204  0.2912  0.2664 -0.0800
 5834SOL    HW129138   1.369   0.560  12.254 -2.7690 -3.1415 -3.0434
 5834SOL    HW229139   1.513   0.549  12.271 -0.3300 -0.9206  0.7953
 5835SOL     OW29140   1.737   3.502  14.112  0.7322  0.0146  0.8487
 5835SOL    HW129141   1.704   3.573  14.168  0.4365  0.5347  0.0087
 5835SOL    HW229142   1.746   3.552  14.031 -2.2572 -2.2429 -0.8616
 5836SOL     OW29143   0.390   2.898   4.626  0.5634 -0.5961  0.5085
 5836SOL    HW129144   0.321   2.864   4.568  0.7096  1.5461 -0.9385
 5836SOL    HW229145   0.367   2.854   4.707 -2.3976  0.0579  0.0184
 5837SOL     OW29146   0.327   1.258  17.543  0.1857 -0.0791  0.6531
 5837SOL    HW129147   0.330   1.215  17.629  0.5756 -0.5911  0.3848
 5837SOL    HW229148   0.346   1.350  17.563 -1.7122 -0.3042  3.5325
 5838SOL     OW29149   2.459   2.149   6.270  0.4101 -0.6879  0.3481
 5838SOL    HW129150   2.526   2.203   6.311  1.0207 -0.3321 -1.1317
 5838SOL    HW229151   2.410   2.214   6.220 -2.3729 -0.6915  3.0855
 5839SOL     OW29152   3.248   3.628   5.956 -0.1110  0.0997 -0.3080
 5839SOL    HW129153   3.202   3.544   5.949 -0.9903  0.8281 -3.0535
 5839SOL    HW229154   3.285   3.653   5.872  0.5152  0.9273  0.2199
 5840SOL     OW29155   1.881   2.182   4.002  0.1264 -0.3771  0.2662
 5840SOL    HW129156   1.957   2.145   3.957  0.8394  2.3851 -0.7757
 5840SOL    HW229157   1.907   2.274   4.013  2.1975 -1.2387  2.5890
 5841SOL     OW29158   1.675   2.130   2.408  0.0396  0.4604 -0.1026
 5841SOL    HW129159   1.679   2.113   2.502 -1.4303 -3.5224 -0.7716
 5841SOL    HW229160   1.717   2.050   2.377 -0.2278 -0.5735  2.2197
 5842SOL     OW29161   0.281   2.890  16.183  0.4341  0.5642  0.5144
 5842SOL    HW129162   0.315   2.947  16.251  0.2763 -2.2830  2.9757
 5842SOL    HW229163   0.347   2.904  16.115 -0.5536 -1.7016 -0.9329
 5843SOL     OW29164   0.720   4.032   9.081  0.8822 -0.1478  0.4934
 5843SOL    HW129165   0.663   3.986   9.143 -0.5223 -0.6459 -1.1801
 5843SOL    HW229166   0.666   4.102   9.047  1.9453  1.0078  1.1781
 5844SOL     OW29167   0.680   2.211   8.278 -0.3441  0.0879  0.5060
 5844SOL    HW129168   0.745   2.269   8.238 -2.3679  0.8088 -1.7653
 5844SOL    HW229169   0.725   2.196   8.361  0.3181  0.0115  0.1297
 5845SOL     OW29170   1.332   1.485  16.560 -0.5898  0.2416  0.6838
 5845SOL    HW129171   1.306   1.421  16.494 -0.3923  1.7228 -0.8188
 5845SOL    HW229172   1.420   1.509  16.530 -0.2192 -0.3559  1.2831
 5846SOL     OW29173   3.008   4.399  13.646  0.3370 -0.1098 -0.1816
 5846SOL    HW129174   2.976   4.380  13.558  0.0950 -1.8495  0.2780
 5846SOL    HW229175   3.078   4.336  13.663  0.5725 -0.3626 -2.0553
 5847SOL     OW29176   1.623   1.709   1.322 -0.2542  0.1037  0.1364
 5847SOL    HW129177   1.570   1.779   1.282  0.8063  0.4448 -0.6719
 5847SOL    HW229178   1.558   1.639   1.331 -0.0015 -0.3384 -1.5116
 5848SOL     OW29179   2.839   2.642   0.635  0.1651 -0.1069  0.5378
 5848SOL    HW129180   2.872   2.608   0.718 -2.0176  1.9485  2.2515
 5848SOL    HW229181   2.766   2.585   0.609  0.1411  1.1237 -2.0848
 5849SOL     OW29182   1.436   0.912   1.159  0.4104  0.9920 -0.4334
 5849SOL    HW129183   1.420   1.001   1.190  0.1806  0.1662  1.8863
 5849SOL    HW229184   1.528   0.927   1.137  0.6123  0.7391  0.2210
 5850SOL     OW29185   1.638   2.998   6.600 -0.1619  0.4897 -0.5041
 5850SOL    HW129186   1.684   3.012   6.518 -1.4058  0.8921 -1.1380
 5850SOL    HW229187   1.579   2.928   6.573 -0.6791  0.1539  1.4934
 5851SOL     OW29188   1.396   2.337   8.748 -0.5623 -0.8563  0.0769
 5851SOL    HW129189   1.320   2.378   8.788  0.0600  1.3842 -1.0302
 5851SOL    HW229190   1.398   2.395   8.672 -0.9075 -0.7039  0.1883
 5852SOL     OW29191   4.602   3.069   9.389  0.4763 -0.7637  0.2567
 5852SOL    HW129192   4.596   3.139   9.454 -1.5502  0.8958 -1.6899
 5852SOL    HW229193   4.553   3.107   9.316  0.1938  1.9521  1.8501
 5853SOL     OW29194   2.350   0.868   5.925 -0.5223 -0.4459 -0.5214
 5853SOL    HW129195   2.310   0.834   5.845 -1.8271 -0.5766  0.1837
 5853SOL    HW229196   2.384   0.785   5.957 -0.8642 -1.0327 -1.6752
 5854SOL     OW29197   3.507   2.161   8.689 -0.2149 -0.4068 -0.5621
 5854SOL    HW129198   3.453   2.213   8.748  0.2108  0.2665 -0.7738
 5854SOL    HW229199   3.498   2.073   8.726  2.6352  0.1455  1.4718
 5855SOL     OW29200   2.842   2.244   6.957 -0.2121 -0.2138 -0.3270
 5855SOL    HW129201   2.819   2.166   7.007  2.2303 -1.2957 -0.8877
 5855SOL    HW229202   2.760   2.266   6.913 -0.2931  0.9547  0.3939
 5856SOL     OW29203   0.820   1.824  11.011  0.2873 -0.0985  0.4006
 5856SOL    HW129204   0.744   1.783  10.971  0.2275  0.9668 -0.5553
 5856SOL    HW229205   0.849   1.750  11.065 -0.0233  0.3256  1.1425
 5857SOL     OW29206   4.656   2.831   2.682  0.7164  0.0116  0.0543
 5857SOL    HW129207   4.729   2.866   2.632  0.7272 -1.7060 -1.1453
 5857SOL    HW229208   4.601   2.816   2.604  0.5633  0.9355 -0.0263
 5858SOL     OW29209   3.890   3.524  16.756 -0.1655 -0.8427 -0.2540
 5858SOL    HW129210   3.886   3.579  16.677 -0.7889 -0.0099  0.3609
 5858SOL    HW229211   3.955   3.457  16.734  2.0783  1.2336  0.0137
 5859SOL     OW29212   3.422   1.827  17.409 -0.0068  0.4981 -0.0413
 5859SOL    HW129213   3.458   1.892  17.349  0.7746  1.4577  1.4621
 5859SOL    HW229214   3.505   1.785  17.433 -0.7855 -0.4993  0.8920
 5860SOL     OW29215   2.949   2.488   1.772  0.4055  0.2320 -0.2701
 5860SOL    HW129216   3.040   2.496   1.801  1.2446 -0.0950 -2.8631
 5860SOL    HW229217   2.911   2.500   1.860  2.3894 -1.0086  0.7484
 5861SOL     OW29218   4.257   2.564   4.868 -0.3328  0.0669  0.5719
 5861SOL    HW129219   4.270   2.647   4.822  1.8330 -1.2088 -1.1584
 5861SOL    HW229220   4.168   2.537   4.846 -0.3428  0.3113  0.3155
 5862SOL     OW29221   3.509   0.209  17.006 -0.4711 -0.1024 -0.3388
 5862SOL    HW129222   3.586   0.151  17.010  2.2362  3.5013 -0.1507
 5862SOL    HW229223   3.543   0.289  17.046 -1.1049  0.6280 -1.2555
 5863SOL     OW29224   1.740   0.485   2.725  0.4353 -0.3425  0.2043
 5863SOL    HW129225   1.781   0.535   2.795 -0.8554  0.0598  0.6672
 5863SOL    HW229226   1.733   0.392   2.747 -2.8019  0.1490  1.3064
 5864SOL     OW29227   0.121   1.356   6.510 -0.0231 -0.0517  0.1943
 5864SOL    HW129228   0.129   1.450   6.491 -0.3023 -0.2931 -1.1381
 5864SOL    HW229229   0.201   1.315   6.477  0.1080 -0.1638  0.6568
 5865SOL     OW29230   1.672   0.708   4.430  0.1800  0.0906 -1.0921
 5865SOL    HW129231   1.751   0.756   4.455 -1.3343  1.5331  0.9539
 5865SOL    HW229232   1.709   0.620   4.429 -1.5002 -0.6182 -0.2327
 5866SOL     OW29233   0.240   2.609   7.019 -0.1483  0.5468  0.2995
 5866SOL    HW129234   0.146   2.609   7.001 -0.3118  2.8939  1.1643
 5866SOL    HW229235   0.261   2.515   7.014  1.5102  1.0250 -1.4600
 5867SOL     OW29236   2.171   0.924   6.114 -0.4047  0.8446  0.0456
 5867SOL    HW129237   2.224   0.883   6.045  2.8813  2.4071  1.6517
 5867SOL    HW229238   2.150   0.846   6.166  2.4780  0.2408  0.2890
 5868SOL     OW29239   3.008   1.434   5.468  0.0988 -0.5877  0.3939
 5868SOL    HW129240   3.060   1.473   5.398  1.8155 -1.8307  0.9623
 5868SOL    HW229241   2.997   1.343   5.438 -0.2544 -0.0187 -1.1792
 5869SOL     OW29242   0.123   3.414  15.296 -0.3646  0.1348 -0.3907
 5869SOL    HW129243   0.136   3.457  15.211  0.0733 -1.4058 -1.1195
 5869SOL    HW229244   0.028   3.400  15.297 -0.5432  1.4338 -0.1701
 5870SOL     OW29245   1.926   2.604  11.754  0.1735  0.0827 -0.2361
 5870SOL    HW129246   1.883   2.571  11.675  1.3080 -0.6116 -0.5599
 5870SOL    HW229247   2.011   2.638  11.729 -0.2971  1.1901 -0.3214
 5871SOL     OW29248   4.275   3.846   0.782  0.7235 -0.4461  0.4517
 5871SOL    HW129249   4.237   3.767   0.744  0.8955 -1.5642  2.5804
 5871SOL    HW229250   4.200   3.891   0.822  1.3885  0.4448  0.6852
 5872SOL     OW29251   4.094   0.261   3.579  0.1985  0.2974 -0.4833
 5872SOL    HW129252   4.057   0.247   3.666  0.3444 -2.1922 -0.8192
 5872SOL    HW229253   4.039   0.207   3.523 -0.0350 -0.6181  0.6228
 5873SOL     OW29254   3.408   1.499   8.071 -0.4469  0.6920  0.2333
 5873SOL    HW129255   3.317   1.477   8.091  0.2187 -3.0160 -0.8489
 5873SOL    HW229256   3.432   1.522   8.161 -1.4009  0.7128  0.4826
 5874SOL     OW29257   0.644   0.524   2.062 -0.2254  0.4286 -0.2672
 5874SOL    HW129258   0.644   0.549   2.154 -0.7016 -0.7694  0.0501
 5874SOL    HW229259   0.587   0.589   2.021 -1.0298  0.1626  0.4329
 5875SOL     OW29260   3.321   0.169   1.429 -0.1439 -0.3149 -0.6479
 5875SOL    HW129261   3.318   0.209   1.516 -0.7953  1.1406 -1.3529
 5875SOL    HW229262   3.292   0.078   1.440  2.1613 -0.7471  1.9585
 5876SOL     OW29263   2.661   2.592   4.053  0.0571 -0.2316  0.3772
 5876SOL    HW129264   2.716   2.630   3.985 -0.7632  0.0404 -0.1421
 5876SOL    HW229265   2.653   2.669   4.109  1.7885 -0.2333  0.6294
 5877SOL     OW29266   0.639   2.343   5.404 -0.0632  0.5691  0.3122
 5877SOL    HW129267   0.695   2.303   5.471 -1.7154 -3.0124 -0.4542
 5877SOL    HW229268   0.622   2.428   5.446 -0.0300 -0.0853  1.6649
 5878SOL     OW29269   4.465   2.655   1.781 -0.1237 -0.1830  0.1192
 5878SOL    HW129270   4.468   2.748   1.758  1.6653 -0.8417 -2.2393
 5878SOL    HW229271   4.371   2.653   1.800 -0.0923  0.1570  0.3197
 5879SOL     OW29272   1.917   2.204   0.375  0.5205 -0.2819 -1.0400
 5879SOL    HW129273   1.964   2.125   0.402  0.7175 -0.0153 -0.6192
 5879SOL    HW229274   1.838   2.167   0.335  1.0446 -1.8399 -0.6357
 5880SOL     OW29275   0.474   0.975  10.579  0.2413  0.2281 -0.4852
 5880SOL    HW129276   0.497   0.890  10.615  0.6401  0.4057 -0.3150
 5880SOL    HW229277   0.395   0.944  10.535 -0.3075  1.5938 -0.4662
 5881SOL     OW29278   2.593   4.479   2.271  0.3150  0.2224 -0.5827
 5881SOL    HW129279   2.499   4.496   2.269 -0.0641 -1.0474  3.8501
 5881SOL    HW229280   2.598   4.386   2.248  0.2433  0.3168 -0.9688
 5882SOL     OW29281   1.906   2.340   7.496 -0.0916  0.0904  0.0234
 5882SOL    HW129282   1.902   2.246   7.513 -0.2289  0.2680  0.9424
 5882SOL    HW229283   1.990   2.339   7.449  0.2515 -2.1797  0.6887
 5883SOL     OW29284   2.541   0.790  17.348 -0.1536 -0.1936  0.8915
 5883SOL    HW129285   2.549   0.862  17.411 -1.9566 -0.0904  1.0256
 5883SOL    HW229286   2.533   0.713  17.404 -0.6321  0.0752  1.2050
 5884SOL     OW29287   1.567   1.478   9.327 -0.7479 -0.4906 -0.3352
 5884SOL    HW129288   1.515   1.467   9.247  0.7216 -3.0127 -0.9695
 5884SOL    HW229289   1.615   1.554   9.296 -1.3469 -0.1838 -0.5114
 5885SOL     OW29290   2.969   0.950   8.074  0.4688  0.2381 -0.0436
 5885SOL    HW129291   2.917   0.954   8.155  1.9555  0.5342  0.8957
 5885SOL    HW229292   2.973   1.044   8.058 -1.5176  0.9494  3.5955
 5886SOL     OW29293   1.518   2.675   5.324 -0.3584  0.1498  0.2695
 5886SOL    HW129294   1.428   2.653   5.299 -2.1258  2.6852  4.3322
 5886SOL    HW229295   1.559   2.589   5.324 -0.9408 -0.1471 -1.6297
 5887SOL     OW29296   1.330   1.738   4.143  0.0928  0.1466  0.2122
 5887SOL    HW129297   1.401   1.684   4.109 -1.1073 -1.2481 -0.0758
 5887SOL    HW229298   1.256   1.693   4.103 -0.6523  0.5182  1.1610
 5888SOL     OW29299   4.389   0.372   3.232 -0.4253 -0.1503 -0.8800
 5888SOL    HW129300   4.318   0.433   3.252 -0.8392 -1.3042  1.1773
 5888SOL    HW229301   4.457   0.411   3.178 -0.9515  1.0558 -0.6748
 5889SOL     OW29302   4.549   2.502  15.381  0.1805  0.7587  0.1432
 5889SOL    HW129303   4.469   2.516  15.330 -0.4286  0.9141  1.1381
 5889SOL    HW229304   4.582   2.421  15.343  0.2999  0.2197  1.3939
 5890SOL     OW29305   1.574   3.657  12.792 -0.1124  0.3604  0.0627
 5890SOL    HW129306   1.486   3.621  12.778  0.5880 -1.7840  1.1601
 5890SOL    HW229307   1.547   3.716  12.863 -0.4230 -0.1561  0.3762
 5891SOL     OW29308   4.017   1.191   3.043 -0.2459 -0.6072 -0.4825
 5891SOL    HW129309   4.026   1.131   3.117 -0.5491  0.0549  0.0868
 5891SOL    HW229310   3.973   1.267   3.079  0.4544 -0.5955  0.3432
 5892SOL     OW29311   3.508   2.546   7.687  0.0341  0.4071  0.1085
 5892SOL    HW129312   3.581   2.608   7.689  0.8205 -0.5344  0.5724
 5892SOL    HW229313   3.486   2.543   7.781  1.1324  1.7368  0.3973
 5893SOL     OW29314   2.549   3.526   9.084  0.5928  0.3196 -0.0551
 5893SOL    HW129315   2.478   3.551   9.026  0.4815  0.4173  0.1227
 5893SOL    HW229316   2.503   3.468   9.144 -2.9221  0.9552 -2.1764
 5894SOL     OW29317   1.682   1.024  11.417 -0.1785 -0.5996 -0.0695
 5894SOL    HW129318   1.694   0.960  11.487  0.0177  0.5477  0.9494
 5894SOL    HW229319   1.726   1.101  11.455  1.1320 -1.3904  0.0312
 5895SOL     OW29320   2.201   3.853  17.742  0.7309  0.4020 -0.1654
 5895SOL    HW129321   2.221   3.947  17.750  0.6579  0.4383 -0.4254
 5895SOL    HW229322   2.156   3.839   0.068  0.9822  2.4236  0.3222
 5896SOL     OW29323   2.736   2.694  14.427 -0.6208  0.4737  0.6131
 5896SOL    HW129324   2.799   2.746  14.477 -0.1012 -0.3003  0.7629
 5896SOL    HW229325   2.659   2.709  14.483 -1.5582 -0.8811 -0.3287
 5897SOL     OW29326   3.215   0.973   4.287 -0.1927 -0.3888  0.0654
 5897SOL    HW129327   3.165   0.955   4.208 -0.0456  1.0232 -0.3602
 5897SOL    HW229328   3.302   0.983   4.248  0.2809 -0.8398  1.0113
 5898SOL     OW29329   3.447   0.547   5.712 -0.0267 -0.6452 -0.0457
 5898SOL    HW129330   3.497   0.567   5.633  0.0848  1.2561  0.5045
 5898SOL    HW229331   3.489   0.614   5.766  0.7633 -3.4805  2.8723
 5899SOL     OW29332   4.395   0.006   6.877 -0.6246 -0.6380 -0.3348
 5899SOL    HW129333   4.465   4.722   6.939 -1.3095 -2.9107 -0.4837
 5899SOL    HW229334   4.367   0.091   6.911  0.8355 -0.3329  0.1218
 5900SOL     OW29335   2.029   4.602   7.513 -0.1382 -0.2696  0.1993
 5900SOL    HW129336   2.002   4.634   7.599 -1.4281 -0.2939 -0.1813
 5900SOL    HW229337   1.943   4.573   7.481  1.0082 -1.3577 -1.9196
 5901SOL     OW29338   2.121   3.335   8.731 -0.5364 -0.1353 -0.1272
 5901SOL    HW129339   2.173   3.256   8.744  0.5395  0.5504 -0.2738
 5901SOL    HW229340   2.070   3.304   8.656  0.5864  3.5046 -2.4114
 5902SOL     OW29341   4.160   3.621  14.595 -0.7116 -0.5234  0.3639
 5902SOL    HW129342   4.074   3.582  14.609 -0.5448 -0.2060  2.3910
 5902SOL    HW229343   4.149   3.686  14.525  1.7976 -1.9963 -1.3800
 5903SOL     OW29344   1.332   1.029  15.832 -0.0501  0.0860 -0.2017
 5903SOL    HW129345   1.289   1.046  15.916  0.7670 -1.9071  0.6269
 5903SOL    HW229346   1.356   0.938  15.852  0.7812  0.5538  0.9177
 5904SOL     OW29347   2.348   4.211  12.344 -0.2003  0.1071 -0.1939
 5904SOL    HW129348   2.396   4.128  12.348  0.6884  0.5360 -1.7725
 5904SOL    HW229349   2.409   4.268  12.389  0.2840  0.9402 -1.8888
 5905SOL     OW29350   0.897   3.332   8.879  0.2072  0.2772  0.2478
 5905SOL    HW129351   0.835   3.259   8.880 -1.3464  1.5576 -1.3812
 5905SOL    HW229352   0.973   3.296   8.834  0.2902  0.6837  0.0610
 5906SOL     OW29353   3.725   3.447   2.560 -0.2572 -0.4197  0.2117
 5906SOL    HW129354   3.637   3.464   2.527 -1.6335 -2.0739  3.0287
 5906SOL    HW229355   3.722   3.351   2.558 -1.8117 -0.3663  0.1100
 5907SOL     OW29356   2.333   0.718   9.302 -0.2497  0.8925  0.2843
 5907SOL    HW129357   2.320   0.642   9.245 -2.3098  1.8426 -0.5188
 5907SOL    HW229358   2.261   0.711   9.365 -2.9837 -1.2979 -3.0717
 5908SOL     OW29359   4.276   0.218   9.437  0.3113 -0.0380 -0.0272
 5908SOL    HW129360   4.246   0.131   9.463  2.2934  0.2151  3.1410
 5908SOL    HW229361   4.206   0.272   9.472  0.1957 -1.8526  2.5190
 5909SOL     OW29362   2.134   2.889  17.543  0.5176  0.2167  0.2374
 5909SOL    HW129363   2.090   2.808  17.569 -0.5045  0.5668 -0.3916
 5909SOL    HW229364   2.093   2.951  17.603 -2.5176 -1.4287 -0.1289
 5910SOL     OW29365   0.274   3.365   3.324  0.4569 -0.1914 -0.1196
 5910SOL    HW129366   0.199   3.313   3.352  0.6453 -0.8804 -0.8894
 5910SOL    HW229367   0.351   3.308   3.328  1.9738  1.8293 -0.5438
 5911SOL     OW29368   0.282   3.912   6.246 -0.5007  0.0989  0.0832
 5911SOL    HW129369   0.216   3.844   6.255 -1.6447  1.3683  1.3868
 5911SOL    HW229370   0.242   3.998   6.262 -0.5344  0.5218 -2.2323
 5912SOL     OW29371   0.627   3.342   7.347 -0.3616 -0.5583  0.3324
 5912SOL    HW129372   0.712   3.340   7.392  1.0170  0.2260 -2.2502
 5912SOL    HW229373   0.612   3.248   7.335 -1.6639 -0.0888 -1.7144
 5913SOL     OW29374   2.255   0.429   4.852  0.3188 -0.0260 -0.0305
 5913SOL    HW129375   2.311   0.467   4.784  1.0289  0.1759  0.6667
 5913SOL    HW229376   2.229   0.505   4.904 -0.0632  0.4961 -0.9856
 5914SOL     OW29377   2.352   0.122   4.421  0.0271  0.2977  0.0464
 5914SOL    HW129378   2.417   0.157   4.360 -1.9964  1.6919 -1.2883
 5914SOL    HW229379   2.368   0.174   4.500  0.7992 -0.8227  0.6367
 5915SOL     OW29380   4.054   2.696   2.512  0.0478 -1.1036  0.2083
 5915SOL    HW129381   3.961   2.673   2.521 -0.6120  2.5205  2.9073
 5915SOL    HW229382   4.060   2.644   2.432 -0.6346 -1.2223  0.2319
 5916SOL     OW29383   4.427   4.329   9.404 -0.4155  0.2989  0.0063
 5916SOL    HW129384   4.467   4.319   9.490 -0.2716  1.2809  0.0533
 5916SOL    HW229385   4.340   4.291   9.414 -1.3580  2.0511 -1.5777
 5917SOL     OW29386   0.712   1.416   8.588 -0.3303 -0.0492 -0.7157
 5917SOL    HW129387   0.708   1.511   8.601  2.6073 -0.2243  1.3248
 5917SOL    HW229388   0.629   1.384   8.623 -0.5354  0.5706 -0.6396
 5918SOL     OW29389   2.090   3.220   5.597  0.3332 -0.0010 -0.7761
 5918SOL    HW129390   2.109   3.128   5.616  0.6399  0.3686  0.7536
 5918SOL    HW229391   2.113   3.257   5.683 -0.2509 -1.4285 -0.0145
 5919SOL     OW29392   1.493   0.434   9.568  0.2779 -0.2319 -0.3709
 5919SOL    HW129393   1.574   0.389   9.543  0.7952  1.3315 -1.5285
 5919SOL    HW229394   1.461   0.447   9.479  0.6628 -1.8558 -0.7608
 5920SOL     OW29395   1.640   2.116   8.281  0.8200  0.0374  0.7521
 5920SOL    HW129396   1.638   2.211   8.296  0.1319  0.1289  0.0905
 5920SOL    HW229397   1.622   2.075   8.366 -2.8222  1.0667  0.4928
 5921SOL     OW29398   1.681   4.466   5.898 -0.0258 -0.1997 -0.5401
 5921SOL    HW129399   1.731   4.536   5.941  1.0715  0.2701 -2.5702
 5921SOL    HW229400   1.631   4.424   5.968  1.2367 -2.2039 -0.8563
 5922SOL     OW29401   3.975   2.819   8.094  0.3041  0.5476 -0.1758
 5922SOL    HW129402   4.016   2.799   8.178  0.6240  1.2153 -0.1796
 5922SOL    HW229403   3.941   2.906   8.113 -1.2066  0.4565 -2.4831
 5923SOL     OW29404   3.130   2.610   9.003 -0.2582  0.1982 -0.2398
 5923SOL    HW129405   3.137   2.649   9.090 -1.0434 -1.0655  0.3951
 5923SOL    HW229406   3.038   2.583   8.994 -0.5570  0.1352  3.0913
 5924SOL     OW29407   1.132   0.913   3.288  0.0060  0.0420 -0.1251
 5924SOL    HW129408   1.126   0.998   3.244 -1.8241  0.5817  1.1957
 5924SOL    HW229409   1.202   0.932   3.350  0.3151  0.6579 -0.6587
 5925SOL     OW29410   2.942   0.739   8.738 -0.2627  0.4151 -0.2689
 5925SOL    HW129411   2.929   0.645   8.728  4.1644 -0.4989  2.5970
 5925SOL    HW229412   2.863   0.761   8.788  0.2029 -2.2661  1.6266
 5926SOL     OW29413   2.827   4.647  15.525 -0.0432 -0.0924  0.0007
 5926SOL    HW129414   2.813   4.575  15.587  2.3127  1.2260  2.0870
 5926SOL    HW229415   2.742   4.646  15.482 -1.1174  1.2876  2.0801
 5927SOL     OW29416   4.515   4.632   2.290 -0.4770  0.1066  0.0568
 5927SOL    HW129417   4.449   4.671   2.232 -0.5184 -1.2600 -0.7978
 5927SOL    HW229418   4.565   4.579   2.228  2.6430  1.4759  1.4201
 5928SOL     OW29419   3.942   0.191   0.282 -0.3931  0.0784  0.1683
 5928SOL    HW129420   3.866   0.134   0.269 -0.7794  0.9952 -1.6427
 5928SOL    HW229421   3.928   0.265   0.223 -0.6750  1.6805  2.2422
 5929SOL     OW29422   3.051   0.276   4.876 -0.1692  0.0198  0.3754
 5929SOL    HW129423   2.994   0.201   4.892  0.5343 -0.4264  0.7497
 5929SOL    HW229424   3.117   0.241   4.817 -1.0579 -1.4966  0.2909
 5930SOL     OW29425   1.599   0.942  12.144 -0.3812 -0.2529  0.0735
 5930SOL    HW129426   1.645   0.902  12.218 -0.0833 -2.0162 -1.0809
 5930SOL    HW229427   1.511   0.916  12.172 -0.1366 -0.9568  0.1990
 5931SOL     OW29428   4.200   1.342  15.389  0.4831  0.3485  0.3904
 5931SOL    HW129429   4.110   1.366  15.365  0.3970 -1.8900 -1.4914
 5931SOL    HW229430   4.218   1.251  15.367  3.7461  1.0840  0.0906
 5932SOL     OW29431   2.948   3.294   6.769 -0.2066  0.3097 -0.0114
 5932SOL    HW129432   2.873   3.238   6.750 -1.6393  3.5716 -4.0000
 5932SOL    HW229433   2.909   3.366   6.818  0.5051 -0.2098  1.3066
 5933SOL     OW29434   4.265   0.340   7.771 -0.0075  0.2998  0.5208
 5933SOL    HW129435   4.351   0.375   7.745 -1.2227  1.4710 -1.9298
 5933SOL    HW229436   4.232   0.421   7.811 -1.6962 -0.6882  1.1141
 5934SOL     OW29437   0.753   4.302   3.201 -0.2472 -0.1930  0.0699
 5934SOL    HW129438   0.806   4.374   3.236 -2.4360  1.0329  0.9369
 5934SOL    HW229439   0.781   4.231   3.258  1.5824 -0.7343 -1.5484
 5935SOL     OW29440   4.596   2.059   7.531  0.2296  0.1336  0.0705
 5935SOL    HW129441   4.594   1.993   7.601 -1.2049  1.3386  1.1593
 5935SOL    HW229442   4.670   2.019   7.485  0.5826 -1.5323  2.0849
 5936SOL     OW29443   4.208   0.315  12.131  0.0854 -0.0302  0.8540
 5936SOL    HW129444   4.144   0.358  12.073 -0.0909 -0.5832  0.6385
 5936SOL    HW229445   4.251   0.391  12.170  0.8971 -0.6992  1.2396
 5937SOL     OW29446   1.830   3.750   6.041  0.1827 -0.3337 -0.2370
 5937SOL    HW129447   1.896   3.682   6.050  1.3293  0.7863 -0.1733
 5937SOL    HW229448   1.749   3.715   6.078 -0.2423  1.6418  0.7001
 5938SOL     OW29449   0.767   2.879   7.126 -0.0208  0.3730  0.2124
 5938SOL    HW129450   0.685   2.883   7.175  0.5983  2.7313  1.0500
 5938SOL    HW229451   0.747   2.819   7.054  3.5871  0.2411 -0.6744
 5939SOL     OW29452   1.082   1.856   6.980  0.0660  0.0967 -0.5686
 5939SOL    HW129453   1.097   1.931   7.037 -1.6674 -1.2770  1.7273
 5939SOL    HW229454   1.067   1.895   6.894  1.9317  0.2009 -0.8318
 5940SOL     OW29455   0.818   2.720   2.463 -0.0843  0.1656 -0.3984
 5940SOL    HW129456   0.834   2.771   2.383 -0.6985 -1.2523 -1.4331
 5940SOL    HW229457   0.800   2.631   2.430 -0.7387 -0.1634  0.8389
 5941SOL     OW29458   1.077   0.339   7.567  0.2651  0.6498  0.8760
 5941SOL    HW129459   1.032   0.260   7.538 -0.5726  1.8699 -1.1641
 5941SOL    HW229460   1.059   0.345   7.661 -0.4629 -1.9653  0.9075
 5942SOL     OW29461   4.672   0.424   4.303 -0.1814 -0.2274 -0.5341
 5942SOL    HW129462   4.704   0.465   4.384 -1.5417  0.9170 -0.5618
 5942SOL    HW229463   4.724   0.451   4.228  1.6927  0.2118  0.9354
 5943SOL     OW29464   3.724   3.200   5.732 -0.1442 -0.0804  0.1700
 5943SOL    HW129465   3.684   3.197   5.645  0.1438 -1.1964  0.0724
 5943SOL    HW229466   3.656   3.243   5.784 -0.9533 -1.2477  0.0806
 5944SOL     OW29467   4.525   3.604   2.763 -0.0288  0.4472  0.1645
 5944SOL    HW129468   4.576   3.526   2.788 -1.2982  0.2810  2.2577
 5944SOL    HW229469   4.578   3.675   2.800 -0.7376  1.6062 -1.0934
 5945SOL     OW29470   2.628   2.497   3.651  0.2809 -0.1047  0.5043
 5945SOL    HW129471   2.561   2.429   3.640  0.9597 -0.3542 -2.0223
 5945SOL    HW229472   2.683   2.479   3.575 -1.7824 -2.8855 -0.3471
 5946SOL     OW29473   2.807   3.569   6.218  0.3759 -0.1086  0.2195
 5946SOL    HW129474   2.813   3.547   6.311 -0.5524  0.7038  0.4697
 5946SOL    HW229475   2.823   3.488   6.170 -1.3448  0.0192 -0.5601
 5947SOL     OW29476   3.403   4.211   4.694 -0.1979 -0.2137 -0.1939
 5947SOL    HW129477   3.373   4.267   4.623  0.8183  0.9978  0.3202
 5947SOL    HW229478   3.338   4.221   4.763  0.1965  1.1643 -0.0045
 5948SOL     OW29479   2.802   2.869   7.819  0.2702 -0.0653  0.1711
 5948SOL    HW129480   2.879   2.878   7.763  0.1877  1.0746  0.2352
 5948SOL    HW229481   2.803   2.774   7.829 -0.4794 -0.1287 -0.3565
 5949SOL     OW29482   2.822   4.469  13.841 -0.5429  0.3474  0.7042
 5949SOL    HW129483   2.874   4.439  13.915 -1.1345  2.5083  1.9617
 5949SOL    HW229484   2.889   4.474  13.773  0.6406  1.7933  2.0037
 5950SOL     OW29485   2.319   0.248   6.706 -0.0080 -0.6347 -0.5663
 5950SOL    HW129486   2.293   0.165   6.745  1.3985  0.0033  1.7551
 5950SOL    HW229487   2.412   0.246   6.727  0.1578 -1.1984 -1.4045
 5951SOL     OW29488   1.812   0.828   2.990  0.1662 -0.0922 -0.6365
 5951SOL    HW129489   1.818   0.733   3.001  0.2913 -0.0611 -0.4284
 5951SOL    HW229490   1.857   0.835   2.906 -1.0144 -2.5550 -1.4630
 5952SOL     OW29491   4.025   3.348   8.715 -0.4952 -0.4547  0.1381
 5952SOL    HW129492   3.952   3.286   8.719 -2.0278  1.3906  0.3528
 5952SOL    HW229493   3.988   3.423   8.670 -0.5083  2.0214  4.2920
 5953SOL     OW29494   0.347   4.413  10.325  0.3414  0.3926  0.3573
 5953SOL    HW129495   0.270   4.443  10.373 -0.9574 -1.4309 -0.5784
 5953SOL    HW229496   0.333   4.467  10.248 -1.0737  1.5877  1.4522
 5954SOL     OW29497   0.255   3.453   8.524  0.3360 -0.1365  0.3452
 5954SOL    HW129498   0.256   3.532   8.469 -1.3340  0.2358  0.8605
 5954SOL    HW229499   0.341   3.419   8.498  0.0945 -0.3732 -0.1413
 5955SOL     OW29500   3.743   1.151   7.647  0.6838 -0.2334  0.0771
 5955SOL    HW129501   3.745   1.077   7.586 -0.3397  1.0293 -1.4989
 5955SOL    HW229502   3.660   1.129   7.688  1.8014 -1.0125  1.9196
 5956SOL     OW29503   0.699   3.762   5.488 -0.8425 -0.1102  0.0113
 5956SOL    HW129504   0.744   3.719   5.417 -2.2325 -0.3273 -0.7418
 5956SOL    HW229505   0.756   3.741   5.562  2.3233 -2.3072 -3.1213
 5957SOL     OW29506   1.054   2.352   5.380  0.6015  0.0276 -0.1893
 5957SOL    HW129507   1.027   2.421   5.441  0.5276  0.6444 -0.9047
 5957SOL    HW229508   1.148   2.359   5.394  0.7522  0.3168 -1.2779
 5958SOL     OW29509   2.428   3.196   7.763 -0.2900  0.0266  0.2968
 5958SOL    HW129510   2.470   3.111   7.761  0.1077  0.2168  0.8801
 5958SOL    HW229511   2.486   3.256   7.715 -2.1216  1.4964 -0.1070
 5959SOL     OW29512   2.824   4.339  15.002 -0.2046  0.1491 -0.2457
 5959SOL    HW129513   2.884   4.414  15.004  1.0861 -0.9181  0.5074
 5959SOL    HW229514   2.742   4.386  14.983 -1.5951 -1.6665  1.3290
 5960SOL     OW29515   0.028   2.583  15.099  0.0252 -0.6341 -0.4412
 5960SOL    HW129516   4.709   2.521  15.057 -0.1508 -0.6752 -0.1334
 5960SOL    HW229517   4.712   2.659  15.113 -0.8786 -1.3985  0.0331
 5961SOL     OW29518   1.747   4.085   3.044  0.3093 -0.0171 -0.1823
 5961SOL    HW129519   1.659   4.063   3.014  1.0719 -2.3297 -0.7767
 5961SOL    HW229520   1.797   4.007   3.020  1.6660  0.7030  0.3096
 5962SOL     OW29521   0.339   1.989   9.410 -0.1377 -0.0581  0.1123
 5962SOL    HW129522   0.434   1.978   9.400 -0.4995 -2.0156 -1.2222
 5962SOL    HW229523   0.313   1.909   9.456  1.1473  0.1205  1.1517
 5963SOL     OW29524   3.440   0.774   7.990  0.2472  0.2851 -0.3355
 5963SOL    HW129525   3.382   0.707   8.026  0.3307  1.5803  2.1980
 5963SOL    HW229526   3.459   0.832   8.063  1.2450 -0.1654 -0.2468
 5964SOL     OW29527   3.195   2.474   3.628 -0.9459  0.2509  0.3099
 5964SOL    HW129528   3.261   2.429   3.576  0.4389  1.9821  0.5470
 5964SOL    HW229529   3.235   2.441   3.709 -0.4988  2.4484  0.9837
 5965SOL     OW29530   4.301   4.291  13.973  0.3511  1.0756  0.0554
 5965SOL    HW129531   4.239   4.262  14.040  0.8284 -0.7325 -0.2882
 5965SOL    HW229532   4.312   4.384  13.994 -0.2901  0.9633  0.8511
 5966SOL     OW29533   1.595   2.748   6.250  0.2866  1.0160 -0.1579
 5966SOL    HW129534   1.536   2.811   6.293 -0.2232 -0.5595  1.4347
 5966SOL    HW229535   1.662   2.814   6.229  0.2251  0.7567 -1.1270
 5967SOL     OW29536   0.190   3.638   5.291 -0.1765 -0.1297  0.1401
 5967SOL    HW129537   0.281   3.646   5.319 -0.8950 -0.7839  2.7015
 5967SOL    HW229538   0.165   3.581   5.364 -0.2841 -1.4872 -0.9524
 5968SOL     OW29539   3.996   3.385   5.187  0.7498 -0.3664 -0.2416
 5968SOL    HW129540   3.949   3.402   5.268 -1.6281  0.4090 -1.7717
 5968SOL    HW229541   3.948   3.307   5.158 -2.4634  1.2768  0.6080
 5969SOL     OW29542   2.408   3.206   5.178 -0.6686 -0.1612  0.1172
 5969SOL    HW129543   2.354   3.129   5.162 -2.9799  1.2673  0.9118
 5969SOL    HW229544   2.455   3.182   5.258  0.4619  1.6107 -0.0139
 5970SOL     OW29545   0.856   0.948  13.146  0.7052 -0.1555  0.2724
 5970SOL    HW129546   0.946   0.955  13.113  0.1769  2.2169 -0.6762
 5970SOL    HW229547   0.868   0.971  13.238 -0.6295  0.2077  0.3489
 5971SOL     OW29548   0.663   0.783  10.041 -0.1500  0.1182  0.3194
 5971SOL    HW129549   0.609   0.839   9.985  0.5162  0.0648 -0.3698
 5971SOL    HW229550   0.724   0.747   9.977 -0.3248 -2.9952  1.9135
 5972SOL     OW29551   3.456   0.723  16.090  0.0614  0.1419 -0.6476
 5972SOL    HW129552   3.497   0.638  16.072 -0.4723  0.3932 -3.0735
 5972SOL    HW229553   3.528   0.766  16.136 -0.4442 -0.5281  0.7797
 5973SOL     OW29554   3.854   2.886   9.542 -0.0235  0.1161  0.6868
 5973SOL    HW129555   3.861   2.941   9.464 -1.1569 -0.0684  0.4540
 5973SOL    HW229556   3.909   2.818   9.504 -1.2955 -0.1576 -0.6594
 5974SOL     OW29557   2.405   0.161   3.280  0.2347 -0.4995  0.7350
 5974SOL    HW129558   2.438   0.097   3.218  0.3928  1.1936 -0.9248
 5974SOL    HW229559   2.478   0.155   3.343  1.1625  0.6430 -0.2274
 5975SOL     OW29560   2.435   0.250  14.473  0.2105 -0.0073  0.1304
 5975SOL    HW129561   2.449   0.160  14.502 -0.4352 -0.1502 -0.0141
 5975SOL    HW229562   2.441   0.296  14.557  1.6839 -0.5815  0.3432
 5976SOL     OW29563   1.691   4.522   3.064 -0.2791 -0.2418 -0.0134
 5976SOL    HW129564   1.689   4.615   3.089  2.8894 -0.1059 -0.2600
 5976SOL    HW229565   1.636   4.494   3.138  1.2796 -1.0530  0.8502
 5977SOL     OW29566   1.141   3.554  15.453  0.3778  0.3914  0.1891
 5977SOL    HW129567   1.173   3.637  15.417  1.4329 -0.4006 -0.7133
 5977SOL    HW229568   1.215   3.493  15.452  1.1278  1.3046  0.7462
 5978SOL     OW29569   3.926   0.289   7.917 -0.0949 -0.2449 -0.0795
 5978SOL    HW129570   3.850   0.347   7.925  0.6054  0.7340 -0.5505
 5978SOL    HW229571   3.991   0.359   7.909 -0.3053  0.4235  4.3020
 5979SOL     OW29572   3.739   2.980   3.453  0.1098 -0.3615  0.0434
 5979SOL    HW129573   3.765   3.034   3.528 -1.7949 -0.7125  0.9534
 5979SOL    HW229574   3.825   2.945   3.426  0.1550  0.1564 -0.4823
 5980SOL     OW29575   0.800   2.685  15.103  0.1140 -0.2895 -0.2820
 5980SOL    HW129576   0.890   2.651  15.108  0.3031 -0.0411 -1.9432
 5980SOL    HW229577   0.800   2.731  15.187 -1.9896  0.3384 -0.6261
 5981SOL     OW29578   3.408   2.333   9.371 -0.7652  0.0461 -0.4253
 5981SOL    HW129579   3.354   2.361   9.297  0.8060 -0.7090 -1.8865
 5981SOL    HW229580   3.376   2.393   9.438 -0.9442 -0.7286  0.1808
 5982SOL     OW29581   1.286   3.516   5.969 -0.5400 -0.2122  0.1207
 5982SOL    HW129582   1.364   3.544   5.922 -1.5432  2.7148  0.2224
 5982SOL    HW229583   1.207   3.558   5.935 -2.4202 -0.8041  3.6646
 5983SOL     OW29584   3.687   2.877   2.259  0.1581  0.6260 -0.2050
 5983SOL    HW129585   3.657   2.790   2.287 -0.3431  1.3421  1.5044
 5983SOL    HW229586   3.606   2.924   2.238 -1.3448 -2.6056 -1.6626
 5984SOL     OW29587   1.941   0.661   4.772  0.2704 -0.3245  0.0209
 5984SOL    HW129588   1.923   0.574   4.807  0.1622 -2.0164 -4.2843
 5984SOL    HW229589   1.895   0.717   4.834 -0.7212 -0.3335 -0.6987
 5985SOL     OW29590   2.067   4.237  12.370 -0.1836  0.2536 -0.3758
 5985SOL    HW129591   2.042   4.306  12.309  0.4497  0.4705 -0.3936
 5985SOL    HW229592   2.158   4.222  12.343 -0.6203 -1.6580 -0.7784
 5986SOL     OW29593   4.368   2.057   9.401 -0.4465 -0.0453  0.1414
 5986SOL    HW129594   4.363   2.039   9.495 -0.4807  2.2408  0.5683
 5986SOL    HW229595   4.277   2.051   9.372 -0.2538  0.4905 -0.5937
 5987SOL     OW29596   4.045   3.172   6.328  0.3114  0.1515 -0.0266
 5987SOL    HW129597   4.067   3.126   6.409 -2.0167 -0.3050  0.3677
 5987SOL    HW229598   3.989   3.237   6.369  0.3529  1.3155 -1.8030
 5988SOL     OW29599   2.530   0.628   6.953  0.0103  0.0598  0.1997
 5988SOL    HW129600   2.574   0.584   7.026 -2.0304 -0.6844  0.9848
 5988SOL    HW229601   2.552   0.721   6.953  1.4216 -0.2909 -0.7639
 5989SOL     OW29602   3.559   1.129  13.622  0.0762 -0.4150 -0.1558
 5989SOL    HW129603   3.579   1.183  13.699  1.2080  1.0421 -1.4610
 5989SOL    HW229604   3.477   1.089  13.651 -2.0179  3.0787 -1.2518
 5990SOL     OW29605   2.227   1.063  10.154  0.1759  0.1220  0.0882
 5990SOL    HW129606   2.267   1.136  10.201 -1.2569  0.1506  1.2654
 5990SOL    HW229607   2.203   1.009  10.229 -1.0373  0.9836  0.3199
 5991SOL     OW29608   3.087   0.056   5.437 -0.4324 -0.2227 -0.6333
 5991SOL    HW129609   3.091   0.043   5.531 -1.7662  2.1012 -0.2419
 5991SOL    HW229610   3.129   0.142   5.435  0.7387 -0.7801  0.3781
 5992SOL     OW29611   2.020   3.119  10.301 -0.2347  0.4108  0.6237
 5992SOL    HW129612   1.946   3.164  10.261  2.1493  1.6617 -2.3135
 5992SOL    HW229613   2.057   3.188  10.356  1.4852 -0.0356  0.0102
 5993SOL     OW29614   3.085   3.747   3.530 -1.0580  0.6066  0.3231
 5993SOL    HW129615   3.112   3.811   3.596  1.5075  0.6911 -0.8205
 5993SOL    HW229616   3.165   3.694   3.535 -1.7728 -0.5481 -0.4761
 5994SOL     OW29617   3.656   4.213   1.825 -0.0012  0.1200  0.0694
 5994SOL    HW129618   3.563   4.237   1.819 -0.0786 -0.4817 -0.9857
 5994SOL    HW229619   3.653   4.131   1.874 -1.4400  2.0988  3.3845
 5995SOL     OW29620   3.159   0.173   1.819  1.0621 -0.2481 -0.0188
 5995SOL    HW129621   3.240   0.145   1.860 -0.1219 -0.7493  1.9806
 5995SOL    HW229622   3.123   0.085   1.810 -0.6461  0.4756 -0.1995
 5996SOL     OW29623   4.388   4.161  14.301  0.0768  0.2271 -0.9024
 5996SOL    HW129624   4.375   4.098  14.372 -0.3839  1.5598  0.1709
 5996SOL    HW229625   4.312   4.156  14.243  0.1807  1.8755 -1.1794
 5997SOL     OW29626   4.571   0.332   4.610  0.2239  0.2755  0.2532
 5997SOL    HW129627   4.542   0.242   4.594  1.7408  0.0670 -1.2714
 5997SOL    HW229628   4.664   0.320   4.590  0.2886  1.4840 -0.1767
 5998SOL     OW29629   3.580   0.731   7.152  0.3927 -0.5144 -0.0584
 5998SOL    HW129630   3.496   0.687   7.142 -0.0629  0.3727 -0.1375
 5998SOL    HW229631   3.558   0.822   7.131  0.0194 -0.3758  0.9654
 5999SOL     OW29632   3.667   3.855   6.787 -0.7364 -0.3545  0.3427
 5999SOL    HW129633   3.614   3.875   6.864 -0.0437  1.3197  0.3956
 5999SOL    HW229634   3.741   3.822   6.838 -1.6457 -1.5903  0.8588
 6000SOL     OW29635   1.543   2.326   8.999  0.1952  0.7180 -0.0779
 6000SOL    HW129636   1.530   2.318   8.905  0.5970  1.9545 -0.2395
 6000SOL    HW229637   1.455   2.356   9.024  0.1671 -1.0009  1.8966
 6001SOL     OW29638   1.119   2.128   2.779  0.9995 -0.6566  0.1277
 6001SOL    HW129639   1.172   2.207   2.789 -0.7040  0.7165 -1.7338
 6001SOL    HW229640   1.160   2.060   2.832 -0.6936  0.0359  2.3656
 6002SOL     OW29641   3.916   3.443   8.222  0.1696  0.6226 -0.0745
 6002SOL    HW129642   3.953   3.374   8.277 -0.1565  1.3205  1.0295
 6002SOL    HW229643   3.991   3.500   8.201  1.5736 -1.0268  0.4660
 6003SOL     OW29644   0.093   3.429   5.115 -0.4594 -0.3326 -0.0403
 6003SOL    HW129645   0.114   3.506   5.168 -2.5745 -0.3381  0.7846
 6003SOL    HW229646   0.015   3.394   5.159 -0.0208 -1.0242  0.1916
 6004SOL     OW29647   1.757   2.986  17.501  0.5844  0.3556  0.1871
 6004SOL    HW129648   1.685   3.016  17.557  0.0536 -0.9311  0.1851
 6004SOL    HW229649   1.792   2.909  17.546 -1.2478  0.9091  2.5635
 6005SOL     OW29650   0.121   3.501   3.751 -0.2721  0.2984  0.5470
 6005SOL    HW129651   0.159   3.415   3.733 -1.3264  0.0026 -0.2657
 6005SOL    HW229652   0.161   3.506   3.838  2.6514 -2.3114 -0.6167
 6006SOL     OW29653   4.730   1.172   4.583 -0.0864  0.1211 -0.1546
 6006SOL    HW129654   4.702   1.083   4.564  2.7829 -0.5089 -1.3977
 6006SOL    HW229655   0.067   1.174   4.526 -0.7829  0.3894 -1.0834
 6007SOL     OW29656   3.667   2.345  12.438  0.2051  0.0812  0.3689
 6007SOL    HW129657   3.631   2.276  12.493 -1.4364  0.4159 -0.2880
 6007SOL    HW229658   3.722   2.288  12.385 -0.6981 -2.1989  1.8734
 6008SOL     OW29659   2.636   0.300   4.825  0.2963  0.3043  0.3033
 6008SOL    HW129660   2.604   0.307   4.915 -0.8407 -2.1839  0.1141
 6008SOL    HW229661   2.698   0.230   4.846 -1.9588 -1.5708  0.7713
 6009SOL     OW29662   4.199   0.957   7.640 -0.4859  0.0959  0.3780
 6009SOL    HW129663   4.147   0.878   7.627  0.4067 -0.2297 -1.2175
 6009SOL    HW229664   4.189   0.966   7.735 -1.0222  0.4422  0.2872
 6010SOL     OW29665   1.026   1.347   4.820  0.1363 -0.2285 -0.0341
 6010SOL    HW129666   1.093   1.290   4.856 -0.3393  0.2626  1.6017
 6010SOL    HW229667   1.062   1.395   4.745 -0.5089 -0.4042 -0.4603
 6011SOL     OW29668   3.763   2.914   5.217 -0.0540  0.1438 -0.9846
 6011SOL    HW129669   3.839   2.892   5.163 -1.0192 -1.5721 -1.6335
 6011SOL    HW229670   3.767   3.010   5.221  0.4837  0.0095  2.1192
 6012SOL     OW29671   4.457   0.329   8.229  0.2330  0.4392 -0.1273
 6012SOL    HW129672   4.466   0.393   8.299  1.8055 -0.7369  0.7397
 6012SOL    HW229673   4.493   0.375   8.153 -2.7048  0.5849 -1.4214
 6013SOL     OW29674   4.586   3.436   4.241 -0.0834 -0.5506 -0.0190
 6013SOL    HW129675   4.523   3.487   4.292 -0.8706  0.4759 -2.0296
 6013SOL    HW229676   4.603   3.496   4.169 -2.3377 -1.1843 -1.0776
 6014SOL     OW29677   1.532   2.360  16.978 -0.4238 -0.4659 -0.1942
 6014SOL    HW129678   1.520   2.403  16.894 -2.6779 -0.9361 -0.1149
 6014SOL    HW229679   1.494   2.418  17.043  0.3209  0.5158 -0.6470
 6015SOL     OW29680   2.433   2.754   5.898 -0.6899 -0.3843 -0.1376
 6015SOL    HW129681   2.387   2.771   5.816 -1.2571  0.3205  0.3292
 6015SOL    HW229682   2.367   2.720   5.958 -1.4749  0.8215 -0.3185
 6016SOL     OW29683   4.529   2.980   5.010  0.0133 -0.0287  0.2870
 6016SOL    HW129684   4.590   2.991   5.083  1.2086 -3.1433 -0.2317
 6016SOL    HW229685   4.526   3.068   4.973 -0.7411 -0.0808  0.2396
 6017SOL     OW29686   3.079   2.977   6.052 -0.3059  0.4887  0.1219
 6017SOL    HW129687   2.983   2.984   6.058 -0.5053 -0.9894 -1.2610
 6017SOL    HW229688   3.098   2.892   6.092 -0.3146  0.4995  0.1492
 6018SOL     OW29689   3.905   0.605   8.080  0.0568  0.7069 -0.6183
 6018SOL    HW129690   3.850   0.623   8.004 -1.7360  1.0364  0.7803
 6018SOL    HW229691   3.944   0.692   8.089  3.3084 -0.7721 -0.3973
 6019SOL     OW29692   1.809   3.265   9.139  0.1404  0.2794  0.0053
 6019SOL    HW129693   1.838   3.215   9.063  3.3148  0.3029  1.2166
 6019SOL    HW229694   1.721   3.230   9.153  1.0000 -2.0740 -0.5480
 6020SOL     OW29695   2.416   1.627   2.177 -0.9114  0.3938 -0.3139
 6020SOL    HW129696   2.509   1.642   2.160 -0.6551 -1.9856 -1.0055
 6020SOL    HW229697   2.380   1.715   2.181 -2.0003 -0.0895  0.4232
 6021SOL     OW29698   2.203   1.737   7.295  0.6380  0.7499  0.1581
 6021SOL    HW129699   2.110   1.716   7.305  0.1190  2.1530 -1.6694
 6021SOL    HW229700   2.224   1.771   7.382  0.5710  3.4996 -0.8750
 6022SOL     OW29701   4.187   0.147   7.948 -0.3292 -0.1502 -0.1206
 6022SOL    HW129702   4.224   0.214   7.891 -0.9956 -0.1931 -0.6043
 6022SOL    HW229703   4.158   0.086   7.880  0.5317 -0.5645 -0.1165
 6023SOL     OW29704   0.258   4.031  14.453 -0.1299  0.4707 -0.3898
 6023SOL    HW129705   0.198   4.006  14.523 -0.4175 -0.7116 -1.0679
 6023SOL    HW229706   0.204   4.095  14.406  0.3304  2.6414  2.0644
 6024SOL     OW29707   0.296   1.100   8.993  0.2428  0.4509 -0.4094
 6024SOL    HW129708   0.318   1.007   8.992  0.0738  0.4013  0.3011
 6024SOL    HW229709   0.348   1.125   9.070 -1.3479  0.1247  0.7628
 6025SOL     OW29710   2.095   3.460   4.616  0.3309 -0.1388 -0.2744
 6025SOL    HW129711   2.068   3.437   4.526 -1.0171  0.7545 -0.0986
 6025SOL    HW229712   2.101   3.375   4.659  0.0829  0.5489  1.1089
 6026SOL     OW29713   0.426   1.278   7.647 -0.2755 -0.0666 -0.0381
 6026SOL    HW129714   0.394   1.191   7.671 -3.0587  1.9454  3.6706
 6026SOL    HW229715   0.518   1.254   7.640  0.2105  2.4087 -2.2177
 6027SOL     OW29716   2.303   3.791   1.304  0.7357 -0.0082  0.5966
 6027SOL    HW129717   2.372   3.727   1.320  0.5398 -1.1308 -2.9527
 6027SOL    HW229718   2.239   3.757   1.366  0.5545 -0.5343  0.1251
 6028SOL     OW29719   4.098   3.770  16.209 -0.7807 -0.2103 -0.5954
 6028SOL    HW129720   4.132   3.686  16.242  2.2003  0.4845 -1.9107
 6028SOL    HW229721   4.131   3.776  16.119 -0.1881  2.9029 -0.1427
 6029SOL     OW29722   0.105   3.838  12.617 -0.9252 -0.1248 -0.2089
 6029SOL    HW129723   0.010   3.836  12.615 -1.0570  1.0116  3.2273
 6029SOL    HW229724   0.124   3.746  12.635 -0.7797  0.0629  0.6205
 6030SOL     OW29725   4.457   0.413  15.549  0.5770 -0.1596  0.1642
 6030SOL    HW129726   4.451   0.321  15.575 -0.9729 -1.0462 -3.3639
 6030SOL    HW229727   4.379   0.419  15.493  1.7006 -0.3349 -1.4181
 6031SOL     OW29728   1.334   1.744   1.948 -0.1177  0.0940 -0.1009
 6031SOL    HW129729   1.404   1.801   1.914 -1.2916  1.5957 -0.0154
 6031SOL    HW229730   1.318   1.802   2.022  1.1717  0.4509 -0.1084
 6032SOL     OW29731   2.355   4.098   0.787 -0.3536 -0.0461  0.1093
 6032SOL    HW129732   2.360   4.188   0.755 -0.0377  0.0485  0.4316
 6032SOL    HW229733   2.431   4.061   0.742 -2.1363 -2.4193 -0.9736
 6033SOL     OW29734   1.932   0.682   8.838 -0.0303  0.1367  0.4211
 6033SOL    HW129735   2.019   0.645   8.851 -0.7990 -1.4228  1.1483
 6033SOL    HW229736   1.888   0.608   8.795  1.1434  0.1755 -0.8489
 6034SOL     OW29737   2.378   2.672   5.232  0.3459 -0.0519  0.1145
 6034SOL    HW129738   2.451   2.672   5.295 -0.8271 -0.0751  1.4876
 6034SOL    HW229739   2.418   2.718   5.159 -2.4064 -1.4413 -2.2733
 6035SOL     OW29740   4.331   3.464   6.855  0.0987 -0.0312 -0.1975
 6035SOL    HW129741   4.263   3.448   6.789  0.3473  0.2502 -0.5233
 6035SOL    HW229742   4.316   3.551   6.892 -0.2375 -0.4009  0.5273
 6036SOL     OW29743   3.657   1.931   4.773 -0.6479  0.0815 -0.1236
 6036SOL    HW129744   3.746   1.936   4.808 -0.8882  0.3691  0.4438
 6036SOL    HW229745   3.609   1.879   4.838  1.0386 -2.7242 -1.1374
 6037SOL     OW29746   2.017   3.916   5.881  0.0003 -0.2420 -0.1623
 6037SOL    HW129747   2.049   3.860   5.811 -0.5851 -2.1441  1.1050
 6037SOL    HW229748   1.951   3.861   5.924 -1.1419  0.0234 -1.5656
 6038SOL     OW29749   1.848   4.502  15.179 -0.4983 -0.0590  0.0448
 6038SOL    HW129750   1.884   4.576  15.228 -0.9278 -0.8507  1.5524
 6038SOL    HW229751   1.935   4.470  15.153 -0.8016 -1.2003  0.4474
 6039SOL     OW29752   1.289   2.179  16.953 -0.0490  0.3838  0.4531
 6039SOL    HW129753   1.374   2.222  16.949 -0.8593  1.8207 -1.0260
 6039SOL    HW229754   1.283   2.144  16.864  2.3608  3.2401 -0.8114
 6040SOL     OW29755   0.346   3.575  15.354 -0.1613 -0.2828  0.2605
 6040SOL    HW129756   0.301   3.659  15.365 -0.1544  0.0517 -2.3826
 6040SOL    HW229757   0.279   3.519  15.313 -2.0597  2.4474 -0.3690
 6041SOL     OW29758   1.705   2.579   9.634  0.0855  0.1166 -0.6461
 6041SOL    HW129759   1.687   2.496   9.679 -0.0531  0.5474  0.1034
 6041SOL    HW229760   1.745   2.633   9.703 -1.2042  3.5430 -2.5849
 6042SOL     OW29761   2.475   1.090   6.064  0.2447 -0.5691  0.0818
 6042SOL    HW129762   2.448   1.150   5.994  0.7517  0.8629  1.1093
 6042SOL    HW229763   2.434   1.012   6.027  0.6466 -0.3140 -0.9026
 6043SOL     OW29764   1.022   4.549  17.570  0.3042  0.7178  0.4503
 6043SOL    HW129765   0.966   4.501  17.630  0.1929  2.2636  1.5862
 6043SOL    HW229766   1.095   4.488  17.560 -0.6760 -0.2942 -0.5627
 6044SOL     OW29767   3.446   2.300   5.054  0.3081  0.0950 -0.2723
 6044SOL    HW129768   3.477   2.271   5.140  0.0949  0.8900  0.0690
 6044SOL    HW229769   3.522   2.351   5.024  0.2501 -0.8244 -1.9817
 6045SOL     OW29770   0.204   0.823   6.241  0.1638 -0.1320  0.0612
 6045SOL    HW129771   0.192   0.904   6.290  0.5046  1.0618 -1.8415
 6045SOL    HW229772   0.188   0.854   6.152 -1.8688 -0.7470  0.2094
 6046SOL     OW29773   3.221   1.880   7.572  0.5195  0.0476 -0.1033
 6046SOL    HW129774   3.311   1.909   7.554  0.2088  1.4017  0.5444
 6046SOL    HW229775   3.234   1.796   7.616  1.8597  0.2386 -0.1259
 6047SOL     OW29776   1.769   2.958  16.984  0.2194 -0.3155 -0.1265
 6047SOL    HW129777   1.837   2.930  17.045  1.1894  0.8944 -0.6557
 6047SOL    HW229778   1.742   3.040  17.026 -0.3336 -0.8473  0.5612
 6048SOL     OW29779   0.079   3.320   8.896 -0.0281  0.1555  0.5026
 6048SOL    HW129780   0.094   3.413   8.878 -3.1563  0.4567 -0.4673
 6048SOL    HW229781   0.166   3.290   8.923  0.6194  0.3821 -1.2774
 6049SOL     OW29782   1.581   4.663  12.339 -0.0715  0.5554 -0.2015
 6049SOL    HW129783   1.670   4.694  12.326  0.3599  0.0044  1.4248
 6049SOL    HW229784   1.594   4.602  12.412  0.4507 -1.1622 -1.7210
 6050SOL     OW29785   4.256   0.882   2.218  0.3056 -0.2123 -0.1798
 6050SOL    HW129786   4.224   0.797   2.250 -1.4772  0.3383 -0.5373
 6050SOL    HW229787   4.349   0.882   2.240 -0.3726 -1.9656  2.7138
 6051SOL     OW29788   4.554   2.816   9.216 -0.3591  0.0052 -0.2091
 6051SOL    HW129789   4.647   2.793   9.223 -0.2165  0.8741  0.7420
 6051SOL    HW229790   4.559   2.885   9.282 -1.8588  0.0530 -0.1623
 6052SOL     OW29791   0.224   1.083   3.275  0.4877 -0.1473 -0.3279
 6052SOL    HW129792   0.197   1.101   3.185 -0.0254 -0.1793 -0.1843
 6052SOL    HW229793   0.254   0.994   3.253 -2.2053 -0.8528 -1.1629
 6053SOL     OW29794   0.777   0.773   2.545 -0.4494  0.0444 -0.2323
 6053SOL    HW129795   0.714   0.726   2.600  0.0223  0.8818  1.0035
 6053SOL    HW229796   0.743   0.859   2.520 -2.5188 -0.7614 -0.1906
 6054SOL     OW29797   2.398   1.731   3.327 -0.1818 -0.2368 -0.1154
 6054SOL    HW129798   2.371   1.643   3.301 -0.4449 -0.1821 -0.0327
 6054SOL    HW229799   2.321   1.783   3.303 -1.0095 -0.9462  0.9924
 6055SOL     OW29800   2.732   4.171   8.798 -0.1474  0.8286 -0.1031
 6055SOL    HW129801   2.744   4.265   8.782  0.7040  1.2505  2.9348
 6055SOL    HW229802   2.647   4.155   8.758  0.5489 -0.6811 -0.9686
 6056SOL     OW29803   1.467   1.408   2.742  0.8707 -0.1857 -0.0095
 6056SOL    HW129804   1.489   1.411   2.835  0.5543  0.4668  0.0485
 6056SOL    HW229805   1.372   1.417   2.751  0.7593 -0.4582 -0.9370
 6057SOL     OW29806   1.529   4.686   2.504 -0.4617 -0.0506 -0.4745
 6057SOL    HW129807   1.610   4.737   2.511 -0.0104 -0.7769 -0.3614
 6057SOL    HW229808   1.569   4.600   2.490  0.3245  0.0161  1.3522
 6058SOL     OW29809   1.219   4.463   2.840  0.5104 -0.2084 -0.3577
 6058SOL    HW129810   1.220   4.426   2.928 -0.5568 -1.1769 -0.7456
 6058SOL    HW229811   1.272   4.542   2.837 -2.3273  1.6273 -2.7793
 6059SOL     OW29812   1.403   3.360   1.429  0.1041  0.1159 -0.2788
 6059SOL    HW129813   1.426   3.449   1.458  0.0201  0.4380 -1.1964
 6059SOL    HW229814   1.343   3.337   1.500 -0.0737  1.6326  0.0816
 6060SOL     OW29815   2.234   2.621   7.470  0.0675 -0.4984 -0.1942
 6060SOL    HW129816   2.301   2.556   7.450  1.1064  0.8991 -1.2231
 6060SOL    HW229817   2.263   2.641   7.559  2.1854 -3.2081 -0.2834
 6061SOL     OW29818   1.784   4.610   2.650  0.0764 -0.0365 -0.2667
 6061SOL    HW129819   1.842   4.590   2.723 -0.6779 -0.6285  0.1639
 6061SOL    HW229820   1.817   4.697   2.624  2.9325 -1.0581 -0.0615
 6062SOL     OW29821   1.081   1.819   5.511  0.1264 -0.2525 -0.4169
 6062SOL    HW129822   1.105   1.728   5.491 -0.1793 -0.4585  0.1668
 6062SOL    HW229823   1.159   1.865   5.542  0.7556 -1.5809 -0.0310
 6063SOL     OW29824   3.864   2.009   8.865 -0.5990 -0.4642  0.0843
 6063SOL    HW129825   3.870   2.045   8.954 -2.4556  0.8479 -0.3368
 6063SOL    HW229826   3.849   2.086   8.811  2.3912 -0.0575 -0.1680
 6064SOL     OW29827   1.781   2.169   9.580 -0.5007 -0.6514 -0.0022
 6064SOL    HW129828   1.784   2.080   9.616  1.0537  0.0685  1.6595
 6064SOL    HW229829   1.737   2.216   9.651 -0.1117  0.7141 -0.6598
 6065SOL     OW29830   0.198   1.409   8.574 -0.3062  0.3419  0.4519
 6065SOL    HW129831   0.219   1.413   8.481  0.0770 -1.0810  0.4768
 6065SOL    HW229832   0.113   1.367   8.569  0.5746 -0.9359 -3.2140
 6066SOL     OW29833   3.679   0.019   1.491 -0.3081 -0.3180  0.5313
 6066SOL    HW129834   3.611   0.008   1.557  0.6898  3.1645  2.1599
 6066SOL    HW229835   3.648   0.097   1.444  0.8485 -0.6329 -0.7501
 6067SOL     OW29836   3.642   1.044  11.151  0.0944  0.4989  0.5457
 6067SOL    HW129837   3.705   0.978  11.180 -0.2864 -1.2832 -2.6165
 6067SOL    HW229838   3.697   1.095  11.091  0.2049  0.6714  0.7949
 6068SOL     OW29839   0.070   2.304  13.701 -0.0234  0.0309 -0.0218
 6068SOL    HW129840   0.113   2.312  13.786  0.2522  2.1061 -0.3605
 6068SOL    HW229841   4.718   2.321  13.719 -0.0559  0.4603 -0.5710
 6069SOL     OW29842   0.166   0.310   1.503 -0.1736  0.0425 -0.3625
 6069SOL    HW129843   0.231   0.348   1.563  0.1624 -1.3441  0.1390
 6069SOL    HW229844   0.212   0.269   1.430  0.2915 -2.6037  1.4152
 6070SOL     OW29845   3.470   3.717   5.828 -0.3310 -0.0223 -0.2284
 6070SOL    HW129846   3.547   3.695   5.775  0.5843  0.6368  0.8014
 6070SOL    HW229847   3.498   3.692   5.917 -2.8352  1.1664  0.8837
 6071SOL     OW29848   0.594   2.333   9.077  0.1221  0.1676  0.2570
 6071SOL    HW129849   0.664   2.331   9.143 -1.3467  0.2358  1.8063
 6071SOL    HW229850   0.537   2.261   9.104 -0.8810  0.9036  0.0540
 6072SOL     OW29851   4.721   1.486   2.573  0.3438  0.5645 -0.4078
 6072SOL    HW129852   0.062   1.446   2.604 -0.0813  2.4022  3.0795
 6072SOL    HW229853   0.013   1.566   2.531 -1.5508  1.0876 -0.8524
 6073SOL     OW29854   0.124   0.597   8.202 -0.4319  0.1468  0.4740
 6073SOL    HW129855   0.143   0.503   8.196 -1.4802  0.1152 -2.3131
 6073SOL    HW229856   0.160   0.619   8.288  1.9053  2.4228 -1.1009
 6074SOL     OW29857   4.674   3.097   5.734 -0.0724 -0.2340 -0.4755
 6074SOL    HW129858   4.618   3.054   5.798 -1.3445  3.1177  0.5929
 6074SOL    HW229859   4.610   3.091   5.663  0.9686  0.3322 -1.4744
 6075SOL     OW29860   4.204   2.114   8.918 -0.0797 -0.3214  0.3558
 6075SOL    HW129861   4.123   2.091   8.964  0.1086 -2.7374 -0.5216
 6075SOL    HW229862   4.263   2.044   8.945  2.1365  2.3332  2.4198
 6076SOL     OW29863   1.958   1.303  15.509 -0.5651 -0.0853 -0.3507
 6076SOL    HW129864   1.874   1.263  15.488 -0.9204 -1.0775  2.8727
 6076SOL    HW229865   2.012   1.224  15.506  1.3705  1.0805  3.5978
 6077SOL     OW29866   3.474   2.131   8.398  0.2924  0.2165  0.2591
 6077SOL    HW129867   3.490   2.152   8.490  0.6097 -1.7634  0.6527
 6077SOL    HW229868   3.520   2.203   8.355 -1.1290  0.5118 -0.7360
 6078SOL     OW29869   1.976   2.516   9.294 -0.5987 -0.1464 -0.2103
 6078SOL    HW129870   2.063   2.509   9.253 -0.5692  0.2938 -0.2214
 6078SOL    HW229871   1.953   2.425   9.313  0.3535 -0.5435 -0.9717
 6079SOL     OW29872   2.514   0.514   8.081 -0.4747 -0.5817  0.3200
 6079SOL    HW129873   2.502   0.591   8.137  1.5602 -0.5275  0.6997
 6079SOL    HW229874   2.437   0.512   8.025  0.2041  0.7662 -0.6721
 6080SOL     OW29875   1.648   2.382   8.333  0.3238 -0.2146 -0.0097
 6080SOL    HW129876   1.715   2.336   8.282 -0.5644 -0.6115 -0.8296
 6080SOL    HW229877   1.656   2.471   8.301 -2.1049 -0.0610 -0.1782
 6081SOL     OW29878   2.490   2.790   6.931  0.1699 -0.8304  0.4248
 6081SOL    HW129879   2.456   2.704   6.906 -0.9165  0.2660 -1.8557
 6081SOL    HW229880   2.485   2.785   7.027  0.4358  2.4149  0.5970
 6082SOL     OW29881   3.064   2.683   3.869 -0.2916 -0.3420 -0.0505
 6082SOL    HW129882   3.079   2.762   3.818 -0.5528 -1.0047 -1.1604
 6082SOL    HW229883   2.975   2.658   3.843  0.5498 -1.5682 -1.7689
 6083SOL     OW29884   4.022   0.567  17.191  0.5978 -0.0921 -0.3656
 6083SOL    HW129885   4.097   0.513  17.216 -0.2007 -0.4588  1.2808
 6083SOL    HW229886   4.051   0.647  17.234 -1.3849 -0.0491  0.8872
 6084SOL     OW29887   3.796   4.484   5.860 -0.3553  0.3835 -0.2163
 6084SOL    HW129888   3.747   4.402   5.870 -1.3302  0.8877 -0.9143
 6084SOL    HW229889   3.879   4.444   5.832 -1.3989 -1.8087 -0.1658
 6085SOL     OW29890   3.053   1.199   7.394 -0.3339  0.4803 -0.4170
 6085SOL    HW129891   3.090   1.237   7.315 -2.2306 -1.3846 -2.1831
 6085SOL    HW229892   3.057   1.106   7.373  0.0983  0.1850  0.9811
 6086SOL     OW29893   3.545   0.986   7.113  0.0360 -0.0624 -0.3359
 6086SOL    HW129894   3.475   1.039   7.152  0.6237  0.5666 -0.1299
 6086SOL    HW229895   3.590   1.049   7.056 -0.7440  0.4480 -0.3777
 6087SOL     OW29896   2.122   2.750   5.148  0.1302  0.6479  0.1021
 6087SOL    HW129897   2.050   2.700   5.111 -0.7988  0.2693  2.3935
 6087SOL    HW229898   2.187   2.683   5.171 -1.2992 -0.6177  0.4112
 6088SOL     OW29899   0.525   1.974  14.784  0.2868 -0.0366  0.4563
 6088SOL    HW129900   0.493   2.057  14.748  0.4449 -0.4497 -0.6235
 6088SOL    HW229901   0.565   1.932  14.708 -0.1614 -1.1512  0.8339
 6089SOL     OW29902   0.731   1.217   3.239  0.0330  0.1449  0.3655
 6089SOL    HW129903   0.700   1.294   3.287 -1.3911 -0.6412  0.7144
 6089SOL    HW229904   0.796   1.258   3.183 -0.8251 -0.8313 -1.3510
 6090SOL     OW29905   3.482   1.433   7.245  0.3428  0.1463 -0.0796
 6090SOL    HW129906   3.422   1.476   7.185 -0.2912 -0.3744  0.1881
 6090SOL    HW229907   3.559   1.420   7.189  0.0733 -0.8791 -0.2153
 6091SOL     OW29908   4.624   3.977   2.126 -0.1437  0.2405 -0.2764
 6091SOL    HW129909   4.560   3.975   2.055 -1.4400 -0.3802  0.9073
 6091SOL    HW229910   4.702   3.999   2.075 -0.7772  0.3600 -1.2010
 6092SOL     OW29911   1.386   4.158   1.877 -0.3592 -0.1028 -0.1920
 6092SOL    HW129912   1.462   4.160   1.819 -0.0814 -1.3934  0.1279
 6092SOL    HW229913   1.422   4.227   1.933  1.0911  0.9368 -2.4000
 6093SOL     OW29914   1.741   2.909   7.527  0.3661  0.3276 -0.0107
 6093SOL    HW129915   1.779   2.891   7.441  0.9594  1.0642  0.0907
 6093SOL    HW229916   1.809   2.961   7.569 -0.1154  0.6811  0.3353
 6094SOL     OW29917   3.363   0.957   9.019 -0.2265  0.1073 -0.0686
 6094SOL    HW129918   3.278   0.990   8.989 -1.3397  0.5384  3.5852
 6094SOL    HW229919   3.360   0.993   9.107  2.0781  1.1705 -0.4038
 6095SOL     OW29920   0.709   3.998   3.255 -0.3376 -0.6110  0.9960
 6095SOL    HW129921   0.626   3.956   3.275 -2.2795  1.5757 -2.5578
 6095SOL    HW229922   0.720   4.056   3.331  2.5417 -0.4725  0.4723
 6096SOL     OW29923   2.609   4.333  12.455 -0.0087 -0.0716  0.0641
 6096SOL    HW129924   2.650   4.364  12.374  0.5642 -2.0025 -0.4023
 6096SOL    HW229925   2.635   4.241  12.461 -0.9889 -0.1678  2.5934
 6097SOL     OW29926   2.638   1.723   1.171 -0.1040 -0.5526 -0.1277
 6097SOL    HW129927   2.586   1.654   1.131 -0.0014 -0.5753 -0.2202
 6097SOL    HW229928   2.701   1.671   1.221 -0.6364 -1.0171  0.0542
 6098SOL     OW29929   2.346   0.339   2.217 -0.1315  0.5795  0.3194
 6098SOL    HW129930   2.353   0.433   2.201 -1.5047  0.6396  0.0381
 6098SOL    HW229931   2.259   0.330   2.256  0.5146 -1.3025  1.3285
 6099SOL     OW29932   4.677   2.802   8.469 -0.4149  0.2907 -0.3392
 6099SOL    HW129933   4.693   2.892   8.441 -0.2647  0.9802  1.9430
 6099SOL    HW229934   0.022   2.763   8.486 -0.6892  0.2076  0.8354
 6100SOL     OW29935   4.191   1.300   9.899  0.5906 -0.4711  0.8679
 6100SOL    HW129936   4.101   1.268   9.910 -0.1273  1.1932 -0.1620
 6100SOL    HW229937   4.216   1.303   9.991  1.4987 -1.2781  0.6483
 6101SOL     OW29938   0.215   1.018   6.014  0.7721  0.2533  0.2460
 6101SOL    HW129939   0.241   1.098   5.968  0.2982  0.5509  0.4968
 6101SOL    HW229940   0.127   0.995   5.985  0.3804  2.0804  0.0073
 6102SOL     OW29941   3.832   0.964   8.343  0.1358  0.6924 -0.0910
 6102SOL    HW129942   3.788   0.885   8.373  0.9741 -0.6860 -2.4361
 6102SOL    HW229943   3.835   0.960   8.247  1.8803  0.7941 -0.0520
 6103SOL     OW29944   3.889   4.223  10.159 -0.1304  0.1986 -0.2932
 6103SOL    HW129945   3.949   4.209  10.232 -4.3559  1.4408  3.4756
 6103SOL    HW229946   3.803   4.238  10.199 -0.1955  0.5153 -0.5560
 6104SOL     OW29947   3.488   2.136   8.986  0.8819  0.2949  0.0612
 6104SOL    HW129948   3.495   2.069   9.053 -0.3797  0.3311  0.2316
 6104SOL    HW229949   3.403   2.180   8.998  0.9035  0.6448 -1.0006
 6105SOL     OW29950   2.971   1.056   5.614  0.6529  0.4098  0.3275
 6105SOL    HW129951   3.038   1.108   5.658 -1.0918  0.5235  2.8426
 6105SOL    HW229952   2.943   0.997   5.684  0.0459  1.6459  1.1264
 6106SOL     OW29953   0.247   0.846  10.456  0.4531  0.1458  0.2818
 6106SOL    HW129954   0.182   0.862  10.387  0.5022 -0.6696  0.0499
 6106SOL    HW229955   0.302   0.778  10.417 -0.7706 -0.9605  0.4992
 6107SOL     OW29956   1.970   1.687   9.747  0.2532 -0.1095 -0.1582
 6107SOL    HW129957   1.916   1.618   9.787 -0.8276 -0.3871 -2.1070
 6107SOL    HW229958   1.967   1.663   9.655 -0.4617 -4.6408  1.0548
 6108SOL     OW29959   2.455   2.536   3.162 -0.0387  0.0886  0.1527
 6108SOL    HW129960   2.490   2.615   3.204 -0.8195  1.4759 -1.7909
 6108SOL    HW229961   2.426   2.481   3.234 -0.4753 -0.7161 -0.6314
 6109SOL     OW29962   0.481   3.168   7.945  0.2842 -0.0460  0.4116
 6109SOL    HW129963   0.460   3.124   7.863 -2.2003  0.5717  0.7133
 6109SOL    HW229964   0.389   3.178   7.968  0.4404 -0.4651  1.2372
 6110SOL     OW29965   3.557   4.123   6.330  1.0170  0.0615  0.2548
 6110SOL    HW129966   3.551   4.212   6.365 -1.1992  0.5756 -1.4014
 6110SOL    HW229967   3.589   4.076   6.407  2.0660 -0.7821 -0.6818
 6111SOL     OW29968   2.486   2.346   5.415 -0.1105 -0.2400 -0.5927
 6111SOL    HW129969   2.546   2.273   5.432  2.1288  1.5722 -0.7894
 6111SOL    HW229970   2.431   2.339   5.337 -1.4455 -0.7450  0.3882
 6112SOL     OW29971   4.377   3.944   0.165  0.1359 -0.1342  0.0072
 6112SOL    HW129972   4.380   3.985   0.078 -0.0990  0.2514  0.1847
 6112SOL    HW229973   4.413   4.015   0.217 -0.1983 -0.2507  0.3921
 6113SOL     OW29974   2.936   4.085   4.002  0.0459 -0.2100 -0.8599
 6113SOL    HW129975   2.963   4.131   3.922  0.1659  1.4454  0.1367
 6113SOL    HW229976   2.969   3.996   3.996  0.0176 -0.2896  0.2127
 6114SOL     OW29977   0.401   2.546  15.947 -0.1106 -0.5199  0.0355
 6114SOL    HW129978   0.333   2.511  16.003 -0.2247  1.0301  0.8768
 6114SOL    HW229979   0.473   2.530  16.009  1.4357 -0.7227 -1.8201
 6115SOL     OW29980   4.160   1.967   4.156  0.3101 -0.1766  0.3349
 6115SOL    HW129981   4.188   2.008   4.238 -0.6453 -0.0168  0.5805
 6115SOL    HW229982   4.156   2.039   4.094  1.1129 -1.0304 -0.6907
 6116SOL     OW29983   1.253   4.633  12.727 -0.4426  1.0337 -0.5565
 6116SOL    HW129984   1.176   4.575  12.721  1.2733 -1.1917 -1.1582
 6116SOL    HW229985   1.320   4.565  12.737 -0.7841  0.7515 -0.1662
 6117SOL     OW29986   3.247   4.344   4.493 -0.6552  0.1588  0.1858
 6117SOL    HW129987   3.201   4.290   4.429 -1.8016  0.1520  1.0073
 6117SOL    HW229988   3.203   4.428   4.505 -1.0385  0.1170 -1.0013
 6118SOL     OW29989   2.244   2.813   9.265  0.2170  0.2877  0.3081
 6118SOL    HW129990   2.279   2.753   9.331  0.0403 -0.1254  0.0261
 6118SOL    HW229991   2.152   2.822   9.289  0.4842 -1.1299  1.8931
 6119SOL     OW29992   0.300   4.214   8.921  0.5177  0.0930  0.2138
 6119SOL    HW129993   0.275   4.264   8.999 -1.3262 -0.4012 -0.0674
 6119SOL    HW229994   0.240   4.260   8.862 -0.0330 -1.6586 -0.5885
 6120SOL     OW29995   3.243   3.665  11.721  0.1021 -0.1908 -0.0842
 6120SOL    HW129996   3.165   3.610  11.720 -0.4772  0.6396 -0.5476
 6120SOL    HW229997   3.315   3.605  11.740 -0.2358 -0.3734  0.6339
 6121SOL     OW29998   2.153   2.287  10.889  0.2191  0.2756  0.4072
 6121SOL    HW129999   2.142   2.236  10.969  1.5518  0.9166  1.0190
 6121SOL    HW230000   2.202   2.236  10.824 -0.6068 -1.1325  0.8968
 6122SOL     OW30001   2.995   2.809   1.349  0.0887  0.3144  0.0886
 6122SOL    HW130002   3.044   2.763   1.281 -1.0651  2.3228 -2.0935
 6122SOL    HW230003   2.966   2.735   1.402 -0.5453  0.3023 -0.2734
 6123SOL     OW30004   1.478   1.572   6.472  0.2323 -0.3346  0.4148
 6123SOL    HW130005   1.384   1.574   6.491  0.3850  0.5478  1.0597
 6123SOL    HW230006   1.483   1.656   6.427  0.5310 -1.2828 -1.3338
 6124SOL     OW30007   2.200   1.041   9.873  0.3666  0.3309 -0.4138
 6124SOL    HW130008   2.196   1.050   9.968  0.8474  0.6969 -0.4260
 6124SOL    HW230009   2.213   1.134   9.854 -0.4088  0.2081 -1.5316
 6125SOL     OW30010   3.035   4.567   9.138  0.1937 -0.0106 -0.8445
 6125SOL    HW130011   3.072   4.479   9.134 -0.3032 -0.2329 -0.5829
 6125SOL    HW230012   2.961   4.544   9.194 -0.3353 -0.0014 -1.5386
 6126SOL     OW30013   4.453   3.149   6.211  0.2528 -0.3656  0.1694
 6126SOL    HW130014   4.424   3.196   6.289 -2.7027  2.7922 -2.8276
 6126SOL    HW230015   4.402   3.068   6.215 -0.8252  0.1331 -3.4566
 6127SOL     OW30016   3.494   0.676   6.786  0.4384 -0.4677  0.0501
 6127SOL    HW130017   3.424   0.741   6.778 -0.4033 -1.1076  2.2377
 6127SOL    HW230018   3.475   0.636   6.870  1.6887  0.3781  0.7495
 6128SOL     OW30019   3.833   3.207  17.162  0.1515  0.2406  0.8841
 6128SOL    HW130020   3.836   3.248  17.248  0.5484  0.1437  0.9195
 6128SOL    HW230021   3.800   3.278  17.107 -1.4453 -2.3476 -1.5085
 6129SOL     OW30022   0.820   4.387   3.647 -0.4279 -0.0824  0.0416
 6129SOL    HW130023   0.902   4.370   3.694 -0.0932 -0.9255 -0.8647
 6129SOL    HW230024   0.755   4.345   3.703 -1.2153  0.3595 -0.5535
 6130SOL     OW30025   0.287   3.170   7.447 -0.0611 -0.3180  0.1020
 6130SOL    HW130026   0.279   3.093   7.392  1.4698  0.2456 -0.9138
 6130SOL    HW230027   0.204   3.219   7.443 -1.2287 -2.3909 -0.6213
 6131SOL     OW30028   4.031   3.007   8.746 -0.4184  0.5050 -0.5618
 6131SOL    HW130029   4.021   2.998   8.651 -0.7031 -1.8047 -0.3017
 6131SOL    HW230030   3.942   3.036   8.767 -1.4459 -1.1566 -2.6068
 6132SOL     OW30031   4.067   3.953  10.841  0.6629  0.1421 -0.5860
 6132SOL    HW130032   3.983   3.908  10.853  0.5909  0.7139  1.0351
 6132SOL    HW230033   4.043   4.039  10.875 -1.1574 -0.7255  0.3270
 6133SOL     OW30034   4.354   4.680   5.843 -0.9910 -0.0050 -0.1794
 6133SOL    HW130035   4.324   4.694   5.933  1.5170 -1.1019  0.8083
 6133SOL    HW230036   4.269   4.667   5.800 -0.5430 -0.7939 -0.8286
 6134SOL     OW30037   2.009   0.737   8.470  0.3529  0.0796  0.1429
 6134SOL    HW130038   1.976   0.659   8.426 -0.1012 -0.3787  1.2828
 6134SOL    HW230039   2.059   0.695   8.541  0.9523  0.0917 -0.2656
 6135SOL     OW30040   0.515   1.265   6.186  0.0768  0.1108  0.2730
 6135SOL    HW130041   0.526   1.172   6.166  0.6886  0.7070 -2.2548
 6135SOL    HW230042   0.522   1.300   6.097  1.8773 -1.5680 -0.2336
 6136SOL     OW30043   3.086   1.062   8.916 -0.2577 -0.1738 -0.2244
 6136SOL    HW130044   3.012   1.101   8.964 -0.5203  1.9604 -2.3708
 6136SOL    HW230045   3.044   0.992   8.866  0.0303 -2.0094  2.1051
 6137SOL     OW30046   3.607   0.333   8.502  0.3258  0.3275  0.3654
 6137SOL    HW130047   3.670   0.304   8.567 -0.5678 -2.3069  0.0341
 6137SOL    HW230048   3.535   0.278   8.531 -3.1673  4.4510 -0.4004
 6138SOL     OW30049   4.732   2.478   3.620 -0.6944 -0.2834 -0.8566
 6138SOL    HW130050   0.068   2.444   3.667 -0.4389 -2.1953 -2.6462
 6138SOL    HW230051   0.041   2.528   3.554  0.3889  0.2589  0.3607
 6139SOL     OW30052   4.714   3.832   7.718  0.0184 -0.1765  0.0355
 6139SOL    HW130053   4.651   3.844   7.788  2.4717  2.6499  1.7050
 6139SOL    HW230054   4.660   3.812   7.641 -0.5216 -1.9280  0.8629
 6140SOL     OW30055   0.822   0.144   2.144 -0.5710  0.3136 -0.2759
 6140SOL    HW130056   0.880   0.220   2.151 -0.5007  0.0275  2.2099
 6140SOL    HW230057   0.838   0.115   2.054 -1.5444  1.4225 -0.8239
 6141SOL     OW30058   0.308   2.120  11.208  0.6774 -0.0645  0.0881
 6141SOL    HW130059   0.224   2.074  11.203  1.1965 -0.8428 -1.6686
 6141SOL    HW230060   0.323   2.136  11.301 -2.2068  0.0996  0.5108
 6142SOL     OW30061   2.020   1.134   2.265 -0.9903  0.1481 -0.6566
 6142SOL    HW130062   1.995   1.216   2.222 -2.3914  0.4594  0.7606
 6142SOL    HW230063   2.003   1.146   2.358  1.3404  1.3606 -0.3820
 6143SOL     OW30064   1.777   1.327   9.645  0.1375 -0.0537  0.4766
 6143SOL    HW130065   1.788   1.412   9.689 -0.8076  0.4379 -0.2296
 6143SOL    HW230066   1.701   1.300   9.697  0.1641 -0.3647  0.3565
 6144SOL     OW30067   4.271   2.303   6.638  0.2613  0.0150 -0.7019
 6144SOL    HW130068   4.326   2.365   6.686  1.2313 -1.1856 -0.2508
 6144SOL    HW230069   4.200   2.362   6.613  0.0976 -0.2257 -0.8118
 6145SOL     OW30070   1.163   1.192   8.717  0.1653  0.1460 -0.0169
 6145SOL    HW130071   1.104   1.265   8.735 -1.5861 -1.9902  2.8957
 6145SOL    HW230072   1.110   1.132   8.664  0.3000  0.3842 -0.4182
 6146SOL     OW30073   1.098   1.923   4.102  0.4541 -0.0617 -0.1185
 6146SOL    HW130074   1.136   1.880   4.025 -0.8331  1.5751 -1.6655
 6146SOL    HW230075   1.149   1.892   4.176 -1.9500  0.2505  1.6601
 6147SOL     OW30076   0.567   0.161  11.445  0.1611 -0.7516  0.0377
 6147SOL    HW130077   0.636   0.146  11.510  0.3273 -0.0011  0.0243
 6147SOL    HW230078   0.493   0.179  11.504  0.6341  1.3869 -0.0425
 6148SOL     OW30079   4.093   4.547   6.541 -0.2793  0.1722  0.1132
 6148SOL    HW130080   4.175   4.548   6.590 -0.0042  3.0604 -0.4392
 6148SOL    HW230081   4.079   4.452   6.539  3.4027 -0.3720  0.1808
 6149SOL     OW30082   3.654   1.312  11.499  0.0515  0.0748  0.0822
 6149SOL    HW130083   3.668   1.380  11.432 -4.0290  2.1905  1.3938
 6149SOL    HW230084   3.616   1.244  11.444  2.1202 -0.3220 -0.8870
 6150SOL     OW30085   4.389   1.753   1.920  0.3977  0.1179  1.1118
 6150SOL    HW130086   4.454   1.757   1.850  0.4214  2.2519  1.2658
 6150SOL    HW230087   4.307   1.727   1.878  1.5525 -0.9285 -0.4796
 6151SOL     OW30088   3.776   4.663  17.459 -0.1038 -0.4629 -0.3135
 6151SOL    HW130089   3.747   4.654  17.368 -0.3770  2.7759 -0.5413
 6151SOL    HW230090   3.855   4.717  17.456  0.6963 -1.5673  0.9426
 6152SOL     OW30091   4.621   1.766   5.096  0.4143  0.4102  0.2070
 6152SOL    HW130092   4.573   1.683   5.084  0.0045  0.6527  0.1752
 6152SOL    HW230093   4.554   1.815   5.143 -1.1937  0.8579 -2.5299
 6153SOL     OW30094   3.310   3.641   9.773 -0.3315  0.0811  0.0620
 6153SOL    HW130095   3.260   3.582   9.829  2.2416 -1.6856  0.4565
 6153SOL    HW230096   3.277   3.609   9.689  0.5568 -0.6677  0.0087
 6154SOL     OW30097   1.990   2.245   6.652 -0.4277 -0.0123 -0.0168
 6154SOL    HW130098   1.900   2.237   6.619  0.7243 -0.0602 -3.1836
 6154SOL    HW230099   1.981   2.254   6.747 -1.6485 -1.0985 -0.0305
 6155SOL     OW30100   0.834   3.645  14.889 -0.1692  0.1726 -0.3969
 6155SOL    HW130101   0.888   3.583  14.840 -0.9555  0.2659 -1.3760
 6155SOL    HW230102   0.803   3.594  14.964  0.5307 -1.0884 -0.9687
 6156SOL     OW30103   2.463   3.299   4.659 -0.1347 -0.0832  0.0128
 6156SOL    HW130104   2.405   3.369   4.689 -0.3796 -0.9562  1.6152
 6156SOL    HW230105   2.483   3.272   4.749 -2.3124 -0.0477  0.5072
 6157SOL     OW30106   0.004   1.409  13.713  0.1290  0.3041 -0.5111
 6157SOL    HW130107   0.030   1.322  13.745 -0.9359  0.1000 -0.1994
 6157SOL    HW230108   4.718   1.446  13.797  4.1347 -1.3182  1.4194
 6158SOL     OW30109   1.986   2.471   4.940  0.3611 -0.2241 -0.1794
 6158SOL    HW130110   2.075   2.456   4.972 -0.2225  0.4289  1.7554
 6158SOL    HW230111   1.986   2.416   4.862 -0.6135 -0.3292 -0.1068
 6159SOL     OW30112   1.307   4.291  12.343 -0.4081  0.0960 -0.8192
 6159SOL    HW130113   1.274   4.232  12.410 -1.2456 -0.4162 -1.6876
 6159SOL    HW230114   1.354   4.350  12.402  2.1681 -0.5310 -2.1880
 6160SOL     OW30115   0.215   1.705   4.610  0.2055  0.8312 -0.2268
 6160SOL    HW130116   0.158   1.700   4.687 -0.5967  1.3748 -0.7808
 6160SOL    HW230117   0.301   1.736   4.639 -0.0950 -0.0711  1.6746
 6161SOL     OW30118   1.975   4.668   9.789 -0.4079  0.3291 -0.5783
 6161SOL    HW130119   1.995   4.716   9.869 -2.0211 -0.1396  0.1204
 6161SOL    HW230120   1.879   4.674   9.795 -0.6013 -1.5461 -1.7512
 6162SOL     OW30121   4.334   0.179  12.334  0.2095 -0.3049 -0.2581
 6162SOL    HW130122   4.355   0.088  12.314  1.0626 -0.5547  1.7858
 6162SOL    HW230123   4.269   0.196  12.266  0.5054  1.9577  0.0252
 6163SOL     OW30124   0.191   4.361   1.356  0.9201 -0.0097  0.0584
 6163SOL    HW130125   0.133   4.394   1.425 -0.9103 -0.6420 -1.1923
 6163SOL    HW230126   0.271   4.407   1.383 -1.3049  3.3490  1.0072
 6164SOL     OW30127   1.606   1.587  12.947 -0.1451 -0.4355  0.3596
 6164SOL    HW130128   1.551   1.523  12.993  1.1511 -0.5740  1.7131
 6164SOL    HW230129   1.554   1.668  12.950  1.4028  0.5325  1.0580
 6165SOL     OW30130   2.318   2.281   5.187  0.1070  0.3929  0.2230
 6165SOL    HW130131   2.312   2.334   5.107  1.3751  0.8388  0.4341
 6165SOL    HW230132   2.223   2.285   5.203  0.1696  1.6623  0.2799
 6166SOL     OW30133   4.248   3.896   7.629  0.3105  0.6886  0.3173
 6166SOL    HW130134   4.258   3.820   7.572  1.1957  0.6337  0.5367
 6166SOL    HW230135   4.216   3.855   7.710 -1.0102  0.2027 -0.4628
 6167SOL     OW30136   4.470   3.984  10.629 -0.0075 -0.2417  0.5247
 6167SOL    HW130137   4.418   3.932  10.689  1.2664 -0.4421  1.4481
 6167SOL    HW230138   4.470   4.070  10.671  3.3754 -0.0386  0.1239
 6168SOL     OW30139   3.844   2.159  10.997 -0.5606  0.0730  0.5342
 6168SOL    HW130140   3.904   2.088  10.976 -0.0810  0.1083  1.7715
 6168SOL    HW230141   3.839   2.151  11.093 -0.1388  0.5945  0.6005
 6169SOL     OW30142   3.374   4.663   9.222  0.0160 -0.0107  0.0877
 6169SOL    HW130143   3.360   4.581   9.270 -2.7756  0.5192  0.1394
 6169SOL    HW230144   3.357   4.628   9.135  0.4009  1.5535 -0.5963
 6170SOL     OW30145   3.693   0.126   5.198 -0.2888 -0.1903  0.3508
 6170SOL    HW130146   3.760   0.194   5.204  1.7629 -2.2549  0.9811
 6170SOL    HW230147   3.739   0.043   5.211 -0.3498 -0.2295  0.3168
 6171SOL     OW30148   1.531   1.526   1.118  0.3597  0.2404 -0.1350
 6171SOL    HW130149   1.608   1.477   1.087 -0.5120 -1.0569 -0.2228
 6171SOL    HW230150   1.513   1.586   1.047  0.6361 -0.2643 -0.6360
 6172SOL     OW30151   1.731   0.055   0.602  0.5444 -0.1985 -0.3034
 6172SOL    HW130152   1.687   4.720   0.561  1.8605 -0.2964 -1.5734
 6172SOL    HW230153   1.655   0.112   0.608 -0.5765 -1.5092 -1.7326
 6173SOL     OW30154   4.403   3.923  15.349 -0.7737 -0.2010 -0.4995
 6173SOL    HW130155   4.375   3.859  15.283 -1.9098 -0.1561 -0.0640
 6173SOL    HW230156   4.403   3.865  15.424  3.1981  0.7392  0.1996
 6174SOL     OW30157   2.217   1.721  11.476 -0.2790  0.6323 -0.0338
 6174SOL    HW130158   2.288   1.665  11.445  0.4513  1.1398  0.7408
 6174SOL    HW230159   2.220   1.693  11.567 -1.4174  1.5718  0.2981
 6175SOL     OW30160   1.076   2.377   7.976  0.3882  0.3821  0.0386
 6175SOL    HW130161   1.092   2.457   7.925  0.6422  0.2858 -0.0322
 6175SOL    HW230162   1.037   2.314   7.915 -1.0228 -0.1922  1.5520
 6176SOL     OW30163   3.575   0.089   7.257  0.0617 -0.7026 -0.1691
 6176SOL    HW130164   3.505   0.057   7.314 -0.0633 -0.5314 -0.2249
 6176SOL    HW230165   3.530   0.077   7.173 -3.0327 -0.1683  1.4232
 6177SOL     OW30166   4.090   4.000   7.399 -0.0542 -0.1607  0.2581
 6177SOL    HW130167   4.094   4.083   7.446  0.5339  0.6717 -1.2570
 6177SOL    HW230168   4.059   3.932   7.458  0.8011 -0.4592  0.3625
 6178SOL     OW30169   3.041   2.292   6.752 -0.0302  0.7237  0.1002
 6178SOL    HW130170   2.972   2.275   6.815 -0.9881  2.0591 -0.5918
 6178SOL    HW230171   3.105   2.329   6.813 -1.1416  2.0004  0.4857
 6179SOL     OW30172   3.465   4.371   8.346 -0.7919  0.1659  0.3018
 6179SOL    HW130173   3.421   4.355   8.262  1.2088 -0.6219 -0.5972
 6179SOL    HW230174   3.405   4.304   8.379  1.1783 -1.2243  1.0506
 6180SOL     OW30175   3.028   3.505  11.785 -0.2329 -0.4547  0.4575
 6180SOL    HW130176   3.032   3.410  11.784 -0.5097 -0.4701  1.6051
 6180SOL    HW230177   2.959   3.517  11.850 -0.1540  1.1060  0.2632
 6181SOL     OW30178   1.302   0.749   9.059  0.0327  0.3890 -0.7269
 6181SOL    HW130179   1.335   0.782   9.143  2.1316 -3.0260 -0.2370
 6181SOL    HW230180   1.214   0.719   9.081 -1.0553  2.8086 -1.7314
 6182SOL     OW30181   2.138   3.293   1.631 -0.3418 -0.2951  0.5049
 6182SOL    HW130182   2.083   3.215   1.620 -1.9569  0.9409 -0.1254
 6182SOL    HW230183   2.113   3.346   1.555  1.4951 -1.8204 -1.1517
 6183SOL     OW30184   0.143   1.683   5.889  0.7227 -0.6055  0.4539
 6183SOL    HW130185   0.100   1.639   5.962 -4.0549  2.7698 -0.3450
 6183SOL    HW230186   0.068   1.726   5.848  1.6517  0.7289  0.1609
 6184SOL     OW30187   1.310   4.007   4.135  0.1804 -0.0166  0.3496
 6184SOL    HW130188   1.372   3.976   4.201  0.4506  0.3358  0.2611
 6184SOL    HW230189   1.347   4.091   4.107  1.9320 -0.5564  1.1060
 6185SOL     OW30190   3.532   2.182   6.995  0.3113  0.1093  0.4579
 6185SOL    HW130191   3.489   2.198   6.911  1.8044  0.3451 -0.2567
 6185SOL    HW230192   3.474   2.113   7.027  0.2427 -1.1652 -2.4095
 6186SOL     OW30193   2.190   0.927   0.966  0.6150  0.7019 -0.5494
 6186SOL    HW130194   2.280   0.957   0.966  0.0805  2.2761  0.2571
 6186SOL    HW230195   2.167   0.940   1.058  0.5517  0.5733 -0.5463
 6187SOL     OW30196   2.792   1.895  11.680  0.5190 -0.1231 -0.4139
 6187SOL    HW130197   2.727   1.838  11.640 -1.5285  0.0709  2.6787
 6187SOL    HW230198   2.780   1.970  11.620  2.1105  1.2790  1.0128
 6188SOL     OW30199   4.547   0.046   4.967  0.5138 -0.3876 -0.2080
 6188SOL    HW130200   4.607   4.736   5.022 -0.0442  0.8860  1.5694
 6188SOL    HW230201   4.462   0.031   5.008  0.8820  1.4865  1.2339
 6189SOL     OW30202   1.952   1.738   8.747 -0.0176 -0.1766 -0.2657
 6189SOL    HW130203   2.045   1.716   8.738 -0.4442 -1.5352 -1.3245
 6189SOL    HW230204   1.916   1.652   8.767  3.3259 -1.4298  0.4452
 6190SOL     OW30205   0.792   1.035   4.836 -0.0347  0.3370  0.4296
 6190SOL    HW130206   0.788   1.120   4.880  1.2586  0.9054 -0.5297
 6190SOL    HW230207   0.721   1.029   4.772 -0.8655 -1.5496  1.5592
 6191SOL     OW30208   2.474   0.194   2.808  0.5316  0.1427  1.2336
 6191SOL    HW130209   2.527   0.124   2.845  0.4924 -0.8733 -0.6210
 6191SOL    HW230210   2.546   0.245   2.770 -2.1465  4.4076  1.8846
 6192SOL     OW30211   2.231   1.211  12.542 -0.3189  0.2600  0.4388
 6192SOL    HW130212   2.165   1.197  12.474 -2.3939 -0.5540  2.5931
 6192SOL    HW230213   2.198   1.292  12.581  0.9579  2.3039 -2.8067
 6193SOL     OW30214   3.095   1.527   4.768 -0.0847 -0.3828  0.7172
 6193SOL    HW130215   3.134   1.519   4.855  3.1004 -0.7333 -0.7287
 6193SOL    HW230216   3.006   1.556   4.789 -0.3986 -1.5466  0.9779
 6194SOL     OW30217   4.692   2.252   3.922 -0.0383  0.4187 -0.0495
 6194SOL    HW130218   4.723   2.172   3.964 -0.2191 -0.1410 -0.9698
 6194SOL    HW230219   4.682   2.216   3.834 -0.2746  1.0605 -0.2825
 6195SOL     OW30220   1.159   4.395  12.145 -0.4984 -0.2917  0.0771
 6195SOL    HW130221   1.085   4.424  12.199  1.5182  1.1542  2.1046
 6195SOL    HW230222   1.214   4.358  12.215 -1.8220 -0.6703  0.9191
 6196SOL     OW30223   2.193   4.566   9.592  0.3530 -0.2829 -0.0463
 6196SOL    HW130224   2.159   4.607   9.513 -0.5048  0.0055  0.4683
 6196SOL    HW230225   2.145   4.620   9.655  0.8083 -0.7221  0.6902
 6197SOL     OW30226   0.450   2.590   8.908 -0.2583  0.7671 -0.8696
 6197SOL    HW130227   0.419   2.520   8.965 -0.1700 -1.0512 -3.0453
 6197SOL    HW230228   0.525   2.607   8.965 -1.2405 -0.5611  0.8054
 6198SOL     OW30229   0.959   0.557   5.333 -0.0528 -0.4111 -0.0028
 6198SOL    HW130230   1.005   0.592   5.257  0.0750  0.4539  0.4691
 6198SOL    HW230231   0.894   0.504   5.287  0.1730  0.1811 -1.0010
 6199SOL     OW30232   4.323   1.693   4.131 -0.2235 -0.5053  0.2376
 6199SOL    HW130233   4.231   1.697   4.157 -0.9098  0.7016 -2.3655
 6199SOL    HW230234   4.323   1.605   4.094  1.3176 -0.9630  1.3235
 6200SOL     OW30235   0.049   3.723   6.248  0.4368 -0.1519 -0.0373
 6200SOL    HW130236   0.031   3.662   6.319  0.8755 -0.2072  0.0274
 6200SOL    HW230237   0.118   3.675   6.203  1.6351  0.4711  1.1196
 6201SOL     OW30238   3.261   4.625   4.879  0.1394 -0.1565 -0.4780
 6201SOL    HW130239   3.239   4.676   4.802  1.6830  0.9363 -0.1975
 6201SOL    HW230240   3.353   4.641   4.899 -0.3119 -1.7176  2.9950
 6202SOL     OW30241   0.267   4.179   5.022  0.2353  0.9879 -0.1333
 6202SOL    HW130242   0.209   4.188   5.098 -0.8793 -0.2753 -0.8369
 6202SOL    HW230243   0.240   4.092   4.994  2.6775  0.1390  0.1642
 6203SOL     OW30244   2.391   2.479  11.514 -0.4809  0.2572 -0.2603
 6203SOL    HW130245   2.469   2.433  11.545 -1.6026 -0.5426  1.3563
 6203SOL    HW230246   2.437   2.527  11.444 -1.8838  1.0395 -0.6563
 6204SOL     OW30247   4.223   0.002  16.206  0.0133 -0.2496 -0.3867
 6204SOL    HW130248   4.188   0.089  16.190  0.6909  0.0387 -0.2770
 6204SOL    HW230249   4.312   0.017  16.175 -0.8582  0.1121 -2.7521
 6205SOL     OW30250   2.584   2.893   3.897  0.2451  0.3948  0.1796
 6205SOL    HW130251   2.600   2.926   3.985  2.8404  1.1625 -0.5698
 6205SOL    HW230252   2.670   2.913   3.861  0.2452  3.1008  1.6356
 6206SOL     OW30253   0.899   4.506  17.315  0.5851 -0.1357 -0.2451
 6206SOL    HW130254   0.916   4.418  17.349 -2.7497 -1.1153 -1.0734
 6206SOL    HW230255   0.965   4.554  17.364 -0.2214  0.5755  0.1510
 6207SOL     OW30256   0.947   0.208   8.450  0.0717 -0.0004  0.1241
 6207SOL    HW130257   0.875   0.246   8.501  0.5152 -0.1650  0.8814
 6207SOL    HW230258   0.890   0.145   8.404  0.0680  0.8019 -0.9484
 6208SOL     OW30259   3.082   4.600   2.013  0.2183 -0.4189  0.2279
 6208SOL    HW130260   3.014   4.633   1.955 -0.8165  0.6898  2.0662
 6208SOL    HW230261   3.027   4.573   2.087 -0.5745 -0.6619 -0.4535
 6209SOL     OW30262   1.448   3.763  11.959  0.6074  0.8765  0.0202
 6209SOL    HW130263   1.370   3.761  11.903  1.7644  1.4443 -1.6055
 6209SOL    HW230264   1.460   3.669  11.975 -1.0360  0.3904 -1.6082
 6210SOL     OW30265   3.268   2.759  16.183 -0.5380 -0.0009  0.1622
 6210SOL    HW130266   3.211   2.759  16.106  2.5253  0.7021 -2.1438
 6210SOL    HW230267   3.212   2.810  16.242 -0.2941  2.1011 -1.3920
 6211SOL     OW30268   1.030   1.729   1.688 -0.3587  0.0176  0.3154
 6211SOL    HW130269   1.105   1.737   1.629 -1.9419  2.4370 -1.3836
 6211SOL    HW230270   0.962   1.679   1.643  0.2689 -0.6674  0.1279
 6212SOL     OW30271   1.224   1.173   4.935 -0.4681  0.2227 -0.3862
 6212SOL    HW130272   1.308   1.151   4.898  0.2944  0.4619  1.1791
 6212SOL    HW230273   1.237   1.161   5.029  1.7731  0.6782 -0.6582
 6213SOL     OW30274   2.272   4.005   2.112 -0.2539  0.3673  0.1353
 6213SOL    HW130275   2.326   3.948   2.166  0.7548  1.1925 -0.0004
 6213SOL    HW230276   2.309   4.091   2.131  0.0226  0.0190  1.1682
 6214SOL     OW30277   1.483   0.446   8.113  0.7801  0.4822 -0.5630
 6214SOL    HW130278   1.453   0.529   8.151 -2.0187  0.1239 -1.9717
 6214SOL    HW230279   1.405   0.396   8.137  0.5630  0.0594 -2.1308
 6215SOL     OW30280   1.039   0.096   4.290 -0.0688  0.3103  0.2458
 6215SOL    HW130281   1.001   0.094   4.378 -1.2810 -0.4279 -0.2870
 6215SOL    HW230282   0.994   0.020   4.251 -2.0882  2.6857 -2.0266
 6216SOL     OW30283   4.652   1.909   9.704  0.0412 -0.2677  0.0657
 6216SOL    HW130284   4.614   1.825   9.679  0.3131 -0.7308  1.2164
 6216SOL    HW230285   4.681   1.938   9.617  3.6422 -1.4904  0.8574
 6217SOL     OW30286   1.161   2.615   8.335 -0.0342 -0.3453  0.3999
 6217SOL    HW130287   1.204   2.631   8.251  0.7429 -3.2585  0.2296
 6217SOL    HW230288   1.068   2.629   8.317 -0.2936 -1.3716  0.9491
 6218SOL     OW30289   0.705   1.348   9.620 -0.3910  0.2065  0.2641
 6218SOL    HW130290   0.784   1.367   9.569  0.5030  0.8196  1.8829
 6218SOL    HW230291   0.708   1.396   9.702  2.5961 -1.3060  1.0528
 6219SOL     OW30292   4.036   0.826   8.071  0.2948 -0.6980  0.0157
 6219SOL    HW130293   4.098   0.870   8.128 -1.7676 -0.4086  2.0501
 6219SOL    HW230294   3.952   0.872   8.079  1.0700  0.8441 -0.6704
 6220SOL     OW30295   4.104   3.502  16.323  0.4082 -0.3013  0.6146
 6220SOL    HW130296   4.076   3.411  16.335 -2.6477  0.5866  0.2174
 6220SOL    HW230297   4.157   3.515  16.402 -0.6524 -0.2728  1.3185
 6221SOL     OW30298   3.945   2.762   8.402 -0.0253  0.2892  0.0960
 6221SOL    HW130299   3.937   2.697   8.472  0.4920  0.3931  0.2510
 6221SOL    HW230300   4.033   2.796   8.419  0.6702  0.1211 -3.1162
 6222SOL     OW30301   2.230   2.693   6.166  0.2170 -0.0387  0.1018
 6222SOL    HW130302   2.283   2.765   6.199  0.9534 -0.7807  0.5301
 6222SOL    HW230303   2.145   2.716   6.204  1.2828  1.9196  1.2753
 6223SOL     OW30304   0.790   2.227   8.529 -0.1457 -0.1154  0.0891
 6223SOL    HW130305   0.872   2.267   8.501 -0.1719 -0.1754 -0.0736
 6223SOL    HW230306   0.821   2.189   8.611 -1.4106 -1.1059  0.1147
 6224SOL     OW30307   2.427   1.280   4.040  0.0802  0.4129 -0.5909
 6224SOL    HW130308   2.494   1.284   3.972  0.3787  1.8509 -0.2181
 6224SOL    HW230309   2.361   1.336   4.000  0.0432  1.3561  0.7914
 6225SOL     OW30310   2.279   0.217   6.264  0.3708  0.3955 -0.2241
 6225SOL    HW130311   2.336   0.184   6.194  0.4677  1.4394 -0.6305
 6225SOL    HW230312   2.195   0.178   6.239  0.5517  0.6723 -1.2528
 6226SOL     OW30313   3.328   3.303   5.217  0.5641 -0.2660 -0.2384
 6226SOL    HW130314   3.311   3.385   5.263 -0.6378 -0.5572 -0.1708
 6226SOL    HW230315   3.242   3.266   5.198 -0.2469  2.3359 -1.5313
 6227SOL     OW30316   0.989   3.891   3.302  0.3949 -0.2414  0.5291
 6227SOL    HW130317   0.911   3.858   3.259 -0.4296 -1.0283  2.6196
 6227SOL    HW230318   1.051   3.820   3.287 -0.8438 -0.7769 -2.0576
 6228SOL     OW30319   2.616   1.782   6.932 -0.3527  0.6784  0.0753
 6228SOL    HW130320   2.542   1.796   6.991 -0.9012 -1.1391 -0.1756
 6228SOL    HW230321   2.579   1.724   6.865 -0.8015 -0.7121  1.5146
 6229SOL     OW30322   3.486   0.708   5.442  0.0562  0.1346 -1.2010
 6229SOL    HW130323   3.401   0.716   5.487 -0.1516 -0.1333 -1.5403
 6229SOL    HW230324   3.534   0.788   5.463  0.6215 -0.1740 -1.3197
 6230SOL     OW30325   3.172   4.303  15.896  0.0657  0.1038 -0.2784
 6230SOL    HW130326   3.258   4.344  15.889  1.4854 -2.6777  0.9848
 6230SOL    HW230327   3.177   4.274  15.987  2.5203  2.8883  0.4853
 6231SOL     OW30328   3.783   2.801   9.229 -0.3411  0.0594  0.3233
 6231SOL    HW130329   3.720   2.762   9.289  1.5643 -0.5457  1.9423
 6231SOL    HW230330   3.792   2.730   9.166  0.3740 -0.1949  0.7088
 6232SOL     OW30331   0.999   3.670   5.406  0.5925  0.0874  0.4514
 6232SOL    HW130332   0.982   3.737   5.340  1.3492  0.1482  0.3227
 6232SOL    HW230333   1.094   3.668   5.397  0.5429 -0.8870  0.1754
 6233SOL     OW30334   1.951   2.937   7.318  0.0344  0.1138  0.2239
 6233SOL    HW130335   2.041   2.906   7.324  0.5499  1.7172  0.8753
 6233SOL    HW230336   1.959   3.031   7.332  0.8251 -0.0388  0.8019
 6234SOL     OW30337   0.112   4.367   9.532  0.1765 -0.5207  0.0691
 6234SOL    HW130338   0.020   4.371   9.556  0.4149  1.6956  0.5975
 6234SOL    HW230339   0.127   4.278   9.498 -1.0514 -0.6441 -0.1394
 6235SOL     OW30340   4.370   1.030  12.370  0.2347  0.2121 -0.1404
 6235SOL    HW130341   4.439   1.038  12.303  1.0194  0.3964  0.6928
 6235SOL    HW230342   4.417   1.058  12.448  0.3988 -1.6321  0.4106
 6236SOL     OW30343   2.922   3.046   9.017 -0.2137 -0.0246 -0.0286
 6236SOL    HW130344   2.887   2.959   9.001 -2.9785  1.4429 -2.0720
 6236SOL    HW230345   2.949   3.066   8.927 -0.7328  0.7433 -0.0198
 6237SOL     OW30346   0.873   1.954  14.690 -0.4603 -0.0419  0.1441
 6237SOL    HW130347   0.861   1.859  14.689  2.0166 -0.3618 -0.3852
 6237SOL    HW230348   0.892   1.958  14.596 -2.2429  2.9963 -0.0947
 6238SOL     OW30349   2.795   3.479   7.308  0.2092 -0.0161 -0.0875
 6238SOL    HW130350   2.811   3.387   7.290 -0.4820  0.1159 -1.3626
 6238SOL    HW230351   2.809   3.490   7.402  0.3194 -0.7786 -0.0208
 6239SOL     OW30352   0.412   1.195   7.294 -0.1388 -0.3131 -0.1949
 6239SOL    HW130353   0.422   1.264   7.229  0.1761  0.8115  1.0552
 6239SOL    HW230354   0.320   1.207   7.317  0.3673  0.5484  1.3584
 6240SOL     OW30355   1.860   3.133   4.840 -0.5550 -0.0065  0.0315
 6240SOL    HW130356   1.927   3.179   4.890 -0.3046  1.0550 -1.2944
 6240SOL    HW230357   1.882   3.041   4.857  0.2110  0.1096 -0.3448
 6241SOL     OW30358   1.801   2.073   5.383  0.0974  0.2555  0.3275
 6241SOL    HW130359   1.768   2.137   5.446  0.8774 -1.0520  2.0633
 6241SOL    HW230360   1.891   2.079   5.415  1.1150  0.2374 -2.4708
 6242SOL     OW30361   2.379   3.181   2.726 -0.2595  0.2918  0.1249
 6242SOL    HW130362   2.457   3.140   2.764  1.5904  2.5179 -1.2772
 6242SOL    HW230363   2.406   3.179   2.634  2.7273  2.1420  0.9420
 6243SOL     OW30364   3.682   0.300  17.220  0.1933 -0.0996 -0.2041
 6243SOL    HW130365   3.682   0.395  17.205 -0.1670 -0.0377  0.1901
 6243SOL    HW230366   3.711   0.306  17.311 -1.6079  0.4928  0.3295
 6244SOL     OW30367   3.225   1.249   5.057 -0.4113 -0.3436 -0.1419
 6244SOL    HW130368   3.195   1.174   5.006 -0.7500  0.4244 -1.0729
 6244SOL    HW230369   3.316   1.223   5.072  0.1496  2.5639  1.4638
 6245SOL     OW30370   3.572   0.250   0.412  0.1078 -0.2517 -0.5805
 6245SOL    HW130371   3.544   0.197   0.337 -0.2870  0.9907 -1.3099
 6245SOL    HW230372   3.616   0.323   0.370 -1.6087  1.1810  0.1252
 6246SOL     OW30373   2.261   2.894  12.341 -0.2130 -0.0146  0.0538
 6246SOL    HW130374   2.191   2.908  12.405 -1.0225 -2.8306 -0.1861
 6246SOL    HW230375   2.241   2.961  12.276  0.1594  0.1174  0.0755
 6247SOL     OW30376   0.400   4.726   5.309  0.2671  0.1718  0.0112
 6247SOL    HW130377   0.392   0.065   5.362 -1.1467  0.1427 -0.1495
 6247SOL    HW230378   0.495   4.721   5.319 -0.1469 -1.3492  3.1134
 6248SOL     OW30379   3.621   0.574   6.410  0.1164 -0.4570 -0.5630
 6248SOL    HW130380   3.545   0.555   6.356  0.1160 -0.6607 -0.4879
 6248SOL    HW230381   3.668   0.491   6.411  0.9591 -0.0132 -2.5060
 6249SOL     OW30382   2.051   2.068   5.471  0.3171  0.1765  0.1811
 6249SOL    HW130383   2.054   2.033   5.560 -0.5396  0.4602  0.3189
 6249SOL    HW230384   2.089   1.993   5.425 -1.7309 -1.7677  1.6457
 6250SOL     OW30385   2.316   3.527   2.542 -0.4732 -0.3119 -0.3654
 6250SOL    HW130386   2.253   3.552   2.474  0.8044  1.4399 -0.9350
 6250SOL    HW230387   2.265   3.468   2.597  0.5853 -2.0605 -1.2484
 6251SOL     OW30388   0.429   2.134   4.786  0.2921 -0.3112 -0.0721
 6251SOL    HW130389   0.338   2.123   4.812  0.3100  2.4884  1.1776
 6251SOL    HW230390   0.474   2.140   4.871  0.8264  2.5155 -0.5681
 6252SOL     OW30391   3.423   3.944   9.289 -0.1010 -0.0571 -0.0256
 6252SOL    HW130392   3.453   3.942   9.379 -0.1349 -1.5186 -0.0572
 6252SOL    HW230393   3.368   3.866   9.291  2.0074 -1.5315 -0.1917
 6253SOL     OW30394   0.667   4.111   6.373 -0.1661 -0.2090  0.3953
 6253SOL    HW130395   0.702   4.172   6.438 -1.5908  2.3989 -1.3282
 6253SOL    HW230396   0.724   4.035   6.386 -2.5381 -2.3088 -1.5031
 6254SOL     OW30397   3.116   4.129  11.561 -0.2604  0.0085  0.3262
 6254SOL    HW130398   3.151   4.060  11.617 -0.7093  0.5270  1.2362
 6254SOL    HW230399   3.197   4.170  11.531  0.6394 -0.9180  1.5137
 6255SOL     OW30400   4.304   0.326   4.010 -0.0217  1.1874  0.1767
 6255SOL    HW130401   4.328   0.384   4.082  0.3401  0.6275  0.4985
 6255SOL    HW230402   4.209   0.337   4.011 -0.0712  0.8357 -0.5452
 6256SOL     OW30403   2.945   0.811  12.565  1.0311  0.2277  0.0149
 6256SOL    HW130404   3.034   0.789  12.539  1.5158  0.4707  1.4576
 6256SOL    HW230405   2.900   0.740  12.520  1.2533  0.7547 -1.0348
 6257SOL     OW30406   1.681   4.168   4.971  0.1416  0.0316 -0.6331
 6257SOL    HW130407   1.700   4.252   4.929 -1.4912 -0.5650 -2.5721
 6257SOL    HW230408   1.742   4.169   5.045  1.3984  2.7697 -1.6744
 6258SOL     OW30409   4.355   3.666   3.909  0.0594 -0.1968 -0.8560
 6258SOL    HW130410   4.343   3.609   3.984 -0.4192 -0.1486 -0.8947
 6258SOL    HW230411   4.421   3.610   3.867 -1.1811 -0.1803 -2.8327
 6259SOL     OW30412   1.298   2.187   5.148 -0.2018  0.4282 -0.3041
 6259SOL    HW130413   1.213   2.222   5.118  1.3296  1.7252 -3.2071
 6259SOL    HW230414   1.354   2.252   5.104  0.7336 -0.5884 -0.6036
 6260SOL     OW30415   1.187   4.150   5.173 -0.3446 -0.1273  0.4015
 6260SOL    HW130416   1.264   4.103   5.141 -0.5665 -1.1814  1.4030
 6260SOL    HW230417   1.223   4.239   5.169 -0.2586 -0.2094 -0.6448
 6261SOL     OW30418   3.972   3.617   6.509  0.0328  0.2613 -0.0831
 6261SOL    HW130419   3.964   3.712   6.502  1.3783  0.3688 -0.2201
 6261SOL    HW230420   3.924   3.609   6.592 -1.1955 -0.7281 -0.8920
 6262SOL     OW30421   1.284   0.549  15.886  0.5931  0.6459 -0.6831
 6262SOL    HW130422   1.220   0.571  15.954 -0.7457  0.4107 -1.8685
 6262SOL    HW230423   1.343   0.493  15.937  0.5687  1.8327  0.6675
 6263SOL     OW30424   0.861   1.262  10.038 -0.3728 -0.3388 -0.6080
 6263SOL    HW130425   0.903   1.177  10.018  0.0549 -0.7137  1.9520
 6263SOL    HW230426   0.941   1.314  10.026  0.1736 -1.0895 -0.2468
 6264SOL     OW30427   1.363   3.570   6.452 -0.0476 -0.2288  0.3934
 6264SOL    HW130428   1.401   3.636   6.511 -1.3782  0.8958 -0.0036
 6264SOL    HW230429   1.339   3.616   6.371  0.6595  1.7006  1.2638
 6265SOL     OW30430   3.686   0.372   2.316 -0.1307 -0.0545 -0.3533
 6265SOL    HW130431   3.744   0.412   2.380  1.0622 -0.6556 -1.0723
 6265SOL    HW230432   3.716   0.283   2.332 -2.2059 -0.4665  1.3697
 6266SOL     OW30433   1.150   0.231   5.471 -0.4555  0.0755 -0.0570
 6266SOL    HW130434   1.206   0.303   5.444 -1.3654  1.3159  1.3358
 6266SOL    HW230435   1.214   0.160   5.468 -0.9646 -0.2854 -2.3424
 6267SOL     OW30436   4.138   2.852   6.632  1.0562 -0.3315  0.5132
 6267SOL    HW130437   4.156   2.770   6.679 -0.7611 -0.0239  1.7433
 6267SOL    HW230438   4.111   2.901   6.710 -1.8280  1.5669 -1.6957
 6268SOL     OW30439   2.192   1.844   9.855  0.0378 -0.1214 -0.1492
 6268SOL    HW130440   2.145   1.879   9.931 -1.7649 -0.2169 -1.2176
 6268SOL    HW230441   2.129   1.774   9.835 -1.3704  1.2226 -0.4194
 6269SOL     OW30442   1.372   1.742   7.746  0.2355 -0.1004  0.2898
 6269SOL    HW130443   1.468   1.746   7.748  0.2837  0.4138 -2.8377
 6269SOL    HW230444   1.352   1.650   7.725  0.1621 -0.1052  0.3848
 6270SOL     OW30445   3.078   0.876   1.634  0.2934 -0.1552  0.0072
 6270SOL    HW130446   3.149   0.933   1.602 -0.0974  0.0860 -0.4378
 6270SOL    HW230447   3.015   0.898   1.565  1.8686 -1.4524 -1.8478
 6271SOL     OW30448   3.081   1.616   0.328  0.3149 -0.5919  0.5865
 6271SOL    HW130449   3.127   1.637   0.247  1.2656  1.5600  1.6979
 6271SOL    HW230450   3.076   1.522   0.314  0.1038 -0.4402 -0.3499
 6272SOL     OW30451   3.023   3.593  17.146 -0.3189  0.4233 -0.3994
 6272SOL    HW130452   2.978   3.571  17.064 -1.5667  2.1161 -0.1642
 6272SOL    HW230453   3.113   3.600  17.114  0.8654 -0.8632  2.6489
 6273SOL     OW30454   0.329   4.370   4.097  0.1179  0.3251  0.4822
 6273SOL    HW130455   0.423   4.388   4.093  0.5725 -2.2238 -0.1677
 6273SOL    HW230456   0.311   4.432   4.168 -0.3697  1.8016 -0.9611
 6274SOL     OW30457   0.721   2.415   4.984 -0.6314  0.2366  0.4516
 6274SOL    HW130458   0.680   2.496   4.955  0.5863  1.3019  1.6606
 6274SOL    HW230459   0.789   2.448   5.043  0.1480  1.9058 -1.4203
 6275SOL     OW30460   3.804   1.351   0.131  0.3511 -0.4836 -0.2835
 6275SOL    HW130461   3.765   1.266   0.109 -0.3421 -0.0071 -0.9323
 6275SOL    HW230462   3.807   1.336   0.225 -0.1591  1.9276  0.1086
 6276SOL     OW30463   3.096   3.728   5.309  0.1184 -0.6842 -0.5826
 6276SOL    HW130464   3.118   3.820   5.314  1.0094 -0.8040 -2.1360
 6276SOL    HW230465   3.022   3.737   5.249  0.8506  1.0834 -1.1952
 6277SOL     OW30466   1.104   3.119   9.687  0.2825 -0.0131  0.3356
 6277SOL    HW130467   1.036   3.180   9.715  1.2728  0.2852  2.1227
 6277SOL    HW230468   1.164   3.168   9.632  0.1131 -0.6795 -0.4301
 6278SOL     OW30469   3.300   1.937   8.256  0.1968 -0.8299 -0.2993
 6278SOL    HW130470   3.371   1.994   8.285 -1.1368 -0.8674  3.0538
 6278SOL    HW230471   3.292   1.949   8.162 -0.9333 -0.4277 -0.1533
 6279SOL     OW30472   2.081   0.077   3.009 -0.2623 -0.4979 -0.2114
 6279SOL    HW130473   2.112   0.095   2.920 -0.0425 -1.1270 -0.2657
 6279SOL    HW230474   2.149   0.027   3.054  0.7517  0.1168 -1.0738
 6280SOL     OW30475   0.118   1.014   3.524  0.3194  0.1502  0.0097
 6280SOL    HW130476   0.033   1.048   3.494  0.1109  0.8286  1.3670
 6280SOL    HW230477   0.169   1.046   3.449 -0.0379  0.8581  0.0678
 6281SOL     OW30478   3.225   0.781   2.481  0.6425 -0.3198 -0.4591
 6281SOL    HW130479   3.304   0.803   2.531  0.1938  1.2878 -0.4392
 6281SOL    HW230480   3.183   0.718   2.539  0.9771 -1.1235 -1.0966
 6282SOL     OW30481   4.418   2.888   3.713  0.5458 -0.0929  0.3421
 6282SOL    HW130482   4.421   2.904   3.618  1.7095  2.7647  0.8521
 6282SOL    HW230483   4.459   2.802   3.722 -1.8911 -1.2486  0.4968
 6283SOL     OW30484   1.160   0.889   9.682 -0.4894 -0.1598 -0.1227
 6283SOL    HW130485   1.153   0.856   9.593 -0.2381  0.2456 -0.2938
 6283SOL    HW230486   1.228   0.837   9.724  0.7132 -0.6856 -2.7524
 6284SOL     OW30487   1.246   4.654   8.163 -0.1448  0.7122  0.6976
 6284SOL    HW130488   1.273   4.595   8.233  3.3874 -0.2662 -1.5085
 6284SOL    HW230489   1.151   4.647   8.154 -0.2095  0.9620  1.2089
 6285SOL     OW30490   4.055   4.235   2.815  0.2851  0.3220 -0.0770
 6285SOL    HW130491   4.146   4.218   2.837 -0.5522 -0.0525  3.0667
 6285SOL    HW230492   4.036   4.299   2.883  1.8783 -1.0714  1.6686
 6286SOL     OW30493   0.990   4.126   8.414  0.4980  0.2561 -0.2092
 6286SOL    HW130494   0.906   4.139   8.368  1.4948  0.5709 -1.9316
 6286SOL    HW230495   1.048   4.171   8.353  2.0968  0.8836  1.8157
 6287SOL     OW30496   1.125   2.782   2.509  0.0680  0.0108 -0.0762
 6287SOL    HW130497   1.037   2.744   2.511 -0.2218  0.7253  0.4547
 6287SOL    HW230498   1.132   2.794   2.414 -2.5073  1.1840 -0.0986
 6288SOL     OW30499   3.004   0.951   4.092  0.4155 -0.4935  0.4212
 6288SOL    HW130500   3.040   0.974   4.007  0.1310 -1.3461  0.0721
 6288SOL    HW230501   2.936   1.014   4.117 -2.1364 -2.1529 -2.2983
 6289SOL     OW30502   0.813   3.111  10.271  0.1409  0.1750  0.3951
 6289SOL    HW130503   0.886   3.086  10.214 -1.3076 -0.7262 -1.0758
 6289SOL    HW230504   0.732   3.085  10.227  1.2990 -2.2591 -0.3523
 6290SOL     OW30505   0.676   0.318   3.531  0.2776 -0.1070  0.2131
 6290SOL    HW130506   0.581   0.331   3.541  0.1174 -0.9056 -0.2697
 6290SOL    HW230507   0.674   0.229   3.498 -0.0433  0.6439 -1.8020
 6291SOL     OW30508   3.430   0.488   7.774 -0.1176 -0.4071 -0.3527
 6291SOL    HW130509   3.444   0.450   7.861  0.7765 -0.8899 -0.7007
 6291SOL    HW230510   3.523   0.486   7.748  0.4330 -2.7322  1.8626
 6292SOL     OW30511   2.248   3.447   1.358 -0.3802  0.0445  0.2004
 6292SOL    HW130512   2.304   3.422   1.284  2.4603  0.6117  2.1412
 6292SOL    HW230513   2.303   3.449   1.436 -1.0119  1.8888  0.6038
 6293SOL     OW30514   1.028   0.087  13.620 -0.2167  0.4020  1.0909
 6293SOL    HW130515   1.100   0.146  13.596 -0.2138  0.1353  0.4470
 6293SOL    HW230516   1.052   0.007  13.573  1.0607  0.5816  1.4504
 6294SOL     OW30517   0.835   2.250   6.546  0.1337  0.2909  0.5409
 6294SOL    HW130518   0.928   2.270   6.556  0.3969 -1.1296  0.9360
 6294SOL    HW230519   0.812   2.249   6.639  2.7925  1.6636  1.2201
 6295SOL     OW30520   1.878   3.237   4.318 -0.7172 -0.5968  0.1151
 6295SOL    HW130521   1.931   3.304   4.361 -1.6719 -1.4215  2.5640
 6295SOL    HW230522   1.895   3.167   4.380 -2.2811 -0.9680  0.1098
 6296SOL     OW30523   2.735   2.465  13.014 -0.0782 -0.4206 -0.5284
 6296SOL    HW130524   2.654   2.430  12.978 -0.2255 -0.2860 -0.3320
 6296SOL    HW230525   2.792   2.400  12.974 -0.5881 -1.0991 -0.1546
 6297SOL     OW30526   1.539   2.548   9.885  0.3352  0.2439  0.5261
 6297SOL    HW130527   1.454   2.592   9.888  0.1966  0.0008  0.1551
 6297SOL    HW230528   1.598   2.607   9.933  0.7316  2.7066 -2.9725
 6298SOL     OW30529   1.130   0.196   3.048  0.3716  0.0476  0.2452
 6298SOL    HW130530   1.042   0.230   3.065  0.8584  1.4851 -0.1557
 6298SOL    HW230531   1.130   0.183   2.953  0.9988 -0.0758  0.2593
 6299SOL     OW30532   0.498   0.336  13.543 -1.0495 -0.7769  0.0116
 6299SOL    HW130533   0.545   0.268  13.493  0.0776  0.7834 -1.0575
 6299SOL    HW230534   0.506   0.301  13.632 -3.1619 -0.3969  0.3303
 6300SOL     OW30535   3.021   3.548   2.861  0.1533  0.7710 -0.6503
 6300SOL    HW130536   3.013   3.453   2.864  3.4907  0.4265 -2.4263
 6300SOL    HW230537   3.068   3.551   2.777  0.9929 -2.1476 -0.2851
 6301SOL     OW30538   3.742   1.797  10.202 -0.3816  0.0794 -0.4448
 6301SOL    HW130539   3.673   1.799  10.269  1.4824 -1.1187  1.5282
 6301SOL    HW230540   3.756   1.888  10.176  0.4966 -0.7440 -2.8290
 6302SOL     OW30541   2.990   4.546   5.872 -0.2319 -0.1153  0.3683
 6302SOL    HW130542   2.947   4.475   5.825 -0.2901 -0.5920  1.1332
 6302SOL    HW230543   2.916   4.590   5.914  1.6689  2.2166  1.3148
 6303SOL     OW30544   0.556   0.909   8.961 -0.5849  0.1868  0.2165
 6303SOL    HW130545   0.584   0.998   8.938  1.7587 -0.8620 -1.0710
 6303SOL    HW230546   0.642   0.871   8.980  0.1953  2.3378  1.0096
 6304SOL     OW30547   1.834   3.241  17.025 -0.4719 -0.1639  0.3862
 6304SOL    HW130548   1.859   3.272  16.939 -0.5464 -2.1694 -0.3716
 6304SOL    HW230549   1.901   3.174  17.040  1.3104  1.2105 -1.4931
 6305SOL     OW30550   0.849   4.173  16.108 -0.1542 -0.0567  0.5109
 6305SOL    HW130551   0.926   4.231  16.107 -0.5976  0.5342  1.5162
 6305SOL    HW230552   0.776   4.230  16.082 -1.2001 -1.6587 -0.0305
 6306SOL     OW30553   3.941   2.641   4.607 -0.1967  0.5186  0.2742
 6306SOL    HW130554   3.974   2.569   4.660 -3.6675 -0.3416  1.2915
 6306SOL    HW230555   3.901   2.596   4.532  1.6686  0.3931 -0.6449
 6307SOL     OW30556   4.006   3.927   6.354  0.2111  0.3308 -0.1727
 6307SOL    HW130557   3.914   3.926   6.382 -0.2653  2.3754 -1.7101
 6307SOL    HW230558   3.999   4.005   6.300  0.7546  1.4756  1.4132
 6308SOL     OW30559   3.798   2.640   2.514  0.0737 -0.1469 -0.8477
 6308SOL    HW130560   3.710   2.678   2.516 -0.2408 -0.9399  1.0452
 6308SOL    HW230561   3.783   2.554   2.473 -2.0189  0.4968 -1.4583
 6309SOL     OW30562   2.539   2.309  11.308  0.0305  0.1485 -0.2615
 6309SOL    HW130563   2.595   2.351  11.243  1.3934  0.5486  1.1783
 6309SOL    HW230564   2.575   2.358  11.382  0.0402  0.0306 -0.1888
 6310SOL     OW30565   0.158   2.731   8.644 -0.1012  0.3687  0.6996
 6310SOL    HW130566   0.108   2.767   8.718  0.6075  0.7619  0.9942
 6310SOL    HW230567   0.247   2.763   8.660 -0.6063  1.6787  0.8812
 6311SOL     OW30568   4.570   0.262   5.190  0.4014  0.2155 -0.6187
 6311SOL    HW130569   4.489   0.312   5.200  0.6219  0.2493  0.8611
 6311SOL    HW230570   4.539   0.171   5.191  3.2097 -0.7323  1.2995
 6312SOL     OW30571   4.521   1.383   5.305  0.4224  0.9905 -0.0360
 6312SOL    HW130572   4.524   1.413   5.214  4.0521  1.0036  0.1142
 6312SOL    HW230573   4.563   1.460   5.343 -1.2677  0.3888  3.0831
 6313SOL     OW30574   2.265   0.792   9.748 -0.0836  0.2458 -0.4203
 6313SOL    HW130575   2.242   0.858   9.813  0.6122  1.5095 -1.4602
 6313SOL    HW230576   2.297   0.720   9.802 -2.5679 -0.1153  0.5626
 6314SOL     OW30577   2.560   4.451   3.612 -0.0385  0.0013 -0.2202
 6314SOL    HW130578   2.642   4.447   3.563  0.3304 -0.6321  0.4461
 6314SOL    HW230579   2.490   4.423   3.553  1.5960 -0.6767 -1.8286
 6315SOL     OW30580   0.602   1.713   9.664 -0.3609 -0.3727 -0.5218
 6315SOL    HW130581   0.531   1.771   9.693  1.2976  0.9429  0.9403
 6315SOL    HW230582   0.567   1.677   9.583 -1.1979 -0.6141 -0.0552
 6316SOL     OW30583   0.414   1.868   8.094 -0.0178 -0.1926  0.2037
 6316SOL    HW130584   0.344   1.932   8.106 -0.8478 -1.1210  0.3551
 6316SOL    HW230585   0.471   1.913   8.031 -2.4076  2.0415 -0.3590
 6317SOL     OW30586   1.887   3.891  14.382  0.2351 -0.5158 -0.1051
 6317SOL    HW130587   1.979   3.877  14.404  0.6432 -0.1369 -1.5618
 6317SOL    HW230588   1.860   3.800  14.368  1.6649 -0.3420 -4.1078
 6318SOL     OW30589   0.670   0.914   8.409  0.1824  0.1453 -0.1421
 6318SOL    HW130590   0.764   0.920   8.426  0.0241  0.2704  0.6810
 6318SOL    HW230591   0.634   0.871   8.487  0.1021  0.4277 -0.0249
 6319SOL     OW30592   3.952   3.679  11.060  0.7219  0.9700 -0.0320
 6319SOL    HW130593   3.960   3.749  11.124 -0.9629  0.3687  0.8341
 6319SOL    HW230594   3.904   3.718  10.987  1.5318 -1.8107 -2.0707
 6320SOL     OW30595   3.119   0.508   4.459 -0.4246  0.0379  0.3971
 6320SOL    HW130596   3.126   0.540   4.549  2.2231  0.9395 -0.1209
 6320SOL    HW230597   3.080   0.587   4.420  1.8835  0.3394 -1.3287
 6321SOL     OW30598   4.081   0.219   6.014  0.2413 -0.3496  0.3210
 6321SOL    HW130599   4.054   0.262   5.933 -1.1747 -1.7700  0.0225
 6321SOL    HW230600   4.034   0.136   6.016 -0.3865  0.0242  1.1714
 6322SOL     OW30601   2.682   0.004   1.907 -0.1514 -0.3526  0.5876
 6322SOL    HW130602   2.687   4.651   1.930 -0.9269 -0.3997  0.5465
 6322SOL    HW230603   2.595   0.006   1.867  0.3346 -0.5501 -0.5002
 6323SOL     OW30604   0.823   3.090  10.562  0.3148  0.0533  0.5675
 6323SOL    HW130605   0.882   3.165  10.569 -1.1210  1.1113  1.2449
 6323SOL    HW230606   0.830   3.078  10.467  1.1345 -0.8073  0.7395
 6324SOL     OW30607   1.147   1.708   7.946 -0.1037 -0.2204 -0.2230
 6324SOL    HW130608   1.148   1.803   7.958  1.3314 -0.3516  0.8159
 6324SOL    HW230609   1.239   1.704   7.918  0.7262  1.2095  2.2568
 6325SOL     OW30610   1.637   0.277   6.509  0.1722 -0.2108 -0.1458
 6325SOL    HW130611   1.649   0.278   6.604  0.4198 -1.1552 -0.1665
 6325SOL    HW230612   1.656   0.366   6.481 -2.6048  0.6352  0.5866
 6326SOL     OW30613   1.321   0.733   8.172  0.2613 -0.1263 -0.1979
 6326SOL    HW130614   1.280   0.703   8.253  0.7815  0.3716  0.2474
 6326SOL    HW230615   1.243   0.762   8.125  0.0602 -0.0744  0.1691
 6327SOL     OW30616   2.836   0.810   0.896 -0.2457 -0.7144  0.1104
 6327SOL    HW130617   2.930   0.827   0.892 -0.2158 -1.1229 -0.9143
 6327SOL    HW230618   2.816   0.857   0.816  0.3420  1.8928  1.4942
 6328SOL     OW30619   3.966   1.145   9.725 -0.2265 -0.2884 -0.0999
 6328SOL    HW130620   4.020   1.105   9.793 -0.4686  2.3259  1.6156
 6328SOL    HW230621   3.907   1.203   9.773 -0.3914 -1.1961  0.8138
 6329SOL     OW30622   2.659   3.233   1.174  0.1846 -0.2747 -0.0601
 6329SOL    HW130623   2.578   3.186   1.195  1.3873 -1.8034  1.2220
 6329SOL    HW230624   2.689   3.258   1.262 -0.5305 -0.0776  0.1278
 6330SOL     OW30625   2.551   3.008   5.925 -0.3441  0.0652 -0.5546
 6330SOL    HW130626   2.567   3.062   5.848 -1.1302  0.2640 -0.5775
 6330SOL    HW230627   2.498   2.940   5.883  0.1008 -0.8444  0.3520
 6331SOL     OW30628   1.969   4.377  13.159 -0.3674  0.3719  0.0957
 6331SOL    HW130629   1.950   4.307  13.096  1.6967 -1.0431  1.0511
 6331SOL    HW230630   1.917   4.349  13.234  1.3393 -0.7241  0.8711
 6332SOL     OW30631   3.122   2.220   7.375 -0.0147  0.3543  0.0208
 6332SOL    HW130632   3.095   2.247   7.287  1.3988 -1.0691 -0.8558
 6332SOL    HW230633   3.108   2.302   7.421 -1.4079  0.3097 -0.3278
 6333SOL     OW30634   1.171   2.877   8.723  0.2522  0.4177  0.1705
 6333SOL    HW130635   1.196   2.923   8.643 -3.3727 -0.1325 -1.2907
 6333SOL    HW230636   1.218   2.794   8.714  0.5609  0.6354 -0.2121
 6334SOL     OW30637   2.737   0.863  10.144  0.0435  0.2276 -0.5810
 6334SOL    HW130638   2.698   0.862  10.057 -1.6979 -2.3598  0.2338
 6334SOL    HW230639   2.665   0.825  10.194 -0.1807  2.6350  0.9534
 6335SOL     OW30640   0.430   2.763  15.801  0.6904 -0.5480 -0.5252
 6335SOL    HW130641   0.360   2.725  15.747  0.5313 -0.4200 -0.4072
 6335SOL    HW230642   0.435   2.697  15.870  1.1802 -0.6375 -0.6462
 6336SOL     OW30643   4.615   1.700   6.287 -0.4594 -0.1437 -0.3317
 6336SOL    HW130644   4.556   1.751   6.231  0.7309 -0.4992 -1.9102
 6336SOL    HW230645   4.581   1.715   6.375 -3.0993  0.6135 -1.4783
 6337SOL     OW30646   0.407   1.767   3.593 -0.3707  0.4984 -0.2755
 6337SOL    HW130647   0.457   1.842   3.624  0.6354 -0.0708 -0.5122
 6337SOL    HW230648   0.339   1.799   3.534  0.3038 -0.0045 -1.3440
 6338SOL     OW30649   1.212   1.044  15.586 -0.6414 -0.2775  0.5343
 6338SOL    HW130650   1.292   1.017  15.541 -1.5159 -2.7991  0.5128
 6338SOL    HW230651   1.248   1.061  15.673 -1.3680  0.8288  0.6156
 6339SOL     OW30652   3.939   1.991   6.233  0.5792  0.1117  0.0645
 6339SOL    HW130653   4.029   2.018   6.216 -0.1971  0.7417 -3.0471
 6339SOL    HW230654   3.892   2.074   6.239  0.1052 -0.1670  0.2160
 6340SOL     OW30655   1.017   0.381   1.853  0.0852  0.2164  1.1380
 6340SOL    HW130656   1.065   0.320   1.796  0.9591  0.2659  1.8206
 6340SOL    HW230657   1.045   0.466   1.818  1.3799 -1.1108 -1.0421
 6341SOL     OW30658   0.425   2.827   8.738  0.1951  0.0956 -0.3121
 6341SOL    HW130659   0.455   2.745   8.777  0.2639  0.7367  1.0030
 6341SOL    HW230660   0.438   2.891   8.808 -3.2529 -2.6919  2.8538
 6342SOL     OW30661   4.134   3.714   7.789 -0.0767  0.2320 -0.8856
 6342SOL    HW130662   4.054   3.718   7.738 -1.2343  0.5161  0.9718
 6342SOL    HW230663   4.182   3.645   7.743  0.8850 -0.9168  1.8696
 6343SOL     OW30664   3.902   4.526  16.923  0.3366 -0.4690  0.6751
 6343SOL    HW130665   3.865   4.437  16.923 -0.9157  0.0565  0.2380
 6343SOL    HW230666   3.993   4.507  16.903 -0.1665 -1.1586 -0.9842
 6344SOL     OW30667   0.752   1.142  14.379  0.0790 -0.1461  0.2105
 6344SOL    HW130668   0.803   1.061  14.370  0.3546 -0.0466  0.8788
 6344SOL    HW230669   0.710   1.138  14.465  2.8010  1.7927  1.6159
 6345SOL     OW30670   3.192   4.528   1.695 -0.0043 -0.2175 -0.7362
 6345SOL    HW130671   3.153   4.563   1.775  0.0859  0.6238 -1.0528
 6345SOL    HW230672   3.133   4.458   1.668  1.3419 -2.4107  1.9917
 6346SOL     OW30673   3.969   1.008  10.682 -0.0037 -0.4605  0.2782
 6346SOL    HW130674   4.061   1.014  10.710  0.1501 -1.5267 -0.0178
 6346SOL    HW230675   3.977   1.080  10.620 -0.6074  1.5905  2.5773
 6347SOL     OW30676   2.476   1.610  12.306 -0.3339  0.4807 -0.0757
 6347SOL    HW130677   2.487   1.535  12.248 -2.0160  1.1905 -1.3111
 6347SOL    HW230678   2.395   1.584  12.349 -0.9469  2.0257 -0.2867
 6348SOL     OW30679   3.722   4.328   2.686  0.0459  0.2270 -0.1702
 6348SOL    HW130680   3.685   4.365   2.767 -0.1982  1.1562 -0.7018
 6348SOL    HW230681   3.797   4.280   2.720 -0.8136  0.5881  2.2947
 6349SOL     OW30682   2.398   1.150   0.913  0.3754 -0.2470 -0.0965
 6349SOL    HW130683   2.408   1.078   0.851  2.1310 -0.1868  0.1162
 6349SOL    HW230684   2.448   1.216   0.864 -1.1210  1.5300  0.7426
 6350SOL     OW30685   2.864   4.727  10.887  0.8582  1.0617  0.5281
 6350SOL    HW130686   2.948   4.684  10.874  0.0692 -0.6218  0.9463
 6350SOL    HW230687   2.891   0.041  10.961 -0.1296 -1.8989  3.0280
 6351SOL     OW30688   3.191   2.261   2.704 -0.0284  0.1344  0.3019
 6351SOL    HW130689   3.209   2.287   2.795 -0.2641  1.8737 -0.1574
 6351SOL    HW230690   3.253   2.188   2.698  1.1514  1.2401 -1.1894
 6352SOL     OW30691   0.194   0.643  17.195 -0.1101 -0.0402  0.3619
 6352SOL    HW130692   0.105   0.628  17.226 -0.0616 -1.1199 -0.0283
 6352SOL    HW230693   0.239   0.654  17.279 -0.8947  0.2108  0.7526
 6353SOL     OW30694   1.800   4.303   3.698  0.3170 -0.1862 -0.3820
 6353SOL    HW130695   1.809   4.371   3.632 -1.5142 -1.5390 -2.0451
 6353SOL    HW230696   1.892   4.287   3.716  0.0908  0.0433  0.9600
 6354SOL     OW30697   3.931   1.769  10.780 -0.2592 -0.4172  0.0448
 6354SOL    HW130698   3.911   1.760  10.686  3.9686 -2.2848 -0.6742
 6354SOL    HW230699   3.851   1.734  10.818 -0.4965  1.7886  1.6197
 6355SOL     OW30700   1.873   2.751  17.653  0.3101  0.3842  0.0422
 6355SOL    HW130701   1.814   2.711  17.716 -0.5975  0.4546 -0.7667
 6355SOL    HW230702   1.928   2.672  17.657  0.2666  0.4631  2.2072
 6356SOL     OW30703   1.316   0.883   3.478  0.4202 -0.0907  0.3545
 6356SOL    HW130704   1.406   0.862   3.504  0.4573 -0.4900 -0.0911
 6356SOL    HW230705   1.288   0.948   3.542 -0.0406  0.1977 -0.1372
 6357SOL     OW30706   2.376   2.573  12.837 -0.5174 -0.2641  0.2464
 6357SOL    HW130707   2.394   2.609  12.750 -2.2519  2.2812  0.9181
 6357SOL    HW230708   2.396   2.646  12.897  2.5895 -0.6055 -0.3843
 6358SOL     OW30709   1.720   3.316   1.361 -0.5674 -0.0467 -0.2441
 6358SOL    HW130710   1.809   3.349   1.356 -1.5467  2.5268 -0.4188
 6358SOL    HW230711   1.707   3.326   1.456  0.2883 -1.1756 -0.0059
 6359SOL     OW30712   3.548   3.821  16.258  0.1548  0.7470 -0.3861
 6359SOL    HW130713   3.501   3.738  16.246  0.8657  0.1296  1.0747
 6359SOL    HW230714   3.635   3.780  16.264 -0.1127  0.5278  1.9096
 6360SOL     OW30715   0.872   0.156  17.334 -0.1520  0.4171  0.0495
 6360SOL    HW130716   0.782   0.124  17.335  0.3230 -0.9754 -1.4887
 6360SOL    HW230717   0.897   0.134  17.244 -1.7292 -0.2565 -0.2237
 6361SOL     OW30718   4.609   1.873  11.344  0.4244  0.3441  0.0073
 6361SOL    HW130719   4.598   1.779  11.358 -4.5480  1.0624  0.9826
 6361SOL    HW230720   4.520   1.906  11.358 -0.0172 -0.0055 -1.9426
 6362SOL     OW30721   2.399   3.719   6.675 -0.1252 -0.4417 -0.4103
 6362SOL    HW130722   2.429   3.638   6.717 -0.3817 -1.1757 -1.6521
 6362SOL    HW230723   2.388   3.781   6.747 -1.8127  0.8039 -1.7554
 6363SOL     OW30724   1.533   3.514  15.413  0.0446  0.3448 -0.9736
 6363SOL    HW130725   1.547   3.603  15.380  0.7196  1.2504  1.7064
 6363SOL    HW230726   1.611   3.500  15.467  1.6302  3.5826 -2.4188
 6364SOL     OW30727   3.091   3.545   9.537  0.1255 -0.1736  0.2545
 6364SOL    HW130728   3.127   3.461   9.567 -1.4314 -0.1377  2.1843
 6364SOL    HW230729   3.007   3.513   9.506 -0.4309  0.7858  0.7900
 6365SOL     OW30730   2.226   1.908  15.529 -0.1382  0.0061 -0.5456
 6365SOL    HW130731   2.159   1.845  15.555 -0.5393  1.1920  1.2643
 6365SOL    HW230732   2.184   1.991  15.510 -0.2742 -0.2862 -1.5160
 6366SOL     OW30733   1.468   3.820   7.160  0.2876 -0.1331 -0.3035
 6366SOL    HW130734   1.449   3.747   7.100 -0.6010  0.2304 -0.4613
 6366SOL    HW230735   1.524   3.873   7.103 -1.3829  0.2302 -1.6127
 6367SOL     OW30736   1.262   0.675   3.076  0.7314 -0.3114 -0.4765
 6367SOL    HW130737   1.344   0.640   3.112 -0.6454 -0.2146  2.7385
 6367SOL    HW230738   1.297   0.759   3.047  1.2379 -0.0532  0.8371
 6368SOL     OW30739   1.367   3.186   8.653 -0.4406  0.2175  0.1623
 6368SOL    HW130740   1.426   3.218   8.584  1.8417 -0.3358  1.8538
 6368SOL    HW230741   1.430   3.164   8.722  1.0633  0.5897 -1.1013
 6369SOL     OW30742   2.484   0.072   1.762  0.3817  0.4853  0.0251
 6369SOL    HW130743   2.556   0.133   1.747  0.9350  0.4343  2.3959
 6369SOL    HW230744   2.464   0.045   1.672 -1.3144 -0.1287  0.5719
 6370SOL     OW30745   3.309   4.669   6.419 -0.2713  0.3501  0.5534
 6370SOL    HW130746   3.254   4.658   6.341  1.5854  0.0362 -0.7173
 6370SOL    HW230747   3.390   4.634   6.382 -1.2221 -0.7109 -0.5661
 6371SOL     OW30748   2.403   2.316   5.874 -0.2093  0.4682 -0.5722
 6371SOL    HW130749   2.350   2.356   5.943  1.9585 -0.3639  1.5542
 6371SOL    HW230750   2.350   2.344   5.799  0.8280  1.9046 -0.7619
 6372SOL     OW30751   3.708   2.747  14.361 -0.0319 -0.2292 -0.2487
 6372SOL    HW130752   3.683   2.826  14.313  0.3297  0.4285  0.6682
 6372SOL    HW230753   3.633   2.723  14.414 -1.7178 -0.8617 -2.9006
 6373SOL     OW30754   3.940   4.725   8.876 -0.1275  0.0316  0.1050
 6373SOL    HW130755   3.869   0.038   8.841 -0.8747 -0.4263  0.9382
 6373SOL    HW230756   3.917   4.723   8.969  1.3535  1.2523  0.5120
 6374SOL     OW30757   2.931   2.265   4.104  0.0023  0.0437  0.1468
 6374SOL    HW130758   2.847   2.235   4.136  0.2973  0.0268  0.8980
 6374SOL    HW230759   2.941   2.226   4.017  0.6308  2.0785 -0.6930
 6375SOL     OW30760   1.987   1.681   1.746 -0.8562 -0.3134 -0.2192
 6375SOL    HW130761   1.937   1.603   1.772 -2.1257  0.6114  0.0824
 6375SOL    HW230762   1.920   1.723   1.692 -0.8613  1.4976  1.2136
 6376SOL     OW30763   2.888   3.286  15.204 -0.2005 -0.0938 -0.1815
 6376SOL    HW130764   2.897   3.375  15.239 -1.9307  0.0788 -0.1569
 6376SOL    HW230765   2.907   3.312  15.113 -1.7696 -1.9268 -1.0211
 6377SOL     OW30766   3.871   3.563   8.590  0.2307 -0.0137  0.2522
 6377SOL    HW130767   3.822   3.626   8.642 -1.0892  0.4631 -1.5851
 6377SOL    HW230768   3.939   3.615   8.547 -0.2017 -0.3210 -0.7917
 6378SOL     OW30769   1.471   1.390  11.343  0.1757  0.1484 -0.1138
 6378SOL    HW130770   1.516   1.394  11.427 -0.3172  0.2240  0.1417
 6378SOL    HW230771   1.437   1.300  11.343  0.1559  0.1617  2.0682
 6379SOL     OW30772   0.898   1.578   4.335 -0.7758 -0.0738 -0.0621
 6379SOL    HW130773   0.861   1.576   4.246 -0.7836 -2.3996 -0.0105
 6379SOL    HW230774   0.985   1.618   4.327 -1.6635  1.6715 -0.8590
 6380SOL     OW30775   3.088   2.881   3.255 -0.0574 -0.3038 -0.5787
 6380SOL    HW130776   3.025   2.939   3.297 -1.7759 -1.1107 -2.0392
 6380SOL    HW230777   3.100   2.817   3.325  0.9559 -1.3480 -1.7161
 6381SOL     OW30778   2.433   2.969   4.795  0.2732 -0.6634 -0.3731
 6381SOL    HW130779   2.450   2.967   4.701  4.6026  0.6597  0.4017
 6381SOL    HW230780   2.463   3.054   4.825  0.1858 -0.1037 -1.8858
 6382SOL     OW30781   4.181   3.761   4.288 -0.0066 -0.3234  0.4585
 6382SOL    HW130782   4.217   3.693   4.345  2.3060 -0.6694 -1.4305
 6382SOL    HW230783   4.112   3.710   4.246  0.8511  1.2325 -2.7940
 6383SOL     OW30784   0.847   2.094   7.193  0.2055  0.4399  0.0546
 6383SOL    HW130785   0.850   1.998   7.190  0.6219  0.4984 -1.1804
 6383SOL    HW230786   0.818   2.103   7.284  0.7098 -0.4642  0.3165
 6384SOL     OW30787   1.780   0.634   7.417  0.3420  0.5372 -0.3836
 6384SOL    HW130788   1.781   0.711   7.474  0.9418 -0.2925  0.7148
 6384SOL    HW230789   1.758   0.678   7.335  0.6583 -1.8059 -1.7433
 6385SOL     OW30790   2.381   1.484   3.187  0.7593  0.1058  0.7178
 6385SOL    HW130791   2.301   1.485   3.136 -0.4561 -0.1365  2.5955
 6385SOL    HW230792   2.419   1.396   3.186  0.6532  0.0653  0.2822
 6386SOL     OW30793   1.192   2.591  12.765 -0.2089  0.3668 -0.3293
 6386SOL    HW130794   1.262   2.655  12.752  1.6025 -0.9198  3.0111
 6386SOL    HW230795   1.245   2.511  12.758 -1.9527 -0.8184  0.0344
 6387SOL     OW30796   2.004   4.655   7.012 -0.3235  0.0063 -0.2001
 6387SOL    HW130797   2.031   4.718   6.945 -1.0990 -0.1175 -0.6314
 6387SOL    HW230798   1.956   4.590   6.961  1.3398  0.1056 -1.8971
 6388SOL     OW30799   3.292   2.340  10.099  0.1352  0.5595 -0.2441
 6388SOL    HW130800   3.243   2.420  10.079 -1.1302 -0.4154 -1.0415
 6388SOL    HW230801   3.382   2.372  10.095  0.4627 -0.2013  0.8573
 6389SOL     OW30802   0.230   3.745   1.009  0.2929 -0.5889  0.4256
 6389SOL    HW130803   0.235   3.675   0.943  3.0591  1.0926 -1.1465
 6389SOL    HW230804   0.264   3.821   0.961  1.4798  0.0672  2.3267
 6390SOL     OW30805   0.779   4.023   3.688  0.1600  1.1911 -0.0522
 6390SOL    HW130806   0.834   4.016   3.766 -0.5941  2.2719  0.5773
 6390SOL    HW230807   0.726   4.091   3.730  0.0532  1.2391 -0.2673
 6391SOL     OW30808   4.182   2.768  10.647  0.1446 -0.2194  0.6951
 6391SOL    HW130809   4.263   2.756  10.697 -0.0148 -3.0254  0.2621
 6391SOL    HW230810   4.201   2.767  10.554 -1.2222 -1.2105  0.4239
 6392SOL     OW30811   2.563   2.572  16.860 -0.0943 -0.1751 -0.4912
 6392SOL    HW130812   2.657   2.573  16.877  0.0830  2.0017 -1.6514
 6392SOL    HW230813   2.543   2.491  16.812  0.0296 -0.9335  0.7374
 6393SOL     OW30814   3.839   1.370   9.848 -0.0566 -0.2097  0.1645
 6393SOL    HW130815   3.825   1.461   9.820  1.6992  0.4918  1.5219
 6393SOL    HW230816   3.870   1.387   9.937 -0.1329  2.3383 -0.2767
 6394SOL     OW30817   2.583   3.605   8.125  0.5174 -0.0946 -0.2011
 6394SOL    HW130818   2.657   3.659   8.153  1.8495 -1.4966 -1.0441
 6394SOL    HW230819   2.584   3.625   8.031 -2.9825 -1.3380 -0.5028
 6395SOL     OW30820   3.303   3.282  15.936  0.2680 -0.0696 -0.2570
 6395SOL    HW130821   3.224   3.232  15.957  1.4475 -1.3654  1.1036
 6395SOL    HW230822   3.359   3.260  16.010 -1.0080 -0.8163  0.4877
 6396SOL     OW30823   2.052   2.942  12.548  0.2047  0.9699  0.3000
 6396SOL    HW130824   2.127   2.947  12.606  0.8933  0.6259 -0.5557
 6396SOL    HW230825   2.012   3.027  12.565 -2.9905 -1.0018  2.7451
 6397SOL     OW30826   2.364   4.338   3.446 -0.2781  0.4162  0.0521
 6397SOL    HW130827   2.367   4.253   3.490 -2.2685 -0.6075 -1.7301
 6397SOL    HW230828   2.278   4.341   3.403 -0.7561  1.0128  1.0489
 6398SOL     OW30829   3.509   1.864   7.737  0.1563  0.4940  0.2580
 6398SOL    HW130830   3.522   1.789   7.795  0.1826 -0.1358 -0.5630
 6398SOL    HW230831   3.532   1.933   7.799  1.0287  1.8844 -1.6106
 6399SOL     OW30832   3.493   4.274   6.660  0.0287 -0.5025  0.1729
 6399SOL    HW130833   3.431   4.203   6.642  1.2084 -1.5736  0.3744
 6399SOL    HW230834   3.485   4.307   6.571 -1.2508 -0.1492  0.4057
 6400SOL     OW30835   4.496   0.257   0.348  0.7753  0.2888 -0.6781
 6400SOL    HW130836   4.558   0.298   0.409  0.4709  1.0422 -0.8761
 6400SOL    HW230837   4.496   0.324   0.280  2.2695  0.0975 -0.8721
 6401SOL     OW30838   0.299   2.669   3.256 -0.1060  0.0871  0.1317
 6401SOL    HW130839   0.269   2.691   3.168 -0.1581  0.2417  0.1888
 6401SOL    HW230840   0.217   2.656   3.304 -1.7493  1.3925 -2.3049
 6402SOL     OW30841   2.794   4.340   5.772  0.5026 -0.5464 -0.2340
 6402SOL    HW130842   2.700   4.354   5.775  1.0722  3.1711 -0.6185
 6402SOL    HW230843   2.802   4.286   5.851 -0.3399 -1.3648 -0.7094
 6403SOL     OW30844   4.507   4.001   4.372  0.1580  0.8161  0.3858
 6403SOL    HW130845   4.427   4.019   4.421 -0.4133 -0.8717  0.0713
 6403SOL    HW230846   4.565   4.064   4.415  0.3548 -0.2115  1.5965
 6404SOL     OW30847   1.198   4.491  13.029  0.0137 -0.0896  0.3187
 6404SOL    HW130848   1.144   4.551  13.080  1.5215  2.3497 -0.9269
 6404SOL    HW230849   1.193   4.522  12.938  0.6464 -0.9731 -0.0119
 6405SOL     OW30850   0.184   2.896   8.265  0.2941 -0.3566 -0.0486
 6405SOL    HW130851   0.266   2.902   8.216  1.8774 -1.1443  2.4664
 6405SOL    HW230852   0.218   2.953   8.334  0.9225 -0.6434 -0.1195
 6406SOL     OW30853   2.067   2.782  10.927  0.2398  0.0024  0.2751
 6406SOL    HW130854   2.113   2.701  10.950 -0.8547 -0.9412 -0.8095
 6406SOL    HW230855   2.128   2.831  10.871 -0.5882  0.6148 -0.0882
 6407SOL     OW30856   3.167   2.310  13.419  0.2282  0.1189  0.3754
 6407SOL    HW130857   3.101   2.358  13.370  0.5865  2.6532  2.4197
 6407SOL    HW230858   3.138   2.306  13.510 -1.8211 -0.2696 -0.2987
 6408SOL     OW30859   4.503   0.310  16.782  0.6012  0.2430 -0.2741
 6408SOL    HW130860   4.558   0.239  16.813 -0.0492 -0.9898 -1.9911
 6408SOL    HW230861   4.570   0.378  16.783 -0.8323  1.6671  0.7542
 6409SOL     OW30862   1.669   2.954   1.046 -0.1406  0.2741  0.1565
 6409SOL    HW130863   1.737   2.936   0.981  1.1240  3.7350  0.4949
 6409SOL    HW230864   1.717   2.996   1.117 -1.7637 -0.7810  1.8603
 6410SOL     OW30865   3.758   3.813   5.725 -0.4167  0.3435  0.4117
 6410SOL    HW130866   3.831   3.814   5.663 -1.0937  1.2140 -0.3665
 6410SOL    HW230867   3.777   3.725   5.758 -0.4671 -0.5024 -1.8191
 6411SOL     OW30868   4.417   0.722   3.139  0.2884 -0.1928  0.3096
 6411SOL    HW130869   4.362   0.666   3.085  2.5372 -2.3637  0.2548
 6411SOL    HW230870   4.373   0.807   3.145  1.3441  0.3658  0.1112
 6412SOL     OW30871   1.922   1.986   3.280  0.1506  0.1771 -0.3863
 6412SOL    HW130872   1.925   2.081   3.273 -0.8769  0.3936  1.9488
 6412SOL    HW230873   1.878   1.973   3.364  2.2680  1.3920  0.9192
 6413SOL     OW30874   3.290   0.876   0.501 -0.7005 -0.3084 -0.1389
 6413SOL    HW130875   3.252   0.791   0.481 -0.9843 -0.8522  2.6510
 6413SOL    HW230876   3.378   0.851   0.476  0.1977  0.8803  1.7595
 6414SOL     OW30877   1.130   1.100   3.566 -0.1858  0.3392 -0.0498
 6414SOL    HW130878   1.175   1.180   3.540  1.9606 -0.5653  0.9287
 6414SOL    HW230879   1.043   1.120   3.531  0.7461  3.6506 -0.4748
 6415SOL     OW30880   0.016   1.608   9.630 -0.3347  0.6408 -0.5851
 6415SOL    HW130881   0.079   1.556   9.680  1.6332  2.4310 -1.2376
 6415SOL    HW230882   4.701   1.534   9.602  1.4063 -0.0676 -2.0860
 6416SOL     OW30883   0.687   3.986   1.775  0.2567  0.0909  0.2132
 6416SOL    HW130884   0.713   3.921   1.840 -1.0215  1.7792  2.4089
 6416SOL    HW230885   0.594   3.996   1.796 -0.4892 -0.4068 -2.9070
 6417SOL     OW30886   3.894   2.910   5.821 -0.1901 -0.0959  0.4407
 6417SOL    HW130887   3.840   2.989   5.821 -1.5781 -1.0546  0.6533
 6417SOL    HW230888   3.909   2.885   5.912  0.9956 -0.4578  0.1521
 6418SOL     OW30889   1.657   2.365   4.543  0.5038 -0.5414  0.0425
 6418SOL    HW130890   1.573   2.319   4.544  1.5028 -2.4078 -0.7564
 6418SOL    HW230891   1.713   2.290   4.521 -1.0173 -1.4783 -0.6078
 6419SOL     OW30892   3.601   3.005  14.284 -0.2141 -0.3528 -0.9476
 6419SOL    HW130893   3.509   3.000  14.256 -0.7507  2.3982  0.2929
 6419SOL    HW230894   3.637   3.062  14.217  0.0125 -0.6796 -1.1032
 6420SOL     OW30895   0.901   2.080   5.014  0.1961  0.2604  0.3048
 6420SOL    HW130896   0.832   2.074   5.080  1.4631  0.2520  1.6296
 6420SOL    HW230897   0.946   2.162   5.036  1.3833  0.0941 -1.4553
 6421SOL     OW30898   1.407   2.987   6.947 -0.2587  0.5639  0.5888
 6421SOL    HW130899   1.352   3.034   6.884 -0.9203 -0.0784  0.6877
 6421SOL    HW230900   1.489   3.037   6.945 -0.3034  0.5949 -0.5241
 6422SOL     OW30901   2.301   1.137   9.129 -0.0673  0.3007  0.0933
 6422SOL    HW130902   2.366   1.205   9.145  0.6619 -0.5919  1.0026
 6422SOL    HW230903   2.344   1.052   9.140  0.8674  0.8315  0.4908
 6423SOL     OW30904   4.065   1.580   2.543 -0.3446  0.1196 -0.0164
 6423SOL    HW130905   4.015   1.532   2.476  0.2542 -0.1290 -0.2817
 6423SOL    HW230906   4.128   1.515   2.574  1.2181  0.9707 -1.4454
 6424SOL     OW30907   3.713   3.475  10.459 -0.0269  0.6649  0.0464
 6424SOL    HW130908   3.694   3.486  10.552 -0.2976 -0.3749  0.1163
 6424SOL    HW230909   3.626   3.470  10.419 -0.7855  1.5338  1.6222
 6425SOL     OW30910   4.296   1.919  10.727 -0.2580  0.2594  0.0571
 6425SOL    HW130911   4.374   1.975  10.734 -0.3598  0.1827  1.6589
 6425SOL    HW230912   4.322   1.870  10.649 -0.3587  0.9638 -0.4207
 6426SOL     OW30913   0.663   1.089   7.080  0.2340  0.1549  0.2059
 6426SOL    HW130914   0.747   1.049   7.057 -0.5882  0.5313 -3.5517
 6426SOL    HW230915   0.641   1.049   7.164 -0.0455 -1.4314 -0.6224
 6427SOL     OW30916   1.288   0.663   6.376  0.1131  0.0354 -0.2384
 6427SOL    HW130917   1.364   0.631   6.425 -1.0925 -0.4653  1.3207
 6427SOL    HW230918   1.228   0.595   6.408  0.2239  0.2486  0.4062
 6428SOL     OW30919   0.574   3.398   3.966 -0.0312 -0.4262 -0.0000
 6428SOL    HW130920   0.637   3.432   4.029 -0.1302  2.2315 -1.3321
 6428SOL    HW230921   0.511   3.360   4.027  0.3763 -2.1700 -0.6558
 6429SOL     OW30922   3.370   4.552   1.961 -0.3382 -0.7593 -0.2134
 6429SOL    HW130923   3.416   4.514   2.037 -0.0544  1.4608  0.7134
 6429SOL    HW230924   3.293   4.599   1.993  0.1969  0.3796 -0.6142
 6430SOL     OW30925   0.241   2.847   1.710 -0.1713  0.4675 -0.1987
 6430SOL    HW130926   0.262   2.857   1.617 -1.1324  1.4951 -0.3068
 6430SOL    HW230927   0.330   2.842   1.745  0.6609  0.7849 -2.2671
 6431SOL     OW30928   1.894   3.070   3.406 -0.0152  0.0521  0.5674
 6431SOL    HW130929   1.845   3.049   3.486  1.2041  0.1996  1.3653
 6431SOL    HW230930   1.822   3.112   3.359 -0.8454  0.4296  2.1513
 6432SOL     OW30931   2.649   1.503  14.631 -0.5178 -0.1350  0.3046
 6432SOL    HW130932   2.586   1.494  14.560  1.1086 -0.6484 -1.0958
 6432SOL    HW230933   2.678   1.593  14.617 -0.3216 -0.4811 -1.5107
 6433SOL     OW30934   4.273   3.465   2.878  0.8228 -0.2786 -0.7554
 6433SOL    HW130935   4.225   3.531   2.827  0.1436 -1.0135 -1.0597
 6433SOL    HW230936   4.359   3.502   2.858  0.9286 -0.9083 -1.4616
 6434SOL     OW30937   1.518   2.735   0.571  0.6390  0.2997 -0.0161
 6434SOL    HW130938   1.482   2.653   0.605 -0.1608  0.6755  0.0310
 6434SOL    HW230939   1.435   2.782   0.566  0.7285  0.5914  1.2819
 6435SOL     OW30940   0.014   1.181   6.688 -0.1205  0.3096  0.2598
 6435SOL    HW130941   0.044   1.236   6.616  1.0057  0.5307  0.8954
 6435SOL    HW230942   0.060   1.098   6.673 -0.9898  0.4393 -3.0998
 6436SOL     OW30943   0.105   1.070   3.807  0.4485 -0.1153  0.3716
 6436SOL    HW130944   0.058   1.152   3.792  2.7456  1.0529 -0.3802
 6436SOL    HW230945   0.092   1.036   3.718  1.4406  0.1442  0.1347
 6437SOL     OW30946   0.791   0.258  15.125 -0.0989 -0.4380 -0.9063
 6437SOL    HW130947   0.758   0.340  15.087 -2.4774 -0.3805  1.2992
 6437SOL    HW230948   0.833   0.291  15.205  0.6475  0.4380 -1.6578
 6438SOL     OW30949   3.090   2.155   9.201 -0.1797  0.4049  0.1062
 6438SOL    HW130950   3.090   2.116   9.289  1.3251 -0.1945 -0.1632
 6438SOL    HW230951   3.057   2.079   9.152 -0.6463  0.9004 -0.3431
 6439SOL     OW30952   2.393   0.347   8.512 -0.4658 -0.6320  0.2031
 6439SOL    HW130953   2.438   0.430   8.529 -2.9771  0.6414  0.5799
 6439SOL    HW230954   2.381   0.319   8.602 -0.2123  3.3710  1.4564
 6440SOL     OW30955   0.880   2.215  13.098 -0.2508  0.2132  0.1143
 6440SOL    HW130956   0.801   2.207  13.044  0.8084 -1.1874 -1.2371
 6440SOL    HW230957   0.858   2.301  13.135  0.5660  0.1299  0.7981
 6441SOL     OW30958   4.507   0.880   6.148 -0.4715  0.2341  0.3765
 6441SOL    HW130959   4.462   0.815   6.094 -1.6819  1.7358 -0.4130
 6441SOL    HW230960   4.425   0.923   6.175 -1.5940 -1.7375  0.1479
 6442SOL     OW30961   4.587   3.800  12.630  0.1706  0.3937 -0.1029
 6442SOL    HW130962   4.565   3.816  12.722 -2.6215 -0.0439 -0.6845
 6442SOL    HW230963   4.500   3.804  12.591  0.6679  2.7414 -0.9792
 6443SOL     OW30964   3.344   4.482   0.612 -0.2820 -1.0622 -0.0747
 6443SOL    HW130965   3.404   4.460   0.684 -1.4439 -2.0739  0.5871
 6443SOL    HW230966   3.395   4.558   0.583  2.3287 -1.8134  2.5476
 6444SOL     OW30967   3.250   1.374   6.174  0.3270  0.0753 -0.0779
 6444SOL    HW130968   3.205   1.454   6.148 -0.1790  0.1174  0.9308
 6444SOL    HW230969   3.218   1.316   6.104  1.2453  0.2840 -0.6582
 6445SOL     OW30970   3.659   3.170   1.275  0.2528 -0.0069 -0.2098
 6445SOL    HW130971   3.694   3.136   1.357  2.3143  3.7245  0.4882
 6445SOL    HW230972   3.602   3.243   1.300 -1.4512 -0.9968 -1.1939
 6446SOL     OW30973   3.859   2.445   7.872  0.4859 -0.3387  0.5947
 6446SOL    HW130974   3.862   2.413   7.781  1.3141 -0.0090  0.5044
 6446SOL    HW230975   3.949   2.447   7.906  0.7742  1.1729 -0.2254
 6447SOL     OW30976   3.469   3.940   1.982 -0.3718 -0.0151 -0.5216
 6447SOL    HW130977   3.393   3.970   1.931 -0.2291 -0.4348 -0.9890
 6447SOL    HW230978   3.438   3.869   2.038  1.2409  0.0544  0.4681
 6448SOL     OW30979   1.301   2.516   3.028 -0.0908  0.0541  0.1194
 6448SOL    HW130980   1.246   2.543   3.101 -0.7755  0.1200 -0.4229
 6448SOL    HW230981   1.364   2.588   3.026 -0.9409  0.7783 -0.3688
 6449SOL     OW30982   2.557   0.384   0.307  0.0845 -0.3307 -0.1643
 6449SOL    HW130983   2.560   0.291   0.286  0.8263 -0.3108 -0.1582
 6449SOL    HW230984   2.471   0.404   0.343 -0.5157 -0.2407 -1.6595
 6450SOL     OW30985   0.577   4.476   9.202 -0.2450 -0.1933  0.0484
 6450SOL    HW130986   0.516   4.543   9.172 -0.5611 -0.5872 -0.1704
 6450SOL    HW230987   0.519   4.439   9.267  0.4633  1.3242  1.5631
 6451SOL     OW30988   2.602   3.326   6.097  0.0229  0.8428 -0.3044
 6451SOL    HW130989   2.674   3.357   6.042  2.0058 -0.9851  1.2931
 6451SOL    HW230990   2.643   3.277   6.168  0.5911  0.4701 -0.8849
 6452SOL     OW30991   3.223   3.926   3.033 -0.2165 -0.0904 -0.5480
 6452SOL    HW130992   3.201   4.016   3.058 -2.0829 -0.5097 -0.6841
 6452SOL    HW230993   3.145   3.904   2.981  0.0472  0.6243 -1.2527
 6453SOL     OW30994   2.435   4.326   3.121 -0.2697 -0.2947  0.1779
 6453SOL    HW130995   2.520   4.366   3.138 -0.3253  0.1463 -0.6196
 6453SOL    HW230996   2.384   4.356   3.197  3.0105 -0.5505  2.4722
 6454SOL     OW30997   4.395   2.673   6.179 -0.2432 -0.7078  0.3643
 6454SOL    HW130998   4.463   2.696   6.116  0.0004 -1.2704  0.4229
 6454SOL    HW230999   4.341   2.616   6.126 -0.0138 -0.1159 -0.5009
 6455SOL     OW31000   4.196   4.439   6.282 -0.1578  0.2716 -0.1037
 6455SOL    HW131001   4.180   4.532   6.295 -1.8747  0.2304 -1.8445
 6455SOL    HW231002   4.282   4.430   6.323 -0.0522 -0.1415 -0.4105
 6456SOL     OW31003   4.698   4.601   5.126 -0.7828 -0.3545  0.6195
 6456SOL    HW131004   0.027   4.606   5.192  0.8131  1.5388 -1.1945
 6456SOL    HW231005   4.685   4.507   5.120  3.3679 -0.9712  1.1914
 6457SOL     OW31006   4.574   2.759  16.659  0.0626 -0.7298  0.0452
 6457SOL    HW131007   4.508   2.721  16.602 -1.2456 -1.9722  2.3803
 6457SOL    HW231008   4.645   2.695  16.654 -1.0986 -1.8956 -1.6001
 6458SOL     OW31009   2.370   4.333   1.338 -0.0027  0.4190 -0.0154
 6458SOL    HW131010   2.404   4.378   1.260 -0.2990 -0.7005 -0.7819
 6458SOL    HW231011   2.355   4.245   1.304  2.6852  0.2250 -0.7568
 6459SOL     OW31012   1.711   3.257   7.078  0.0697  1.2190  0.0166
 6459SOL    HW131013   1.623   3.288   7.098  0.0460  0.6417  0.8031
 6459SOL    HW231014   1.699   3.200   7.002 -0.5797 -1.5536  2.1820
 6460SOL     OW31015   0.255   2.485   2.519 -0.0179 -0.2903  0.2928
 6460SOL    HW131016   0.220   2.561   2.473 -0.7530 -0.8130 -0.0251
 6460SOL    HW231017   0.231   2.508   2.609  0.3263  0.7141  0.1244
 6461SOL     OW31018   4.597   0.081   2.504 -0.0011 -0.5478 -0.4115
 6461SOL    HW131019   4.642   0.033   2.573  0.3645  0.8902  0.3613
 6461SOL    HW231020   4.567   0.013   2.444 -1.0838 -0.9514  0.5741
 6462SOL     OW31021   4.615   0.797  12.027 -0.1313  0.3213 -0.3857
 6462SOL    HW131022   4.685   0.832  11.972 -0.5698  0.2169 -1.0194
 6462SOL    HW231023   4.591   0.882  12.065 -1.0597 -0.3760  0.5645
 6463SOL     OW31024   3.643   1.452   6.151 -0.0022  0.3251  0.0626
 6463SOL    HW131025   3.609   1.509   6.220  1.2166 -1.5158  2.1760
 6463SOL    HW231026   3.647   1.527   6.092 -1.8012  0.6591  0.3624
 6464SOL     OW31027   0.848   3.789   5.775 -0.0763  0.3393  0.5265
 6464SOL    HW131028   0.846   3.885   5.773  1.2214  0.3560 -0.3250
 6464SOL    HW231029   0.760   3.770   5.808 -0.4003 -0.5604 -0.8356
 6465SOL     OW31030   2.377   3.864   5.223  0.1396  0.3845  0.1568
 6465SOL    HW131031   2.433   3.913   5.162 -0.0968  0.2842 -0.1439
 6465SOL    HW231032   2.415   3.895   5.305 -1.1961  1.3127  0.4410
 6466SOL     OW31033   0.843   4.662   7.698  0.0129  0.5776  0.1534
 6466SOL    HW131034   0.819   0.009   7.729  0.1531 -0.1113  2.1874
 6466SOL    HW231035   0.767   4.607   7.719  0.4121 -0.0108  0.0562
 6467SOL     OW31036   0.453   3.383  17.579 -0.0992 -0.1772  0.3641
 6467SOL    HW131037   0.473   3.448  17.647 -0.8028  0.4256 -0.0004
 6467SOL    HW231038   0.532   3.401  17.528 -0.8848  0.8577 -0.5135
 6468SOL     OW31039   3.684   0.475  12.807 -0.2744  0.0417  0.6932
 6468SOL    HW131040   3.590   0.494  12.798  0.0472  2.1012  1.6541
 6468SOL    HW231041   3.683   0.453  12.900 -0.9455 -2.2083  0.1381
 6469SOL     OW31042   4.512   0.722   3.664 -0.3100  0.1037 -0.0667
 6469SOL    HW131043   4.549   0.808   3.683 -0.3626  0.3715 -1.2042
 6469SOL    HW231044   4.519   0.696   3.756  0.4882 -0.4239 -0.2851
 6470SOL     OW31045   2.763   0.406  11.510 -0.2758  0.0782 -0.3638
 6470SOL    HW131046   2.721   0.382  11.593 -0.1975 -0.9047 -0.6008
 6470SOL    HW231047   2.795   0.493  11.534  2.6570 -0.4554 -2.2761
 6471SOL     OW31048   3.329   2.832   3.102  0.3355  0.1495 -0.6487
 6471SOL    HW131049   3.257   2.863   3.156  0.5788  0.8111 -0.7090
 6471SOL    HW231050   3.405   2.824   3.160 -0.0950  0.1382 -0.0830
 6472SOL     OW31051   3.645   1.837   5.758 -0.0284  0.0461 -0.2584
 6472SOL    HW131052   3.628   1.913   5.813 -0.2296  0.4831 -0.9210
 6472SOL    HW231053   3.741   1.839   5.760  0.0311 -1.5695 -0.8129
 6473SOL     OW31054   3.980   2.836   3.186 -0.0009 -0.0079 -0.1680
 6473SOL    HW131055   4.060   2.876   3.152 -0.5674  0.3693 -1.0793
 6473SOL    HW231056   4.005   2.815   3.275  1.8802  0.2170 -0.6443
 6474SOL     OW31057   1.390   2.304   8.317 -0.0420  0.5296 -0.3477
 6474SOL    HW131058   1.341   2.353   8.383 -3.1949  1.0054 -3.0604
 6474SOL    HW231059   1.478   2.323   8.351 -0.5263 -1.9830  2.3367
 6475SOL     OW31060   4.016   0.775   0.818 -0.0439 -0.5869  0.1372
 6475SOL    HW131061   4.009   0.870   0.811  0.9523 -0.5976 -1.0785
 6475SOL    HW231062   4.104   0.750   0.790  0.0845  0.6873 -0.6158
 6476SOL     OW31063   2.313   3.594   7.769  0.2790  0.2001 -0.0771
 6476SOL    HW131064   2.246   3.529   7.788  0.1938  0.4287  0.4135
 6476SOL    HW231065   2.287   3.636   7.687 -2.9483 -1.0204  0.3322
 6477SOL     OW31066   4.102   1.367   5.911 -0.0267 -0.6293 -0.5453
 6477SOL    HW131067   4.077   1.459   5.918  2.2621  0.0149 -0.8597
 6477SOL    HW231068   4.136   1.347   5.824  2.6206  1.8261 -0.0830
 6478SOL     OW31069   1.286   0.414   4.856  0.0016 -0.1106 -0.1622
 6478SOL    HW131070   1.204   0.369   4.879 -1.3332  3.3058  1.7402
 6478SOL    HW231071   1.263   0.455   4.773  1.1481  0.3587 -0.2421
 6479SOL     OW31072   2.887   1.152   4.997 -0.1489 -0.0923  0.3449
 6479SOL    HW131073   2.948   1.098   4.947  2.1964  2.7718  0.1052
 6479SOL    HW231074   2.823   1.084   5.016 -0.7840  0.5263  0.3944
 6480SOL     OW31075   4.732   2.315   5.434  0.0262  0.3373 -0.5256
 6480SOL    HW131076   0.063   2.313   5.369  0.0037 -0.1243 -0.5322
 6480SOL    HW231077   4.735   2.227   5.471  1.9190  0.5754 -0.0868
 6481SOL     OW31078   4.608   1.201   8.843  0.0474  0.2471 -0.2030
 6481SOL    HW131079   4.681   1.244   8.888  0.2726  0.0635 -0.3918
 6481SOL    HW231080   4.614   1.108   8.865  2.8664  1.1196  2.8454
 6482SOL     OW31081   1.110   3.736   6.916  0.4985  0.0546 -0.2523
 6482SOL    HW131082   1.083   3.691   6.836 -1.9460  0.4385  0.3627
 6482SOL    HW231083   1.122   3.820   6.872  0.9287  0.6645  1.0279
 6483SOL     OW31084   4.596   0.399   6.859  0.2766  0.1750  0.1300
 6483SOL    HW131085   4.618   0.480   6.812 -1.3444 -0.1025 -1.1170
 6483SOL    HW231086   4.684   0.372   6.883 -0.4732 -1.1824  1.3062
 6484SOL     OW31087   2.401   3.187   8.098  0.4030 -0.0528  0.2859
 6484SOL    HW131088   2.428   3.168   8.009  0.6263  0.8756  0.1489
 6484SOL    HW231089   2.349   3.110   8.120  1.5434 -1.1408 -0.8493
 6485SOL     OW31090   2.255   2.425   6.088  0.5372  0.2054 -0.7687
 6485SOL    HW131091   2.166   2.421   6.055  0.4086 -1.1301 -0.2163
 6485SOL    HW231092   2.241   2.514   6.121  2.0403  0.7108 -1.4508
 6486SOL     OW31093   4.622   0.836   8.831 -0.0363  0.6059  0.2369
 6486SOL    HW131094   4.591   0.841   8.922 -0.9487  2.4717 -0.1854
 6486SOL    HW231095   4.550   0.786   8.793 -0.3681  2.3798 -1.4600
 6487SOL     OW31096   2.154   1.634   3.879 -0.2363 -0.2749  0.2033
 6487SOL    HW131097   2.232   1.579   3.886  1.8994  2.7291  0.1310
 6487SOL    HW231098   2.160   1.659   3.787 -0.3630 -1.2442 -0.0712
 6488SOL     OW31099   4.114   4.590  12.144 -0.7299 -0.0980 -0.2376
 6488SOL    HW131100   4.162   4.600  12.227 -0.5378 -0.6578 -0.2754
 6488SOL    HW231101   4.178   4.638  12.092  0.4160 -1.6911 -0.3123
 6489SOL     OW31102   0.867   3.200   7.154  0.0054  0.6942  0.5831
 6489SOL    HW131103   0.789   3.218   7.102  2.3670  1.7889 -2.5294
 6489SOL    HW231104   0.921   3.278   7.148  1.5489 -0.4991 -0.8362
 6490SOL     OW31105   4.356   3.408  17.353  0.4984 -0.5845  0.0356
 6490SOL    HW131106   4.439   3.416  17.307 -0.2231  1.6455 -0.8825
 6490SOL    HW231107   4.382   3.339  17.414  1.6721  0.5466  0.8075
 6491SOL     OW31108   2.129   0.244   1.682 -0.1087 -0.1852 -0.1517
 6491SOL    HW131109   2.159   0.298   1.609  0.6564 -2.0810 -1.2395
 6491SOL    HW231110   2.180   0.163   1.682 -3.6901 -2.4252  0.1685
 6492SOL     OW31111   0.968   4.628   8.116 -0.2871 -0.3494 -0.6071
 6492SOL    HW131112   0.917   4.708   8.105 -1.9189 -1.2294  0.4297
 6492SOL    HW231113   0.918   4.586   8.186  1.0513  1.9630  1.7338
 6493SOL     OW31114   4.311   1.465  13.511  0.2983  0.2037 -0.6680
 6493SOL    HW131115   4.395   1.507  13.531 -0.4464  1.7183 -0.7231
 6493SOL    HW231116   4.280   1.488  13.599 -0.2625 -1.7008 -0.3659
 6494SOL     OW31117   4.500   2.398   4.442  1.0419  0.2050  0.3964
 6494SOL    HW131118   4.559   2.397   4.367  3.5070 -2.2959  2.3630
 6494SOL    HW231119   4.446   2.477   4.434 -1.9956 -2.1930 -2.4923
 6495SOL     OW31120   0.797   4.734   2.959  0.2519 -0.2660  0.1217
 6495SOL    HW131121   0.736   0.020   2.890 -0.4534  1.1317  1.2854
 6495SOL    HW231122   0.878   4.713   2.912 -0.3974 -2.5752  0.0389
 6496SOL     OW31123   4.582   2.621   2.843 -0.4941 -0.4553 -0.1353
 6496SOL    HW131124   4.492   2.629   2.811 -0.5723 -0.9870 -0.0362
 6496SOL    HW231125   4.607   2.690   2.781 -1.5251  0.1888  0.1675
 6497SOL     OW31126   1.970   0.909   7.673  0.1071  0.2028 -0.6373
 6497SOL    HW131127   2.048   0.951   7.710  0.8111 -2.9078  1.3720
 6497SOL    HW231128   2.002   0.848   7.607  1.6733  1.3090 -0.9051
 6498SOL     OW31129   2.956   0.436   0.327  0.3822  0.5069  0.6843
 6498SOL    HW131130   3.007   0.378   0.270 -0.6352 -0.1236  0.4159
 6498SOL    HW231131   2.869   0.437   0.287  1.3852 -4.3975 -1.5977
 6499SOL     OW31132   0.071   4.444   3.064  0.0520  0.5536 -0.0047
 6499SOL    HW131133   0.109   4.516   3.115  1.1533 -0.1996  0.2479
 6499SOL    HW231134   4.724   4.447   3.102  0.3679 -1.0868  0.8482
 6500SOL     OW31135   1.372   4.609  17.122 -0.0019  0.4967  0.0664
 6500SOL    HW131136   1.357   4.581  17.213  2.3038 -0.4074  0.1758
 6500SOL    HW231137   1.325   4.691  17.133 -2.6053 -1.0979  0.9124
 6501SOL     OW31138   1.631   2.159   3.591  0.1160 -0.5580  0.1103
 6501SOL    HW131139   1.581   2.223   3.641  0.5828  2.7385 -3.6591
 6501SOL    HW231140   1.632   2.182   3.498  0.3646  0.2877  0.3254
 6502SOL     OW31141   0.433   0.349   5.779 -0.1633  0.4473 -0.1498
 6502SOL    HW131142   0.490   0.310   5.713 -1.6407  1.3941 -1.9919
 6502SOL    HW231143   0.459   0.441   5.771  2.5956 -0.3140 -0.1543
 6503SOL     OW31144   2.534   1.039  12.595 -0.1935 -0.4280 -0.4799
 6503SOL    HW131145   2.541   1.008  12.504 -2.5441  1.5431 -1.3440
 6503SOL    HW231146   2.616   1.006  12.632 -0.4504  1.6662  1.8923
 6504SOL     OW31147   0.228   1.713  14.041 -0.4076  0.4281  0.0258
 6504SOL    HW131148   0.262   1.797  14.008 -0.8789  0.1756 -1.1149
 6504SOL    HW231149   0.222   1.653  13.967  2.3793  0.0516  0.1012
 6505SOL     OW31150   0.306   4.023  13.303 -0.3123 -0.3960  0.1758
 6505SOL    HW131151   0.388   4.042  13.348 -0.3569 -1.7028  0.7897
 6505SOL    HW231152   0.232   4.019  13.363 -0.3630 -0.8495  0.0783
 6506SOL     OW31153   2.432   1.316  11.933  0.1575 -0.1121  0.2129
 6506SOL    HW131154   2.392   1.386  11.881  0.6851  0.3233  0.3930
 6506SOL    HW231155   2.436   1.250  11.863  0.7827  0.4863 -0.3167
 6507SOL     OW31156   3.351   0.448   0.368 -0.0206  0.4764  0.5904
 6507SOL    HW131157   3.360   0.361   0.405 -0.1099  0.6728  1.0726
 6507SOL    HW231158   3.379   0.435   0.277  0.7914  0.5716  0.8225
 6508SOL     OW31159   3.293   3.991  13.716 -0.3244  0.0694  0.2251
 6508SOL    HW131160   3.248   4.019  13.796 -1.5856  1.6473 -1.0219
 6508SOL    HW231161   3.320   4.071  13.670 -3.0379  1.1479  0.4827
 6509SOL     OW31162   3.112   4.242   7.799  0.2243 -0.1100  0.1196
 6509SOL    HW131163   3.070   4.315   7.845 -0.3056 -0.8622  0.8149
 6509SOL    HW231164   3.038   4.208   7.749  1.0738 -1.9447  0.1165
 6510SOL     OW31165   1.297   0.625   4.306  0.5571  0.0184 -0.1917
 6510SOL    HW131166   1.296   0.541   4.352 -1.9220 -0.7881 -1.7394
 6510SOL    HW231167   1.212   0.623   4.263  0.0400 -0.2873  0.8232
 6511SOL     OW31168   4.025   4.632   8.587 -0.0729 -0.1076 -0.1749
 6511SOL    HW131169   3.958   4.637   8.520  0.5887  2.8654 -0.6264
 6511SOL    HW231170   3.981   4.665   8.666 -0.9462 -1.4216 -0.1115
 6512SOL     OW31171   3.377   3.813  12.655  0.4662  0.0532 -0.5194
 6512SOL    HW131172   3.334   3.770  12.729  1.3464 -1.6629 -1.0186
 6512SOL    HW231173   3.298   3.855  12.620 -0.8016 -2.4751 -0.6776
 6513SOL     OW31174   0.020   1.801   4.216  0.5623 -0.0093 -0.8183
 6513SOL    HW131175   4.692   1.750   4.259 -0.2149  1.5479 -0.1970
 6513SOL    HW231176   0.095   1.756   4.256  1.4466  2.5759  0.4456
 6514SOL     OW31177   2.503   0.733   7.347 -0.0616  0.1595 -0.4266
 6514SOL    HW131178   2.552   0.753   7.267  0.5545  2.4814  0.5203
 6514SOL    HW231179   2.456   0.653   7.324  1.2251 -1.4699  2.6245
 6515SOL     OW31180   3.586   0.397   7.328  0.7779 -0.7070  0.3208
 6515SOL    HW131181   3.492   0.380   7.333  0.6571 -0.5603 -1.5173
 6515SOL    HW231182   3.626   0.311   7.325  1.1817 -0.4640 -1.0444
 6516SOL     OW31183   4.131   3.730   2.007 -0.6596 -0.7471  0.0239
 6516SOL    HW131184   4.165   3.737   2.096 -1.5069  0.7177  0.2305
 6516SOL    HW231185   4.043   3.707   2.037 -1.0465  2.2944  1.2149
 6517SOL     OW31186   3.570   1.321  14.856 -0.0538 -0.6024 -0.3103
 6517SOL    HW131187   3.589   1.348  14.767  0.9689 -1.7545 -0.4440
 6517SOL    HW231188   3.553   1.227  14.848 -0.5718 -0.4062 -1.4607
 6518SOL     OW31189   2.786   0.435   6.064  0.0782  0.2833  0.2112
 6518SOL    HW131190   2.714   0.377   6.038  0.0887  0.0628  0.6868
 6518SOL    HW231191   2.822   0.442   5.976 -1.5285 -1.1430 -0.5692
 6519SOL     OW31192   1.510   0.408   2.151 -0.3469  0.2080 -0.5550
 6519SOL    HW131193   1.497   0.499   2.177 -2.3324 -0.2428  0.0201
 6519SOL    HW231194   1.424   0.382   2.119 -0.3138 -1.1994  0.4981
 6520SOL     OW31195   0.723   2.132  15.503 -0.2119  0.1604  0.6426
 6520SOL    HW131196   0.668   2.209  15.491  0.2075  0.2720 -0.6493
 6520SOL    HW231197   0.697   2.084  15.424  2.6244 -0.3070 -0.0269
 6521SOL     OW31198   1.551   3.123   1.467  0.1932 -0.1482 -0.1247
 6521SOL    HW131199   1.469   3.166   1.440  0.6812  0.1945 -1.0582
 6521SOL    HW231200   1.626   3.173   1.436  0.4417  0.5522  1.6009
 6522SOL     OW31201   2.000   1.326   8.618  0.3983  0.3318  0.2533
 6522SOL    HW131202   1.989   1.372   8.535 -0.8537 -1.7475 -0.7211
 6522SOL    HW231203   1.943   1.371   8.680 -0.1657 -3.3592  2.4038
 6523SOL     OW31204   2.923   1.954   4.961 -0.2201 -0.2070 -0.0778
 6523SOL    HW131205   2.965   1.927   4.880  0.9791  0.9744  0.1527
 6523SOL    HW231206   2.937   2.049   4.965 -1.3350 -0.0613  0.3852
 6524SOL     OW31207   2.847   0.527   7.402 -0.3565  0.1661  0.6289
 6524SOL    HW131208   2.914   0.589   7.430  0.4402  1.0233 -3.0833
 6524SOL    HW231209   2.792   0.517   7.479  0.0305  0.5255  0.9507
 6525SOL     OW31210   3.765   2.222   9.033 -0.2907 -0.8765 -0.3441
 6525SOL    HW131211   3.706   2.147   9.031 -0.2771 -0.9722  2.1946
 6525SOL    HW231212   3.753   2.248   9.125  1.7752  0.1539 -0.3645
 6526SOL     OW31213   4.192   2.050   6.610  0.3397  0.6733 -0.3552
 6526SOL    HW131214   4.242   2.036   6.690  2.2437  0.3922 -1.5912
 6526SOL    HW231215   4.218   2.141   6.599 -2.3235  1.5962  1.0281
 6527SOL     OW31216   0.678   0.299   7.373 -0.3964  0.1660  0.5518
 6527SOL    HW131217   0.726   0.348   7.306  0.5240  0.1479  1.2061
 6527SOL    HW231218   0.716   0.214   7.350 -2.2983 -0.4852 -0.2305
 6528SOL     OW31219   1.261   0.604  12.942  0.3094 -1.0031 -0.0707
 6528SOL    HW131220   1.340   0.552  12.933  0.9921  0.0039  0.1030
 6528SOL    HW231221   1.237   0.590  13.033  1.7343  2.6825  0.8607
 6529SOL     OW31222   2.889   3.968  16.337  0.5328  0.3981 -0.2705
 6529SOL    HW131223   2.799   3.959  16.305  0.7608  1.9646 -1.3334
 6529SOL    HW231224   2.942   3.903  16.290  1.4588  1.8967 -1.3023
 6530SOL     OW31225   3.403   1.719   2.284 -0.0505 -0.0281  0.4201
 6530SOL    HW131226   3.368   1.744   2.199  2.0134 -2.8068 -1.2491
 6530SOL    HW231227   3.433   1.631   2.259 -0.3743 -0.0512  0.1121
 6531SOL     OW31228   1.953   4.667  10.906 -0.7487 -0.0118  0.3275
 6531SOL    HW131229   1.867   4.710  10.901 -1.9843 -2.4552  0.3654
 6531SOL    HW231230   1.987   4.730  10.842  1.7870 -0.9053  0.8319
 6532SOL     OW31231   4.263   0.187   5.705  0.3902 -0.3042 -0.3238
 6532SOL    HW131232   4.335   0.167   5.645  0.9999  0.2915  0.2092
 6532SOL    HW231233   4.303   0.173   5.791 -1.1231  0.3459  0.4937
 6533SOL     OW31234   0.803   3.621   4.975 -0.2855 -0.1268 -0.1644
 6533SOL    HW131235   0.762   3.537   4.954  1.5860 -1.2350  0.6235
 6533SOL    HW231236   0.891   3.587   4.962 -0.7164 -1.2685 -0.0784
 6534SOL     OW31237   1.775   3.009  11.899  0.2260 -0.3222 -0.4465
 6534SOL    HW131238   1.717   3.059  11.842  0.6076  0.3841 -0.2215
 6534SOL    HW231239   1.824   3.083  11.936  1.5449 -1.5133  0.1864
 6535SOL     OW31240   0.647   2.296   0.751  0.2160 -0.0948  0.3700
 6535SOL    HW131241   0.566   2.245   0.753  0.9587 -1.2205  1.7919
 6535SOL    HW231242   0.700   2.257   0.681  0.5848  0.7630  0.1708
 6536SOL     OW31243   3.514   1.582  14.918 -0.0102 -0.3110 -0.2334
 6536SOL    HW131244   3.514   1.490  14.893 -0.9699 -0.3603 -0.0568
 6536SOL    HW231245   3.565   1.587  14.999 -0.1200  0.0197 -0.1828
 6537SOL     OW31246   2.710   3.771  17.136  0.6469  0.1739  0.1641
 6537SOL    HW131247   2.748   3.688  17.109  0.2319  0.1827 -0.4416
 6537SOL    HW231248   2.679   3.747  17.224 -2.2613 -0.2448 -0.9670
 6538SOL     OW31249   2.264   3.678   7.523  0.8084  0.2383  1.0513
 6538SOL    HW131250   2.277   3.622   7.446 -0.9485 -2.6294  2.8400
 6538SOL    HW231251   2.169   3.691   7.527  0.6436 -0.2481 -1.3273
 6539SOL     OW31252   2.286   2.929  17.043 -1.2354 -0.2701  0.2019
 6539SOL    HW131253   2.300   2.838  17.015 -0.9862  0.4932 -2.1734
 6539SOL    HW231254   2.251   2.918  17.132  1.1236 -0.1130  1.1504
 6540SOL     OW31255   2.064   2.723   3.107 -0.7730  0.5612  0.4360
 6540SOL    HW131256   1.984   2.671   3.119  0.5868 -2.0474 -1.9012
 6540SOL    HW231257   2.104   2.735   3.192 -0.5030 -0.4792  0.4510
 6541SOL     OW31258   4.259   2.547   8.551  0.1397  0.6208  0.4804
 6541SOL    HW131259   4.330   2.608   8.533  0.7508 -0.4734 -0.8889
 6541SOL    HW231260   4.198   2.589   8.612  0.8994 -0.5733  2.0592
 6542SOL     OW31261   2.672   3.541   6.695 -0.7973  0.6834 -0.0150
 6542SOL    HW131262   2.738   3.529   6.763 -0.6487  1.7896  0.0488
 6542SOL    HW231263   2.588   3.522   6.736  0.1206  0.5538  1.8172
 6543SOL     OW31264   3.181   2.108  15.854  0.6725  0.4230  0.3354
 6543SOL    HW131265   3.277   2.107  15.859  0.5519  0.9123  2.6537
 6543SOL    HW231266   3.152   2.046  15.921  2.5648 -0.4321  0.3492
 6544SOL     OW31267   1.269   3.288   6.113 -0.0677 -0.4100  0.2454
 6544SOL    HW131268   1.270   3.352   6.042  1.0471 -1.4368 -0.6545
 6544SOL    HW231269   1.197   3.232   6.086 -0.3753  1.3715 -2.6689
 6545SOL     OW31270   1.207   0.148   8.788  0.1866  0.3472 -0.1334
 6545SOL    HW131271   1.161   0.231   8.787  1.5345  1.0731 -1.3916
 6545SOL    HW231272   1.285   0.168   8.840 -0.9906 -1.9907  2.5587
 6546SOL     OW31273   0.555   0.218   4.504 -0.0711  0.0899 -0.3989
 6546SOL    HW131274   0.497   0.239   4.431  0.9752  1.4718 -0.8209
 6546SOL    HW231275   0.614   0.154   4.463 -0.1937 -0.4794  0.3098
 6547SOL     OW31276   1.940   2.692   4.782 -0.3451 -0.2126 -0.1549
 6547SOL    HW131277   1.912   2.759   4.846 -1.4541 -1.0983  0.2827
 6547SOL    HW231278   1.966   2.619   4.837  1.0184  1.1516  1.0279
 6548SOL     OW31279   2.614   1.749   7.425 -0.1133 -0.0776 -0.1345
 6548SOL    HW131280   2.680   1.817   7.409 -0.3411 -0.0494 -0.9343
 6548SOL    HW231281   2.562   1.754   7.345 -1.1582  1.3674  0.6302
 6549SOL     OW31282   1.265   2.801   3.391  0.3321  1.1238  0.3432
 6549SOL    HW131283   1.219   2.870   3.438 -2.3087 -0.7810  0.5117
 6549SOL    HW231284   1.249   2.841   3.305 -3.0774 -3.0181 -0.9295
 6550SOL     OW31285   3.308   1.992   2.552  0.3382  0.3031  0.0377
 6550SOL    HW131286   3.328   2.041   2.472  1.8825  1.3173  1.0441
 6550SOL    HW231287   3.396   1.966   2.581 -0.2162  1.0885  2.3747
 6551SOL     OW31288   0.305   4.168   7.792 -0.1262  0.3148  0.0135
 6551SOL    HW131289   0.239   4.105   7.820  0.8788 -0.9566 -0.4701
 6551SOL    HW231290   0.365   4.180   7.865  0.6143 -2.5333 -0.1179
 6552SOL     OW31291   2.507   0.399   7.764 -0.3923  0.3030 -0.5197
 6552SOL    HW131292   2.477   0.476   7.813 -0.6505  0.8103 -1.4591
 6552SOL    HW231293   2.456   0.328   7.803  0.6238 -0.5548 -0.7486
 6553SOL     OW31294   0.369   4.665   0.591 -0.4042 -0.0376  0.3573
 6553SOL    HW131295   0.354   4.573   0.570  0.3316 -0.2658  0.8349
 6553SOL    HW231296   0.433   4.646   0.659 -1.0840 -0.7790  0.7921
 6554SOL     OW31297   3.192   0.960   7.651  0.2634  0.0541  0.1367
 6554SOL    HW131298   3.215   0.878   7.695 -1.2753 -1.0993 -1.1916
 6554SOL    HW231299   3.097   0.950   7.644  0.4803 -1.8840 -0.1838
 6555SOL     OW31300   1.126   0.966   2.459 -0.6110  0.0164  0.0284
 6555SOL    HW131301   1.061   0.948   2.527  2.2729 -0.2670  2.7066
 6555SOL    HW231302   1.214   0.952   2.494 -0.8886 -0.3697  0.5670
 6556SOL     OW31303   2.982   4.209   2.190 -0.3354 -0.4528  0.2726
 6556SOL    HW131304   2.948   4.127   2.226 -3.9717  0.9805  0.0857
 6556SOL    HW231305   3.001   4.185   2.100  0.5708 -2.9589  1.1503
 6557SOL     OW31306   1.940   0.232  14.542  0.0319  0.1323  0.2470
 6557SOL    HW131307   2.024   0.229  14.496  0.0982 -0.2956  0.3983
 6557SOL    HW231308   1.931   0.145  14.581  0.2013  0.1587  0.3435
 6558SOL     OW31309   3.398   3.262   6.601  0.3074  0.1788  0.1414
 6558SOL    HW131310   3.348   3.309   6.667  0.2006 -2.2756  1.7982
 6558SOL    HW231311   3.448   3.199   6.653  1.0830  1.8619  1.4182
 6559SOL     OW31312   0.113   1.029   9.589 -0.3684  0.3973 -0.4258
 6559SOL    HW131313   0.129   0.956   9.649  1.7856 -0.6093 -2.2422
 6559SOL    HW231314   0.136   1.111   9.634 -0.5612  0.9947 -1.4224
 6560SOL     OW31315   2.323   0.683   8.977 -0.5932 -0.1184 -0.1674
 6560SOL    HW131316   2.298   0.755   9.036 -0.5943 -1.0573  0.9750
 6560SOL    HW231317   2.251   0.623   8.995 -1.5018  1.0530  0.0777
 6561SOL     OW31318   3.323   3.006   7.643 -0.2276 -0.3294  0.1471
 6561SOL    HW131319   3.363   3.091   7.662 -1.2519  0.3612 -0.7293
 6561SOL    HW231320   3.393   2.958   7.599 -0.6925 -0.9960  0.1289
 6562SOL     OW31321   0.643   4.075   2.171  1.0522  0.2547  0.5997
 6562SOL    HW131322   0.681   4.038   2.250 -0.8326 -3.4616 -0.2625
 6562SOL    HW231323   0.622   4.166   2.194 -0.2194  0.1608 -0.1473
 6563SOL     OW31324   2.943   1.270   2.048 -0.2698  0.3887  0.1032
 6563SOL    HW131325   2.971   1.237   2.133  0.8000 -2.3303 -1.3368
 6563SOL    HW231326   2.971   1.200   1.990  0.0782 -1.8658  3.0252
 6564SOL     OW31327   0.426   2.213   4.267 -0.3898 -0.7818 -0.1781
 6564SOL    HW131328   0.366   2.197   4.340 -0.4032 -1.0314 -0.2423
 6564SOL    HW231329   0.415   2.130   4.219  0.2832  0.2652 -2.1411
 6565SOL     OW31330   4.098   3.031   7.236  0.2396  0.7303 -0.4490
 6565SOL    HW131331   4.089   3.023   7.141  1.8161  1.5523 -0.6634
 6565SOL    HW231332   4.059   2.949   7.267  1.0122 -0.0535 -1.5504
 6566SOL     OW31333   1.046   0.091  11.666 -0.3656 -0.0970 -0.2806
 6566SOL    HW131334   0.963   0.137  11.659  0.4041  1.4032  0.5704
 6566SOL    HW231335   1.059   0.099  11.761  0.0120  1.3641 -0.4551
 6567SOL     OW31336   2.924   3.616   3.296 -0.5047 -0.0906 -0.7161
 6567SOL    HW131337   2.968   3.675   3.358  2.1780 -1.0227 -1.7570
 6567SOL    HW231338   2.834   3.647   3.302 -0.1239  0.3682  2.9336
 6568SOL     OW31339   3.518   0.913   8.787  0.0877  0.4731  0.7716
 6568SOL    HW131340   3.485   0.955   8.867  0.9245  0.1419  1.2930
 6568SOL    HW231341   3.454   0.842   8.788  0.9815 -0.3345 -0.3954
 6569SOL     OW31342   4.278   1.413   2.131  0.0834 -0.0565  0.1853
 6569SOL    HW131343   4.217   1.402   2.058  1.1679  0.4903 -0.8086
 6569SOL    HW231344   4.293   1.320   2.150 -1.9842 -0.3295  0.5106
 6570SOL     OW31345   0.158   1.282  14.140  0.0177  0.0986  0.1527
 6570SOL    HW131346   0.243   1.316  14.111  0.1724 -0.4774 -0.0586
 6570SOL    HW231347   0.112   1.362  14.166 -1.0831 -0.5126  0.0899
 6571SOL     OW31348   1.997   2.506  17.640 -0.2716 -0.6553  0.3872
 6571SOL    HW131349   1.908   2.482  17.614 -0.5436 -0.0180  0.7324
 6571SOL    HW231350   2.050   2.431  17.612 -0.1482  0.7132 -2.9329
 6572SOL     OW31351   1.597   0.324   5.970 -0.0082  0.0365  0.4217
 6572SOL    HW131352   1.507   0.317   6.002 -0.4913  0.6225 -0.7826
 6572SOL    HW231353   1.603   0.239   5.926 -0.7389  0.3487 -0.2831
 6573SOL     OW31354   3.295   0.049  17.087 -0.3669  0.8062 -0.2447
 6573SOL    HW131355   3.382   0.074  17.057 -0.0994 -0.5009 -0.5595
 6573SOL    HW231356   3.273   0.125  17.140  0.0479  0.8648 -0.1541
 6574SOL     OW31357   2.974   0.176   2.685 -0.5041 -0.4156  0.0397
 6574SOL    HW131358   2.995   0.218   2.601  2.1321 -1.9080 -0.0653
 6574SOL    HW231359   2.904   0.118   2.657 -1.2087 -0.1763  1.3418
 6575SOL     OW31360   2.227   3.605   9.119 -0.4756 -0.4888 -0.0127
 6575SOL    HW131361   2.216   3.541   9.190 -2.1657 -0.1620  0.0192
 6575SOL    HW231362   2.167   3.562   9.058  0.8652 -1.7610 -0.4250
 6576SOL     OW31363   1.450   4.340   0.810  0.0397  0.3554  0.2422
 6576SOL    HW131364   1.500   4.263   0.786 -1.9021 -1.1324  0.9836
 6576SOL    HW231365   1.440   4.380   0.724 -0.2873  0.4144  0.3082
 6577SOL     OW31366   4.031   1.784   3.020  0.4757  0.2784  0.0520
 6577SOL    HW131367   4.102   1.820   2.967 -0.0652 -1.0334 -1.5697
 6577SOL    HW231368   3.985   1.744   2.947  0.3206 -2.0181  1.3983
 6578SOL     OW31369   3.972   1.846   9.295 -0.0919  0.9338  0.6407
 6578SOL    HW131370   3.940   1.780   9.233  2.7532 -0.2440  0.4044
 6578SOL    HW231371   4.066   1.831   9.304 -0.1993 -1.2145 -1.6932
 6579SOL     OW31372   0.582   3.045   8.481  0.1037 -0.1119 -0.4736
 6579SOL    HW131373   0.637   3.113   8.443 -1.1129  0.9588 -0.3232
 6579SOL    HW231374   0.594   3.046   8.576  0.4575  1.3400 -0.5485
 6580SOL     OW31375   2.780   1.108   4.223  0.0327  0.1516  0.4815
 6580SOL    HW131376   2.770   1.113   4.128  0.7346 -0.6930  0.3521
 6580SOL    HW231377   2.784   1.199   4.251  0.8268  0.5020 -0.7524
 6581SOL     OW31378   0.968   2.170   3.978  0.3685 -0.5078 -0.7233
 6581SOL    HW131379   1.051   2.198   3.941 -0.3888  0.7633 -1.4507
 6581SOL    HW231380   0.994   2.079   3.995  0.7602 -0.7795 -2.7472
 6582SOL     OW31381   3.156   4.317  16.592  0.5924  0.9609 -0.0221
 6582SOL    HW131382   3.074   4.270  16.577 -0.5115  2.0854  2.4672
 6582SOL    HW231383   3.181   4.331  16.501  0.6902  1.6331  0.1077
 6583SOL     OW31384   0.094   2.503   7.543  0.5472  0.2159  0.5260
 6583SOL    HW131385   0.080   2.595   7.564  1.3715  0.6036 -0.6448
 6583SOL    HW231386   0.098   2.460   7.628 -1.2082 -2.1451 -0.6081
 6584SOL     OW31387   1.787   1.867   6.956 -0.4210  0.0779  0.4369
 6584SOL    HW131388   1.861   1.865   7.017  0.1641 -0.2180 -0.2770
 6584SOL    HW231389   1.790   1.776   6.925 -0.1966  0.6451 -1.1940
 6585SOL     OW31390   0.710   0.630   6.176  0.0926  0.1414  0.1902
 6585SOL    HW131391   0.659   0.680   6.240  0.2828  0.1559  0.3325
 6585SOL    HW231392   0.735   0.551   6.225  0.8353  0.5134  0.4059
 6586SOL     OW31393   0.407   4.451  12.764  0.4304 -0.0362  0.2047
 6586SOL    HW131394   0.471   4.380  12.771 -0.3199 -0.9034 -1.4713
 6586SOL    HW231395   0.448   4.513  12.824 -1.3562  0.1787  1.2282
 6587SOL     OW31396   1.245   2.069   5.756 -0.1007 -0.6077  0.4928
 6587SOL    HW131397   1.216   2.095   5.669 -2.7159  0.7189  1.7513
 6587SOL    HW231398   1.333   2.102   5.740 -0.3219 -0.0449  0.4461
 6588SOL     OW31399   4.612   3.131   7.442  0.0174  0.2077 -0.3993
 6588SOL    HW131400   4.626   3.036   7.435 -2.7316 -0.1569 -1.0403
 6588SOL    HW231401   4.520   3.114   7.423 -0.1215  0.6914 -0.1513
 6589SOL     OW31402   2.061   2.279   5.807  0.4198  0.0869 -0.1525
 6589SOL    HW131403   2.043   2.342   5.738  1.4361 -0.3908 -0.8468
 6589SOL    HW231404   2.025   2.331   5.880 -0.9048 -2.8705  1.3117
 6590SOL     OW31405   1.369   2.706   7.866  0.0436  0.5670 -0.1930
 6590SOL    HW131406   1.382   2.798   7.841 -0.5248  0.3057 -1.4426
 6590SOL    HW231407   1.404   2.659   7.791  0.1056  0.5504 -0.1537
 6591SOL     OW31408   1.711   3.403   1.624  0.2377  0.3610 -0.3984
 6591SOL    HW131409   1.719   3.323   1.675  1.2426  1.5373  1.3102
 6591SOL    HW231410   1.779   3.460   1.660 -1.4209 -0.0058  3.2708
 6592SOL     OW31411   3.892   1.313   5.379  0.1961 -0.2389  0.0008
 6592SOL    HW131412   3.804   1.279   5.398  0.0510 -0.5106 -1.1850
 6592SOL    HW231413   3.943   1.240   5.414 -0.9220 -2.1312 -2.3021
 6593SOL     OW31414   1.590   3.254   7.917 -0.7224 -0.1159 -0.2435
 6593SOL    HW131415   1.572   3.236   8.009  0.5761 -0.3137 -0.0237
 6593SOL    HW231416   1.634   3.177   7.880 -0.8961 -0.4682  0.2924
 6594SOL     OW31417   1.496   1.411   3.006 -0.0379  0.2994 -0.3499
 6594SOL    HW131418   1.582   1.407   3.048  0.4761 -0.8402 -1.5238
 6594SOL    HW231419   1.440   1.430   3.082 -1.6987  1.2662 -1.8200
 6595SOL     OW31420   3.069   1.482  11.919 -0.4689  0.0979  0.3676
 6595SOL    HW131421   3.153   1.521  11.944 -1.2312  2.2848 -0.5436
 6595SOL    HW231422   3.008   1.555  11.915 -1.2626 -0.5267  1.2138
 6596SOL     OW31423   2.492   2.594  15.709 -0.1065  0.6602  0.1000
 6596SOL    HW131424   2.450   2.574  15.625  0.8367 -1.0991  0.0486
 6596SOL    HW231425   2.440   2.671  15.732 -4.3196 -1.3267 -2.6334
 6597SOL     OW31426   3.709   3.640   4.413  0.0119 -0.1829 -0.0270
 6597SOL    HW131427   3.772   3.686   4.358  1.6090 -1.0198  1.0976
 6597SOL    HW231428   3.735   3.547   4.409  0.8624  0.0809 -0.6432
 6598SOL     OW31429   0.239   2.341   7.809  0.5478  0.4238 -0.2605
 6598SOL    HW131430   0.279   2.427   7.794  2.5861 -0.1073  2.0583
 6598SOL    HW231431   0.149   2.372   7.822  0.5164  0.0356  0.4325
 6599SOL     OW31432   4.122   2.221   9.326  0.2323  0.3196  0.0349
 6599SOL    HW131433   4.074   2.301   9.349 -0.1606 -0.0561  0.5365
 6599SOL    HW231434   4.200   2.267   9.294  0.0651 -1.3756 -2.7920
 6600SOL     OW31435   3.174   3.912   3.701 -0.0749 -0.0298 -0.1395
 6600SOL    HW131436   3.263   3.906   3.668 -0.2982 -2.5976 -0.2658
 6600SOL    HW231437   3.173   3.999   3.741 -0.0743  0.1952 -0.6426
 6601SOL     OW31438   2.304   0.718  13.306  0.1986  0.4008  0.2250
 6601SOL    HW131439   2.285   0.772  13.383 -1.1473 -0.2388  0.3387
 6601SOL    HW231440   2.304   0.626  13.331  0.1702 -0.1893 -1.9412
 6602SOL     OW31441   3.384   2.877   1.807 -0.3569  0.0404 -0.5298
 6602SOL    HW131442   3.314   2.935   1.838 -0.6881  1.0309 -3.1377
 6602SOL    HW231443   3.455   2.938   1.828 -0.0495 -0.4437 -0.1471
 6603SOL     OW31444   0.949   2.333   4.211 -0.0129  0.3828  0.1492
 6603SOL    HW131445   1.021   2.280   4.178 -1.4557 -2.2489  1.2797
 6603SOL    HW231446   0.874   2.274   4.215  0.5176 -0.1981  1.4361
 6604SOL     OW31447   0.788   4.309   5.803 -0.0847 -0.1128 -0.4167
 6604SOL    HW131448   0.726   4.355   5.860  0.3081 -0.8104  0.5509
 6604SOL    HW231449   0.801   4.383   5.743  1.4069 -0.5812 -0.6719
 6605SOL     OW31450   2.944   0.608   6.995 -0.1528  0.3173  0.7775
 6605SOL    HW131451   2.907   0.623   6.908  0.6244 -1.0553  0.2074
 6605SOL    HW231452   2.999   0.529   6.988 -0.2474  0.3864 -0.9336
 6606SOL     OW31453   1.021   2.252   7.077 -0.1904  0.2693 -0.2816
 6606SOL    HW131454   0.944   2.209   7.114 -1.6079 -0.6267 -4.3850
 6606SOL    HW231455   1.091   2.196   7.112 -3.5601 -3.2829  0.6899
 6607SOL     OW31456   3.996   0.930  14.819 -0.3346  0.3434 -0.1896
 6607SOL    HW131457   3.946   0.867  14.766 -0.4127  1.3835 -1.3538
 6607SOL    HW231458   3.924   0.968  14.869 -1.8254 -0.6188 -1.5976
 6608SOL     OW31459   0.193   3.674   4.895  0.0415  0.5976  0.0786
 6608SOL    HW131460   0.136   3.611   4.852 -1.5432  0.4542  2.3674
 6608SOL    HW231461   0.243   3.610   4.946  0.2560  0.6095 -0.1163
 6609SOL     OW31462   3.120   3.287   4.222  0.2775  0.0630 -0.1058
 6609SOL    HW131463   3.201   3.337   4.207  1.0787 -0.6332  1.9909
 6609SOL    HW231464   3.147   3.209   4.270 -0.0248 -0.0380 -0.1029
 6610SOL     OW31465   1.592   0.611   3.448 -0.0523 -0.0055 -0.1111
 6610SOL    HW131466   1.618   0.697   3.481  1.1955 -0.1764 -0.6446
 6610SOL    HW231467   1.646   0.553   3.502 -0.2701  2.2945  2.5863
 6611SOL     OW31468   3.727   1.643   5.161  0.5327  0.7287 -0.5805
 6611SOL    HW131469   3.761   1.628   5.249 -0.0874  1.4223 -0.2274
 6611SOL    HW231470   3.809   1.676   5.123  0.4683 -1.4268 -2.6477
 6612SOL     OW31471   2.573   4.441  14.969 -0.0320 -0.1557  0.2528
 6612SOL    HW131472   2.582   4.398  14.884 -0.8998  1.0772 -0.4549
 6612SOL    HW231473   2.568   4.533  14.945  2.3585 -0.3812 -1.1224
 6613SOL     OW31474   0.956   1.460  14.697  0.4538  0.5598  0.4928
 6613SOL    HW131475   1.011   1.412  14.759  1.9973 -0.9995 -2.0568
 6613SOL    HW231476   0.995   1.445  14.611 -0.6511 -0.6434  0.1991
 6614SOL     OW31477   0.818   2.409   7.548  0.1873  0.3255  0.3699
 6614SOL    HW131478   0.858   2.437   7.466  0.7481 -2.2745 -0.2427
 6614SOL    HW231479   0.734   2.452   7.532 -1.2209 -2.0773  1.2981
 6615SOL     OW31480   1.597   0.599   8.625  0.1841 -0.2733 -0.4609
 6615SOL    HW131481   1.602   0.616   8.719 -2.5493  0.6477 -0.4804
 6615SOL    HW231482   1.522   0.544   8.604  1.6800 -2.1082 -0.9808
 6616SOL     OW31483   0.454   2.523   3.933  0.0465  0.3938  0.8390
 6616SOL    HW131484   0.494   2.506   4.018  0.7893  0.5437  0.5205
 6616SOL    HW231485   0.403   2.443   3.929 -0.9081  0.9453  2.2933
 6617SOL     OW31486   3.224   3.054   8.277  0.4932  0.1843 -0.3660
 6617SOL    HW131487   3.224   3.140   8.318  0.1207 -1.6631  3.4498
 6617SOL    HW231488   3.148   3.014   8.319  0.7335  0.1000 -0.0132
 6618SOL     OW31489   3.847   3.115   3.693  0.4816  0.0546  0.2033
 6618SOL    HW131490   3.850   3.088   3.785 -1.5982  0.0513  0.2662
 6618SOL    HW231491   3.907   3.189   3.691  2.5931 -1.6421 -0.3028
 6619SOL     OW31492   0.445   3.718   3.342  0.1867 -0.2219  0.4259
 6619SOL    HW131493   0.389   3.668   3.401  0.8287  0.1922  1.3903
 6619SOL    HW231494   0.529   3.704   3.385  1.0610  0.4383 -1.0508
 6620SOL     OW31495   4.488   1.647  14.213 -0.2856 -0.0734 -0.0728
 6620SOL    HW131496   4.413   1.597  14.245 -0.4217 -1.4632 -2.4902
 6620SOL    HW231497   4.517   1.704  14.284  2.9144 -1.6064 -0.1370
 6621SOL     OW31498   0.932   4.198   5.256  0.1528  0.0117  0.3418
 6621SOL    HW131499   1.011   4.183   5.204  1.2918 -0.1845  2.1289
 6621SOL    HW231500   0.957   4.248   5.333 -0.4246 -1.3734  1.4161
 6622SOL     OW31501   0.940   0.022  10.409  0.2093  0.1482  0.0384
 6622SOL    HW131502   0.984   4.677  10.407 -0.6714 -0.2944 -0.6038
 6622SOL    HW231503   0.882   0.018  10.485 -1.3755 -0.2355 -1.2077
 6623SOL     OW31504   1.978   2.095   2.057 -0.1500 -0.2036  0.1935
 6623SOL    HW131505   2.006   2.181   2.089  2.5517 -1.9386  2.5377
 6623SOL    HW231506   2.037   2.046   2.114 -0.3709 -0.0773  0.5310
 6624SOL     OW31507   2.639   1.481   9.647  0.5174 -0.4465  0.0256
 6624SOL    HW131508   2.645   1.395   9.689 -1.7598  0.3167  1.8995
 6624SOL    HW231509   2.727   1.517   9.645  0.3223 -0.0793 -1.6326
 6625SOL     OW31510   0.392   3.645   7.515  0.1488 -0.3370 -0.5126
 6625SOL    HW131511   0.462   3.612   7.571 -1.3739 -2.8798 -0.1547
 6625SOL    HW231512   0.328   3.679   7.578  1.8335  0.8520  0.5628
 6626SOL     OW31513   3.068   0.284   8.017 -0.4739  0.1006  0.0542
 6626SOL    HW131514   3.032   0.369   8.042  0.9329  0.5843  0.4397
 6626SOL    HW231515   3.131   0.304   7.947 -0.6440  0.0315 -0.1184
 6627SOL     OW31516   1.786   1.401   0.966  0.1350  0.0886  0.0086
 6627SOL    HW131517   1.863   1.359   1.004 -0.7183 -0.7546  0.7816
 6627SOL    HW231518   1.797   1.481   1.016 -0.1970  0.5955 -0.7178
 6628SOL     OW31519   1.781   1.013   8.168  0.5617  0.6947  0.0875
 6628SOL    HW131520   1.698   0.968   8.154  0.6581  0.1997  1.1139
 6628SOL    HW231521   1.764   1.074   8.097 -0.8652 -2.7659 -2.5216
 6629SOL     OW31522   0.919   3.191  16.666 -0.3351  0.2021 -0.0769
 6629SOL    HW131523   0.847   3.130  16.651  0.4562 -0.0882 -2.6090
 6629SOL    HW231524   0.873   3.259  16.618 -0.4710 -0.2524 -0.5998
 6630SOL     OW31525   0.875   1.910   2.895  0.2322  0.5609 -0.7161
 6630SOL    HW131526   0.816   1.887   2.824  3.1384 -1.0856 -2.6158
 6630SOL    HW231527   0.959   1.914   2.849  0.5472  2.1598 -0.0297
 6631SOL     OW31528   3.736   1.304   3.547 -0.1228 -0.8026 -0.0363
 6631SOL    HW131529   3.748   1.227   3.603 -1.0471 -0.3786  0.7471
 6631SOL    HW231530   3.814   1.301   3.492  0.2519  2.5082  0.2921
 6632SOL     OW31531   0.302   2.756   5.837 -0.0670 -0.4705 -0.3831
 6632SOL    HW131532   0.272   2.760   5.928 -0.1688 -1.6775 -0.3671
 6632SOL    HW231533   0.226   2.799   5.798  0.9516 -1.1544 -3.0573
 6633SOL     OW31534   2.205   0.850  13.517  0.2178  0.1705  0.1237
 6633SOL    HW131535   2.228   0.790  13.588 -3.0119 -1.3065 -0.1045
 6633SOL    HW231536   2.110   0.847  13.504 -0.0129  0.0536  1.8593
 6634SOL     OW31537   4.644   4.472   2.556  0.0068  0.0202 -0.0607
 6634SOL    HW131538   4.684   4.446   2.473  0.1164  0.3575 -0.1148
 6634SOL    HW231539   4.574   4.409   2.573 -0.4635  1.0406  1.7165
 6635SOL     OW31540   2.677   0.230   5.433 -0.0050 -0.3882 -0.1774
 6635SOL    HW131541   2.582   0.234   5.442 -0.0115 -0.4428 -0.2227
 6635SOL    HW231542   2.676   0.163   5.365  0.4752 -0.2912 -0.2814
 6636SOL     OW31543   2.288   2.259   4.234  0.1394  0.4134  0.0594
 6636SOL    HW131544   2.313   2.211   4.155  1.9996  1.8423 -0.2235
 6636SOL    HW231545   2.223   2.317   4.196 -0.5858 -0.1659  0.4117
 6637SOL     OW31546   0.607   0.858  10.279 -0.0610  0.1089 -0.0451
 6637SOL    HW131547   0.632   0.825  10.193  1.5515  0.2602  0.3702
 6637SOL    HW231548   0.530   0.905  10.248  0.2653 -0.9543 -2.4520
 6638SOL     OW31549   3.322   3.765   4.607  0.4627  0.1894 -0.8457
 6638SOL    HW131550   3.247   3.733   4.557 -1.7534  0.3236  2.4162
 6638SOL    HW231551   3.392   3.705   4.582  0.4989 -0.6408  1.2328
 6639SOL     OW31552   0.802   2.848   2.229  1.0048  0.2846 -0.2679
 6639SOL    HW131553   0.775   2.791   2.158 -0.6227 -0.4679  0.9654
 6639SOL    HW231554   0.887   2.885   2.202  0.4780  1.3430 -0.4906
 6640SOL     OW31555   3.317   4.336   8.108 -0.0832 -0.0676 -0.0374
 6640SOL    HW131556   3.334   4.388   8.029 -0.7021  1.9454  1.1394
 6640SOL    HW231557   3.270   4.265   8.065  3.6433 -3.1633  1.0143
 6641SOL     OW31558   0.807   3.926  14.937 -0.5016 -0.3502  0.0457
 6641SOL    HW131559   0.791   3.993  14.870  0.6670  0.1858  0.3020
 6641SOL    HW231560   0.805   3.840  14.896 -0.5507  0.0175 -0.7214
 6642SOL     OW31561   0.011   0.734   9.409  0.1807  0.3515  0.0284
 6642SOL    HW131562   4.674   0.720   9.464  0.9578 -3.3026  0.1586
 6642SOL    HW231563   4.734   0.818   9.366 -0.0061 -0.2098 -0.9716
 6643SOL     OW31564   2.134   0.698  14.863 -0.3351 -0.2822  0.8131
 6643SOL    HW131565   2.045   0.704  14.897 -1.4991 -0.2421 -2.2936
 6643SOL    HW231566   2.157   0.789  14.877  1.3395 -0.4659 -0.7191
 6644SOL     OW31567   4.219   3.993   2.014  0.0756  0.1935 -0.1825
 6644SOL    HW131568   4.204   3.901   1.993  1.9000  0.0181 -0.7233
 6644SOL    HW231569   4.284   4.035   1.958  2.8015 -1.9201  1.3552
 6645SOL     OW31570   1.679   3.736   1.575 -0.4045 -0.3781 -0.1201
 6645SOL    HW131571   1.649   3.659   1.526 -2.1911  0.8732 -0.9896
 6645SOL    HW231572   1.701   3.792   1.500  1.8356  0.0593  0.8800
 6646SOL     OW31573   1.437   3.447  10.811  0.5351  0.3214 -0.7896
 6646SOL    HW131574   1.489   3.447  10.731  0.6789 -2.6396 -0.6690
 6646SOL    HW231575   1.503   3.423  10.876 -1.4867  1.6078  1.7496
 6647SOL     OW31576   1.754   2.219  17.110 -0.2669 -0.0737 -0.2277
 6647SOL    HW131577   1.715   2.264  17.035  0.0054 -0.2069 -0.4497
 6647SOL    HW231578   1.696   2.239  17.183  1.6189  0.3051  1.1587
 6648SOL     OW31579   4.319   3.752   3.290 -0.1934 -0.1489  0.2699
 6648SOL    HW131580   4.338   3.833   3.243 -0.3620  1.5277  3.0775
 6648SOL    HW231581   4.369   3.684   3.244 -0.7370 -0.5258  0.2286
 6649SOL     OW31582   3.659   3.861   1.337 -0.1956  0.1220  0.2369
 6649SOL    HW131583   3.653   3.804   1.260  0.8522 -0.0647  0.2912
 6649SOL    HW231584   3.677   3.941   1.289 -2.8029  1.6288  1.7324
 6650SOL     OW31585   3.650   1.784   9.322 -0.2968  0.3016  0.0930
 6650SOL    HW131586   3.744   1.772   9.323 -0.6691 -2.4861  2.1556
 6650SOL    HW231587   3.609   1.714   9.271  2.2435 -1.7261  0.8714
 6651SOL     OW31588   1.506   1.195  13.793 -0.3555 -0.4732 -0.1635
 6651SOL    HW131589   1.555   1.117  13.768 -0.8237 -0.9004  0.2303
 6651SOL    HW231590   1.435   1.179  13.731  0.4167 -1.2834 -0.8350
 6652SOL     OW31591   4.349   0.258  16.274 -0.7603  0.3623 -0.3291
 6652SOL    HW131592   4.283   0.325  16.291 -0.8973  0.4483 -1.1805
 6652SOL    HW231593   4.368   0.235  16.365 -0.6277  0.0570 -0.4335
 6653SOL     OW31594   4.269   4.422  14.245  0.2105  0.0562  0.0189
 6653SOL    HW131595   4.202   4.355  14.231 -1.3787  1.4581  0.8183
 6653SOL    HW231596   4.341   4.375  14.285 -0.2953  0.3645  1.3061
 6654SOL     OW31597   0.152   2.120   8.824  0.4313  0.5440 -0.6360
 6654SOL    HW131598   0.083   2.117   8.890 -0.4302  0.6456 -1.5399
 6654SOL    HW231599   0.229   2.115   8.881 -0.6894  2.0687  1.0132
 6655SOL     OW31600   3.615   2.565   4.373 -0.4046 -0.2381  0.5150
 6655SOL    HW131601   3.705   2.547   4.398  0.1272 -0.4595 -1.5429
 6655SOL    HW231602   3.611   2.506   4.297 -0.1985  1.6940 -1.0005
 6656SOL     OW31603   3.593   1.486   5.455 -0.6247 -0.2965  0.0286
 6656SOL    HW131604   3.613   1.434   5.533  0.5968 -1.7642 -1.2590
 6656SOL    HW231605   3.594   1.418   5.387  1.4157 -1.2316  0.9965
 6657SOL     OW31606   3.729   1.561   6.557  0.4625  0.3062 -0.3725
 6657SOL    HW131607   3.802   1.622   6.544  0.7636 -0.1902 -1.0276
 6657SOL    HW231608   3.686   1.562   6.471 -1.7663  3.0316  0.7732
 6658SOL     OW31609   2.480   1.925  11.416  0.4804  0.2243  0.3555
 6658SOL    HW131610   2.438   1.976  11.486  1.8624  3.1295 -0.9541
 6658SOL    HW231611   2.545   1.874  11.463 -1.0308 -2.8183 -0.8506
 6659SOL     OW31612   4.394   4.035  17.634 -0.2520  0.0874 -0.1333
 6659SOL    HW131613   4.417   4.109  17.578  1.1725 -0.5911 -0.4466
 6659SOL    HW231614   4.408   3.961  17.574  1.6631  0.9054 -0.7344
 6660SOL     OW31615   1.489   0.901   3.236 -0.1146 -0.5088 -0.5347
 6660SOL    HW131616   1.422   0.886   3.303  0.1366  1.3487  0.1240
 6660SOL    HW231617   1.539   0.969   3.279 -1.2996  0.1388 -0.1760
 6661SOL     OW31618   4.690   2.920   2.937 -0.2059 -0.4559  0.3128
 6661SOL    HW131619   4.647   2.915   2.852 -0.9571  1.5734  0.5631
 6661SOL    HW231620   0.030   2.969   2.918  1.0839 -2.0202  1.6435
 6662SOL     OW31621   1.816   3.020   6.393  0.1179  1.1422  0.2290
 6662SOL    HW131622   1.857   3.098   6.430  0.3549  0.3500  1.6280
 6662SOL    HW231623   1.839   3.031   6.301  2.1360  1.2601  0.7496
 6663SOL     OW31624   4.260   4.212   5.747  0.3986  0.4691 -0.3248
 6663SOL    HW131625   4.294   4.155   5.816  0.3205 -0.8554 -1.3824
 6663SOL    HW231626   4.230   4.148   5.682  1.6462  1.7706 -2.1757
 6664SOL     OW31627   2.069   1.545   1.180  0.0646  0.2829 -0.3940
 6664SOL    HW131628   2.026   1.486   1.242  0.1870 -0.0037 -0.5763
 6664SOL    HW231629   1.992   1.594   1.153 -1.3879 -0.2389  2.7876
 6665SOL     OW31630   2.615   4.616   8.218  0.0855 -0.7868 -0.2269
 6665SOL    HW131631   2.524   4.626   8.189  0.4233 -0.0943 -1.0662
 6665SOL    HW231632   2.659   4.580   8.141 -0.2949 -1.1984 -0.2484
 6666SOL     OW31633   1.221   3.738   9.441  0.1951  0.7248  0.0170
 6666SOL    HW131634   1.282   3.665   9.431 -0.6999  0.0434 -0.5717
 6666SOL    HW231635   1.164   3.732   9.364  3.7150 -1.3770 -2.4395
 6667SOL     OW31636   1.420   4.423  12.773 -0.1801  0.1247 -0.0544
 6667SOL    HW131637   1.509   4.427  12.808  0.0049 -0.9793 -0.3872
 6667SOL    HW231638   1.399   4.340  12.816 -2.0700  0.7948  0.2760
 6668SOL     OW31639   3.392   4.526   7.914  0.5610 -0.5113  0.0675
 6668SOL    HW131640   3.344   4.608   7.922  1.2199 -0.1982  0.7919
 6668SOL    HW231641   3.366   4.496   7.827  0.8975 -0.8137  0.0710
 6669SOL     OW31642   4.739   4.502   1.180 -0.0426 -0.0168  0.1004
 6669SOL    HW131643   0.001   4.416   1.221 -0.1691 -0.4058 -0.7200
 6669SOL    HW231644   0.092   4.524   1.179  0.1931 -1.0650 -1.0908
 6670SOL     OW31645   2.456   1.054   8.290  0.4797 -0.0191  0.4563
 6670SOL    HW131646   2.459   1.050   8.195 -1.5578 -1.2605  0.4404
 6670SOL    HW231647   2.384   1.115   8.310 -0.7132 -0.7549 -1.6351
 6671SOL     OW31648   1.855   4.639   5.370  0.1552 -0.1040  0.6342
 6671SOL    HW131649   1.826   4.551   5.344  1.6410 -0.9384  1.8185
 6671SOL    HW231650   1.784   4.693   5.334  0.8695  0.0214 -0.5657
 6672SOL     OW31651   1.718   1.714   0.461 -0.0357  0.4340 -0.6496
 6672SOL    HW131652   1.784   1.674   0.404  0.6859 -0.9503  1.1480
 6672SOL    HW231653   1.683   1.641   0.513 -2.1879  2.2408  0.4398
 6673SOL     OW31654   1.826   4.478  12.366  0.2065  0.3924  0.8389
 6673SOL    HW131655   1.866   4.559  12.398  1.0277 -0.1976  1.3290
 6673SOL    HW231656   1.883   4.456  12.293 -2.6200  0.4666 -1.3627
 6674SOL     OW31657   1.512   1.039   5.839 -0.2567  0.7771  1.0496
 6674SOL    HW131658   1.490   0.946   5.841 -1.3308  1.0053 -0.1532
 6674SOL    HW231659   1.608   1.032   5.837 -0.3740 -0.5735  0.4182
 6675SOL     OW31660   3.509   2.878   5.345  0.4444  0.0267  0.1112
 6675SOL    HW131661   3.600   2.890   5.319  0.5577  0.8273  0.8670
 6675SOL    HW231662   3.465   2.889   5.261  2.7142  1.6389 -0.8689
 6676SOL     OW31663   2.296   3.600   3.151 -0.3859  0.6085  0.3759
 6676SOL    HW131664   2.312   3.643   3.235 -0.6603 -0.8283  1.1610
 6676SOL    HW231665   2.294   3.510   3.184  3.0709 -0.1113 -1.3913
 6677SOL     OW31666   1.805   4.376   7.133  0.4618  0.2095 -0.3355
 6677SOL    HW131667   1.762   4.347   7.213 -1.8946 -0.3753 -1.8114
 6677SOL    HW231668   1.738   4.376   7.065 -0.1659 -0.8670  0.2773
 6678SOL     OW31669   4.465   0.786   1.552  0.2654 -0.0421  0.3676
 6678SOL    HW131670   4.494   0.854   1.492  0.5246 -0.8989 -0.4659
 6678SOL    HW231671   4.516   0.710   1.527 -1.1133 -0.2394 -1.8703
 6679SOL     OW31672   0.951   4.594   5.773 -0.2722  0.2628  0.0032
 6679SOL    HW131673   0.943   4.524   5.838  1.4035  1.7356  1.7740
 6679SOL    HW231674   0.863   4.625   5.750 -1.0410 -1.5338  0.5017
 6680SOL     OW31675   0.229   3.558   8.020 -0.9113  0.7652  0.6058
 6680SOL    HW131676   0.280   3.520   8.092 -1.8682 -0.5183  0.5952
 6680SOL    HW231677   0.153   3.502   8.007 -2.3894  3.0870 -0.9080
 6681SOL     OW31678   3.771   0.145   8.787  0.2156  0.6420  1.0704
 6681SOL    HW131679   3.799   0.207   8.719 -0.8622 -1.9787 -1.7387
 6681SOL    HW231680   3.677   0.148   8.775  0.4075  1.4930 -0.2798
 6682SOL     OW31681   0.415   4.118   7.337 -0.1664 -0.2288  0.3187
 6682SOL    HW131682   0.369   4.047   7.293 -0.6538  0.1746  0.1755
 6682SOL    HW231683   0.429   4.080   7.423  2.1620 -1.1919 -0.4901
 6683SOL     OW31684   3.804   1.325  11.728  0.4621 -0.1344 -0.2536
 6683SOL    HW131685   3.752   1.323  11.648 -0.9988  0.1948  0.6726
 6683SOL    HW231686   3.890   1.293  11.702  1.4697  0.5312  2.2286
 6684SOL     OW31687   0.041   4.299   8.516  0.4031 -0.0651 -0.1527
 6684SOL    HW131688   0.056   4.274   8.425 -1.1597 -0.5795 -0.2696
 6684SOL    HW231689   0.006   4.385   8.495 -0.1916 -0.2314  0.1399
 6685SOL     OW31690   1.053   2.966   8.042 -0.3135 -0.1991 -0.4767
 6685SOL    HW131691   1.030   3.048   7.998  0.1087  1.3984  2.2720
 6685SOL    HW231692   1.052   2.897   7.976 -0.1148 -1.3573  0.7272
 6686SOL     OW31693   0.238   2.365  11.070  0.5575  0.0593 -0.3652
 6686SOL    HW131694   0.328   2.393  11.087  0.1007  0.1794  1.8852
 6686SOL    HW231695   0.237   2.278  11.110  0.4547  0.9729  1.6282
 6687SOL     OW31696   3.155   4.231   5.539  0.1313 -0.2473  0.0591
 6687SOL    HW131697   3.233   4.283   5.521 -1.9487  1.3743 -4.1614
 6687SOL    HW231698   3.179   4.188   5.622  0.6050  0.2977  0.2045
 6688SOL     OW31699   4.125   1.963   5.197  0.2409  0.3243 -0.8800
 6688SOL    HW131700   4.114   2.056   5.180  1.1173  0.3141 -1.5170
 6688SOL    HW231701   4.162   1.962   5.286  1.4901 -0.2982 -1.4022
 6689SOL     OW31702   2.708   1.100   3.936 -0.3258  0.2685 -0.4914
 6689SOL    HW131703   2.632   1.049   3.908  0.5383 -1.3878  0.1598
 6689SOL    HW231704   2.757   1.086   3.855 -1.1137 -0.4568 -0.8371
 6690SOL     OW31705   3.647   3.827   2.212 -0.5092 -0.1706 -0.1995
 6690SOL    HW131706   3.630   3.859   2.123 -1.0502 -0.4214 -0.1847
 6690SOL    HW231707   3.643   3.905   2.268  0.3646 -0.0360 -0.3292
 6691SOL     OW31708   0.292   1.846   0.108 -0.2442  0.3353 -0.2270
 6691SOL    HW131709   0.380   1.812   0.093 -0.5939 -0.3195 -0.7990
 6691SOL    HW231710   0.307   1.939   0.126  0.6868  0.4343 -1.4737
 6692SOL     OW31711   2.939   2.590  11.219  0.6009  0.1501  0.0009
 6692SOL    HW131712   2.882   2.518  11.247  0.6903  0.0318 -0.1214
 6692SOL    HW231713   2.929   2.591  11.123  1.7785  0.9358 -0.1054
 6693SOL     OW31714   0.098   2.949   4.911 -0.4656 -0.1377  0.3344
 6693SOL    HW131715   0.107   3.039   4.878 -2.2275  0.0513  0.3740
 6693SOL    HW231716   0.005   2.929   4.906 -0.2282 -1.1053 -0.0670
 6694SOL     OW31717   4.569   4.409   9.638  0.8176 -0.1843 -0.0896
 6694SOL    HW131718   4.519   4.377   9.714 -2.9839 -0.3151 -2.6395
 6694SOL    HW231719   4.588   4.497   9.669  1.1932 -1.1727  2.5860
 6695SOL     OW31720   1.244   2.548   4.868 -0.1614  0.7969  0.2590
 6695SOL    HW131721   1.292   2.469   4.841  0.0812  0.5049  1.5178
 6695SOL    HW231722   1.309   2.617   4.854  1.4380 -1.1429 -2.0250
 6696SOL     OW31723   4.447   0.202  14.764 -0.1644 -0.7157 -0.0761
 6696SOL    HW131724   4.464   0.128  14.705  1.1046 -0.2491 -0.3111
 6696SOL    HW231725   4.353   0.190  14.771 -0.2908 -0.6903 -1.7114
 6697SOL     OW31726   2.436   0.151   3.981  0.3647 -0.4745  0.1292
 6697SOL    HW131727   2.403   0.070   4.019 -1.8155 -0.5230 -1.8318
 6697SOL    HW231728   2.528   0.146   4.005  0.1950 -0.2011  0.8172
 6698SOL     OW31729   4.261   2.592  14.413 -0.3709 -0.0242  0.2822
 6698SOL    HW131730   4.266   2.649  14.336  0.5201  0.9073  1.0439
 6698SOL    HW231731   4.266   2.660  14.479  0.8957  1.2610 -1.1333
 6699SOL     OW31732   3.490   4.223  15.622  0.0515 -0.2604 -0.4532
 6699SOL    HW131733   3.492   4.318  15.637  0.6276 -0.4051  0.4357
 6699SOL    HW231734   3.409   4.214  15.572  0.5366 -0.7062 -1.1515
 6700SOL     OW31735   1.540   1.259   6.892 -0.4745  0.1642  0.7121
 6700SOL    HW131736   1.513   1.305   6.812  0.8998 -1.1054 -0.5011
 6700SOL    HW231737   1.519   1.168   6.872 -0.5283  0.2813  0.2282
 6701SOL     OW31738   0.334   2.194   9.898  0.0254 -0.3881  0.7517
 6701SOL    HW131739   0.408   2.165   9.845 -0.8773  1.4947 -1.5280
 6701SOL    HW231740   0.316   2.279   9.859  0.7492 -1.0539 -1.0770
 6702SOL     OW31741   2.010   3.738   5.359  0.2222 -0.3052  0.0448
 6702SOL    HW131742   2.065   3.754   5.435  0.4382 -1.3667  0.1175
 6702SOL    HW231743   1.935   3.797   5.364  0.9072  0.4955  0.7713
 6703SOL     OW31744   0.575   2.097  12.505  0.2732  0.4601  0.6219
 6703SOL    HW131745   0.616   2.023  12.458 -0.8029  0.8331 -0.8958
 6703SOL    HW231746   0.485   2.065  12.497  0.6569 -0.5104  0.1643
 6704SOL     OW31747   1.930   0.401  14.223 -0.5216 -0.1086 -0.0586
 6704SOL    HW131748   2.005   0.389  14.165  0.2999  1.2875  0.7170
 6704SOL    HW231749   1.944   0.313  14.257 -0.1723  0.0552  0.2190
 6705SOL     OW31750   3.536   2.585   3.758 -0.4403  0.3146  0.2614
 6705SOL    HW131751   3.542   2.600   3.664 -3.0941  0.3480  0.1127
 6705SOL    HW231752   3.473   2.648   3.793 -2.2832 -1.2176 -0.2636
 6706SOL     OW31753   2.382   4.594   4.339 -0.2583  0.0756 -0.0948
 6706SOL    HW131754   2.382   4.685   4.368  1.4604  0.7250 -2.1728
 6706SOL    HW231755   2.376   4.605   4.244  0.4050 -2.4975 -0.4305
 6707SOL     OW31756   0.710   1.985   8.912 -0.0509  0.5459  0.2881
 6707SOL    HW131757   0.648   1.963   8.982 -1.1243  3.4176  0.2238
 6707SOL    HW231758   0.654   1.982   8.835  1.4436 -1.1180 -0.7517
 6708SOL     OW31759   2.627   2.644   2.382 -0.0074 -0.5320 -0.1534
 6708SOL    HW131760   2.709   2.615   2.422 -0.3229 -2.9950 -1.3424
 6708SOL    HW231761   2.572   2.576   2.420 -0.1227 -0.3503  0.0068
 6709SOL     OW31762   0.237   1.158   8.450  0.6810 -0.3761 -0.6115
 6709SOL    HW131763   0.233   1.170   8.545  0.5954 -1.5141 -0.4650
 6709SOL    HW231764   0.331   1.170   8.438  1.0589 -0.6226  2.1769
 6710SOL     OW31765   1.736   0.103  12.000  0.4464  0.3952  0.0630
 6710SOL    HW131766   1.692   0.020  12.013  0.5764 -0.2806 -3.9127
 6710SOL    HW231767   1.664   0.166  11.999 -0.7657 -1.0236 -0.2984
 6711SOL     OW31768   1.742   2.047   7.289  0.1515 -0.1189 -0.3934
 6711SOL    HW131769   1.683   1.986   7.332 -0.3901  1.1583  0.6939
 6711SOL    HW231770   1.802   2.070   7.360 -1.2054 -0.2608  0.8050
 6712SOL     OW31771   1.900   0.493  14.580  0.5877  0.2864 -0.2004
 6712SOL    HW131772   1.841   0.521  14.510 -1.1510 -3.0234 -0.0971
 6712SOL    HW231773   1.903   0.398  14.563 -0.3018  0.4132 -1.0604
 6713SOL     OW31774   1.687   2.650   1.773 -0.2444  0.3274  0.5476
 6713SOL    HW131775   1.648   2.563   1.767  0.0926  0.2310 -0.1929
 6713SOL    HW231776   1.745   2.638   1.849  0.8319 -0.1242 -0.3414
 6714SOL     OW31777   0.337   0.858  15.260  0.7076  0.0629  0.0100
 6714SOL    HW131778   0.381   0.821  15.336  0.4647 -0.7398 -0.2464
 6714SOL    HW231779   0.245   0.832  15.268  0.1426  1.3171 -2.6111
 6715SOL     OW31780   1.660   0.820  11.593  0.1357 -0.3941 -0.2184
 6715SOL    HW131781   1.566   0.818  11.610  0.5346 -0.5000  1.9672
 6715SOL    HW231782   1.698   0.734  11.613  0.3525 -0.4571 -0.9232
 6716SOL     OW31783   0.777   1.153   8.120 -0.3711 -0.6634  0.4012
 6716SOL    HW131784   0.869   1.137   8.100 -0.9285  1.5949 -3.9194
 6716SOL    HW231785   0.775   1.195   8.206 -2.7995  2.6299 -1.2462
 6717SOL     OW31786   3.087   0.926   0.905  0.4348  0.2623  0.2141
 6717SOL    HW131787   3.026   0.984   0.950  0.9008  1.7832 -1.1233
 6717SOL    HW231788   3.169   0.975   0.903 -0.0990  1.1299 -0.7207
 6718SOL     OW31789   3.783   3.240   3.063 -0.4318 -0.3293 -0.0253
 6718SOL    HW131790   3.828   3.200   2.989  2.3824  1.5411  0.6656
 6718SOL    HW231791   3.862   3.262   3.112 -0.6918  2.7967 -0.9939
 6719SOL     OW31792   1.461   0.553  11.791  0.1622 -0.3991 -0.2857
 6719SOL    HW131793   1.388   0.501  11.758  0.1091  1.3404 -2.9319
 6719SOL    HW231794   1.530   0.539  11.727 -1.4331  2.0010 -2.5179
 6720SOL     OW31795   3.327   4.683  17.712  0.4434  0.1968  0.2931
 6720SOL    HW131796   3.284   4.622   0.013  0.3742 -1.1359 -1.1616
 6720SOL    HW231797   3.344   4.631  17.633 -1.8020  1.4748 -1.0591
 6721SOL     OW31798   3.731   2.244  13.083  0.1244 -0.1823  0.2718
 6721SOL    HW131799   3.780   2.306  13.137  0.2081  0.8774 -1.0391
 6721SOL    HW231800   3.723   2.295  13.003  1.2420 -0.5019 -0.0438
 6722SOL     OW31801   3.734   1.705   5.508 -0.3910  0.0950 -0.1697
 6722SOL    HW131802   3.712   1.613   5.495 -1.1769  0.0978  1.1149
 6722SOL    HW231803   3.652   1.739   5.543 -0.2047 -0.2175  0.5821
 6723SOL     OW31804   3.631   3.371   8.682 -0.1357 -0.2758 -0.0977
 6723SOL    HW131805   3.546   3.402   8.714 -0.2522  0.9282 -1.5667
 6723SOL    HW231806   3.660   3.453   8.641  1.9255 -0.6266  0.6849
 6724SOL     OW31807   0.770   4.545  12.542  0.3220  0.1297  0.5676
 6724SOL    HW131808   0.756   4.634  12.574  1.5776  0.9705 -1.1969
 6724SOL    HW231809   0.743   4.501  12.622  3.0365  0.1143  1.4832
 6725SOL     OW31810   3.095   0.070   8.345  0.2713 -0.0390 -0.0526
 6725SOL    HW131811   3.128   4.732   8.388  1.1816 -0.3671 -1.3456
 6725SOL    HW231812   3.125   0.049   8.257  0.1682 -1.4829  0.2548
 6726SOL     OW31813   1.381   1.431  17.579 -0.2552  0.4016 -0.0092
 6726SOL    HW131814   1.411   1.522  17.584 -0.1839  0.3680  0.1675
 6726SOL    HW231815   1.370   1.404  17.670  1.2445 -2.1942 -0.5874
 6727SOL     OW31816   3.556   2.040  17.271  0.1970  0.3786  0.0720
 6727SOL    HW131817   3.635   2.073  17.315  0.3533 -0.6935  0.5905
 6727SOL    HW231818   3.554   2.079  17.183 -0.0925 -0.9986 -0.5376
 6728SOL     OW31819   2.404   3.706   1.031 -0.1940  0.4138 -0.1545
 6728SOL    HW131820   2.339   3.748   1.089  0.7044 -0.2864  1.3582
 6728SOL    HW231821   2.439   3.640   1.090 -0.0922 -0.3496 -1.0894
 6729SOL     OW31822   1.764   1.500   1.536  0.3276  1.1716  0.6455
 6729SOL    HW131823   1.747   1.526   1.626 -2.9484  0.1896  0.3123
 6729SOL    HW231824   1.799   1.581   1.499 -0.3148  0.8288 -0.7126
 6730SOL     OW31825   4.409   2.756  13.902  0.3795  0.0548 -0.2379
 6730SOL    HW131826   4.423   2.848  13.882 -0.2773  0.7891  2.6248
 6730SOL    HW231827   4.337   2.738  13.841  0.6557  0.1809 -0.5982
 6731SOL     OW31828   0.164   0.087  16.659  0.0415  0.1458 -0.1237
 6731SOL    HW131829   0.148   0.139  16.737 -2.3213  2.3084 -2.0281
 6731SOL    HW231830   0.083   0.100  16.610  0.2166 -4.3733 -1.6680
 6732SOL     OW31831   3.630   0.204  11.308  0.4766 -0.8497 -1.2470
 6732SOL    HW131832   3.713   0.251  11.313 -1.4341  2.2042  1.5883
 6732SOL    HW231833   3.629   0.167  11.396  0.6223  1.7533 -0.1474
 6733SOL     OW31834   4.378   4.690   1.094  0.2695  0.8218  0.0791
 6733SOL    HW131835   4.309   4.629   1.070 -1.2469  2.3704  0.4629
 6733SOL    HW231836   4.329   0.032   1.099 -0.4075  0.4395 -0.2513
 6734SOL     OW31837   0.229   0.150   3.393 -0.4092  0.8566  0.0101
 6734SOL    HW131838   0.148   0.164   3.345  0.0403 -2.3057 -1.6652
 6734SOL    HW231839   0.198   0.081   3.452 -1.6866  0.0900 -1.5582
 6735SOL     OW31840   1.830   1.794  12.064 -0.4989  0.2227 -0.6602
 6735SOL    HW131841   1.851   1.700  12.069 -1.0212  0.0577 -1.4934
 6735SOL    HW231842   1.737   1.782  12.044 -0.3724  1.8201 -2.1484
 6736SOL     OW31843   2.500   2.316   2.405  0.1163 -0.0363 -0.5030
 6736SOL    HW131844   2.518   2.252   2.473  3.7287  1.1561 -0.3596
 6736SOL    HW231845   2.431   2.278   2.350 -0.1986 -2.3804  1.5406
 6737SOL     OW31846   0.423   3.565   5.013  0.1569 -0.0678 -0.0062
 6737SOL    HW131847   0.462   3.548   5.099  0.4990  1.1564  0.0764
 6737SOL    HW231848   0.465   3.506   4.951 -2.2458 -1.3521 -0.4329
 6738SOL     OW31849   2.718   3.269  16.482 -0.5727  0.4240  0.0854
 6738SOL    HW131850   2.652   3.205  16.456 -0.1431  0.2897 -0.7015
 6738SOL    HW231851   2.776   3.276  16.405 -1.3847  0.4281 -0.5270
 6739SOL     OW31852   3.213   2.447   5.011 -0.3195 -0.2961 -0.6288
 6739SOL    HW131853   3.200   2.432   4.917  1.6306 -0.7541 -0.8309
 6739SOL    HW231854   3.290   2.390   5.019 -0.2632 -0.4206 -2.0357
 6740SOL     OW31855   2.754   3.702   5.689 -0.5227 -0.1598 -0.1188
 6740SOL    HW131856   2.688   3.632   5.694  0.3419 -1.0316 -0.7863
 6740SOL    HW231857   2.797   3.698   5.775 -1.8871  1.3087  0.6363
 6741SOL     OW31858   0.287   2.370   2.168  0.2853  0.4044 -0.0950
 6741SOL    HW131859   0.234   2.311   2.114 -2.2829  0.8076  2.0295
 6741SOL    HW231860   0.226   2.442   2.161 -1.0279 -0.5621  1.4948
 6742SOL     OW31861   2.281   2.803   9.897  0.0122 -0.5233  0.1083
 6742SOL    HW131862   2.274   2.820   9.991 -0.7806 -1.4964  0.2186
 6742SOL    HW231863   2.317   2.716   9.912 -3.5536 -2.1056 -0.4650
 6743SOL     OW31864   0.240   1.489   7.611 -0.2478  0.2767  0.2176
 6743SOL    HW131865   0.189   1.408   7.605  1.1596 -0.7568  2.1297
 6743SOL    HW231866   0.318   1.446   7.648 -0.7304  0.0530  0.9718
 6744SOL     OW31867   1.662   3.376   2.287  0.1512 -0.5512 -1.0790
 6744SOL    HW131868   1.592   3.421   2.239  1.7365  1.7085 -1.2838
 6744SOL    HW231869   1.732   3.432   2.253  1.0218 -1.2737 -0.4842
 6745SOL     OW31870   1.428   1.756  14.673  0.0494  0.4623 -0.6215
 6745SOL    HW131871   1.334   1.740  14.664  0.0989  0.5657 -1.2760
 6745SOL    HW231872   1.460   1.674  14.709 -1.4414  0.6040  1.0127
 6746SOL     OW31873   2.589   2.737   5.417  0.4576  0.5989 -0.1243
 6746SOL    HW131874   2.670   2.785   5.398  0.0518  0.7470 -1.5022
 6746SOL    HW231875   2.587   2.756   5.510  0.0634  2.3317 -0.4810
 6747SOL     OW31876   4.265   3.502  16.540 -0.1691 -0.0799  0.3074
 6747SOL    HW131877   4.348   3.456  16.543 -0.2513 -0.3713 -1.6551
 6747SOL    HW231878   4.247   3.533  16.629 -1.7386 -1.0619  0.3418
 6748SOL     OW31879   4.496   0.767   7.846 -0.3736 -0.1676 -0.4391
 6748SOL    HW131880   4.579   0.750   7.893 -0.7133  1.3572  0.7073
 6748SOL    HW231881   4.463   0.848   7.884  1.4713  0.6927 -0.6742
 6749SOL     OW31882   4.177   1.917   8.100  0.6148 -0.1947  0.0021
 6749SOL    HW131883   4.258   1.899   8.149 -0.9192 -1.3617  2.0782
 6749SOL    HW231884   4.121   1.951   8.170 -0.8195 -0.6324 -0.9397
 6750SOL     OW31885   0.040   3.343   5.717  0.1497 -0.0597  0.0033
 6750SOL    HW131886   0.076   3.370   5.802 -1.0981  0.0671  0.4856
 6750SOL    HW231887   0.006   3.255   5.736  0.9089 -0.5896 -1.1003
 6751SOL     OW31888   1.074   0.657   5.077 -0.5869 -0.2304 -0.1144
 6751SOL    HW131889   1.065   0.589   5.010 -0.7411 -0.0897 -0.2369
 6751SOL    HW231890   1.024   0.727   5.035  0.7021  1.3489  0.9840
 6752SOL     OW31891   4.657   4.009   6.755 -0.3938 -0.6330 -0.4114
 6752SOL    HW131892   4.599   3.941   6.788 -1.3403  1.3612  2.0398
 6752SOL    HW231893   4.683   4.061   6.831  0.5716 -1.7610  0.0264
 6753SOL     OW31894   0.718   0.483   7.835  0.2107  0.0478  0.0880
 6753SOL    HW131895   0.626   0.469   7.812 -0.0258  0.9177  0.5106
 6753SOL    HW231896   0.728   0.550   7.768  0.7275 -0.5099 -0.3847
 6754SOL     OW31897   3.828   0.735   3.426  0.8399 -0.5347 -0.0789
 6754SOL    HW131898   3.892   0.707   3.492  0.7058  1.0783  0.7355
 6754SOL    HW231899   3.746   0.716   3.472  0.6722  0.1880 -0.0941
 6755SOL     OW31900   4.143   0.133   1.711 -0.0201 -0.0439 -0.3191
 6755SOL    HW131901   4.062   0.097   1.675 -0.0707  2.6638 -2.9140
 6755SOL    HW231902   4.118   0.221   1.685 -3.0425 -0.6108  0.6833
 6756SOL     OW31903   3.854   0.294   1.980  0.1255  0.0301 -0.3640
 6756SOL    HW131904   3.811   0.310   1.896  1.4915  0.4675 -0.9943
 6756SOL    HW231905   3.799   0.225   2.017 -1.3497  0.9482 -0.8444
 6757SOL     OW31906   1.944   3.232   8.522 -0.1186  0.4687 -0.0913
 6757SOL    HW131907   1.894   3.173   8.578 -0.8249  1.1897  0.0402
 6757SOL    HW231908   1.992   3.168   8.470 -0.1435 -0.7668  1.4009
 6758SOL     OW31909   0.159   0.375   8.772 -0.7417  0.4815  0.2853
 6758SOL    HW131910   0.119   0.409   8.692 -0.9939 -0.2905  0.0895
 6758SOL    HW231911   0.117   0.290   8.772  0.6008 -0.1915 -0.7775
 6759SOL     OW31912   3.729   4.727  16.926  0.3217 -1.2116  0.4904
 6759SOL    HW131913   3.795   4.662  16.901  1.0148 -1.0467  1.8449
 6759SOL    HW231914   3.652   4.671  16.928  1.4547 -2.7009  2.9215
 6760SOL     OW31915   3.425   2.740  16.998  0.1125 -0.1796  0.5492
 6760SOL    HW131916   3.425   2.795  17.076 -2.0810 -0.2550  0.6140
 6760SOL    HW231917   3.380   2.663  17.034  1.8184 -1.0186  0.8624
 6761SOL     OW31918   1.560   1.923   6.063 -0.0194 -0.9063  0.1379
 6761SOL    HW131919   1.576   1.858   5.995 -0.5996 -0.6115 -0.2801
 6761SOL    HW231920   1.466   1.936   6.048 -0.0584 -1.5561 -0.1743
 6762SOL     OW31921   3.508   2.514   8.456 -0.5970 -0.0008 -0.3413
 6762SOL    HW131922   3.523   2.519   8.550  1.6809  1.2156 -0.7541
 6762SOL    HW231923   3.505   2.609   8.442 -2.8108 -0.0619 -0.2611
 6763SOL     OW31924   3.066   4.080   1.958  0.1242  0.1467  0.1417
 6763SOL    HW131925   3.141   4.099   1.901 -0.2064 -0.0131 -0.3464
 6763SOL    HW231926   3.079   3.985   1.961 -0.8463  0.0314  0.7839
 6764SOL     OW31927   2.150   3.435   3.732 -0.3318 -0.0365  0.4469
 6764SOL    HW131928   2.066   3.409   3.769 -0.6889 -1.8731 -1.6977
 6764SOL    HW231929   2.218   3.394   3.786  1.1805  0.7504 -0.8551
 6765SOL     OW31930   4.352   2.971  14.533 -0.5215  0.0624 -0.2052
 6765SOL    HW131931   4.358   3.057  14.491 -1.1144  0.1015 -0.2209
 6765SOL    HW231932   4.422   2.922  14.490  0.4112  0.2720  1.0886
 6766SOL     OW31933   4.484   1.376   3.273 -0.3972  0.1225  0.3863
 6766SOL    HW131934   4.465   1.394   3.365 -0.2478 -0.8195  0.6013
 6766SOL    HW231935   4.573   1.342   3.281 -0.3417  0.1609 -0.0255
 6767SOL     OW31936   3.776   1.582   4.214  0.1508 -0.1383  0.7055
 6767SOL    HW131937   3.720   1.596   4.290  0.2341  0.6479  0.6272
 6767SOL    HW231938   3.848   1.646   4.215 -0.5453  0.6499  0.0589
 6768SOL     OW31939   3.413   0.390  17.655  0.1134 -0.2559  0.2707
 6768SOL    HW131940   3.326   0.350  17.648  0.2135 -0.1899 -1.4531
 6768SOL    HW231941   3.399   0.439  17.735  0.9433  2.0030 -0.9804
 6769SOL     OW31942   2.611   1.146   5.199  0.0471 -0.2894 -0.0754
 6769SOL    HW131943   2.676   1.079   5.221  0.0822 -0.0140  0.6356
 6769SOL    HW231944   2.635   1.207   5.268  2.0031  0.3444 -1.3237
 6770SOL     OW31945   0.881   2.729   9.679 -0.0737  0.5955 -0.3715
 6770SOL    HW131946   0.818   2.687   9.620 -0.8943  0.4073  0.6569
 6770SOL    HW231947   0.852   2.692   9.762 -0.6431  1.5728 -0.1406
 6771SOL     OW31948   2.004   0.371   3.796  0.1380  0.1849  0.3274
 6771SOL    HW131949   2.053   0.306   3.846  1.2906  0.7706 -0.0211
 6771SOL    HW231950   2.079   0.418   3.758 -1.4089  2.5491  0.2192
 6772SOL     OW31951   1.615   4.737   5.277 -0.2291 -0.4297 -0.0311
 6772SOL    HW131952   1.557   4.684   5.222 -1.4372  0.1594  0.6784
 6772SOL    HW231953   1.561   0.058   5.326 -0.4126 -0.9746  0.4403
 6773SOL     OW31954   0.297   1.759  16.896 -0.0207 -0.1023 -0.1958
 6773SOL    HW131955   0.374   1.796  16.852 -0.7207  2.3899  0.6580
 6773SOL    HW231956   0.241   1.707  16.839  1.9116 -1.9440 -0.4029
 6774SOL     OW31957   0.660   1.067   1.130  0.4601 -0.3785  0.8246
 6774SOL    HW131958   0.726   1.136   1.126  0.0843 -0.0785 -0.1017
 6774SOL    HW231959   0.691   1.010   1.200  2.2702  0.3391  0.6239
 6775SOL     OW31960   0.790   2.467   1.800  0.5281 -0.0029  0.6371
 6775SOL    HW131961   0.779   2.543   1.857  1.5907  1.5019 -1.2057
 6775SOL    HW231962   0.851   2.503   1.736 -0.0419 -1.8440 -0.9387
 6776SOL     OW31963   2.159   2.700   6.567 -0.0698 -0.4280  0.1206
 6776SOL    HW131964   2.073   2.707   6.525  0.1483  0.4378 -0.1855
 6776SOL    HW231965   2.190   2.788   6.544  0.5608 -1.4886 -3.1303
 6777SOL     OW31966   2.950   3.344  17.229  0.1699 -0.3245 -0.1095
 6777SOL    HW131967   2.974   3.433  17.202  1.1097 -0.9611 -1.4032
 6777SOL    HW231968   2.856   3.356  17.217  0.1376  1.3670  1.7989
 6778SOL     OW31969   2.771   2.273   5.342 -0.1744 -0.4093  0.4717
 6778SOL    HW131970   2.783   2.193   5.394 -2.0861 -1.4007 -0.6138
 6778SOL    HW231971   2.707   2.227   5.288 -0.8719 -1.5350  2.2325
 6779SOL     OW31972   1.801   1.569   4.797  0.2795  0.3564  0.8234
 6779SOL    HW131973   1.818   1.660   4.772 -0.2830  0.4863  0.9161
 6779SOL    HW231974   1.798   1.541   4.705 -1.4265 -0.6979  1.2040
 6780SOL     OW31975   1.908   1.953  16.202 -0.0096  0.1129  0.4142
 6780SOL    HW131976   1.894   2.048  16.204  1.0238  0.3062 -1.3315
 6780SOL    HW231977   1.894   1.956  16.108  0.6386  0.3696  0.3219
 6781SOL     OW31978   3.542   1.102   1.990 -0.0462 -0.8607 -0.3297
 6781SOL    HW131979   3.525   1.190   2.023 -0.8798 -1.0816 -0.1724
 6781SOL    HW231980   3.517   1.049   2.066  1.7690 -1.1445  0.0834
 6782SOL     OW31981   4.223   3.600  12.115 -0.1596 -0.2140  0.1469
 6782SOL    HW131982   4.231   3.695  12.109  3.9455 -0.5160  1.2119
 6782SOL    HW231983   4.313   3.571  12.126 -0.4000 -0.7356  0.7268
 6783SOL     OW31984   4.481   1.640  13.092 -0.3916 -0.2246  0.7092
 6783SOL    HW131985   4.403   1.654  13.145 -0.6177 -0.5564  0.4672
 6783SOL    HW231986   4.536   1.596  13.157 -0.5877  0.0767  1.0733
 6784SOL     OW31987   0.180   3.532   2.784  0.2396 -0.5181  0.0877
 6784SOL    HW131988   0.189   3.508   2.692  0.4668 -1.9234  0.4756
 6784SOL    HW231989   0.160   3.625   2.780 -2.6811 -1.0570  2.2172
 6785SOL     OW31990   2.745   4.092  14.961  0.3994 -0.2371  0.1577
 6785SOL    HW131991   2.661   4.129  14.987  0.5267  1.3615 -1.6996
 6785SOL    HW231992   2.794   4.169  14.992  1.8422 -0.2428 -2.1080
 6786SOL     OW31993   3.095   1.240   4.699 -0.3125  0.1576  0.6092
 6786SOL    HW131994   3.064   1.229   4.609  1.2587  0.9566 -0.0211
 6786SOL    HW231995   3.077   1.331   4.721  0.9001  0.8608 -1.3077
 6787SOL     OW31996   1.720   4.310   2.858  0.2113 -0.3992  0.1738
 6787SOL    HW131997   1.688   4.236   2.909 -0.4820 -0.0458  0.2468
 6787SOL    HW231998   1.729   4.379   2.923 -0.5782  0.3234 -0.4831
 6788SOL     OW31999   1.501   0.410   7.661 -0.1213 -0.4775 -0.1476
 6788SOL    HW132000   1.539   0.327   7.630  0.1766  0.4013 -2.1547
 6788SOL    HW232001   1.461   0.382   7.743  0.5675  0.1088  0.3914
 6789SOL     OW32002   2.901   0.204  17.640  0.0392  0.0581  0.1736
 6789SOL    HW132003   2.938   0.249  17.716  0.4861 -1.0314  0.6025
 6789SOL    HW232004   2.973   0.158  17.595  0.7134 -0.6929  2.0322
 6790SOL     OW32005   0.174   2.480  13.045  0.1287 -0.0743  0.0676
 6790SOL    HW132006   0.200   2.494  12.954  1.0805  1.6815  0.6086
 6790SOL    HW232007   0.221   2.549  13.092 -2.6899  2.1717 -0.4895
 6791SOL     OW32008   4.465   3.793   6.087  0.1152 -0.2798 -0.5301
 6791SOL    HW132009   4.509   3.721   6.041  0.4585  0.2671 -1.0678
 6791SOL    HW232010   4.480   3.765   6.177 -3.3304 -0.5506 -0.0420
 6792SOL     OW32011   4.021   1.150   6.968 -0.8132  0.2186  0.2866
 6792SOL    HW132012   4.087   1.197   7.019  0.3183  0.3795 -1.3340
 6792SOL    HW232013   4.000   1.218   6.905  2.2254  2.4308  1.7016
 6793SOL     OW32014   2.074   0.799   7.978  0.6702 -0.0396  0.7814
 6793SOL    HW132015   2.053   0.799   8.071 -2.0729 -0.4641  0.1725
 6793SOL    HW232016   2.067   0.708   7.949  0.9433  0.0640  0.3771
 6794SOL     OW32017   1.708   2.533   9.335 -0.1693  0.6038 -0.6215
 6794SOL    HW132018   1.686   2.558   9.424 -1.7677 -2.3087 -0.1832
 6794SOL    HW232019   1.803   2.535   9.346 -0.2026  1.2817 -0.4872
 6795SOL     OW32020   2.475   3.177   1.734  0.0929 -0.3698  0.3312
 6795SOL    HW132021   2.521   3.210   1.811 -0.6033  1.6977 -0.1239
 6795SOL    HW232022   2.546   3.145   1.679 -0.3854 -0.4788 -0.2300
 6796SOL     OW32023   3.455   2.550   3.119  0.1107 -0.3261  0.1936
 6796SOL    HW132024   3.375   2.603   3.125  0.7555  0.7470 -0.6792
 6796SOL    HW232025   3.431   2.462   3.091  2.5482 -0.9837  0.1705
 6797SOL     OW32026   2.420   2.289   3.779 -0.0400 -0.0890  0.4632
 6797SOL    HW132027   2.327   2.291   3.755  0.5066  1.7561 -1.4577
 6797SOL    HW232028   2.417   2.283   3.874  2.9154  0.3367  0.5719
 6798SOL     OW32029   2.590   0.113   6.690 -0.0935  0.5784  0.5934
 6798SOL    HW132030   2.685   0.101   6.682  0.0362  0.1374  2.9931
 6798SOL    HW232031   2.555   0.024   6.686 -1.1211  1.0128 -0.1451
 6799SOL     OW32032   2.256   3.566  11.359  0.3520 -0.1105  0.7750
 6799SOL    HW132033   2.178   3.551  11.306  1.5175 -1.0675 -0.6196
 6799SOL    HW232034   2.244   3.659  11.383 -2.4567 -0.3272  0.2483
 6800SOL     OW32035   0.716   1.579   8.085 -0.1836 -0.0425  0.4692
 6800SOL    HW132036   0.697   1.658   8.034  1.0754 -0.5822 -0.8632
 6800SOL    HW232037   0.637   1.574   8.138 -0.2480 -0.0881  0.3687
 6801SOL     OW32038   0.129   2.963  16.874 -0.3543  0.1663 -0.6126
 6801SOL    HW132039   0.192   2.917  16.819 -0.2559 -0.4595  0.0188
 6801SOL    HW232040   0.138   2.925  16.962  2.4060  0.5179 -0.7391
 6802SOL     OW32041   1.485   4.097  16.210 -0.3598 -0.8637 -0.2795
 6802SOL    HW132042   1.482   4.035  16.137  3.2918 -0.9481 -0.3361
 6802SOL    HW232043   1.555   4.062  16.265 -0.1552 -0.6023 -0.3746
 6803SOL     OW32044   1.556   0.728   7.796  0.3939 -0.4660  0.2024
 6803SOL    HW132045   1.534   0.670   7.869  0.8042 -1.1147 -0.1945
 6803SOL    HW232046   1.639   0.768   7.824  0.5209  1.5930 -3.1431
 6804SOL     OW32047   3.655   0.053   8.502  0.4966 -0.2045  0.3615
 6804SOL    HW132048   3.731   0.029   8.449  0.4502  0.6636 -0.1010
 6804SOL    HW232049   3.662   4.726   8.570 -2.4914 -0.9416 -0.0774
 6805SOL     OW32050   2.031   1.506  16.730 -0.1514 -0.5135 -0.1607
 6805SOL    HW132051   1.968   1.578  16.722 -0.2227 -0.3123  2.2535
 6805SOL    HW232052   2.024   1.479  16.638 -0.0121 -0.5726 -0.1542
 6806SOL     OW32053   2.134   0.403   7.603  0.0829  0.1236  0.3172
 6806SOL    HW132054   2.180   0.320   7.594 -0.5921 -0.4734  2.1510
 6806SOL    HW232055   2.041   0.378   7.606  0.2691 -0.5477  0.4746
 6807SOL     OW32056   3.939   3.422   3.269  0.0270  0.3472 -0.1832
 6807SOL    HW132057   3.972   3.457   3.186 -0.0433  0.4379 -0.1728
 6807SOL    HW232058   3.931   3.496   3.328  1.7643 -0.3079  0.8566
 6808SOL     OW32059   2.235   3.525   4.981  0.1814  0.7836  0.7350
 6808SOL    HW132060   2.286   3.476   5.046 -0.2077 -1.8910 -0.9746
 6808SOL    HW232061   2.176   3.577   5.035 -0.0702 -0.5649  1.7570
 6809SOL     OW32062   1.680   0.138   8.731 -0.7049 -0.2487 -0.8386
 6809SOL    HW132063   1.723   0.206   8.782 -2.3023 -0.7325  1.1303
 6809SOL    HW232064   1.714   0.159   8.644  0.5885  0.0970 -0.2441
 6810SOL     OW32065   2.669   1.552   3.655 -0.0248 -0.1151 -0.1695
 6810SOL    HW132066   2.617   1.480   3.691  1.8724 -0.5560  1.7107
 6810SOL    HW232067   2.753   1.518   3.687 -0.7568  0.1063  2.0102
 6811SOL     OW32068   1.039   1.681  17.015  0.0669 -0.0709 -0.1145
 6811SOL    HW132069   1.105   1.633  17.065 -1.0137  0.0632  1.4319
 6811SOL    HW232070   1.038   1.635  16.931 -2.0487 -2.1606  1.0395
 6812SOL     OW32071   0.058   3.924  16.569  0.8459  0.1040 -0.2593
 6812SOL    HW132072   0.106   3.994  16.614 -0.7415  0.0906  1.4877
 6812SOL    HW232073   0.125   3.871  16.526 -0.8763 -2.2798 -0.0260
 6813SOL     OW32074   4.277   3.078   2.527  0.0228  0.5522  0.2705
 6813SOL    HW132075   4.345   3.123   2.577  0.1166  1.2063 -0.4248
 6813SOL    HW232076   4.291   2.984   2.539 -1.4711  0.2406 -0.4296
 6814SOL     OW32077   2.281   2.133   3.447  0.4235 -0.1362  0.0204
 6814SOL    HW132078   2.293   2.089   3.531  1.0727 -1.2555 -0.6748
 6814SOL    HW232079   2.186   2.136   3.431  0.4758 -1.6628 -0.5834
 6815SOL     OW32080   0.621   3.823   7.194 -0.5035  0.0216  0.5997
 6815SOL    HW132081   0.669   3.785   7.267 -0.3689  1.6876  1.3674
 6815SOL    HW232082   0.679   3.898   7.185  0.7761 -1.0716 -0.3674
 6816SOL     OW32083   0.328   3.153   5.005 -0.7784  0.1667  0.1637
 6816SOL    HW132084   0.323   3.214   5.079 -0.8988 -1.1523  1.2654
 6816SOL    HW232085   0.242   3.166   4.965  0.4279  1.1576 -2.0782
 6817SOL     OW32086   4.577   3.565   7.302  0.2304  0.1042  0.5965
 6817SOL    HW132087   4.650   3.610   7.346  0.1947 -0.1546  0.9225
 6817SOL    HW232088   4.608   3.586   7.214  3.4046 -0.6887  1.5139
 6818SOL     OW32089   4.234   0.075  15.441  0.2269  0.9839  0.0958
 6818SOL    HW132090   4.273   0.088  15.355 -0.1826  0.5731 -0.1490
 6818SOL    HW232091   4.307   0.088  15.501  1.1213  1.8884 -1.1896
 6819SOL     OW32092   1.834   1.862   7.602 -0.1918 -0.9331  0.3671
 6819SOL    HW132093   1.744   1.893   7.613 -0.3619 -1.6714  1.0094
 6819SOL    HW232094   1.834   1.788   7.663 -1.0587 -1.2592 -0.0256
 6820SOL     OW32095   3.932   1.690   2.779  0.3496 -0.1558  0.1413
 6820SOL    HW132096   3.970   1.621   2.725 -2.0980 -2.3718  1.2252
 6820SOL    HW232097   3.855   1.720   2.731  1.0513 -1.9547 -2.0833
 6821SOL     OW32098   0.440   3.854   6.024 -0.0732 -0.0391  0.2334
 6821SOL    HW132099   0.352   3.817   6.033  0.2277 -0.9613 -0.7815
 6821SOL    HW232100   0.439   3.921   6.093  1.4001  1.3714 -1.0835
 6822SOL     OW32101   4.568   4.682  17.647 -0.7123 -0.2718  0.2288
 6822SOL    HW132102   4.592   4.739  17.720  2.4344  1.2104 -1.9201
 6822SOL    HW232103   4.520   4.614  17.693 -0.3938 -0.1367  0.7660
 6823SOL     OW32104   0.313   4.660   7.871  0.0345 -0.3944  0.0701
 6823SOL    HW132105   0.402   4.661   7.906 -0.4286  0.7468  1.2188
 6823SOL    HW232106   0.312   4.576   7.826  0.4008 -0.4718  0.2152
 6824SOL     OW32107   0.383   3.017   9.383  0.1340  0.0072  0.1924
 6824SOL    HW132108   0.303   3.059   9.353 -1.5646 -2.1273  1.7157
 6824SOL    HW232109   0.422   3.102   9.404  0.4841 -0.5845  1.8995
 6825SOL     OW32110   0.123   4.019   7.878 -0.3468  0.2563 -0.2477
 6825SOL    HW132111   0.062   3.969   7.823  0.0581 -2.9306  2.1829
 6825SOL    HW232112   0.144   3.958   7.949 -0.3010  0.7838  0.1842
 6826SOL     OW32113   1.397   3.053   9.753 -0.7647 -0.1188 -0.3369
 6826SOL    HW132114   1.351   3.012   9.679 -0.6847 -1.1656  0.1997
 6826SOL    HW232115   1.392   2.987   9.821 -3.1330 -1.7433 -2.0771
 6827SOL     OW32116   1.928   1.650   4.030 -0.3461  0.5995 -0.1496
 6827SOL    HW132117   2.013   1.640   3.988  0.0860 -1.7370  1.2704
 6827SOL    HW232118   1.877   1.581   3.986  1.2529 -0.9011  0.3344
 6828SOL     OW32119   1.355   0.287   6.452  0.0591  0.3574 -0.2328
 6828SOL    HW132120   1.447   0.276   6.479  0.6927 -0.8114 -2.8794
 6828SOL    HW232121   1.355   0.282   6.357  0.3240  2.3426 -0.3180
 6829SOL     OW32122   4.159   2.470   0.894  0.3869 -0.5639 -0.4066
 6829SOL    HW132123   4.220   2.511   0.955  1.6393 -1.5708 -0.9627
 6829SOL    HW232124   4.208   2.391   0.870  1.4606 -0.2281  0.7032
 6830SOL     OW32125   1.532   3.231   1.129 -0.1470  0.8611 -0.6442
 6830SOL    HW132126   1.596   3.177   1.082 -0.1548  1.4227 -1.3158
 6830SOL    HW232127   1.581   3.289   1.187 -0.0548  1.5167 -1.3622
 6831SOL     OW32128   1.789   2.440   8.843 -0.3857  0.2690 -0.0844
 6831SOL    HW132129   1.700   2.432   8.877 -0.2777 -0.7392 -0.0239
 6831SOL    HW232130   1.782   2.400   8.756 -0.2900  1.5947 -0.7003
 6832SOL     OW32131   0.470   0.963  11.715  0.5828 -0.0417  0.7320
 6832SOL    HW132132   0.405   0.892  11.712  1.2968 -0.6909  0.4345
 6832SOL    HW232133   0.430   1.028  11.771  0.3584  0.2056  0.2857
 6833SOL     OW32134   1.713   3.046   7.800 -0.1564 -0.3149  0.6496
 6833SOL    HW132135   1.785   3.102   7.771  0.1136 -1.4533 -0.8354
 6833SOL    HW232136   1.717   2.976   7.736 -0.7810  0.7636 -0.5650
 6834SOL     OW32137   0.518   2.489   4.218  0.3705  0.0568  0.0299
 6834SOL    HW132138   0.473   2.405   4.215 -3.7571  2.2609  0.2470
 6834SOL    HW232139   0.563   2.481   4.302 -0.5635  0.5379  0.5831
 6835SOL     OW32140   1.920   1.235   6.711 -0.3561  0.0821  0.2628
 6835SOL    HW132141   1.910   1.233   6.807  2.5443 -2.6701  0.5082
 6835SOL    HW232142   2.008   1.269   6.694 -0.8444  1.9074  1.3509
 6836SOL     OW32143   0.742   3.474   6.751 -0.2467 -0.3373  1.1695
 6836SOL    HW132144   0.769   3.387   6.721 -0.1283  0.2506 -0.4392
 6836SOL    HW232145   0.659   3.488   6.704  1.6043 -0.7212 -2.2144
 6837SOL     OW32146   2.064   4.594   4.070 -0.0885  0.1521  0.0573
 6837SOL    HW132147   2.061   4.528   4.139 -1.1886  0.0457 -0.0970
 6837SOL    HW232148   2.024   4.666   4.119 -0.8649 -0.6345  0.5645
 6838SOL     OW32149   2.238   0.000   8.808 -0.2226 -0.4590  0.1034
 6838SOL    HW132150   2.192   4.732   8.891 -0.9110  1.7867 -0.0581
 6838SOL    HW232151   2.266   4.649   8.797 -0.3852 -0.6612  1.4540
 6839SOL     OW32152   2.144   4.196   7.633 -0.6426  0.6092  0.1968
 6839SOL    HW132153   2.127   4.163   7.545 -0.6600  0.2116  0.3491
 6839SOL    HW232154   2.227   4.149   7.640 -0.4286  1.2498  1.9729
 6840SOL     OW32155   3.077   1.569  11.607 -0.1898 -0.7869 -0.4244
 6840SOL    HW132156   3.011   1.524  11.660 -1.8424 -0.2488 -1.9956
 6840SOL    HW232157   3.137   1.498  11.586  0.5588 -0.7747  1.7244
 6841SOL     OW32158   4.448   3.385   5.755 -0.1426  0.4373  0.5981
 6841SOL    HW132159   4.416   3.298   5.731  0.8235 -0.4058  2.2861
 6841SOL    HW232160   4.501   3.360   5.831  0.4956  0.8719  0.2957
 6842SOL     OW32161   4.343   0.700   8.739  0.6191 -0.1003  0.3466
 6842SOL    HW132162   4.361   0.610   8.711 -0.8969 -0.3335  0.1230
 6842SOL    HW232163   4.331   0.682   8.832  1.6218 -1.6699  0.1763
 6843SOL     OW32164   2.322   0.188   7.580 -0.4198 -0.2566 -0.0485
 6843SOL    HW132165   2.324   0.096   7.555  2.1695  0.0718 -1.0456
 6843SOL    HW232166   2.338   0.182   7.674  2.2804 -0.1775 -0.5073
 6844SOL     OW32167   3.479   1.119  12.338 -0.3181  0.0594 -0.0394
 6844SOL    HW132168   3.397   1.069  12.334  0.1850 -0.7081 -0.7528
 6844SOL    HW232169   3.540   1.060  12.381  2.4529  0.2768 -3.6584
 6845SOL     OW32170   0.894   4.590   0.875 -0.3360  0.0016 -0.9575
 6845SOL    HW132171   0.862   4.666   0.924  1.2356  0.0184  0.0426
 6845SOL    HW232172   0.984   4.593   0.905 -1.2323 -0.9546  1.8131
 6846SOL     OW32173   3.359   2.420   5.847 -0.7330 -0.1304  0.3375
 6846SOL    HW132174   3.341   2.328   5.830  3.4767 -0.5721 -1.7902
 6846SOL    HW232175   3.269   2.449   5.864 -0.9807 -0.0469 -1.0476
 6847SOL     OW32176   0.586   2.620   3.453 -0.3890 -0.2137  0.3223
 6847SOL    HW132177   0.549   2.598   3.538  0.7904  0.7009  1.0712
 6847SOL    HW232178   0.645   2.693   3.473  0.9616 -1.3829  0.6077
 6848SOL     OW32179   3.401   0.102   6.642  0.3566 -0.1591 -0.3086
 6848SOL    HW132180   3.360   0.060   6.566  0.8047  1.1960 -1.2835
 6848SOL    HW232181   3.446   0.028   6.683 -0.7246 -1.5383 -1.6170
 6849SOL     OW32182   0.494   3.514   5.291  0.3028  0.3587 -0.3317
 6849SOL    HW132183   0.491   3.420   5.308  0.3900  0.3405 -0.4158
 6849SOL    HW232184   0.472   3.551   5.377 -0.9512  2.4981 -1.5917
 6850SOL     OW32185   2.944   1.703   1.805 -0.1226 -0.2604 -0.9709
 6850SOL    HW132186   2.945   1.654   1.723  1.2096  2.0658 -2.3577
 6850SOL    HW232187   2.957   1.645   1.880  4.6631 -0.3506 -1.8270
 6851SOL     OW32188   0.928   4.723  12.153 -0.3974 -0.1768  0.2866
 6851SOL    HW132189   0.890   0.051  12.209 -0.2457  0.2100 -0.0781
 6851SOL    HW232190   0.853   4.708  12.096 -1.0188 -0.6039  1.2154
 6852SOL     OW32191   1.220   1.924  14.428 -0.0137  0.0214  0.5803
 6852SOL    HW132192   1.125   1.938  14.429  0.3619  2.4470  1.0945
 6852SOL    HW232193   1.225   1.832  14.455  2.8605 -0.2402 -0.8465
 6853SOL     OW32194   2.452   1.799  15.419  0.1889 -0.1131  0.1629
 6853SOL    HW132195   2.387   1.846  15.471  0.2182 -0.6719  0.7018
 6853SOL    HW232196   2.536   1.835  15.448 -1.2452  3.1602  0.3060
 6854SOL     OW32197   0.715   0.704   8.735  0.3825 -0.3328 -0.2159
 6854SOL    HW132198   0.769   0.638   8.691 -2.5500 -1.5815 -1.9374
 6854SOL    HW232199   0.766   0.730   8.812  0.4436 -0.7691 -0.1110
 6855SOL     OW32200   0.755   3.771   4.538  0.0203  0.0581  0.7714
 6855SOL    HW132201   0.718   3.698   4.489  1.0617 -0.5436  0.8820
 6855SOL    HW232202   0.752   3.739   4.628  0.2038  1.2384  1.1909
 6856SOL     OW32203   4.359   1.880   6.422 -0.5646  0.4181 -0.7163
 6856SOL    HW132204   4.329   1.810   6.364  0.2366 -0.0095 -0.6096
 6856SOL    HW232205   4.286   1.911   6.476  2.4432  0.4336  3.3608
 6857SOL     OW32206   2.822   1.581   8.868  0.3314  0.0390  0.5637
 6857SOL    HW132207   2.824   1.492   8.833  3.2580  0.1364  0.4352
 6857SOL    HW232208   2.768   1.584   8.947  0.4751  0.9885  0.6210
 6858SOL     OW32209   1.910   1.995  11.532  0.5361 -0.3745 -0.5018
 6858SOL    HW132210   1.899   1.902  11.551  1.1358 -0.0644  1.3550
 6858SOL    HW232211   1.865   2.030  11.608 -0.4254 -2.0722 -0.2951
 6859SOL     OW32212   0.459   3.348   8.773 -0.8050  0.2436 -0.0809
 6859SOL    HW132213   0.461   3.439   8.742  2.1596  0.1784 -0.1298
 6859SOL    HW232214   0.510   3.304   8.705 -1.5974  0.4362 -0.7871
 6860SOL     OW32215   1.130   3.981   6.786 -0.3440  0.2035  0.5275
 6860SOL    HW132216   1.185   4.051   6.820 -2.5717  0.7498  2.9045
 6860SOL    HW232217   1.113   4.021   6.701  1.1706  0.0537  0.1432
 6861SOL     OW32218   3.966   2.266  16.764 -0.2433  0.0631 -0.0057
 6861SOL    HW132219   4.054   2.296  16.786 -0.2908  1.1474 -1.2555
 6861SOL    HW232220   3.917   2.324  16.821 -1.3735  0.9079 -1.8299
 6862SOL     OW32221   2.160   2.065   7.700  0.6339 -0.0566 -0.4589
 6862SOL    HW132222   2.243   2.114   7.700 -0.3522  1.6137  1.0077
 6862SOL    HW232223   2.142   2.065   7.794 -0.8223 -0.0153 -0.7353
 6863SOL     OW32224   0.465   0.727   6.319 -0.1449 -0.6015 -0.4056
 6863SOL    HW132225   0.480   0.791   6.389  1.4015 -0.6481 -0.6945
 6863SOL    HW232226   0.370   0.739   6.311  0.2704  2.5396 -0.4096
 6864SOL     OW32227   4.374   1.998   3.085 -0.2384 -0.5323  0.1521
 6864SOL    HW132228   4.319   2.044   3.022 -0.1366  1.2897  1.3875
 6864SOL    HW232229   4.437   2.060   3.123  0.0929 -1.2779  0.8338
 6865SOL     OW32230   4.618   0.269   6.274  0.2038  0.0937  0.1799
 6865SOL    HW132231   4.709   0.286   6.296  0.1337  0.4577  0.1822
 6865SOL    HW232232   4.631   0.188   6.225  3.9474  0.1375  1.1183
 6866SOL     OW32233   2.254   3.913  13.012 -0.3134  0.3329  0.0978
 6866SOL    HW132234   2.254   3.985  12.949  1.2615 -1.5713 -2.0540
 6866SOL    HW232235   2.347   3.911  13.035  0.4446  0.5430 -2.9845
 6867SOL     OW32236   2.773   1.250   2.475 -0.3445  0.0786 -0.2036
 6867SOL    HW132237   2.834   1.255   2.549  1.1454  0.7505 -1.4988
 6867SOL    HW232238   2.838   1.237   2.407  0.0653 -1.8176  0.5490
 6868SOL     OW32239   3.410   4.674   8.239 -0.8290 -0.1433 -0.3073
 6868SOL    HW132240   3.364   4.643   8.317 -0.2168 -0.4575 -0.0670
 6868SOL    HW232241   3.487   4.616   8.239  0.6701  1.8481 -1.0059
 6869SOL     OW32242   4.426   1.900  13.793 -0.1774 -0.5254 -0.2068
 6869SOL    HW132243   4.360   1.856  13.740 -2.4519 -0.4786  2.5530
 6869SOL    HW232244   4.444   1.981  13.745  0.2215 -0.7960 -0.5040
 6870SOL     OW32245   0.351   1.933   6.706  0.0934  0.6303 -0.2321
 6870SOL    HW132246   0.365   1.995   6.635 -2.7954 -0.8524 -2.1262
 6870SOL    HW232247   0.441   1.923   6.737 -0.8581 -1.2088  1.9850
 6871SOL     OW32248   0.774   3.055   1.800  0.2486 -0.7414  0.5129
 6871SOL    HW132249   0.738   3.063   1.712  1.9834  0.5859 -0.0563
 6871SOL    HW232250   0.846   2.993   1.790  0.5820 -0.3191  0.3404
 6872SOL     OW32251   2.057   1.979   0.809 -0.3145 -0.0940  0.4284
 6872SOL    HW132252   2.006   1.925   0.749 -0.2797 -0.8452  1.0829
 6872SOL    HW232253   2.143   1.940   0.818 -1.2872 -2.3486 -0.1566
 6873SOL     OW32254   1.143   3.246   6.370 -0.2696 -0.7016 -0.6882
 6873SOL    HW132255   1.057   3.233   6.329  0.0365 -3.2117 -0.5651
 6873SOL    HW232256   1.185   3.283   6.293 -0.6093  1.0203 -0.0555
 6874SOL     OW32257   2.411   2.995   5.652 -0.3027  0.8558 -0.0395
 6874SOL    HW132258   2.428   2.965   5.563 -0.3768  0.9356 -0.0811
 6874SOL    HW232259   2.434   3.087   5.640 -2.0278  1.1976 -0.8188
 6875SOL     OW32260   4.608   1.993  14.679 -0.0926 -0.2511 -0.1451
 6875SOL    HW132261   4.588   1.911  14.725  1.5062 -0.2906  0.4641
 6875SOL    HW232262   4.536   2.002  14.617 -2.6415 -0.1993  2.8142
 6876SOL     OW32263   1.088   2.328   5.024 -0.5713  0.7137 -0.0055
 6876SOL    HW132264   1.155   2.381   4.981  0.0781  1.0341  1.4112
 6876SOL    HW232265   1.026   2.392   5.059 -0.0897  1.9547 -1.4482
 6877SOL     OW32266   4.565   3.751   6.487  0.1107 -0.5178  0.5921
 6877SOL    HW132267   4.587   3.695   6.561  1.5812 -0.3833  0.2519
 6877SOL    HW232268   4.510   3.698   6.428  1.8554 -2.0802  0.3730
 6878SOL     OW32269   3.331   0.495   4.272 -0.4202 -0.4453 -0.4210
 6878SOL    HW132270   3.263   0.503   4.339 -0.3783  2.3723 -0.6971
 6878SOL    HW232271   3.408   0.500   4.328 -0.2957 -3.4664 -0.3282
 6879SOL     OW32272   1.997   2.875   2.052 -0.3081 -0.2605  0.8901
 6879SOL    HW132273   1.904   2.853   2.041 -0.1662 -1.0131  1.1924
 6879SOL    HW232274   2.021   2.892   1.961 -1.1951  2.0613  1.0981
 6880SOL     OW32275   1.618   2.668   4.984 -0.3588  0.0978  0.4033
 6880SOL    HW132276   1.609   2.737   5.049  0.4064  0.5270  0.0464
 6880SOL    HW232277   1.550   2.697   4.923  1.2802 -0.6235 -1.7613
 6881SOL     OW32278   0.258   0.663   4.457  0.2445 -0.2827 -0.4768
 6881SOL    HW132279   0.325   0.675   4.390  0.5294 -0.4140 -0.2143
 6881SOL    HW232280   0.175   0.687   4.416  1.1045  1.2645 -1.3262
 6882SOL     OW32281   0.488   0.148   0.454 -0.2042  0.2899  0.2255
 6882SOL    HW132282   0.431   0.079   0.487 -0.6045  0.4946 -0.0403
 6882SOL    HW232283   0.529   0.168   0.539 -2.1992 -1.1433  1.5281
 6883SOL     OW32284   3.610   0.816  15.005  0.6240 -0.0368 -0.2539
 6883SOL    HW132285   3.704   0.805  15.021  0.1876 -0.3219  2.1629
 6883SOL    HW232286   3.587   0.855  15.090 -0.1945 -1.0293 -0.0246
 6884SOL     OW32287   3.128   1.679  15.674 -0.3688 -0.3572  0.0174
 6884SOL    HW132288   3.162   1.739  15.741  1.8219 -0.0208 -1.3916
 6884SOL    HW232289   3.049   1.721  15.640 -0.6619 -1.3450 -0.4946
 6885SOL     OW32290   4.719   1.274   3.249 -0.3864  0.4695 -0.0214
 6885SOL    HW132291   0.044   1.286   3.180 -1.2589 -0.1066 -0.9414
 6885SOL    HW232292   0.003   1.189   3.286 -1.3461  0.2531  0.1111
 6886SOL     OW32293   0.217   4.166   6.299 -0.2137 -0.1654 -0.2271
 6886SOL    HW132294   0.237   4.253   6.264 -3.5041 -0.4157 -2.6831
 6886SOL    HW232295   0.124   4.187   6.305 -0.4087 -0.8408 -0.9579
 6887SOL     OW32296   3.441   0.212  10.715 -0.0395  0.6482  0.5474
 6887SOL    HW132297   3.508   0.147  10.693 -0.1254  0.9548 -0.5971
 6887SOL    HW232298   3.396   0.217  10.631  0.2536 -0.8471  0.2990
 6888SOL     OW32299   4.393   2.127   1.486  0.3689  0.2231 -0.2953
 6888SOL    HW132300   4.366   2.041   1.518  0.1076  0.9843  1.5006
 6888SOL    HW232301   4.432   2.171   1.561  0.0847  3.4063 -1.9991
 6889SOL     OW32302   2.593   3.776   3.833 -0.7763  0.1684  0.6582
 6889SOL    HW132303   2.643   3.698   3.856 -0.0243  0.6569  0.6619
 6889SOL    HW232304   2.547   3.747   3.754 -2.6917  0.6934  1.5877
 6890SOL     OW32305   4.321   2.018   5.767  0.1000  0.0385  0.6358
 6890SOL    HW132306   4.363   1.980   5.844  2.8270  2.0295  0.1364
 6890SOL    HW232307   4.241   2.063   5.793 -0.7075 -1.6027  0.9717
 6891SOL     OW32308   2.325   1.528   5.489 -0.0395  0.0860  0.0486
 6891SOL    HW132309   2.268   1.452   5.485  0.7138 -0.4416 -0.6130
 6891SOL    HW232310   2.320   1.553   5.397  0.8884 -0.8846 -0.2643
 6892SOL     OW32311   4.441   1.412   8.539 -0.1963 -0.3140 -0.3738
 6892SOL    HW132312   4.529   1.375   8.537 -0.2214 -0.4134  0.7561
 6892SOL    HW232313   4.389   1.339   8.505 -0.3613 -1.3635  2.1320
 6893SOL     OW32314   0.464   3.446   4.379 -0.3244 -0.4494 -0.2714
 6893SOL    HW132315   0.529   3.418   4.444 -0.1968 -0.3902 -0.3741
 6893SOL    HW232316   0.488   3.529   4.339  1.2211 -0.9191 -0.3287
 6894SOL     OW32317   0.981   0.765  10.661 -0.4462 -0.0339 -0.0603
 6894SOL    HW132318   0.905   0.771  10.604  0.0015  0.3530 -0.6161
 6894SOL    HW232319   1.059   0.780  10.607 -0.9970  0.3660 -0.7291
 6895SOL     OW32320   4.735   4.119   1.745  0.0836 -0.3595 -0.3467
 6895SOL    HW132321   0.038   4.083   1.667 -1.5359  2.4501 -2.5087
 6895SOL    HW232322   4.739   4.214   1.735 -0.2866 -0.0948  1.9068
 6896SOL     OW32323   1.663   3.688   4.122 -0.6038  0.6449  0.6722
 6896SOL    HW132324   1.589   3.630   4.103 -0.1429  0.4362 -0.4475
 6896SOL    HW232325   1.680   3.721   4.034  0.1354  0.3148  0.6913
 6897SOL     OW32326   3.142   1.939  16.081  0.3885 -0.0280  0.3695
 6897SOL    HW132327   3.124   1.947  16.175  2.0696  1.4430  0.5601
 6897SOL    HW232328   3.186   1.854  16.080 -0.3228 -0.3721 -1.6074
 6898SOL     OW32329   4.510   2.975  14.133  0.6241  0.2009 -0.3334
 6898SOL    HW132330   4.574   2.906  14.110 -1.7686 -2.4816  1.0684
 6898SOL    HW232331   4.550   3.015  14.209 -0.0465  0.7354 -0.2669
 6899SOL     OW32332   1.657   2.832   4.587  0.0114  0.3705  0.7195
 6899SOL    HW132333   1.638   2.922   4.611 -0.7485  0.7615 -1.3925
 6899SOL    HW232334   1.735   2.822   4.642  0.9282 -1.6264 -0.9160
 6900SOL     OW32335   2.605   2.667  13.973 -0.2816 -0.1475 -0.2352
 6900SOL    HW132336   2.662   2.602  14.013 -0.4343 -0.5858 -0.7238
 6900SOL    HW232337   2.639   2.665  13.883 -0.4871 -0.3891 -0.3064
 6901SOL     OW32338   0.899   2.151   9.441 -0.2140  0.5392  0.2863
 6901SOL    HW132339   0.954   2.229   9.447 -0.7561  0.8635  1.0728
 6901SOL    HW232340   0.936   2.092   9.375  0.2968  0.6040  0.5170
 6902SOL     OW32341   1.786   2.103   8.934  0.4641  0.5792 -0.1245
 6902SOL    HW132342   1.817   2.069   9.017 -0.3392  3.2798  1.2727
 6902SOL    HW232343   1.748   2.189   8.952  0.4069  0.3895  0.6455
 6903SOL     OW32344   0.908   2.365   8.207 -0.1019 -0.5430 -0.2169
 6903SOL    HW132345   0.855   2.441   8.181  0.3638 -0.2856 -0.4071
 6903SOL    HW232346   0.976   2.372   8.139 -2.3552  1.1169 -2.3147
 6904SOL     OW32347   1.554   0.926   2.962 -0.2543  0.0644  0.0616
 6904SOL    HW132348   1.530   0.908   3.053  0.3504  0.5294  0.3159
 6904SOL    HW232349   1.650   0.922   2.968 -0.1645 -0.1929 -1.5372
 6905SOL     OW32350   4.107   0.533   3.503 -0.0721 -0.2262  0.0543
 6905SOL    HW132351   4.117   0.439   3.519 -0.1214 -0.5076 -1.6263
 6905SOL    HW232352   4.036   0.563   3.561  0.3114  0.0372  0.3876
 6906SOL     OW32353   2.802   2.942  16.271  0.7180 -0.2755 -0.2265
 6906SOL    HW132354   2.856   2.937  16.351  0.4315 -0.7512 -0.0601
 6906SOL    HW232355   2.784   3.034  16.257  0.9009 -0.5720 -2.3211
 6907SOL     OW32356   3.527   3.514   0.465  0.2110 -0.1510  0.1192
 6907SOL    HW132357   3.437   3.535   0.443  0.4466  0.9519  0.1632
 6907SOL    HW232358   3.525   3.419   0.461 -0.7892 -0.1199 -0.0544
 6908SOL     OW32359   1.344   2.889   4.608 -0.1411 -0.3119 -0.2230
 6908SOL    HW132360   1.436   2.908   4.627  0.0504  0.4426 -1.9052
 6908SOL    HW232361   1.323   2.977   4.576 -2.2228 -1.7875 -2.8437
 6909SOL     OW32362   0.733   3.556   8.856 -0.2980  0.8125 -0.1615
 6909SOL    HW132363   0.651   3.552   8.904  0.3893  0.3123  0.9613
 6909SOL    HW232364   0.773   3.475   8.887 -0.4924  1.1087  0.8612
 6910SOL     OW32365   2.350   4.458   5.954 -0.1936 -0.1318  0.1106
 6910SOL    HW132366   2.266   4.484   5.992 -0.0907  1.1303 -0.5318
 6910SOL    HW232367   2.391   4.399   6.017 -0.4930  0.6192  1.0046
 6911SOL     OW32368   3.303   4.150  15.395  0.3048 -0.7207  0.2818
 6911SOL    HW132369   3.230   4.088  15.392 -0.5162  0.1878  1.6657
 6911SOL    HW232370   3.363   4.119  15.327  0.6660 -1.0063  0.7399
 6912SOL     OW32371   3.983   1.609  15.482  0.0112 -0.8146  0.2547
 6912SOL    HW132372   3.920   1.682  15.487  0.5437 -0.3739  0.5403
 6912SOL    HW232373   3.925   1.537  15.508  0.0879 -1.2091 -0.6939
 6913SOL     OW32374   3.104   1.254   6.424 -0.3540  0.0850 -0.0213
 6913SOL    HW132375   3.037   1.316   6.396 -1.1947 -0.3080  1.1227
 6913SOL    HW232376   3.182   1.292   6.383 -1.5447  2.1121 -0.3685
 6914SOL     OW32377   2.597   2.299   6.832  0.8441 -0.0086  0.0567
 6914SOL    HW132378   2.568   2.212   6.805  0.3961  0.7828 -1.9729
 6914SOL    HW232379   2.555   2.355   6.767  1.4480  0.3637 -0.0126
 6915SOL     OW32380   0.189   4.527   0.888  0.8184  0.1636 -0.2956
 6915SOL    HW132381   0.126   4.599   0.877 -0.3860 -0.6910  1.0028
 6915SOL    HW232382   0.217   4.545   0.977  3.1185  0.4140 -1.0717
 6916SOL     OW32383   0.983   1.212  15.577  0.0779  0.4743 -0.2718
 6916SOL    HW132384   1.069   1.181  15.550  1.0479 -0.0440  3.3962
 6916SOL    HW232385   0.925   1.168  15.515 -0.6044  0.5141  0.3377
 6917SOL     OW32386   2.714   2.827  16.033  0.4179 -0.3073 -0.2053
 6917SOL    HW132387   2.753   2.876  16.106 -0.8181  1.6679 -0.8491
 6917SOL    HW232388   2.622   2.841  16.053  0.2169 -0.1260 -1.2776
 6918SOL     OW32389   1.628   1.675   9.621 -0.3860  0.0647 -0.3052
 6918SOL    HW132390   1.569   1.726   9.565 -0.7815  0.6359  0.6348
 6918SOL    HW232391   1.562   1.617   9.659  0.7352 -1.9395 -1.3798
 6919SOL     OW32392   4.491   3.602   9.086  0.0237 -0.0875  0.8039
 6919SOL    HW132393   4.522   3.537   9.023 -0.1847  0.6121 -0.0147
 6919SOL    HW232394   4.397   3.584   9.092  0.4249 -1.2210  3.8879
 6920SOL     OW32395   4.317   2.428   9.271  0.2114  0.0926  0.5559
 6920SOL    HW132396   4.398   2.427   9.221  0.2848 -0.4643  0.6896
 6920SOL    HW232397   4.348   2.453   9.359 -0.5750  1.3825  0.4777
 6921SOL     OW32398   3.474   1.894   1.774  0.1339  0.3385  0.3911
 6921SOL    HW132399   3.503   1.855   1.857 -0.6808 -0.0904  0.4742
 6921SOL    HW232400   3.390   1.854   1.751  0.8215 -0.2278 -1.1309
 6922SOL     OW32401   2.812   3.638   9.000 -0.0059 -0.3190 -0.4289
 6922SOL    HW132402   2.731   3.600   9.034  0.5493 -2.6176 -1.7141
 6922SOL    HW232403   2.782   3.688   8.923 -1.7789  0.1439  0.5648
 6923SOL     OW32404   0.557   3.487   7.759 -0.3590 -0.1065 -0.3015
 6923SOL    HW132405   0.543   3.392   7.754  0.2822 -0.3085  1.7959
 6923SOL    HW232406   0.546   3.513   7.850 -0.8950  0.1823 -0.4463
 6924SOL     OW32407   2.209   3.161   6.474 -0.1901 -0.2416  0.0714
 6924SOL    HW132408   2.304   3.156   6.482 -0.2122 -1.2769 -0.2762
 6924SOL    HW232409   2.193   3.225   6.404 -0.2819  0.6938  0.9471
 6925SOL     OW32410   3.199   3.738  12.858 -0.2503  0.2603  0.1718
 6925SOL    HW132411   3.152   3.807  12.905 -0.1941  1.4565 -1.5444
 6925SOL    HW232412   3.277   3.733  12.913 -0.4268  2.1828  0.5982
 6926SOL     OW32413   3.786   3.850   3.369 -0.1788  0.2421  0.1144
 6926SOL    HW132414   3.724   3.922   3.358  0.2557  0.7028  0.6491
 6926SOL    HW232415   3.747   3.783   3.313  0.0192  0.7834 -0.6573
 6927SOL     OW32416   1.520   2.122   5.707 -0.6315 -0.0978  0.2263
 6927SOL    HW132417   1.539   2.028   5.711  1.3091  0.2846 -0.1148
 6927SOL    HW232418   1.589   2.147   5.645 -2.2985  0.7873 -1.2661
 6928SOL     OW32419   2.654   3.186   0.477 -0.1903  0.0967 -0.2140
 6928SOL    HW132420   2.659   3.126   0.403  2.7858  0.2092 -0.0984
 6928SOL    HW232421   2.665   3.126   0.551 -2.0900 -1.0534 -0.8328
 6929SOL     OW32422   1.459   0.178   8.909 -0.0855 -0.4133  0.0661
 6929SOL    HW132423   1.505   0.200   8.990  2.0563  1.9936 -1.8058
 6929SOL    HW232424   1.531   0.183   8.846 -0.5255  0.7316 -0.3317
 6930SOL     OW32425   0.927   2.527   0.683 -0.0973 -0.4537 -0.0991
 6930SOL    HW132426   0.943   2.610   0.638  0.6988 -1.0660 -0.9607
 6930SOL    HW232427   0.836   2.543   0.705 -0.0686 -1.7515  0.9582
 6931SOL     OW32428   1.358   1.260   7.601 -0.2400  0.1815  0.6609
 6931SOL    HW132429   1.413   1.183   7.616  0.9051  1.1923  1.7412
 6931SOL    HW232430   1.411   1.331   7.639 -1.2821  1.7943 -0.9093
 6932SOL     OW32431   2.895   1.494   4.047  0.1329 -0.2310 -0.0227
 6932SOL    HW132432   2.869   1.586   4.054  0.1990 -0.1579 -0.7202
 6932SOL    HW232433   2.840   1.461   4.118  0.8172  0.3049  0.7512
 6933SOL     OW32434   3.609   3.500   5.332  0.7577 -0.3740  0.6473
 6933SOL    HW132435   3.615   3.533   5.422  0.4446  0.1921  0.4609
 6933SOL    HW232436   3.584   3.582   5.289  0.5149 -1.4989 -1.3460
 6934SOL     OW32437   3.920   3.026   8.476 -0.1697 -0.0760  0.2026
 6934SOL    HW132438   3.917   2.934   8.450  1.9305 -0.3403  0.8684
 6934SOL    HW232439   3.831   3.038   8.509 -0.1126  1.4886 -0.2484
 6935SOL     OW32440   1.864   2.765   3.912 -0.6611  0.5860 -0.1979
 6935SOL    HW132441   1.844   2.849   3.953  0.0814  1.1741 -1.0334
 6935SOL    HW232442   1.870   2.776   3.817  0.8427 -0.4416 -0.2265
 6936SOL     OW32443   2.401   2.861   1.443 -0.0695 -0.0174 -0.1932
 6936SOL    HW132444   2.376   2.770   1.459 -1.4092  0.0936 -1.7124
 6936SOL    HW232445   2.330   2.912   1.480  0.3972 -0.2481  1.0257
 6937SOL     OW32446   1.060   0.060   6.777  0.2771 -0.0487 -0.5360
 6937SOL    HW132447   0.984   0.017   6.737  0.7551 -1.7530  0.3694
 6937SOL    HW232448   1.012   0.124   6.829 -1.3024  0.5382 -2.6969
 6938SOL     OW32449   2.187   0.401  12.068  0.2041 -0.4647 -0.1586
 6938SOL    HW132450   2.134   0.422  11.991 -1.5364 -1.2069  0.8218
 6938SOL    HW232451   2.254   0.341  12.035  0.3874  1.7143 -3.6927
 6939SOL     OW32452   3.370   2.309  10.894  0.1961 -0.6497 -0.3057
 6939SOL    HW132453   3.381   2.264  10.977 -0.6208 -1.9625 -0.9111
 6939SOL    HW232454   3.464   2.325  10.887 -0.2368  1.8556 -0.3296
 6940SOL     OW32455   3.002   1.914   6.465 -0.1803  0.0214  0.5210
 6940SOL    HW132456   2.966   1.998   6.493  0.2393  0.2232  0.4438
 6940SOL    HW232457   2.948   1.855   6.518 -0.9175  0.2898  0.0691
 6941SOL     OW32458   1.554   3.208   5.280 -0.5138 -0.1370  0.1915
 6941SOL    HW132459   1.642   3.173   5.268 -0.6589 -0.9239  1.3887
 6941SOL    HW232460   1.568   3.250   5.365 -1.4297 -1.9343  1.2488
 6942SOL     OW32461   0.906   0.173   8.029  0.1631 -1.0706  0.5320
 6942SOL    HW132462   0.857   0.180   7.947  0.5873 -0.6439  0.3145
 6942SOL    HW232463   0.987   0.213   7.998 -0.9365  1.5160  0.9544
 6943SOL     OW32464   0.109   0.334   6.028 -0.3591 -0.3367  0.3113
 6943SOL    HW132465   0.179   0.342   6.094  0.4931  0.3310 -0.6771
 6943SOL    HW232466   0.112   0.255   5.974 -1.0733 -0.7064  0.8203
 6944SOL     OW32467   1.968   0.814  12.826  0.1697 -0.0557  0.3047
 6944SOL    HW132468   2.023   0.736  12.817  0.3660  0.3186 -1.9034
 6944SOL    HW232469   2.031   0.878  12.791 -0.9057  0.3525 -0.8603
 6945SOL     OW32470   2.639   3.311   3.024 -0.3327  0.1330 -0.8231
 6945SOL    HW132471   2.563   3.348   2.980  0.4087  1.8025 -0.7074
 6945SOL    HW232472   2.707   3.379   3.021  0.7218 -0.8499  1.1118
 6946SOL     OW32473   4.143   3.387   5.613  0.3043 -0.3730 -0.0902
 6946SOL    HW132474   4.107   3.322   5.673  0.7505 -1.2194 -0.7427
 6946SOL    HW232475   4.061   3.417   5.573 -0.6951 -2.6068  0.3144
 6947SOL     OW32476   1.602   2.470   3.138 -0.0225 -0.1069  0.1318
 6947SOL    HW132477   1.549   2.546   3.112  0.9730  0.2505 -0.8434
 6947SOL    HW232478   1.588   2.467   3.233  2.7405 -0.3491  0.5229
 6948SOL     OW32479   4.642   3.103   8.481  0.2609  0.3511 -0.3881
 6948SOL    HW132480   4.709   3.147   8.533 -1.2559 -0.2515  2.0581
 6948SOL    HW232481   4.591   3.058   8.547 -1.7786  2.5678 -0.4595
 6949SOL     OW32482   0.299   0.769   9.324 -0.0711 -0.8985  0.2858
 6949SOL    HW132483   0.205   0.785   9.332  0.2175  0.4118  1.0306
 6949SOL    HW232484   0.317   0.675   9.321 -2.5037 -1.3318 -1.0572
 6950SOL     OW32485   3.584   0.719  17.368 -0.0966  0.1513  0.2009
 6950SOL    HW132486   3.549   0.638  17.333  0.7633 -1.1657  2.3978
 6950SOL    HW232487   3.644   0.754  17.302 -3.4207  0.1627 -2.7907
 6951SOL     OW32488   1.837   1.902   0.050  0.4087  0.0012  0.6513
 6951SOL    HW132489   1.799   1.946  17.732  1.9691  0.0126 -0.1144
 6951SOL    HW232490   1.772   1.833   0.061  0.2302  0.6216  3.6110
 6952SOL     OW32491   3.820   0.784   2.444  0.0362  0.0604 -0.1503
 6952SOL    HW132492   3.880   0.751   2.511 -0.1923 -0.1016 -0.0264
 6952SOL    HW232493   3.761   0.712   2.425  0.3849 -0.1186 -0.5647
 6953SOL     OW32494   2.948   4.643   2.745 -0.1427 -0.6254  0.3617
 6953SOL    HW132495   2.948   4.609   2.656  0.0631 -0.8618  0.4514
 6953SOL    HW232496   3.031   4.690   2.745 -1.1263  1.0789 -0.7579
 6954SOL     OW32497   4.241   1.921   5.460 -0.0853 -0.1800 -0.0149
 6954SOL    HW132498   4.252   1.952   5.550  0.9387 -0.8552  0.0993
 6954SOL    HW232499   4.169   1.860   5.476  0.4809 -1.1587 -1.1852
 6955SOL     OW32500   3.734   4.055   8.551  0.0682  0.2353  0.7933
 6955SOL    HW132501   3.761   3.986   8.611  0.9037  0.3958  0.6102
 6955SOL    HW232502   3.777   4.018   8.474 -0.8610  0.7713  0.0148
 6956SOL     OW32503   1.936   2.705   5.821  0.0747  0.3087 -0.1063
 6956SOL    HW132504   2.027   2.677   5.831  0.3123  0.9943 -0.3650
 6956SOL    HW232505   1.921   2.737   5.732  0.2389  0.0935 -0.2123
 6957SOL     OW32506   1.212   2.394   2.762 -0.1108 -0.2349  0.1248
 6957SOL    HW132507   1.140   2.456   2.751 -1.4142 -1.9290 -0.9654
 6957SOL    HW232508   1.263   2.439   2.829  0.6678 -1.4288  0.3376
 6958SOL     OW32509   2.944   3.790   3.926  0.2510 -0.3579  0.4326
 6958SOL    HW132510   2.988   3.818   3.845 -0.5671  1.0450  0.4827
 6958SOL    HW232511   3.002   3.725   3.967 -2.9923 -1.8675  2.5408
 6959SOL     OW32512   0.971   3.673   8.250 -1.1936  0.0054 -0.5241
 6959SOL    HW132513   0.928   3.707   8.329 -0.4736 -0.6552  0.1564
 6959SOL    HW232514   1.057   3.711   8.266 -1.0704 -0.1791 -0.7538
 6960SOL     OW32515   4.217   1.471   8.129 -0.4064 -0.0143 -0.4760
 6960SOL    HW132516   4.175   1.397   8.174  4.6134 -1.7061  1.4722
 6960SOL    HW232517   4.202   1.541   8.193  0.7136  0.3279 -0.5867
 6961SOL     OW32518   1.610   4.468  15.298 -0.5470  0.1126  0.3741
 6961SOL    HW132519   1.530   4.473  15.245  0.4202  1.2513 -0.9390
 6961SOL    HW232520   1.676   4.465  15.230 -0.7781  1.5682  0.0967
 6962SOL     OW32521   2.345   0.885   8.025  0.4522  0.3349 -1.1752
 6962SOL    HW132522   2.314   0.843   8.106 -1.4231  1.7158 -1.1656
 6962SOL    HW232523   2.267   0.884   7.970 -0.6482 -0.1791  0.4028
 6963SOL     OW32524   2.770   2.356   2.351 -0.0190 -0.0728  0.0909
 6963SOL    HW132525   2.674   2.346   2.351 -0.1086  0.8479 -1.8325
 6963SOL    HW232526   2.799   2.277   2.305  0.2986 -0.0361  0.2327
 6964SOL     OW32527   0.603   4.055  11.288  0.4233  0.0877  0.1958
 6964SOL    HW132528   0.671   4.027  11.228  1.0920  0.8506  0.6074
 6964SOL    HW232529   0.545   4.106  11.230  1.9232 -0.0948 -1.4542
 6965SOL     OW32530   1.867   1.364   6.324  0.2059 -0.2018 -0.5977
 6965SOL    HW132531   1.960   1.380   6.304  0.2768 -0.2763 -0.3213
 6965SOL    HW232532   1.867   1.276   6.285 -2.4445 -1.0116  1.2224
 6966SOL     OW32533   2.260   0.048   2.212  0.5158  0.6150  0.6447
 6966SOL    HW132534   2.223   0.136   2.216  1.2285  0.9886 -1.1252
 6966SOL    HW232535   2.278   0.047   2.118  0.9168  1.7167  0.7076
 6967SOL     OW32536   3.331   4.081  12.113  0.2256  0.0587 -0.4207
 6967SOL    HW132537   3.264   4.020  12.144  2.3732 -1.5201  1.0658
 6967SOL    HW232538   3.280   4.157  12.084 -0.9119  0.0061  1.4615
 6968SOL     OW32539   3.011   2.278   7.886 -0.0781 -0.5756  0.1422
 6968SOL    HW132540   2.987   2.245   7.973  0.7400 -0.8787  0.2483
 6968SOL    HW232541   3.053   2.364   7.890  0.6905 -0.9125 -0.7187
 6969SOL     OW32542   4.695   1.789   3.303  0.1602  0.0687  0.2612
 6969SOL    HW132543   4.695   1.718   3.239 -2.3898 -0.1108  0.4572
 6969SOL    HW232544   4.649   1.851   3.247 -0.6449 -0.5404  0.2386
 6970SOL     OW32545   1.279   1.397   8.076 -0.1231 -0.1503  0.6384
 6970SOL    HW132546   1.323   1.469   8.120 -0.1181 -0.7697  1.6486
 6970SOL    HW232547   1.191   1.410   8.111 -1.1809 -2.6279 -1.0639
 6971SOL     OW32548   0.540   0.596  14.732  0.4645  0.1280  0.5111
 6971SOL    HW132549   0.518   0.520  14.678  0.4332  0.5552 -0.0784
 6971SOL    HW232550   0.466   0.601  14.793  0.6229 -0.8373  0.7723
 6972SOL     OW32551   0.447   2.467   1.952 -0.2775  0.1889 -0.1890
 6972SOL    HW132552   0.374   2.456   2.013 -0.9884 -0.9973 -1.2479
 6972SOL    HW232553   0.525   2.477   2.007 -0.6234  0.8248  0.1829
 6973SOL     OW32554   2.890   0.280   3.861  0.1703  0.4870  0.3114
 6973SOL    HW132555   2.963   0.226   3.892 -0.7185 -0.2425  1.1588
 6973SOL    HW232556   2.814   0.256   3.915  0.3199 -0.4871  0.0768
 6974SOL     OW32557   3.352   0.991  17.039 -0.2761  0.0862  0.5309
 6974SOL    HW132558   3.357   0.915  16.982  0.0300  2.5284 -2.7072
 6974SOL    HW232559   3.272   0.974  17.089  0.8274 -0.2582  2.1857
 6975SOL     OW32560   0.674   2.066   4.655 -0.4601 -0.0789  0.0462
 6975SOL    HW132561   0.727   2.139   4.685 -1.4460  0.1709  1.1610
 6975SOL    HW232562   0.595   2.058   4.708 -0.1114 -0.7344  0.4763
 6976SOL     OW32563   3.654   4.633   4.847  0.1227  0.5557  0.3976
 6976SOL    HW132564   3.718   4.701   4.869 -0.0917  1.3161 -1.3153
 6976SOL    HW232565   3.585   4.642   4.913 -0.6770 -0.4664 -0.2959
 6977SOL     OW32566   3.483   0.993   4.734  0.1304 -0.0086  0.1171
 6977SOL    HW132567   3.413   0.939   4.697 -1.3105 -0.2716  3.1958
 6977SOL    HW232568   3.453   1.083   4.720 -0.2711 -0.1241  0.2364
 6978SOL     OW32569   4.017   1.475   5.545  0.1709 -0.3508  0.2188
 6978SOL    HW132570   3.970   1.439   5.469  1.4067  1.7172 -1.5310
 6978SOL    HW232571   4.082   1.406   5.554  0.6557  0.3827  2.2701
 6979SOL     OW32572   0.619   1.631   3.125 -0.2859  0.4913 -0.2300
 6979SOL    HW132573   0.595   1.588   3.207 -2.0679  2.7119  0.4069
 6979SOL    HW232574   0.583   1.719   3.137  1.4153  1.2209 -0.4690
 6980SOL     OW32575   1.960   0.401  12.215  0.4263  0.2365 -0.1374
 6980SOL    HW132576   1.927   0.475  12.165 -0.4711  0.3344  0.6017
 6980SOL    HW232577   2.043   0.385  12.169 -0.3318 -1.3694 -0.9338
 6981SOL     OW32578   1.265   3.799  15.369  0.6869  0.4444 -0.2899
 6981SOL    HW132579   1.312   3.845  15.300 -0.3829  2.0300  0.0230
 6981SOL    HW232580   1.237   3.866  15.431  1.7445 -0.7713  1.5032
 6982SOL     OW32581   2.927   0.301   6.303 -0.1857 -0.2000 -0.6121
 6982SOL    HW132582   3.011   0.346   6.315 -0.8733  1.1922 -0.9358
 6982SOL    HW232583   2.875   0.372   6.263 -2.9603 -2.5330 -1.1272
 6983SOL     OW32584   1.184   4.068  12.119 -0.5037  0.2686 -0.8904
 6983SOL    HW132585   1.201   4.158  12.146 -1.1162  0.1712 -0.1932
 6983SOL    HW232586   1.212   4.072  12.027  0.4422 -3.6573 -0.7428
 6984SOL     OW32587   0.422   3.269   4.157 -0.4358 -0.0083 -0.1233
 6984SOL    HW132588   0.396   3.190   4.204  1.8159 -0.2680  0.6955
 6984SOL    HW232589   0.444   3.330   4.228 -2.5566 -1.4470  1.7865
 6985SOL     OW32590   3.047   0.042   4.208 -0.0897 -0.3350  0.2268
 6985SOL    HW132591   3.016   0.131   4.223  0.6859  0.1084 -0.8002
 6985SOL    HW232592   3.046   0.027   4.114 -2.4550  1.0901  0.0255
 6986SOL     OW32593   4.696   0.421   3.325  0.2378 -0.5222 -0.6281
 6986SOL    HW132594   4.645   0.401   3.403  1.8900  1.3685  0.9338
 6986SOL    HW232595   4.703   0.330   3.296 -0.1503 -0.0720 -2.1405
 6987SOL     OW32596   2.687   1.734   2.085 -0.0052  0.2687  0.0940
 6987SOL    HW132597   2.671   1.811   2.140  2.1121 -0.7539  2.1660
 6987SOL    HW232598   2.782   1.718   2.086 -0.1046 -0.2344  1.8648
 6988SOL     OW32599   3.767   1.323  17.565  0.0539 -0.1555  0.9428
 6988SOL    HW132600   3.696   1.381  17.594 -0.3444 -0.4743  0.5971
 6988SOL    HW232601   3.768   1.267  17.643 -1.6736 -0.4858  0.7353
 6989SOL     OW32602   1.171   3.079   3.546  0.2131 -0.2184  0.0433
 6989SOL    HW132603   1.246   3.117   3.592 -0.2890  2.1447 -1.1062
 6989SOL    HW232604   1.152   3.152   3.488  3.3188  0.5610 -0.0035
 6990SOL     OW32605   0.319   1.042   7.666  0.6230  0.0787 -0.2035
 6990SOL    HW132606   0.263   1.044   7.588 -1.6232  1.9427  1.4445
 6990SOL    HW232607   0.259   1.001   7.728  0.0467  1.1178 -0.0727
 6991SOL     OW32608   0.196   3.904   5.417  0.3723 -0.5455  0.2322
 6991SOL    HW132609   0.225   3.837   5.355  1.9219  0.0349  0.3137
 6991SOL    HW232610   0.104   3.880   5.429  0.5649 -0.7954  1.2049
 6992SOL     OW32611   0.831   1.951   7.624  0.2368 -0.1141  0.1802
 6992SOL    HW132612   0.919   1.989   7.613  1.1734 -2.3884 -0.1581
 6992SOL    HW232613   0.800   1.984   7.709  1.5187 -0.9252  0.9741
 6993SOL     OW32614   3.011   3.762  16.141  0.5488  0.1769  0.6746
 6993SOL    HW132615   2.957   3.820  16.088 -0.1812 -1.1164 -0.0003
 6993SOL    HW232616   3.095   3.749  16.097  0.4574  0.3800  0.4367
 6994SOL     OW32617   2.580   0.284   4.307 -0.5563  0.2873  0.9448
 6994SOL    HW132618   2.655   0.261   4.362  0.7511  3.2489  0.4583
 6994SOL    HW232619   2.619   0.361   4.265 -1.5665 -0.3418 -1.1359
 6995SOL     OW32620   4.349   4.066  12.308  0.1072 -0.2043 -0.2515
 6995SOL    HW132621   4.312   4.141  12.355  2.0098  0.2015  0.5918
 6995SOL    HW232622   4.434   4.103  12.283  1.2387 -1.1350  2.2640
 6996SOL     OW32623   2.838   2.174   2.761  0.3120  0.0613  0.2759
 6996SOL    HW132624   2.790   2.256   2.770  0.4467  0.1670  0.0370
 6996SOL    HW232625   2.888   2.186   2.680 -1.0321 -1.9300 -0.8410
 6997SOL     OW32626   1.615   2.020   3.965  0.1046  0.1374 -0.0180
 6997SOL    HW132627   1.699   2.061   3.943 -0.0254 -0.0047 -0.7940
 6997SOL    HW232628   1.554   2.094   3.967 -0.0126  0.0228  0.7587
 6998SOL     OW32629   3.498   2.882   4.590 -0.3611 -0.3284 -0.2165
 6998SOL    HW132630   3.542   2.798   4.598  0.6371  0.4587  2.7124
 6998SOL    HW232631   3.489   2.885   4.495  1.8198  1.6353 -0.3571
 6999SOL     OW32632   2.805   3.765   8.173 -0.4354  0.4314  0.2148
 6999SOL    HW132633   2.824   3.835   8.110 -1.1919  0.5603  0.1315
 6999SOL    HW232634   2.884   3.711   8.172 -0.7293 -0.0113  3.4437
 7000SOL     OW32635   3.315   2.103  13.322  0.3166 -0.2649 -0.4514
 7000SOL    HW132636   3.357   2.126  13.239  0.5980  3.0579  0.6336
 7000SOL    HW232637   3.256   2.177  13.337  0.2771 -0.6381  1.2640
 7001SOL     OW32638   1.401   2.027   5.349 -0.6125  0.2291 -0.7821
 7001SOL    HW132639   1.336   2.062   5.410  1.5176  1.8000  0.5610
 7001SOL    HW232640   1.365   2.074   5.274 -2.5299  1.7798  1.1125
 7002SOL     OW32641   1.940   3.090   7.646 -0.1875 -0.5294 -0.7892
 7002SOL    HW132642   1.998   3.017   7.667 -1.2660 -0.6750  1.7239
 7002SOL    HW232643   2.003   3.163   7.639  0.1336 -0.6648  0.6188
 7003SOL     OW32644   4.641   1.795   9.017 -0.3697  0.3151 -0.3404
 7003SOL    HW132645   4.696   1.719   8.998 -0.4268  0.1885 -0.0083
 7003SOL    HW232646   4.611   1.772   9.105 -0.5279 -0.6196 -0.6386
 7004SOL     OW32647   1.725   4.368  16.854  0.2413 -0.4324  0.3007
 7004SOL    HW132648   1.713   4.276  16.829 -1.2034 -0.0008 -0.6320
 7004SOL    HW232649   1.707   4.406  16.768  0.7267 -0.1560  0.3201
 7005SOL     OW32650   3.294   4.087   1.792 -0.6124 -0.0667 -0.0255
 7005SOL    HW132651   3.315   4.180   1.782 -1.0009 -0.0565 -0.7374
 7005SOL    HW232652   3.343   4.052   1.718 -0.7051  0.2542 -0.2342
 7006SOL     OW32653   3.582   0.720   7.466  0.2611 -0.1631 -0.0673
 7006SOL    HW132654   3.626   0.676   7.392  1.2356  0.8121 -0.0672
 7006SOL    HW232655   3.498   0.677   7.479  0.7274 -1.4809 -1.4248
 7007SOL     OW32656   1.292   1.962   6.000 -0.1185  0.2895  0.2275
 7007SOL    HW132657   1.214   1.921   6.037  0.3977 -0.6525  0.2772
 7007SOL    HW232658   1.269   1.996   5.914 -0.4981 -2.6423 -0.8310
 7008SOL     OW32659   0.044   3.071   2.238 -0.2074 -0.3320 -0.0456
 7008SOL    HW132660   0.028   2.992   2.186  1.7207  0.0347 -1.1404
 7008SOL    HW232661   0.100   3.118   2.177 -1.3593 -1.7052 -2.1600
 7009SOL     OW32662   2.125   4.738   0.906  0.5647 -0.0415  0.4496
 7009SOL    HW132663   2.043   0.047   0.897 -0.5310 -2.3986 -2.3602
 7009SOL    HW232664   2.190   0.062   0.881  1.2044 -0.5291  0.8503
 7010SOL     OW32665   3.960   1.106  15.194  0.7830  0.3364 -0.5072
 7010SOL    HW132666   3.968   1.192  15.234 -0.3616  0.0544  0.3321
 7010SOL    HW232667   4.050   1.077  15.179  1.0851  1.5115 -0.9546
 7011SOL     OW32668   4.071   0.352   7.542 -0.3359 -0.2553 -0.1659
 7011SOL    HW132669   4.115   0.364   7.627 -1.3766  1.6209  0.1175
 7011SOL    HW232670   4.047   0.260   7.540 -1.3272 -0.0018 -0.0700
 7012SOL     OW32671   0.033   1.405   0.204  0.4390  0.3190 -0.4294
 7012SOL    HW132672   0.006   1.314   0.191  1.6027  0.1378 -1.6070
 7012SOL    HW232673   0.106   1.388   0.265 -1.2397  0.8168  1.6994
 7013SOL     OW32674   3.659   3.671   8.718 -0.1227 -0.9577 -0.3584
 7013SOL    HW132675   3.654   3.686   8.812 -1.8760  1.3918 -0.8294
 7013SOL    HW232676   3.600   3.739   8.686  1.0119 -0.3608 -1.1925
 7014SOL     OW32677   3.087   2.583   2.260 -0.2504 -0.0448  1.0731
 7014SOL    HW132678   3.127   2.548   2.340 -2.0815 -0.2157  1.9296
 7014SOL    HW232679   3.076   2.673   2.292 -0.8406  0.6390 -1.0372
 7015SOL     OW32680   1.523   1.571   5.957 -0.5417  0.7290 -0.1450
 7015SOL    HW132681   1.584   1.528   6.017  2.1389  2.1917 -1.8564
 7015SOL    HW232682   1.486   1.488   5.928  0.8290 -0.3176  1.0932
 7016SOL     OW32683   2.321   4.179   6.589  0.4123  0.0708  0.2336
 7016SOL    HW132684   2.326   4.249   6.524  0.0505 -1.4139 -1.3668
 7016SOL    HW232685   2.389   4.116   6.568 -1.3778 -2.1555  1.0445
 7017SOL     OW32686   2.018   2.711   2.820  0.8235  0.1933  0.1906
 7017SOL    HW132687   2.058   2.792   2.788  1.2655 -0.0061  0.2393
 7017SOL    HW232688   2.028   2.727   2.914 -2.0445  1.1680  0.3286
 7018SOL     OW32689   3.451   2.095  16.112  0.3029  0.9032  0.8824
 7018SOL    HW132690   3.367   2.129  16.142 -0.1190 -1.4884  2.3774
 7018SOL    HW232691   3.450   2.011  16.158  0.9113  0.7141  0.5469
 7019SOL     OW32692   1.607   4.599   0.417  0.0079  0.3614  0.0548
 7019SOL    HW132693   1.557   4.518   0.412  1.0640 -0.1321 -2.3619
 7019SOL    HW232694   1.685   4.567   0.371  0.6095  1.5153  0.2491
 7020SOL     OW32695   4.397   4.520   0.034 -0.0907 -0.3816 -0.2565
 7020SOL    HW132696   4.360   4.601   0.068  0.1715 -1.0337  1.5666
 7020SOL    HW232697   4.323   4.465   0.006  1.8367 -1.7926 -2.6530
 7021SOL     OW32698   1.777   3.073   2.966 -0.3139  0.0623 -0.5948
 7021SOL    HW132699   1.707   3.047   2.907 -1.5489  0.2163  0.8185
 7021SOL    HW232700   1.805   2.984   2.986  2.0940  0.4069 -2.4317
 7022SOL     OW32701   1.112   2.872   3.956 -0.2532  0.2860  0.1284
 7022SOL    HW132702   1.029   2.864   4.002 -0.5755 -1.2440 -0.7259
 7022SOL    HW232703   1.143   2.962   3.969  0.5627  0.1278 -0.7172
 7023SOL     OW32704   0.438   0.371   7.486 -0.0291  0.1735 -0.1187
 7023SOL    HW132705   0.415   0.318   7.409 -2.4076 -0.5006  1.0348
 7023SOL    HW232706   0.527   0.390   7.457 -0.4163  0.8768 -0.8315
 7024SOL     OW32707   0.858   0.702   6.460  0.4201 -0.1800 -0.5565
 7024SOL    HW132708   0.794   0.649   6.507 -0.0981  0.9410 -0.0045
 7024SOL    HW232709   0.806   0.770   6.418 -1.0018 -0.9910 -0.1276
 7025SOL     OW32710   2.568   3.534   5.808 -0.7242 -0.1193  0.3292
 7025SOL    HW132711   2.648   3.490   5.837 -0.8577 -1.9146 -2.0474
 7025SOL    HW232712   2.545   3.575   5.892 -0.3802 -0.0644  0.3982
 7026SOL     OW32713   2.449   3.405   8.259 -0.5151  0.1640 -0.2869
 7026SOL    HW132714   2.495   3.470   8.206  0.0803  0.4149  0.5364
 7026SOL    HW232715   2.443   3.335   8.193  0.0827 -0.2417  0.0840
 7027SOL     OW32716   0.229   3.903   4.740 -0.3762  0.0800  0.1748
 7027SOL    HW132717   0.244   3.812   4.765  1.5485  0.2807 -0.2881
 7027SOL    HW232718   0.283   3.894   4.662 -1.6259 -0.0977 -0.6720
 7028SOL     OW32719   1.380   4.480   5.854 -0.3668 -0.6787  0.0301
 7028SOL    HW132720   1.460   4.443   5.816  0.8878  0.5387  1.5138
 7028SOL    HW232721   1.374   4.432   5.937 -0.9197 -2.7511 -1.2126
 7029SOL     OW32722   4.729   0.119   5.904 -0.3129 -0.1677 -0.7173
 7029SOL    HW132723   4.686   0.078   5.829 -1.1733 -0.8026  0.1026
 7029SOL    HW232724   4.681   0.083   5.980  0.1426  0.4236 -0.1485
 7030SOL     OW32725   1.672   1.284   1.942 -0.6138 -0.5084 -0.1786
 7030SOL    HW132726   1.597   1.228   1.924  1.3408 -3.1606  0.0573
 7030SOL    HW232727   1.670   1.282   2.038  0.4850  2.1094 -0.0877
 7031SOL     OW32728   3.004   2.793   1.824 -0.4525  0.6838  0.5747
 7031SOL    HW132729   3.015   2.849   1.748  0.7466 -1.6101 -0.9551
 7031SOL    HW232730   2.927   2.834   1.863 -1.5980 -0.0458 -0.8973
 7032SOL     OW32731   3.464   2.475   2.345  0.3244  0.8033 -0.0064
 7032SOL    HW132732   3.555   2.450   2.358 -0.2267 -2.9687 -3.3880
 7032SOL    HW232733   3.464   2.569   2.366  0.6635  1.0620 -1.1506
 7033SOL     OW32734   2.605   4.381   2.757  0.5263  0.7674 -0.1659
 7033SOL    HW132735   2.672   4.363   2.822 -1.7648 -0.1744  1.9195
 7033SOL    HW232736   2.576   4.291   2.743  0.7109  0.4727  1.3572
 7034SOL     OW32737   2.304   2.585   4.187 -0.3158  0.5006  0.3561
 7034SOL    HW132738   2.224   2.601   4.238  0.7992  0.0639  2.2268
 7034SOL    HW232739   2.349   2.668   4.205 -2.3014  1.6061  0.2990
 7035SOL     OW32740   2.269   2.911   8.137  0.5843  0.3748  0.1524
 7035SOL    HW132741   2.349   2.865   8.161 -0.9322 -0.8279  2.9008
 7035SOL    HW232742   2.207   2.840   8.154  1.1430 -0.0816  0.2704
 7036SOL     OW32743   2.403   0.725  17.100  0.1030 -0.3170  0.4157
 7036SOL    HW132744   2.323   0.771  17.125 -0.0405  0.2488 -1.0750
 7036SOL    HW232745   2.460   0.747  17.175 -1.9138  3.4671  0.8278
 7037SOL     OW32746   2.746   3.829   2.101  1.1888  0.0425  0.1062
 7037SOL    HW132747   2.736   3.911   2.149  1.8897 -0.7951  1.6755
 7037SOL    HW232748   2.691   3.773   2.154 -0.0389  1.3693  0.2264
 7038SOL     OW32749   0.299   3.258   9.015  0.1740 -0.1096  0.6156
 7038SOL    HW132750   0.355   3.284   8.942 -0.7743  2.5954  0.8561
 7038SOL    HW232751   0.344   3.290   9.093  3.2708  1.5394 -1.8623
 7039SOL     OW32752   0.021   4.173  12.088 -0.2406  0.3442 -0.2323
 7039SOL    HW132753   0.061   4.259  12.105  1.3266  0.2793 -3.6545
 7039SOL    HW232754   4.693   4.188  12.154 -1.5921  0.5182 -1.6776
 7040SOL     OW32755   0.972   1.007   5.839  0.4090 -0.0449  0.0592
 7040SOL    HW132756   1.003   1.096   5.855  1.5823 -0.4735  0.1526
 7040SOL    HW232757   0.961   0.982   5.931  2.3846 -0.6067  0.1498
 7041SOL     OW32758   2.218   3.932   9.973 -0.1329  0.6655 -0.3922
 7041SOL    HW132759   2.192   4.023   9.962 -1.2626  0.3831 -0.0794
 7041SOL    HW232760   2.140   3.888   9.938  0.9417 -1.6823  0.1767
 7042SOL     OW32761   4.144   1.565  11.848 -0.2455  0.8546  0.1563
 7042SOL    HW132762   4.201   1.563  11.771 -1.9535  0.7417 -1.1107
 7042SOL    HW232763   4.129   1.657  11.871  0.2374  0.7950  0.7032
 7043SOL     OW32764   0.673   1.148   4.008  0.2745  0.5413 -0.4388
 7043SOL    HW132765   0.596   1.092   4.002  1.1610 -0.4712 -2.4285
 7043SOL    HW232766   0.693   1.121   4.098 -1.1651 -2.1291 -0.9268
 7044SOL     OW32767   1.431   4.264   9.865 -0.3529  0.1703 -0.0782
 7044SOL    HW132768   1.423   4.172   9.891  0.3848  0.4428  1.1328
 7044SOL    HW232769   1.434   4.305   9.951  0.7417 -2.8106  1.2943
 7045SOL     OW32770   2.698   2.806   3.516  0.4304 -0.1073 -0.2913
 7045SOL    HW132771   2.673   2.891   3.554  2.1470 -0.3560  1.4028
 7045SOL    HW232772   2.612   2.773   3.490  0.2238  1.2730 -1.3621
 7046SOL     OW32773   1.653   2.967   0.557 -0.3385 -0.4046  0.2696
 7046SOL    HW132774   1.726   2.907   0.575  2.3187  1.9423 -2.6076
 7046SOL    HW232775   1.585   2.900   0.558 -1.6621  0.9880  1.8224
 7047SOL     OW32776   1.997   2.982   0.010 -0.2055  0.4979  0.0323
 7047SOL    HW132777   2.016   2.950   0.098  0.9828  2.3080  0.4366
 7047SOL    HW232778   1.940   2.913  17.737 -0.1330  0.6518 -0.4498
 7048SOL     OW32779   3.727   2.580   6.412 -0.5437 -0.0916  0.4287
 7048SOL    HW132780   3.707   2.619   6.327 -0.7115 -1.0071  0.0378
 7048SOL    HW232781   3.817   2.610   6.420 -0.3969 -1.3933  4.0283
 7049SOL     OW32782   2.763   1.602   3.204  0.1379 -0.0158  0.2686
 7049SOL    HW132783   2.739   1.688   3.238 -0.9907 -0.1937 -0.0970
 7049SOL    HW232784   2.715   1.600   3.121 -1.2398 -1.2405  1.1002
 7050SOL     OW32785   0.085   2.300   4.611 -0.6976  0.6424 -0.0907
 7050SOL    HW132786   0.018   2.268   4.670  0.9145 -0.4860  1.1299
 7050SOL    HW232787   0.155   2.235   4.619 -1.0894  0.1929 -0.3108
 7051SOL     OW32788   0.363   2.553   9.158 -0.8786 -0.4780 -0.2487
 7051SOL    HW132789   0.283   2.583   9.199 -0.2654 -1.1920  1.4507
 7051SOL    HW232790   0.425   2.548   9.231 -1.0005 -0.2393 -0.1305
 7052SOL     OW32791   0.894   1.209   1.104  0.4979 -0.0326  0.6575
 7052SOL    HW132792   0.951   1.178   1.175 -0.2276 -2.2951  0.2450
 7052SOL    HW232793   0.946   1.277   1.061 -2.4910  1.5427 -0.4930
 7053SOL     OW32794   3.495   2.282  15.004  0.6247  0.7919 -0.3353
 7053SOL    HW132795   3.553   2.226  14.952  0.7396  0.1164  0.5096
 7053SOL    HW232796   3.419   2.297  14.949 -0.1962 -0.3598  0.4835
 7054SOL     OW32797   2.851   3.952   5.084 -0.0851 -0.0478  0.0141
 7054SOL    HW132798   2.917   4.016   5.058  0.3440 -0.3503  0.3676
 7054SOL    HW232799   2.808   3.996   5.156  2.4749  1.5316  0.5828
 7055SOL     OW32800   4.378   4.254   1.983  0.1445  0.0230 -0.0302
 7055SOL    HW132801   4.431   4.313   2.037 -0.6931  2.1019 -1.5109
 7055SOL    HW232802   4.383   4.282   1.892  0.1209 -1.7810 -0.5885
 7056SOL     OW32803   2.145   1.735   1.961  0.4696 -0.0488 -0.0840
 7056SOL    HW132804   2.231   1.755   1.923 -0.0302  0.1117 -1.1323
 7056SOL    HW232805   2.095   1.742   1.880  0.1603 -0.1025  0.1029
 7057SOL     OW32806   0.774   2.500  13.421  0.1300  0.1941 -0.0463
 7057SOL    HW132807   0.791   2.479  13.329 -2.6741 -2.2024 -0.0267
 7057SOL    HW232808   0.692   2.549  13.410  0.1094  0.8476  3.0271
 7058SOL     OW32809   3.232   4.581   2.248  0.4262  0.3923  0.0175
 7058SOL    HW132810   3.220   4.675   2.261  0.4042  0.3561  0.2488
 7058SOL    HW232811   3.197   4.567   2.160  0.9121  0.0077 -0.1180
 7059SOL     OW32812   4.225   2.692  15.386 -0.3068  0.7210 -0.1869
 7059SOL    HW132813   4.226   2.611  15.334  1.0616  0.6986 -0.1311
 7059SOL    HW232814   4.132   2.692  15.407 -0.8633 -0.9811 -2.6704
 7060SOL     OW32815   3.727   0.234   2.745  0.0666  0.3384 -0.7113
 7060SOL    HW132816   3.642   0.217   2.705  0.1885 -1.8162 -0.0676
 7060SOL    HW232817   3.780   0.159   2.719 -2.1204 -1.5009  0.1534
 7061SOL     OW32818   1.236   0.622  15.618  0.0555  0.1543  0.2823
 7061SOL    HW132819   1.323   0.661  15.609 -0.4958  1.1659 -0.6077
 7061SOL    HW232820   1.244   0.579  15.704 -1.9416  1.0909  0.9398
 7062SOL     OW32821   3.352   3.553   7.330  0.5145  0.0971 -0.0175
 7062SOL    HW132822   3.333   3.552   7.424 -1.2387 -2.5185 -0.4086
 7062SOL    HW232823   3.429   3.498   7.319 -0.0692 -0.5057 -1.0612
 7063SOL     OW32824   2.701   0.459   2.871 -0.0467 -0.0625 -0.0623
 7063SOL    HW132825   2.616   0.489   2.903  0.6041  1.6153  0.1035
 7063SOL    HW232826   2.715   0.526   2.804 -0.4542  0.0447 -0.0419
 7064SOL     OW32827   1.216   1.645   0.866  0.2396 -0.2536  0.6094
 7064SOL    HW132828   1.294   1.662   0.814  0.5192 -0.0153  1.1065
 7064SOL    HW232829   1.166   1.727   0.860  1.6927  0.5465 -0.6419
 7065SOL     OW32830   2.527   3.442   4.006 -0.1817 -0.2390  0.1161
 7065SOL    HW132831   2.579   3.389   4.067 -1.3498 -1.8187 -0.2658
 7065SOL    HW232832   2.590   3.509   3.978 -0.7288  0.1825 -0.1070
 7066SOL     OW32833   3.298   2.286  17.491 -0.3034  0.3281  0.2015
 7066SOL    HW132834   3.324   2.204  17.533  2.6568  0.2753 -1.7456
 7066SOL    HW232835   3.202   2.286  17.493 -0.2991  2.0256  0.2894
 7067SOL     OW32836   4.675   0.559  17.253 -0.0109  0.4639 -0.6678
 7067SOL    HW132837   4.645   0.537  17.341  0.1652  2.4028 -0.1194
 7067SOL    HW232838   4.619   0.635  17.236 -0.5733  0.2029  0.0177
 7068SOL     OW32839   2.383   2.167   2.660 -0.9051 -0.1640 -0.2785
 7068SOL    HW132840   2.326   2.143   2.588 -2.6747  0.7312  0.8239
 7068SOL    HW232841   2.455   2.109   2.634  0.0383  0.9382 -0.1651
 7069SOL     OW32842   3.454   1.306   7.470  0.3449 -0.1311 -0.9043
 7069SOL    HW132843   3.467   1.357   7.390  0.6829  0.0544 -0.7356
 7069SOL    HW232844   3.433   1.217   7.443 -0.6434  0.5096 -2.2597
 7070SOL     OW32845   0.453   4.147   1.517  0.3710  0.0676 -0.6596
 7070SOL    HW132846   0.393   4.096   1.463 -0.1847  0.9497 -0.8548
 7070SOL    HW232847   0.398   4.208   1.566 -2.6052 -0.4857 -3.3387
 7071SOL     OW32848   4.156   4.085  17.353 -0.2900  0.2805 -1.0166
 7071SOL    HW132849   4.081   4.132  17.390  0.6128  1.5317 -0.7608
 7071SOL    HW232850   4.119   3.998  17.342 -1.7088  0.5607  1.5622
 7072SOL     OW32851   0.799   2.980   5.383 -0.5696  0.2049 -0.1000
 7072SOL    HW132852   0.740   2.975   5.459 -1.1694  1.8033 -0.4679
 7072SOL    HW232853   0.813   3.074   5.392 -1.4307  0.2924  0.3479
 7073SOL     OW32854   1.441   0.328  16.362  0.1020 -0.1390  0.1449
 7073SOL    HW132855   1.393   0.308  16.443 -1.9568  1.3344 -0.7054
 7073SOL    HW232856   1.528   0.348  16.397  1.1977 -3.3822 -0.7592
 7074SOL     OW32857   1.807   3.718   4.939 -0.2243  0.2762  0.3128
 7074SOL    HW132858   1.883   3.747   4.889  0.3411 -0.7233  0.5702
 7074SOL    HW232859   1.828   3.624   4.938  1.3368  0.6179  1.7745
 7075SOL     OW32860   4.371   3.229  14.379 -0.5095  0.5403 -0.0580
 7075SOL    HW132861   4.280   3.260  14.377 -1.0642 -1.0251  0.5080
 7075SOL    HW232862   4.415   3.314  14.374 -0.8607  0.7391  0.1737
 7076SOL     OW32863   4.167   1.321   6.175  0.0663  0.1094 -0.4454
 7076SOL    HW132864   4.099   1.367   6.223 -0.5024  0.0376 -1.1859
 7076SOL    HW232865   4.136   1.330   6.085  0.3169 -2.5775 -0.7944
 7077SOL     OW32866   0.012   4.216  13.339  0.6448 -0.3260  0.0284
 7077SOL    HW132867   0.038   4.124  13.339 -0.4242 -0.6289  3.2953
 7077SOL    HW232868   4.681   4.225  13.402  0.6579 -0.6447  0.0897
 7078SOL     OW32869   3.725   1.541   8.770  0.2991 -0.2323  0.1298
 7078SOL    HW132870   3.777   1.475   8.726  0.9703  0.0347  0.5284
 7078SOL    HW232871   3.796   1.603   8.784 -0.3484  0.7344 -0.8567
 7079SOL     OW32872   1.614   2.986   8.340  0.1785 -0.4487  0.3803
 7079SOL    HW132873   1.519   2.980   8.336  0.1938  0.2375 -1.0436
 7079SOL    HW232874   1.645   2.905   8.382 -2.4701 -1.7468 -0.1401
 7080SOL     OW32875   2.158   3.550  12.358 -0.0927 -0.2861  0.2887
 7080SOL    HW132876   2.064   3.530  12.360 -0.1875  0.0349 -1.0057
 7080SOL    HW232877   2.199   3.472  12.396  1.0404  0.7423  1.1605
 7081SOL     OW32878   2.024   3.977   1.233  0.4143 -0.2650 -0.8341
 7081SOL    HW132879   1.945   4.003   1.186 -0.0974  1.8625  1.2115
 7081SOL    HW232880   2.077   3.952   1.158 -0.7821  1.6152 -2.3140
 7082SOL     OW32881   1.042   3.915   3.558 -0.0778 -0.4532  0.6619
 7082SOL    HW132882   0.969   3.967   3.594 -0.1710 -2.5431  3.4936
 7082SOL    HW232883   1.004   3.903   3.471 -2.3257 -1.3292  1.7548
 7083SOL     OW32884   0.235   3.140   5.748 -0.3007  0.0110  0.2180
 7083SOL    HW132885   0.322   3.139   5.787  0.0060  0.0724 -0.4585
 7083SOL    HW232886   0.189   3.110   5.826  1.9401 -1.0707  1.1154
 7084SOL     OW32887   4.445   0.625  11.578 -0.5504 -0.1897  0.4005
 7084SOL    HW132888   4.492   0.704  11.549 -0.4575 -0.1962  0.5326
 7084SOL    HW232889   4.511   0.589  11.638 -0.7138  1.3793  1.5342
 7085SOL     OW32890   3.665   0.141   5.939 -0.3595  0.2852  0.4086
 7085SOL    HW132891   3.683   0.213   5.879 -0.0161  0.3648  0.6062
 7085SOL    HW232892   3.749   0.096   5.929 -0.6062 -0.0520 -0.0956
 7086SOL     OW32893   4.602   0.704   3.377  0.2404  0.9153  0.1951
 7086SOL    HW132894   4.602   0.608   3.368  0.7903  1.0089 -0.8961
 7086SOL    HW232895   4.514   0.718   3.341  0.9748  1.1358 -1.5235
 7087SOL     OW32896   0.359   3.842   7.297  0.4956 -0.1701 -0.2191
 7087SOL    HW132897   0.395   3.781   7.362  3.0283 -1.3604 -2.7069
 7087SOL    HW232898   0.436   3.846   7.240  0.2062  2.3323 -0.4395
 7088SOL     OW32899   3.441   4.259   8.801  0.7432  0.5181 -0.1546
 7088SOL    HW132900   3.497   4.287   8.728 -0.5467 -0.6387 -1.5826
 7088SOL    HW232901   3.495   4.205   8.858  0.9818  0.4616 -0.4368
 7089SOL     OW32902   2.056   3.657   3.608  0.3012 -0.7770  0.3868
 7089SOL    HW132903   2.106   3.575   3.615  1.6963  0.2286  2.3469
 7089SOL    HW232904   1.966   3.629   3.591 -0.6322  2.2212  0.4878
 7090SOL     OW32905   0.329   1.716   6.180 -0.6723  0.0028  0.6339
 7090SOL    HW132906   0.324   1.797   6.231 -0.6766  0.2672  0.2129
 7090SOL    HW232907   0.235   1.703   6.172 -0.7689 -1.0534  3.6316
 7091SOL     OW32908   4.495   2.356   5.335  0.0260  0.2763  0.1819
 7091SOL    HW132909   4.472   2.403   5.415  2.1396 -1.1163  1.6269
 7091SOL    HW232910   4.590   2.352   5.345  0.1698 -1.0807 -1.7867
 7092SOL     OW32911   1.470   0.090  15.897  0.7556  0.0551 -0.9988
 7092SOL    HW132912   1.483   0.170  15.947  1.5093  0.1516 -1.3429
 7092SOL    HW232913   1.546   0.086  15.839  2.1899  1.1389  0.8365
 7093SOL     OW32914   1.271   1.101   4.087 -0.4044  0.2982 -0.0538
 7093SOL    HW132915   1.203   1.065   4.030  0.0820 -0.5331 -0.1132
 7093SOL    HW232916   1.220   1.152   4.150  1.5234  1.2288  0.7661
 7094SOL     OW32917   2.597   0.464  11.728 -0.5677 -0.4597 -0.1679
 7094SOL    HW132918   2.616   0.555  11.706  0.6513 -0.4733  0.7711
 7094SOL    HW232919   2.502   0.470  11.728 -0.5526 -0.4692 -3.7908
 7095SOL     OW32920   1.627   4.037  12.320 -0.3065  0.2469  0.1923
 7095SOL    HW132921   1.605   3.945  12.303 -0.3466 -0.1340  2.2484
 7095SOL    HW232922   1.558   4.060  12.382 -1.3125 -0.1834 -0.7612
 7096SOL     OW32923   1.640   1.764   8.276 -0.1196  0.0805  0.1666
 7096SOL    HW132924   1.697   1.822   8.226 -1.4533  1.2518  0.0051
 7096SOL    HW232925   1.671   1.777   8.366  0.2591 -1.0070  0.1926
 7097SOL     OW32926   3.320   4.481  13.078 -0.3064 -0.2150  0.1397
 7097SOL    HW132927   3.356   4.548  13.136  2.5725  0.3482 -2.2841
 7097SOL    HW232928   3.269   4.527  13.012  0.5289 -0.9494 -1.0162
 7098SOL     OW32929   1.400   4.159   4.727  0.1057  0.1048  0.0187
 7098SOL    HW132930   1.451   4.078   4.725  1.2928  0.8827 -1.0800
 7098SOL    HW232931   1.332   4.136   4.664 -0.9462 -0.5962  1.3979
 7099SOL     OW32932   3.888   2.007  16.781 -0.3654  0.2291 -0.2655
 7099SOL    HW132933   3.914   2.099  16.778 -0.4857  0.3543  2.4840
 7099SOL    HW232934   3.970   1.974  16.744 -1.3864 -0.4253 -1.9644
 7100SOL     OW32935   1.325   1.442  11.853  0.1644 -0.1761 -0.2674
 7100SOL    HW132936   1.307   1.472  11.942  0.4387  0.7054 -0.5032
 7100SOL    HW232937   1.405   1.492  11.837 -1.3516  2.5980  0.8398
 7101SOL     OW32938   1.964   4.298  16.023  0.4039 -0.8911  0.0794
 7101SOL    HW132939   1.888   4.242  16.012  1.0234 -1.9397  1.2339
 7101SOL    HW232940   1.923   4.351  16.092 -1.3732 -1.4134 -0.5836
 7102SOL     OW32941   1.831   2.431   9.837  0.5377 -0.5925  0.0035
 7102SOL    HW132942   1.791   2.409   9.921 -1.6803 -0.3131 -0.9794
 7102SOL    HW232943   1.825   2.526   9.835 -0.5140 -0.6435  1.2148
 7103SOL     OW32944   3.916   0.053   2.578 -0.0112  0.0684 -0.0917
 7103SOL    HW132945   3.845   0.046   2.515  1.5691  2.1575 -2.0830
 7103SOL    HW232946   3.933   4.701   2.598  0.8202  0.2875  0.2046
 7104SOL     OW32947   3.372   2.651   4.023  0.3065  0.7354 -0.4455
 7104SOL    HW132948   3.280   2.642   4.000  0.6228  2.1294 -2.2910
 7104SOL    HW232949   3.388   2.745   4.032  0.8141  0.4161  1.9023
 7105SOL     OW32950   2.798   3.192   7.016  0.3089 -0.2063 -0.4291
 7105SOL    HW132951   2.749   3.169   7.095 -0.0967  0.2586 -0.5509
 7105SOL    HW232952   2.881   3.214   7.059 -1.0854  1.3747  1.4310
 7106SOL     OW32953   1.594   4.265   7.291 -0.1600  0.1747 -0.1197
 7106SOL    HW132954   1.534   4.217   7.349 -1.2118  1.3882 -0.2215
 7106SOL    HW232955   1.545   4.347   7.284 -1.8990 -0.7274  1.2603
 7107SOL     OW32956   1.376   4.630   3.103 -0.2076 -1.0590  0.0170
 7107SOL    HW132957   1.342   4.655   3.189 -0.3055 -0.0588 -0.3102
 7107SOL    HW232958   1.322   4.552   3.089  0.6198 -1.9645  1.9192
 7108SOL     OW32959   1.774   2.980   4.086  0.4024 -0.1256 -0.5823
 7108SOL    HW132960   1.680   2.962   4.081  0.2476  0.0885  1.4341
 7108SOL    HW232961   1.790   2.955   4.177 -0.4123  1.8222  0.0924
 7109SOL     OW32962   0.243   4.299   4.785 -0.2973  0.1484  0.1460
 7109SOL    HW132963   0.272   4.383   4.819  1.8121 -0.5374  0.0382
 7109SOL    HW232964   0.274   4.252   4.862 -1.3819 -0.4491  0.2221
 7110SOL     OW32965   2.487   2.559   9.075 -0.2088  0.0657  0.1336
 7110SOL    HW132966   2.429   2.541   9.001 -0.0093 -1.4595  0.3466
 7110SOL    HW232967   2.526   2.473   9.091 -1.3078 -0.4969 -0.1501
 7111SOL     OW32968   4.035   3.702   3.846  0.0896  0.2951 -0.0318
 7111SOL    HW132969   3.984   3.720   3.766  1.0681  3.3484  0.0437
 7111SOL    HW232970   4.123   3.688   3.813  0.7187 -2.9843  3.0005
 7112SOL     OW32971   0.540   3.887   9.263 -0.4237 -0.8160  0.5148
 7112SOL    HW132972   0.461   3.846   9.299  0.7747 -2.3402  1.3766
 7112SOL    HW232973   0.541   3.959   9.326 -0.7422 -0.4660  0.1257
 7113SOL     OW32974   0.252   1.312   2.718 -0.0676  0.5000 -0.1574
 7113SOL    HW132975   0.289   1.395   2.746 -0.5129  0.4486  0.5634
 7113SOL    HW232976   0.329   1.277   2.674  0.6258 -1.3050  2.5728
 7114SOL     OW32977   1.860   1.372   5.959  0.0668 -0.0528 -0.6142
 7114SOL    HW132978   1.817   1.303   5.909 -0.5411  0.0244 -0.2046
 7114SOL    HW232979   1.953   1.351   5.960 -0.0896 -0.7817 -1.0623
 7115SOL     OW32980   2.199   0.723   8.660  0.2143  0.2834  0.6905
 7115SOL    HW132981   2.272   0.738   8.600  1.4641 -3.3966  1.3130
 7115SOL    HW232982   2.227   0.642   8.703  1.0788 -0.4356 -1.2254
 7116SOL     OW32983   3.625   3.934  16.513  0.0112 -0.2375 -0.0324
 7116SOL    HW132984   3.606   3.850  16.554 -1.2276 -0.1876 -0.4929
 7116SOL    HW232985   3.579   3.925  16.429  0.8443 -0.3576 -0.4683
 7117SOL     OW32986   4.217   2.906   3.079  0.0687  0.5845 -0.2178
 7117SOL    HW132987   4.307   2.906   3.111 -0.0428 -3.0293  0.0145
 7117SOL    HW232988   4.221   2.996   3.046 -1.2734  1.0972  0.9774
 7118SOL     OW32989   0.695   0.486   6.551  0.2715  0.6326 -0.1334
 7118SOL    HW132990   0.740   0.403   6.539 -0.2692  0.2142  0.7115
 7118SOL    HW232991   0.606   0.452   6.542  0.3500  0.7518 -1.2477
 7119SOL     OW32992   3.241   0.911  17.385 -0.1516  0.0343  1.1229
 7119SOL    HW132993   3.252   0.871  17.299  0.9972 -0.3117  1.4237
 7119SOL    HW232994   3.301   0.983  17.367 -0.7909 -0.2109 -1.8213
 7120SOL     OW32995   1.394   1.296  14.728 -0.2334  0.2600 -0.0118
 7120SOL    HW132996   1.436   1.381  14.742 -0.1174  0.2230 -0.1393
 7120SOL    HW232997   1.468   1.250  14.688 -0.8835 -0.5921 -0.2408
 7121SOL     OW32998   0.550   2.820   2.538 -0.1019  0.0639 -0.0053
 7121SOL    HW132999   0.504   2.789   2.459  0.1497 -2.0311  0.6773
 7121SOL    HW233000   0.636   2.841   2.500  0.1230 -1.3605 -0.3122
 7122SOL     OW33001   1.677   3.138   5.579  0.1294  0.0137  0.7498
 7122SOL    HW133002   1.705   3.053   5.613  2.7903  0.0993 -1.2432
 7122SOL    HW233003   1.740   3.153   5.508  1.2399  0.1726  1.7622
 7123SOL     OW33004   0.227   2.633   8.248  1.0049 -0.6087  0.1074
 7123SOL    HW133005   0.296   2.634   8.314 -1.1117 -0.0661  2.3344
 7123SOL    HW233006   0.183   2.718   8.255  0.8792 -0.6831  0.2328
 7124SOL     OW33007   0.835   0.566   3.111 -0.3053 -0.0875 -0.2195
 7124SOL    HW133008   0.744   0.591   3.123 -0.0043  0.8342  0.1574
 7124SOL    HW233009   0.878   0.577   3.196 -1.4291  0.4061  0.2729
 7125SOL     OW33010   0.129   1.726   7.203  0.0257  0.3781 -0.3728
 7125SOL    HW133011   0.132   1.648   7.258 -0.9098  1.2714  0.9656
 7125SOL    HW233012   0.133   1.793   7.271 -0.7352 -0.7707  0.8062
 7126SOL     OW33013   3.040   3.533   2.551  0.4387  0.4621  0.3048
 7126SOL    HW133014   2.991   3.615   2.546  0.7558  0.5521 -1.3445
 7126SOL    HW233015   3.032   3.506   2.460  0.7381 -1.0866  0.7412
 7127SOL     OW33016   2.473   4.656   4.668  0.0294 -0.1365 -0.5387
 7127SOL    HW133017   2.439   4.579   4.623 -0.3763 -0.4707  0.3432
 7127SOL    HW233018   2.410   4.722   4.636 -1.9437 -1.8500 -0.1476
 7128SOL     OW33019   0.988   2.629   2.002 -0.4438  0.3960  0.6622
 7128SOL    HW133020   0.901   2.666   1.994 -0.5137 -0.0301 -0.5293
 7128SOL    HW233021   0.974   2.548   2.051  1.7982 -1.2674 -1.4362
 7129SOL     OW33022   3.472   4.023   7.706 -0.0766  0.3595  0.1691
 7129SOL    HW133023   3.561   3.990   7.693  0.9137  2.8998  0.4555
 7129SOL    HW233024   3.486   4.106   7.660 -0.1076 -1.4438 -3.0942
 7130SOL     OW33025   0.064   0.288   7.850  0.3657  0.2309 -0.2829
 7130SOL    HW133026   4.714   0.311   7.875  1.1090  0.3534  2.2747
 7130SOL    HW233027   0.060   0.288   7.755 -1.1377  0.9463 -0.2183
 7131SOL     OW33028   2.650   2.661   4.497  0.0047  0.1380 -0.0615
 7131SOL    HW133029   2.681   2.572   4.482  1.7814  0.6872  0.2668
 7131SOL    HW233030   2.650   2.674   4.592  1.8471  0.6114 -0.1194
 7132SOL     OW33031   4.464   4.029  16.680 -0.5104 -0.4592  0.1617
 7132SOL    HW133032   4.538   4.089  16.691 -1.9029  1.5805 -1.4774
 7132SOL    HW233033   4.423   4.026  16.767 -2.2334 -0.7003 -0.6634
 7133SOL     OW33034   4.122   0.648   5.880  0.0513  0.1869 -0.4800
 7133SOL    HW133035   4.078   0.720   5.836 -0.0847 -0.7368 -1.8460
 7133SOL    HW233036   4.042   0.616   5.921  1.0291 -1.9466 -0.2238
 7134SOL     OW33037   2.998   0.916   7.342  0.5585  0.0134  0.3850
 7134SOL    HW133038   3.047   0.911   7.259  1.1760  0.4375  0.7258
 7134SOL    HW233039   2.912   0.946   7.313  0.4401 -0.8989 -0.1793
 7135SOL     OW33040   2.064   3.571   8.891  0.5294  0.6979  0.3753
 7135SOL    HW133041   2.019   3.634   8.835 -1.9130 -1.6319 -0.3119
 7135SOL    HW233042   2.060   3.493   8.836 -0.2073 -0.6038  2.2594
 7136SOL     OW33043   2.068   4.114   3.865  0.3394 -0.2850 -0.4878
 7136SOL    HW133044   2.062   4.209   3.871 -1.7856 -0.4757  0.2620
 7136SOL    HW233045   1.982   4.092   3.828 -0.0009  1.2747 -0.6422
 7137SOL     OW33046   0.806   2.751   1.420 -0.0694  0.2230 -0.1480
 7137SOL    HW133047   0.901   2.751   1.420 -0.0565 -0.2870  1.2167
 7137SOL    HW233048   0.780   2.712   1.504 -1.1389  1.2232 -0.0090
 7138SOL     OW33049   3.697   4.153   1.541  0.3569 -0.6096  0.6162
 7138SOL    HW133050   3.668   4.211   1.612 -0.7660 -2.4985  1.6775
 7138SOL    HW233051   3.692   4.076   1.598  1.5809 -0.3887  1.0176
 7139SOL     OW33052   1.383   1.884  10.750 -0.1961 -0.0511  0.6281
 7139SOL    HW133053   1.348   1.872  10.838 -3.8257  2.7788 -0.4418
 7139SOL    HW233054   1.468   1.920  10.776  0.7663 -1.5425 -0.4637
 7140SOL     OW33055   2.553   2.069   7.295 -0.3285 -0.5620 -0.1808
 7140SOL    HW133056   2.618   2.041   7.358 -1.3340 -0.6366  0.8254
 7140SOL    HW233057   2.493   2.116   7.353  2.0123 -0.1564  1.9010
 7141SOL     OW33058   2.717   0.806   3.583  0.0137  0.4051 -0.7373
 7141SOL    HW133059   2.692   0.839   3.497  1.3748  2.1126 -0.4712
 7141SOL    HW233060   2.810   0.794   3.565 -0.1369 -1.0819 -0.5786
 7142SOL     OW33061   1.760   4.254   8.927  0.0431  0.2374 -0.3888
 7142SOL    HW133062   1.787   4.281   8.839 -0.3673  0.0185 -0.5813
 7142SOL    HW233063   1.664   4.255   8.920 -0.0212 -2.0006  0.0226
 7143SOL     OW33064   2.065   0.346  13.756  0.4617  0.1405 -0.5551
 7143SOL    HW133065   2.126   0.380  13.690 -1.3158  2.2678 -1.0818
 7143SOL    HW233066   1.997   0.299  13.707  0.9304 -2.6381  1.4543
 7144SOL     OW33067   3.865   2.596   3.531  0.1666  0.1429 -0.1718
 7144SOL    HW133068   3.943   2.647   3.552 -0.6658  0.2725  2.5493
 7144SOL    HW233069   3.895   2.525   3.475 -1.3902 -2.6498  2.5062
 7145SOL     OW33070   4.532   2.875  16.921 -0.3644 -0.3952  0.2039
 7145SOL    HW133071   4.573   2.836  16.998  2.8364 -1.8947 -2.2803
 7145SOL    HW233072   4.556   2.825  16.844  0.2585 -2.4562  1.7478
 7146SOL     OW33073   4.054   2.146   3.584  0.1052 -0.0682  0.1633
 7146SOL    HW133074   4.098   2.115   3.505 -1.0340 -2.4006  0.4485
 7146SOL    HW233075   4.056   2.064   3.633 -0.3685 -0.9202 -1.2425
 7147SOL     OW33076   1.692   4.594   7.841 -0.2138 -0.1083  0.0447
 7147SOL    HW133077   1.657   4.568   7.756 -0.6421 -0.8435  0.4473
 7147SOL    HW233078   1.785   4.616   7.829 -0.1953 -0.3869 -0.3151
 7148SOL     OW33079   2.406   3.933   8.937  0.2016 -0.1096 -0.4071
 7148SOL    HW133080   2.404   3.838   8.927  0.1991 -0.0787 -0.7244
 7148SOL    HW233081   2.347   3.959   8.865  2.3783  0.3665 -2.0033
 7149SOL     OW33082   0.616   2.651   1.229 -0.1767 -0.0465  0.1235
 7149SOL    HW133083   0.701   2.637   1.272 -0.7277 -1.0254  0.9079
 7149SOL    HW233084   0.551   2.616   1.291  1.7223 -1.9469  1.0457
 7150SOL     OW33085   2.834   2.930   5.078  0.3492 -0.0538  0.0253
 7150SOL    HW133086   2.844   3.019   5.046  0.8300 -0.6872 -1.5700
 7150SOL    HW233087   2.863   2.890   4.997 -1.2182  1.2247 -1.1836
 7151SOL     OW33088   3.922   0.040   1.600  0.1717  0.3121 -0.1516
 7151SOL    HW133089   3.856   0.108   1.583 -1.8010 -1.5871 -0.0382
 7151SOL    HW233090   3.876   4.708   1.556 -0.1036  1.3129 -1.5202
 7152SOL     OW33091   1.107   2.231   0.109  0.2911  0.0815 -0.6482
 7152SOL    HW133092   1.086   2.238   0.203  0.0725 -0.3091 -0.6684
 7152SOL    HW233093   1.162   2.153   0.107  0.6373  0.2917  0.4651
 7153SOL     OW33094   1.755   2.299   8.623 -0.6213  0.3191  0.2586
 7153SOL    HW133095   1.715   2.312   8.537 -2.9964 -1.0184  1.1413
 7153SOL    HW233096   1.800   2.216   8.610 -0.2965  0.2618  1.7655
 7154SOL     OW33097   1.232   4.369   3.091  0.5488  0.3985  0.1662
 7154SOL    HW133098   1.310   4.336   3.135  0.0489  0.9925  1.4684
 7154SOL    HW233099   1.162   4.343   3.151 -0.9232  1.9683 -0.8890
 7155SOL     OW33100   0.541   0.041   3.506  0.2491 -0.2853 -0.7027
 7155SOL    HW133101   0.590   4.727   3.445 -0.8008  1.3754 -3.0033
 7155SOL    HW233102   0.455   0.000   3.493  1.5414 -2.5718 -2.0127
 7156SOL     OW33103   1.770   3.784   7.486 -0.1595 -0.3564 -0.0573
 7156SOL    HW133104   1.742   3.873   7.505  0.4551  0.1957 -1.8027
 7156SOL    HW233105   1.687   3.737   7.482 -0.7449  0.6500  0.4835
 7157SOL     OW33106   3.111   1.971  16.349 -0.0384  0.2041 -0.3931
 7157SOL    HW133107   3.200   2.006  16.355 -0.1878  0.6525 -0.8769
 7157SOL    HW233108   3.112   1.923  16.433  2.1212 -1.4605 -1.3607
 7158SOL     OW33109   3.724   1.485   3.242 -0.5451 -0.0885 -0.1471
 7158SOL    HW133110   3.767   1.474   3.327  1.3064 -1.2269 -1.2256
 7158SOL    HW233111   3.734   1.399   3.202 -2.3683  0.5998 -2.0629
 7159SOL     OW33112   2.826   0.394  11.885  0.2216 -0.6349  0.2148
 7159SOL    HW133113   2.749   0.405  11.830  0.8212  0.3977 -0.4242
 7159SOL    HW233114   2.891   0.366  11.820  3.1836  1.5914  2.1989
 7160SOL     OW33115   2.506   3.847   1.916 -0.2695 -0.0021 -0.2647
 7160SOL    HW133116   2.435   3.783   1.914  1.5683 -2.0120 -1.9358
 7160SOL    HW233117   2.543   3.827   2.002 -0.5677 -1.1999 -0.4091
 7161SOL     OW33118   4.022   1.362   3.835  0.1020 -0.2645  0.2652
 7161SOL    HW133119   4.064   1.420   3.772 -0.8246  1.2992  1.0678
 7161SOL    HW233120   3.942   1.401   3.871 -0.2872  1.5584 -2.5963
 7162SOL     OW33121   0.223   4.164   4.566 -0.1116 -0.5344  0.5965
 7162SOL    HW133122   0.223   4.217   4.645  0.2949 -1.6022  1.3072
 7162SOL    HW233123   0.295   4.102   4.582  1.3089  0.3758 -2.2084
 7163SOL     OW33124   0.134   0.080   4.056 -0.3425 -0.5809 -0.0233
 7163SOL    HW133125   0.102   0.163   4.018  1.5246  0.9724  1.7926
 7163SOL    HW233126   0.208   0.060   4.000  0.3920  1.2545  0.2916
 7164SOL     OW33127   3.514   4.194   2.087 -0.1625 -0.4948  0.8566
 7164SOL    HW133128   3.507   4.107   2.048  0.1998 -0.8677  1.6275
 7164SOL    HW233129   3.495   4.164   2.176 -1.5812  0.3712  0.8417
 7165SOL     OW33130   1.127   2.918   6.380  0.1956  0.0751 -0.1767
 7165SOL    HW133131   1.183   2.861   6.328 -0.8334 -0.1700 -1.0039
 7165SOL    HW233132   1.168   2.920   6.467  2.5894 -0.1273 -1.3085
 7166SOL     OW33133   2.412   1.725   5.871  0.2424 -0.3014 -0.3015
 7166SOL    HW133134   2.422   1.644   5.822 -0.6162  0.5993 -1.9832
 7166SOL    HW233135   2.395   1.790   5.802 -1.6584 -0.4404  0.0206
 7167SOL     OW33136   1.961   1.570   9.107 -0.3910 -0.1925  0.3673
 7167SOL    HW133137   2.032   1.615   9.153 -0.6835  0.6053  0.0449
 7167SOL    HW233138   1.913   1.526   9.177 -0.0081 -1.1226  0.0455
 7168SOL     OW33139   3.129   3.054   6.721 -0.6471  0.1666  0.3008
 7168SOL    HW133140   3.035   3.049   6.703 -0.5184  0.1851 -0.3882
 7168SOL    HW233141   3.153   2.978   6.667 -0.9289  0.9729 -0.9700
 7169SOL     OW33142   3.864   3.182   2.204  0.1496  0.1607 -0.1540
 7169SOL    HW133143   3.869   3.123   2.129  2.4708 -1.1572  1.0393
 7169SOL    HW233144   3.774   3.169   2.234  0.1614  1.1687  0.3019
 7170SOL     OW33145   2.978   3.860  11.881  0.1383  0.1898  0.2176
 7170SOL    HW133146   3.011   3.899  11.800  2.3703 -1.9496  0.0862
 7170SOL    HW233147   2.998   3.767  11.866  1.1439  0.4272  0.0588
 7171SOL     OW33148   0.606   2.312  12.354  0.6329  0.4829  0.3809
 7171SOL    HW133149   0.700   2.323  12.340  0.5613 -0.7148 -1.0612
 7171SOL    HW233150   0.609   2.237  12.414 -3.0772  0.0432  0.0590
 7172SOL     OW33151   1.994   2.481   5.992  0.8012 -0.8895 -1.1235
 7172SOL    HW133152   1.908   2.440   5.987  0.4540 -0.6849  2.9627
 7172SOL    HW233153   1.969   2.524   6.074  1.5292  0.3152 -1.5297
 7173SOL     OW33154   4.256   3.485   5.179  0.3213  0.4829 -0.0840
 7173SOL    HW133155   4.169   3.448   5.192  1.1741 -0.8605  1.6381
 7173SOL    HW233156   4.238   3.576   5.205  0.1687  0.4640 -0.1179
 7174SOL     OW33157   3.740   0.567   5.514  0.1088 -0.4594  0.4072
 7174SOL    HW133158   3.760   0.645   5.566  0.4597  1.9521 -3.3252
 7174SOL    HW233159   3.770   0.584   5.425  2.3756  0.1687  1.3075
 7175SOL     OW33160   1.703   0.535   4.085 -0.7724 -0.0178  0.2088
 7175SOL    HW133161   1.628   0.593   4.089 -0.2412  0.4817  2.6962
 7175SOL    HW233162   1.664   0.449   4.073  0.5162 -0.5208 -0.4396
 7176SOL     OW33163   2.146   1.091   5.730  0.3657  0.3079 -0.4667
 7176SOL    HW133164   2.239   1.078   5.712  0.8351  1.5952  1.0942
 7176SOL    HW233165   2.096   1.028   5.678  0.9989  0.4771 -1.2765
 7177SOL     OW33166   0.014   0.941   1.668  0.0816  0.1053 -0.3533
 7177SOL    HW133167   4.666   0.911   1.690  0.0410 -0.9960 -2.0867
 7177SOL    HW233168   0.068   0.871   1.704 -2.3454 -2.2860 -1.4180
 7178SOL     OW33169   3.651   1.336   4.303  0.0821  0.4064  0.6741
 7178SOL    HW133170   3.653   1.410   4.363 -1.7999  0.1046  1.1274
 7178SOL    HW233171   3.717   1.282   4.345 -1.5032 -2.4880 -0.4590
 7179SOL     OW33172   0.321   4.104   1.081  0.0533  0.7749 -0.0483
 7179SOL    HW133173   0.396   4.049   1.056  0.2160  0.5255  0.9726
 7179SOL    HW233174   0.348   4.190   1.048 -0.8946  1.6520  1.4636
 7180SOL     OW33175   4.527   1.289   6.788  0.0384 -0.2803 -0.2675
 7180SOL    HW133176   4.571   1.368   6.820  0.2024 -0.4468 -0.0835
 7180SOL    HW233177   4.600   1.249   6.741 -1.2118 -0.8770 -1.7063
 7181SOL     OW33178   1.481   2.075   9.761  0.4193  0.2492  0.0861
 7181SOL    HW133179   1.553   2.021   9.728  1.6121  1.6932  0.2934
 7181SOL    HW233180   1.424   2.013   9.807 -0.7483  1.4662  0.2907
 7182SOL     OW33181   2.298   1.528   7.840 -0.5907  0.5863 -0.0632
 7182SOL    HW133182   2.325   1.544   7.749 -0.4214 -0.3872 -0.1821
 7182SOL    HW233183   2.366   1.465   7.864 -0.3251  0.4907 -1.0477
 7183SOL     OW33184   3.868   3.489   2.301 -0.0617  0.4404 -0.1124
 7183SOL    HW133185   3.813   3.482   2.379  0.5381 -0.0850  0.2641
 7183SOL    HW233186   3.946   3.445   2.334  1.1476  1.5940 -1.4593
 7184SOL     OW33187   4.664   0.940   6.859  0.4068  0.1331 -0.3574
 7184SOL    HW133188   4.676   1.016   6.802 -1.1390 -1.3497 -2.6396
 7184SOL    HW233189   4.683   0.870   6.796 -0.3232 -0.4932  0.1198
 7185SOL     OW33190   1.943   2.471   3.257  0.2067  0.1063  0.6165
 7185SOL    HW133191   1.890   2.393   3.244 -0.0059  0.5125 -0.9242
 7185SOL    HW233192   1.904   2.503   3.338  0.3484 -0.6928  0.9936
 7186SOL     OW33193   0.067   2.852   3.668  0.4824  0.3772  0.0045
 7186SOL    HW133194   0.071   2.801   3.749 -1.7527 -1.2480 -0.9198
 7186SOL    HW233195   0.154   2.851   3.628  0.2524  1.5542 -0.5136
 7187SOL     OW33196   3.644   2.398   5.891 -0.3472  0.6572 -0.1731
 7187SOL    HW133197   3.549   2.393   5.881 -0.1070 -0.0882 -1.9772
 7187SOL    HW233198   3.646   2.384   5.986  1.2824  0.9723 -0.1588
 7188SOL     OW33199   3.467   1.660   7.072 -0.7733  0.6127  0.2073
 7188SOL    HW133200   3.448   1.750   7.099 -1.7676  0.0376  1.3708
 7188SOL    HW233201   3.557   1.679   7.043 -0.4683 -1.3709 -0.1314
 7189SOL     OW33202   1.912   1.386   0.105 -0.2065  0.2532  0.3082
 7189SOL    HW133203   1.829   1.350   0.137  0.3331 -1.1013  0.2136
 7189SOL    HW233204   1.956   1.392   0.190  0.2831  1.3968 -0.0373
 7190SOL     OW33205   4.638   4.249   3.431 -0.3124 -0.0718 -0.4375
 7190SOL    HW133206   4.593   4.242   3.515  3.3179 -0.5938  1.4675
 7190SOL    HW233207   4.656   4.157   3.413 -0.1900 -0.3364  1.0137
 7191SOL     OW33208   0.075   4.542   7.162  0.3916  0.4461  0.2702
 7191SOL    HW133209   0.147   4.509   7.215  0.0486 -1.1114 -0.2305
 7191SOL    HW233210   0.121   4.543   7.077 -3.0914 -1.9529 -1.5987
 7192SOL     OW33211   0.416   0.873   9.585  0.0018 -0.2599 -0.1958
 7192SOL    HW133212   0.324   0.900   9.589 -0.3321 -1.3288 -0.5756
 7192SOL    HW233213   0.410   0.788   9.540 -0.8419 -1.0503  1.4241
 7193SOL     OW33214   4.108   1.597   6.999  0.3701  0.5421 -0.5238
 7193SOL    HW133215   4.075   1.553   7.077 -1.0802 -0.0597 -1.4613
 7193SOL    HW233216   4.027   1.632   6.963  0.2453  0.1749 -0.6067
 7194SOL     OW33217   2.866   3.162   4.570 -0.7470  0.6503  0.4109
 7194SOL    HW133218   2.922   3.087   4.551 -0.2829  1.6311 -2.1016
 7194SOL    HW233219   2.930   3.207   4.625 -0.0265  1.0462 -0.7593
 7195SOL     OW33220   3.112   2.463   4.104  0.4466 -0.1338  0.4322
 7195SOL    HW133221   3.068   2.522   4.043 -1.0983 -1.1544  0.5830
 7195SOL    HW233222   3.068   2.379   4.108 -0.4010  0.1995 -2.1706
 7196SOL     OW33223   1.689   0.290  12.311 -0.8838  0.2041 -0.5126
 7196SOL    HW133224   1.636   0.280  12.232  1.6296 -2.8999 -1.8198
 7196SOL    HW233225   1.770   0.314  12.266  1.0557 -1.5446  2.0249
 7197SOL     OW33226   2.978   3.365   5.427 -0.1397  0.9451  0.1090
 7197SOL    HW133227   2.949   3.293   5.370 -0.1259  3.3222 -2.9551
 7197SOL    HW233228   2.907   3.423   5.400  0.1076  2.0136  1.7547
 7198SOL     OW33229   0.292   1.999   2.339  0.0244 -0.4583  0.4335
 7198SOL    HW133230   0.311   2.090   2.359 -1.3380 -0.0828 -0.0323
 7198SOL    HW233231   0.199   2.019   2.347  0.0954 -0.7751  2.0167
 7199SOL     OW33232   0.503   4.493   3.907 -0.3715  0.4082 -0.7006
 7199SOL    HW133233   0.498   4.441   3.827  0.7747  0.4298 -0.7897
 7199SOL    HW233234   0.595   4.482   3.930 -0.2220 -0.1176 -1.5413
 7200SOL     OW33235   2.650   3.004   3.253 -0.4008  0.0995  0.3591
 7200SOL    HW133236   2.603   2.945   3.312 -1.1675  1.6394  1.2939
 7200SOL    HW233237   2.629   2.958   3.172  0.0513  0.4381  0.0519
 7201SOL     OW33238   0.266   2.003   3.932 -0.2575 -0.1023  0.4083
 7201SOL    HW133239   0.174   1.999   3.906 -0.3170  4.3091 -0.0882
 7201SOL    HW233240   0.257   1.976   4.023 -0.9836 -0.0711  0.3422
 7202SOL     OW33241   1.448   1.078   1.889 -0.2411 -0.5332  0.2229
 7202SOL    HW133242   1.413   1.086   1.800  0.4901  1.7080  0.1222
 7202SOL    HW233243   1.375   1.038   1.936 -0.1395 -1.5712 -0.5071
 7203SOL     OW33244   0.752   0.463   1.802  0.0041  0.6886 -0.1976
 7203SOL    HW133245   0.837   0.426   1.827 -0.5459  0.3939  1.2244
 7203SOL    HW233246   0.728   0.511   1.882  0.3594  3.0685 -1.5049
 7204SOL     OW33247   2.132   3.434   5.342 -0.3598 -0.2272  0.1055
 7204SOL    HW133248   2.068   3.505   5.345 -0.8658 -0.7095  0.6749
 7204SOL    HW233249   2.133   3.413   5.435 -1.4612 -0.3922  0.0743
 7205SOL     OW33250   0.563   1.627   6.585  0.1306  0.2447 -0.2486
 7205SOL    HW133251   0.617   1.578   6.647 -0.0253  0.3802 -0.0046
 7205SOL    HW233252   0.474   1.614   6.619  0.2560  0.3174  0.1010
 7206SOL     OW33253   3.223   3.174   0.537  0.4453  0.6489  0.0020
 7206SOL    HW133254   3.246   3.262   0.509  0.0733  0.3800 -1.1574
 7206SOL    HW233255   3.173   3.143   0.461  0.0881 -2.3405  1.4723
 7207SOL     OW33256   0.991   2.459   8.642  0.1646  0.3223  0.3334
 7207SOL    HW133257   0.999   2.439   8.735  1.9206  0.1119  0.1436
 7207SOL    HW233258   0.930   2.533   8.647 -0.9321 -0.6717  1.5160
 7208SOL     OW33259   0.430   0.169   3.155  0.5687  0.5133 -0.0254
 7208SOL    HW133260   0.490   0.244   3.153  1.0387  0.2056  2.1205
 7208SOL    HW233261   0.375   0.187   3.232  0.0521 -1.7793  0.1230
 7209SOL     OW33262   4.333   4.031   6.974  0.2266 -0.5855 -0.2745
 7209SOL    HW133263   4.320   3.961   6.911 -1.6634 -1.2019  0.7954
 7209SOL    HW233264   4.371   4.097   6.917  0.7433  0.0688  0.8226
 7210SOL     OW33265   3.969   1.590   4.905 -0.3417 -0.0570  0.0188
 7210SOL    HW133266   4.029   1.653   4.864  1.8597 -2.0724  0.1962
 7210SOL    HW233267   3.945   1.551   4.821  1.8402  0.9884 -1.0775
 7211SOL     OW33268   0.161   2.262   5.189  0.1405 -0.4445 -0.3360
 7211SOL    HW133269   0.091   2.212   5.147 -0.6312  1.4713 -1.3087
 7211SOL    HW233270   0.223   2.200   5.229 -1.1513 -1.3568  0.2813
 7212SOL     OW33271   0.678   2.305   6.124  0.4301 -0.4944  0.0778
 7212SOL    HW133272   0.645   2.375   6.180  1.9165 -0.5239  0.9993
 7212SOL    HW233273   0.764   2.279   6.159 -0.0022 -2.6087 -0.3969
 7213SOL     OW33274   3.153   4.435  15.280  0.0867 -0.7512 -0.1088
 7213SOL    HW133275   3.210   4.494  15.232  1.5408 -1.8645  0.2721
 7213SOL    HW233276   3.212   4.367  15.312  0.7452  0.5478  1.4588
 7214SOL     OW33277   0.510   3.602   2.418 -0.5033 -0.1213  0.6747
 7214SOL    HW133278   0.532   3.652   2.497 -0.1000  0.3518  0.2595
 7214SOL    HW233279   0.425   3.562   2.433 -1.8540  2.8966  1.0362
 7215SOL     OW33280   3.402   3.191   6.343 -0.5311  0.6016 -0.2209
 7215SOL    HW133281   3.394   3.202   6.438 -0.5556  1.4265 -0.3184
 7215SOL    HW233282   3.321   3.143   6.327 -0.3783  0.3206 -0.1542
 7216SOL     OW33283   3.202   2.392   2.945 -0.3888  0.2752  0.3965
 7216SOL    HW133284   3.226   2.330   3.014 -1.7506  0.5040  1.0784
 7216SOL    HW233285   3.115   2.412   2.978 -1.0274 -2.0656  0.1282
 7217SOL     OW33286   4.490   3.573   2.155  0.1928  0.4635 -0.6518
 7217SOL    HW133287   4.489   3.618   2.071  1.3791  1.4384 -0.1382
 7217SOL    HW233288   4.542   3.633   2.209 -0.8003  1.5283 -0.8962
 7218SOL     OW33289   2.337   3.652   1.985  0.4342  0.1525 -0.5904
 7218SOL    HW133290   2.284   3.699   2.050  2.0975  1.3670 -0.1196
 7218SOL    HW233291   2.276   3.587   1.950  1.5057 -0.3264 -1.5631
 7219SOL     OW33292   2.881   1.678  11.842  0.0281 -0.2085  0.0899
 7219SOL    HW133293   2.864   1.755  11.788  0.1309 -1.2870 -1.4610
 7219SOL    HW233294   2.802   1.626  11.826  0.8464 -1.2455 -0.6190
 7220SOL     OW33295   2.374   2.279  11.736  0.1909 -0.0273  0.1098
 7220SOL    HW133296   2.319   2.277  11.658  0.1815  0.3252  0.1064
 7220SOL    HW233297   2.310   2.320  11.794 -1.0744 -1.6274 -0.1443
 7221SOL     OW33298   0.094   2.210  10.857 -0.4193 -0.2580  0.2748
 7221SOL    HW133299   0.016   2.262  10.835  0.0748 -0.1903 -1.2712
 7221SOL    HW233300   0.136   2.261  10.927  0.1187  0.2158 -0.3981
 7222SOL     OW33301   3.505   1.877   4.115 -0.2665 -0.0333  0.5944
 7222SOL    HW133302   3.476   1.967   4.124  1.4708  0.5272  0.6546
 7222SOL    HW233303   3.452   1.839   4.045 -0.6216 -1.2277  1.5006
 7223SOL     OW33304   0.922   0.092  14.513 -0.4044 -0.0675 -0.1252
 7223SOL    HW133305   0.969   0.137  14.584 -0.4364  1.5394 -1.1197
 7223SOL    HW233306   0.994   0.041  14.476 -0.0476  0.1718  0.2388
 7224SOL     OW33307   1.401   0.014   5.738 -0.0334  0.2121 -0.7809
 7224SOL    HW133308   1.308   0.035   5.745 -0.3854 -1.0920 -1.4627
 7224SOL    HW233309   1.403   4.687   5.807  0.2484  1.2953  0.2516
 7225SOL     OW33310   4.237   0.648   2.924  0.4535  0.3777  0.2734
 7225SOL    HW133311   4.227   0.730   2.876  0.6239  0.0604 -0.3075
 7225SOL    HW233312   4.196   0.664   3.010 -0.1508  1.9568 -0.3113
 7226SOL     OW33313   1.412   3.664   1.429  0.0333  0.0132 -0.0950
 7226SOL    HW133314   1.457   3.657   1.344  0.9597  1.9681  0.2448
 7226SOL    HW233315   1.330   3.690   1.386 -1.4153 -2.4298  1.1839
 7227SOL     OW33316   0.228   3.282   3.657  0.3949  0.0702  0.1768
 7227SOL    HW133317   0.175   3.235   3.592  0.3174 -0.7023  0.7967
 7227SOL    HW233318   0.289   3.213   3.683  2.0958  1.8802  1.0086
 7228SOL     OW33319   3.594   2.973  13.152 -0.1909 -0.3369  0.1946
 7228SOL    HW133320   3.537   3.045  13.182  0.2513  1.5598 -3.5162
 7228SOL    HW233321   3.669   2.985  13.210 -1.0436 -0.5619  1.3360
 7229SOL     OW33322   3.189   4.329   4.847 -0.7887 -0.3565 -0.0910
 7229SOL    HW133323   3.136   4.396   4.805  1.4502  2.4128  1.5520
 7229SOL    HW233324   3.242   4.388   4.900  2.6360 -4.3916  1.0490
 7230SOL     OW33325   2.047   2.899   0.258 -0.3188  0.0221 -0.2241
 7230SOL    HW133326   2.092   2.936   0.335  1.0884 -1.7250 -0.2106
 7230SOL    HW233327   1.999   2.831   0.303 -0.5975  1.7827  2.1269
 7231SOL     OW33328   1.176   0.111  12.850 -0.3753 -0.2325  0.2814
 7231SOL    HW133329   1.238   0.178  12.821 -1.7081  1.0786  0.4516
 7231SOL    HW233330   1.228   0.041  12.810  0.8721 -1.1924  3.6519
 7232SOL     OW33331   2.249   1.009   2.882  0.6531 -0.3313 -0.7008
 7232SOL    HW133332   2.190   1.083   2.867  1.2734  0.1666 -0.6690
 7232SOL    HW233333   2.306   1.018   2.805  0.2231  0.7074 -0.8944
 7233SOL     OW33334   2.617   1.980  13.141 -0.0799  0.1665  0.5333
 7233SOL    HW133335   2.551   2.027  13.091  0.5468 -0.2093 -0.6442
 7233SOL    HW233336   2.622   1.896  13.094 -1.6098  0.0758  0.5546
 7234SOL     OW33337   1.675   1.477   6.915  0.6696 -0.1493  0.7436
 7234SOL    HW133338   1.675   1.496   7.008  2.0837  0.9436  0.5117
 7234SOL    HW233339   1.647   1.386   6.925 -0.4413  0.1928  0.8020
 7235SOL     OW33340   3.185   4.544  17.151 -0.5557 -0.0822 -0.6654
 7235SOL    HW133341   3.249   4.608  17.121 -0.4614  1.0286  1.8395
 7235SOL    HW233342   3.121   4.557  17.082 -1.6063 -0.5364  0.2079
 7236SOL     OW33343   1.640   0.431   7.030  0.4950 -0.6126  0.3688
 7236SOL    HW133344   1.555   0.460   7.063 -0.9368 -2.0477 -1.9890
 7236SOL    HW233345   1.658   0.348   7.074  3.1053 -0.5448 -0.6037
 7237SOL     OW33346   0.684   2.684   5.966 -0.5141  0.0461 -0.8199
 7237SOL    HW133347   0.679   2.774   5.934 -2.4338  0.6537  1.1768
 7237SOL    HW233348   0.603   2.668   6.014 -0.3499 -0.3922 -0.6913
 7238SOL     OW33349   4.500   1.132  12.598  0.2605  0.4303  0.0828
 7238SOL    HW133350   4.544   1.217  12.599  2.1069 -0.5316  1.5916
 7238SOL    HW233351   4.496   1.101  12.689 -1.6329 -1.0945 -0.5276
 7239SOL     OW33352   4.648   2.429   2.303  0.2636  0.1457  0.1854
 7239SOL    HW133353   4.708   2.385   2.363 -0.2349  0.3390  0.8191
 7239SOL    HW233354   4.622   2.357   2.245  0.6432 -1.0780  1.5487
 7240SOL     OW33355   1.894   0.754   4.117  0.1263 -0.2477  0.0614
 7240SOL    HW133356   1.827   0.687   4.130 -0.3546 -0.3905 -3.2632
 7240SOL    HW233357   1.841   0.832   4.135  1.0152  0.6898 -1.3956
 7241SOL     OW33358   2.532   3.796   4.666  0.0049 -0.6593  0.1140
 7241SOL    HW133359   2.486   3.714   4.651 -0.0877  0.0307 -3.3395
 7241SOL    HW233360   2.558   3.784   4.757 -1.5788  1.4328  0.8490
 7242SOL     OW33361   4.093   4.295   8.423 -0.7058  0.4579  0.0001
 7242SOL    HW133362   4.057   4.255   8.344 -2.0527  0.0803  0.8169
 7242SOL    HW233363   4.143   4.368   8.386 -0.2896 -0.0691 -0.4880
 7243SOL     OW33364   3.393   3.125   8.919 -0.1546 -0.6989 -0.0515
 7243SOL    HW133365   3.385   3.214   8.953  2.1200  0.2732 -2.0025
 7243SOL    HW233366   3.484   3.105   8.940  0.3001  2.8212  1.2302
 7244SOL     OW33367   4.638   1.009  12.271 -0.0268  0.8182 -0.1340
 7244SOL    HW133368   4.658   0.922  12.303  0.1302  1.3974  1.3349
 7244SOL    HW233369   4.712   1.058  12.306  0.6444  0.6796 -1.3664
 7245SOL     OW33370   0.078   4.296  15.193 -0.6831  0.6962  0.6883
 7245SOL    HW133371   0.128   4.358  15.140 -0.1255 -3.0828 -3.2691
 7245SOL    HW233372   4.735   4.344  15.198 -0.5613  0.9930 -0.1619
 7246SOL     OW33373   2.859   2.132   3.862  0.4150 -1.0911 -0.6474
 7246SOL    HW133374   2.938   2.081   3.842  1.7939  0.7638  0.0705
 7246SOL    HW233375   2.829   2.149   3.773 -1.6974  2.7660  0.8150
 7247SOL     OW33376   3.921   0.100  15.825  0.3118  0.1821 -0.1045
 7247SOL    HW133377   3.912   0.005  15.824 -1.7983  0.3803  0.6349
 7247SOL    HW233378   3.967   0.113  15.741 -0.0397 -1.2968 -0.5299
 7248SOL     OW33379   3.997   2.328  15.719  0.0002  0.2157  0.3767
 7248SOL    HW133380   3.994   2.303  15.811 -1.0386 -0.5165  0.1423
 7248SOL    HW233381   3.944   2.256  15.687  0.9747 -0.6171  0.6474
 7249SOL     OW33382   4.298   3.072   9.259 -0.1985 -0.2957 -0.2997
 7249SOL    HW133383   4.206   3.050   9.269 -0.1635 -0.5025 -0.4463
 7249SOL    HW233384   4.295   3.137   9.330 -2.1987  1.2651 -1.8243
 7250SOL     OW33385   0.934   1.741   6.319  0.2194 -0.1927 -0.3337
 7250SOL    HW133386   0.933   1.652   6.282 -0.1419 -1.4137  2.6357
 7250SOL    HW233387   0.846   1.750   6.355  0.1038  0.1676 -0.6997
 7251SOL     OW33388   0.911   2.915   8.662 -0.0401 -0.6563 -0.3013
 7251SOL    HW133389   0.886   2.981   8.728 -0.1005  0.8873 -1.8597
 7251SOL    HW233390   1.006   2.925   8.668 -0.0609  0.2960 -1.6447
 7252SOL     OW33391   1.397   2.003  14.209 -0.4966 -0.2365  0.1969
 7252SOL    HW133392   1.323   1.969  14.261 -0.7007 -0.0293  0.0429
 7252SOL    HW233393   1.441   2.060  14.272 -0.8194  0.4368 -0.1918
 7253SOL     OW33394   2.363   0.173   7.858  0.0491 -0.5210 -0.2141
 7253SOL    HW133395   2.309   0.215   7.925  0.7050  0.8172 -0.5190
 7253SOL    HW233396   2.366   0.078   7.869  1.8765 -0.4078  0.3250
 7254SOL     OW33397   1.197   4.572   6.689 -0.2551 -0.3010  0.2633
 7254SOL    HW133398   1.166   4.644   6.744  1.4810  1.3708 -0.8880
 7254SOL    HW233399   1.209   4.506   6.757 -0.1831  0.1446  0.6820
 7255SOL     OW33400   0.266   1.431   5.483  0.6214 -0.2436 -0.1358
 7255SOL    HW133401   0.231   1.515   5.514  2.9858  1.1989 -1.3958
 7255SOL    HW233402   0.359   1.451   5.472  0.4109  0.0920 -1.2933
 7256SOL     OW33403   3.192   1.983   1.575 -0.2384 -0.3138  0.2698
 7256SOL    HW133404   3.128   1.969   1.645 -0.0161 -0.1555  0.5038
 7256SOL    HW233405   3.226   2.070   1.594 -0.4933 -0.1726  0.0811
 7257SOL     OW33406   3.496   1.495   2.109 -0.3694  0.2356  0.1483
 7257SOL    HW133407   3.520   1.406   2.135  0.2099  0.5517  0.6830
 7257SOL    HW233408   3.577   1.537   2.082 -0.1512 -1.3727 -1.7762
 7258SOL     OW33409   2.683   1.039   8.011  0.1194 -0.3423  0.1908
 7258SOL    HW133410   2.720   1.072   7.929  0.5677  0.6715  0.8001
 7258SOL    HW233411   2.698   0.946   7.995 -1.2289 -0.4880 -0.2419
 7259SOL     OW33412   3.363   3.665   6.663  0.6530  0.1646  0.2575
 7259SOL    HW133413   3.304   3.710   6.723 -0.4218  0.1581 -0.8147
 7259SOL    HW233414   3.306   3.619   6.601  1.3717  1.2925 -1.2354
 7260SOL     OW33415   2.358   4.638   4.054  0.3555  0.8111  0.3217
 7260SOL    HW133416   2.268   4.625   4.026  0.3982 -0.9149  0.9721
 7260SOL    HW233417   2.408   4.578   3.998 -1.5627 -1.4857  1.0883
 7261SOL     OW33418   3.472   3.953   6.117 -0.0768  0.2517  0.2757
 7261SOL    HW133419   3.500   4.031   6.165  1.1724 -0.3078  0.4529
 7261SOL    HW233420   3.545   3.892   6.127  0.4693  0.5826 -1.6632
 7262SOL     OW33421   2.863   1.927   9.095  0.0035  0.1176 -0.0088
 7262SOL    HW133422   2.781   1.970   9.116 -2.4833 -3.7853 -1.7941
 7262SOL    HW233423   2.872   1.992   9.025  1.2407 -0.5081 -0.4407
 7263SOL     OW33424   4.399   4.428   0.336 -0.2839 -0.0207 -0.3770
 7263SOL    HW133425   4.491   4.453   0.342 -0.8092  2.3853 -2.4083
 7263SOL    HW233426   4.408   4.334   0.323 -1.7617 -0.8240  4.5694
 7264SOL     OW33427   3.755   3.216  13.282 -0.4299  0.0871  0.2129
 7264SOL    HW133428   3.670   3.189  13.318 -0.8598 -2.1819 -2.4962
 7264SOL    HW233429   3.732   3.250  13.195  0.5762  0.6678  0.1792
 7265SOL     OW33430   0.186   2.729   3.014 -0.3912 -0.4151  0.2919
 7265SOL    HW133431   0.090   2.725   3.011 -0.5494  2.2175  1.4642
 7265SOL    HW233432   0.206   2.813   2.973  0.0582 -0.3713  0.5983
 7266SOL     OW33433   1.107   2.049   8.719 -0.8371  0.3243 -0.1525
 7266SOL    HW133434   1.033   2.074   8.774 -0.7929 -1.7229  0.8295
 7266SOL    HW233435   1.093   2.099   8.639  0.7605  2.1446  0.6957
 7267SOL     OW33436   1.279   4.231   6.718  0.1511 -0.0587  0.1662
 7267SOL    HW133437   1.355   4.280   6.688 -0.6810  0.9489 -0.2946
 7267SOL    HW233438   1.322   4.176   6.783 -0.1109 -0.8611 -0.3387
 7268SOL     OW33439   4.377   1.430   4.049 -0.2472  0.2629 -0.0400
 7268SOL    HW133440   4.330   1.347   4.050  0.4071 -0.1077 -0.2197
 7268SOL    HW233441   4.467   1.405   4.027 -1.0202 -0.0377 -2.8433
 7269SOL     OW33442   3.836   3.204  14.449  0.0713  0.6081  0.2910
 7269SOL    HW133443   3.830   3.211  14.353 -1.5109 -0.7105  0.3093
 7269SOL    HW233444   3.803   3.287  14.483 -2.5073 -0.8077  1.1840
 7270SOL     OW33445   2.195   1.330  11.755  0.2868 -0.2484 -0.3979
 7270SOL    HW133446   2.135   1.333  11.680  0.7998 -2.0328 -0.8762
 7270SOL    HW233447   2.153   1.387  11.820 -0.5401 -2.0137  0.6037
 7271SOL     OW33448   1.404   4.002   9.990 -0.0485 -0.6395 -0.4122
 7271SOL    HW133449   1.393   3.907   9.982 -3.5594 -0.3807  1.1025
 7271SOL    HW233450   1.361   4.024  10.073  0.2836 -0.6546 -0.2378
 7272SOL     OW33451   0.293   1.422   4.257  0.6434 -0.1820 -0.0913
 7272SOL    HW133452   0.384   1.442   4.279  0.2018 -0.8038  2.2244
 7272SOL    HW233453   0.295   1.422   4.161 -0.1090 -1.6662 -0.1116
 7273SOL     OW33454   4.191   3.756   2.302  0.3268  0.0787 -0.0054
 7273SOL    HW133455   4.275   3.739   2.345 -0.7104 -0.6018  1.7794
 7273SOL    HW233456   4.163   3.839   2.341 -1.9031 -0.6821  0.0419
 7274SOL     OW33457   0.454   0.134  12.555  0.4422 -0.5214 -0.4472
 7274SOL    HW133458   0.383   0.071  12.568 -0.4749  0.2806 -1.5591
 7274SOL    HW233459   0.527   0.084  12.590 -0.7639 -1.6424  0.5066
 7275SOL     OW33460   0.398   1.607   3.336  0.1338 -0.3453  0.2578
 7275SOL    HW133461   0.308   1.578   3.344 -0.2871  0.6615 -0.7697
 7275SOL    HW233462   0.377   1.698   3.358 -0.7836 -0.9233  1.7649
 7276SOL     OW33463   2.065   2.480   7.684  0.0571  0.2078  0.3939
 7276SOL    HW133464   2.132   2.424   7.644 -0.7498 -1.7530  1.7861
 7276SOL    HW233465   2.001   2.486   7.613  0.7313  0.0364 -0.2406
 7277SOL     OW33466   2.791   2.906   4.397 -0.7150 -0.0288  0.2959
 7277SOL    HW133467   2.809   2.954   4.478 -1.5940  0.9078 -0.0728
 7277SOL    HW233468   2.760   2.824   4.437  1.9139 -1.5061 -0.7000
 7278SOL     OW33469   0.285   4.715  12.961 -0.1372 -0.1408 -0.4674
 7278SOL    HW133470   0.248   4.688  12.877  1.9751  1.0986 -1.7958
 7278SOL    HW233471   0.206   4.722  13.015  0.6232 -0.5424  0.6850
 7279SOL     OW33472   1.869   1.562   9.479 -0.0750 -0.2163 -0.7879
 7279SOL    HW133473   1.793   1.571   9.537  0.2574  1.4884 -0.6393
 7279SOL    HW233474   1.841   1.618   9.406 -1.5419  1.0156  0.7171
 7280SOL     OW33475   2.625   1.831   4.742  0.2280 -0.0731  0.1366
 7280SOL    HW133476   2.689   1.870   4.682 -1.1438  2.0488  0.0169
 7280SOL    HW233477   2.555   1.827   4.677  0.5431 -2.1052 -0.0679
 7281SOL     OW33478   2.462   3.824   2.225  0.2140 -0.4542  0.5538
 7281SOL    HW133479   2.438   3.733   2.243  0.9859 -0.5480  1.0855
 7281SOL    HW233480   2.524   3.846   2.295 -0.3819 -2.1827  1.5971
 7282SOL     OW33481   0.438   2.621   2.328 -0.5917  0.2337 -0.1938
 7282SOL    HW133482   0.425   2.559   2.399 -2.5094 -1.3982 -1.9620
 7282SOL    HW233483   0.465   2.561   2.259 -1.1907 -0.7760  0.4651
 7283SOL     OW33484   1.909   3.941   6.277 -0.3706 -0.7540 -0.2665
 7283SOL    HW133485   1.908   4.033   6.304  0.9156 -0.9397  0.3927
 7283SOL    HW233486   1.859   3.932   6.196  1.6775 -0.9981 -1.5129
 7284SOL     OW33487   4.568   2.519  14.891 -0.5775  0.0017 -0.4706
 7284SOL    HW133488   4.564   2.441  14.836 -0.2201 -0.7819  0.6097
 7284SOL    HW233489   4.543   2.588  14.829 -2.5828  0.2967  0.6487
 7285SOL     OW33490   2.180   2.757   8.495 -0.1993 -0.4581  0.7131
 7285SOL    HW133491   2.215   2.671   8.471 -1.6859 -0.6812 -0.6177
 7285SOL    HW233492   2.186   2.751   8.591 -0.6155 -1.2526  0.6889
 7286SOL     OW33493   0.913   1.271   2.507 -0.8459  0.5785 -0.1287
 7286SOL    HW133494   0.924   1.279   2.412 -1.0003  2.4840 -0.0014
 7286SOL    HW233495   0.824   1.239   2.519 -0.8370  0.9633  0.9656
 7287SOL     OW33496   1.191   1.438   2.517  0.0112  0.4173 -0.0168
 7287SOL    HW133497   1.172   1.377   2.589  0.8150  1.1180  0.7899
 7287SOL    HW233498   1.196   1.385   2.437  0.2153 -3.5494  2.5931
 7288SOL     OW33499   4.406   2.367   3.718  1.0275  0.0567 -0.1277
 7288SOL    HW133500   4.423   2.448   3.765  0.1917 -0.2456  0.7192
 7288SOL    HW233501   4.492   2.350   3.680  0.5616 -0.9096 -0.7569
 7289SOL     OW33502   4.427   4.168   5.254  0.3567 -0.3865  0.0261
 7289SOL    HW133503   4.506   4.188   5.305  0.9073 -2.2203 -0.1063
 7289SOL    HW233504   4.445   4.077   5.231  0.5842 -0.9734  2.5969
 7290SOL     OW33505   3.611   3.073  17.102 -0.6826 -0.7110  0.0371
 7290SOL    HW133506   3.620   3.067  17.007 -0.8114 -0.1560 -0.0121
 7290SOL    HW233507   3.701   3.100  17.122 -1.8457  0.5850  3.4528
 7291SOL     OW33508   4.668   0.792  13.251 -0.7583 -0.1409 -0.5133
 7291SOL    HW133509   0.003   0.736  13.272  1.3059  3.3939  1.6456
 7291SOL    HW233510   4.597   0.734  13.279 -1.0543 -0.2853 -1.5643
 7292SOL     OW33511   0.944   2.579   1.614 -0.8373  0.3844 -0.2022
 7292SOL    HW133512   1.015   2.643   1.624  0.8989 -1.6298  0.4678
 7292SOL    HW233513   0.964   2.549   1.525 -0.2551 -0.1679  0.1076
 7293SOL     OW33514   1.335   3.287   9.476 -0.2108  0.0756 -0.1224
 7293SOL    HW133515   1.360   3.351   9.409 -0.9302  0.2633 -0.2131
 7293SOL    HW233516   1.263   3.331   9.523 -0.4474  0.7001 -1.0581
 7294SOL     OW33517   4.241   0.544   6.788  0.1045  0.4023 -0.0407
 7294SOL    HW133518   4.224   0.450   6.800  0.6364  0.3489  0.2614
 7294SOL    HW233519   4.210   0.572   6.702  1.0259  0.5159 -0.3290
 7295SOL     OW33520   1.016   1.462   1.025 -0.2829 -0.2886  0.5894
 7295SOL    HW133521   1.097   1.511   1.012 -1.7777  1.6815 -1.2935
 7295SOL    HW233522   0.974   1.526   1.083 -1.8135 -0.5739 -0.1805
 7296SOL     OW33523   2.416   0.870   8.533  0.1586 -0.4274  0.5912
 7296SOL    HW133524   2.475   0.914   8.471 -0.7380 -0.3224 -0.1809
 7296SOL    HW233525   2.382   0.943   8.584 -0.7372  1.1973 -2.3351
 7297SOL     OW33526   3.333   3.716   0.561  0.0922 -0.4596 -0.0806
 7297SOL    HW133527   3.426   3.708   0.540  0.1839 -0.8872  0.4897
 7297SOL    HW233528   3.335   3.766   0.643  0.2533  0.8444 -0.8826
 7298SOL     OW33529   4.689   3.508   3.552  0.1792 -0.6889 -0.3507
 7298SOL    HW133530   0.021   3.516   3.614  0.6257  2.0453 -1.2386
 7298SOL    HW233531   4.725   3.547   3.473  0.6809  0.0344  0.2369
 7299SOL     OW33532   3.266   1.478   9.003 -0.3060  0.6571 -0.1234
 7299SOL    HW133533   3.312   1.562   8.993  2.2009 -0.6309  0.7276
 7299SOL    HW233534   3.185   1.515   9.038 -1.2704 -0.4172 -1.2203
 7300SOL     OW33535   4.518   0.620   3.913 -0.0904  0.3848  0.3728
 7300SOL    HW133536   4.442   0.616   3.971 -0.1110  2.2158  0.4567
 7300SOL    HW233537   4.579   0.558   3.953 -1.7522 -1.7589 -0.4343
 7301SOL     OW33538   4.170   0.162  17.618  0.2344  0.3964 -0.2287
 7301SOL    HW133539   4.233   0.228  17.650 -0.5161  0.7801  0.4606
 7301SOL    HW233540   4.109   0.220  17.573 -0.8163 -1.7681 -1.5621
 7302SOL     OW33541   0.773   0.115   2.521  0.2600 -0.0113  0.3540
 7302SOL    HW133542   0.811   0.135   2.607 -2.2121 -0.7698  1.6255
 7302SOL    HW233543   0.724   0.195   2.504 -1.0561 -0.8579  0.2002
 7303SOL     OW33544   1.850   2.961   6.126 -0.3222  0.2366 -0.0048
 7303SOL    HW133545   1.930   2.909   6.118 -0.3932 -0.0473  1.1548
 7303SOL    HW233546   1.839   2.976   6.032  0.7600 -2.1174 -0.5165
 7304SOL     OW33547   0.824   0.240  13.707 -0.1976 -0.0343 -0.3574
 7304SOL    HW133548   0.873   0.312  13.667 -0.1961  0.0454 -0.2132
 7304SOL    HW233549   0.873   0.165  13.674 -0.7459 -0.7640  0.4914
 7305SOL     OW33550   1.536   3.450  13.191 -0.3273  0.2368 -0.0645
 7305SOL    HW133551   1.516   3.510  13.263  0.0187  0.6682 -0.3316
 7305SOL    HW233552   1.485   3.373  13.219 -0.9544  0.2825 -1.0476
 7306SOL     OW33553   0.318   0.517   9.250 -0.5484 -0.0096 -0.3498
 7306SOL    HW133554   0.292   0.466   9.173 -0.2972 -1.8115  0.7692
 7306SOL    HW233555   0.282   0.462   9.320  1.3166 -2.5911 -1.4282
 7307SOL     OW33556   3.633   3.159  10.413 -0.3421  0.2702  1.0118
 7307SOL    HW133557   3.623   3.254  10.419  1.3910  0.5069 -0.0136
 7307SOL    HW233558   3.702   3.136  10.475  0.9365  0.2359 -0.4317
 7308SOL     OW33559   4.335   4.374   2.258 -0.0872  0.1221  0.6874
 7308SOL    HW133560   4.316   4.465   2.280 -0.8902 -0.8528  3.9809
 7308SOL    HW233561   4.255   4.351   2.210  1.0564 -2.5926  0.1088
 7309SOL     OW33562   0.077   2.020   8.253  0.2906  0.2131 -0.4372
 7309SOL    HW133563   0.053   2.046   8.342 -0.3751 -1.5381 -0.0955
 7309SOL    HW233564   0.123   2.099   8.228  0.5648 -0.0903 -0.9044
 7310SOL     OW33565   0.532   4.348   5.345 -0.4554  0.4683  0.0135
 7310SOL    HW133566   0.558   4.285   5.278  0.8981  0.2556  0.7303
 7310SOL    HW233567   0.464   4.288   5.376  0.6593 -0.0504  1.4547
 7311SOL     OW33568   2.657   1.045   6.290  0.3605 -0.1015 -0.1624
 7311SOL    HW133569   2.599   1.055   6.214 -0.5576  0.5912  0.6291
 7311SOL    HW233570   2.675   1.139   6.301 -0.6611  0.0289  0.3482
 7312SOL     OW33571   3.271   3.326   2.211  0.0005 -0.1210 -0.2658
 7312SOL    HW133572   3.196   3.384   2.223 -0.8062 -1.6763  2.3979
 7312SOL    HW233573   3.340   3.387   2.238 -0.1084  0.6308 -1.6996
 7313SOL     OW33574   0.361   2.383   7.487  0.0119  0.9803  0.0081
 7313SOL    HW133575   0.431   2.426   7.438  0.0228  0.3730 -0.5125
 7313SOL    HW233576   0.299   2.454   7.502 -0.4222  0.6107 -0.0282
 7314SOL     OW33577   4.320   2.260   4.607  0.6517  0.8592 -0.1657
 7314SOL    HW133578   4.395   2.200   4.603  1.4819  1.6593  3.0193
 7314SOL    HW233579   4.340   2.300   4.522 -1.8276  1.7590 -0.3148
 7315SOL     OW33580   1.866   3.998   3.490 -0.3857 -0.1184 -0.5282
 7315SOL    HW133581   1.879   3.951   3.408  1.7453 -2.6544  1.2731
 7315SOL    HW233582   1.858   4.085   3.450 -1.2477  0.8756  1.7865
 7316SOL     OW33583   2.955   1.859   8.001  0.2363  0.6196 -0.6279
 7316SOL    HW133584   2.908   1.943   7.997  1.1196  1.1081 -0.6634
 7316SOL    HW233585   3.014   1.873   7.928  1.5423  0.0849  0.3239
 7317SOL     OW33586   1.432   0.903  16.204 -0.6946  0.4205 -0.5682
 7317SOL    HW133587   1.404   0.825  16.155  2.3930 -0.0957 -1.4572
 7317SOL    HW233588   1.517   0.874  16.237 -0.4397  1.3563 -0.3968
 7318SOL     OW33589   0.562   4.680   3.086  0.5747 -0.3381 -0.0039
 7318SOL    HW133590   0.526   0.021   3.123  0.7707  0.6918 -2.0848
 7318SOL    HW233591   0.651   4.703   3.063 -0.2711  3.2188  0.3366
 7319SOL     OW33592   0.136   1.530   3.320 -0.4671  0.1826 -0.1248
 7319SOL    HW133593   0.087   1.611   3.319 -1.6021 -0.5106 -0.1639
 7319SOL    HW233594   0.067   1.468   3.297 -0.2021  0.2856 -1.1831
 7320SOL     OW33595   3.381   0.532   8.982  0.3940  0.1253 -0.5371
 7320SOL    HW133596   3.290   0.505   8.980  0.0055  1.4342 -0.6236
 7320SOL    HW233597   3.398   0.532   9.076  1.0207  1.5386 -0.6427
 7321SOL     OW33598   1.713   1.658   5.590 -0.2951  0.0678 -0.6266
 7321SOL    HW133599   1.682   1.705   5.512 -0.0073 -0.0799 -0.8331
 7321SOL    HW233600   1.667   1.707   5.658 -0.9299 -0.5130 -0.6383
 7322SOL     OW33601   2.521   2.232   2.053  0.0763  0.1762 -0.4036
 7322SOL    HW133602   2.529   2.140   2.024 -0.0678  0.2252 -0.5969
 7322SOL    HW233603   2.442   2.261   2.009 -1.2071  0.8482  2.3790
 7323SOL     OW33604   3.765   4.020  14.784  0.1289  0.0158 -0.7743
 7323SOL    HW133605   3.774   4.084  14.714  2.3399  0.5476 -0.0011
 7323SOL    HW233606   3.838   4.048  14.838 -1.5641  1.1521  0.8928
 7324SOL     OW33607   2.708   2.235   6.383 -0.3889 -0.1509  0.0402
 7324SOL    HW133608   2.717   2.153   6.335 -0.8202 -0.5862  0.6979
 7324SOL    HW233609   2.756   2.211   6.462  1.2580 -0.7483 -1.1307
 7325SOL     OW33610   3.173   4.615   6.207 -0.0088 -0.3362 -0.4574
 7325SOL    HW133611   3.078   4.621   6.199  0.2385  1.5090 -2.0939
 7325SOL    HW233612   3.195   4.640   6.117  1.0574 -1.7582 -0.5857
 7326SOL     OW33613   1.054   1.849   7.366 -0.5675  0.3673  0.3520
 7326SOL    HW133614   0.967   1.827   7.399 -0.3924  0.0558  0.6064
 7326SOL    HW233615   1.095   1.763   7.356 -1.4002  0.1240 -1.0820
 7327SOL     OW33616   3.432   2.625   7.971  0.1345  0.6587 -0.2108
 7327SOL    HW133617   3.524   2.619   7.993  0.1659  0.4041 -0.4027
 7327SOL    HW233618   3.411   2.703   8.023 -2.4391 -1.0042  1.3128
 7328SOL     OW33619   1.643   1.229   7.250 -0.3539 -0.4143 -0.2836
 7328SOL    HW133620   1.611   1.318   7.240 -0.5607 -0.4923 -0.3239
 7328SOL    HW233621   1.559   1.183   7.237 -2.3008  1.9474  3.9393
 7329SOL     OW33622   0.977   4.236   5.543 -0.3107 -0.2088  0.1428
 7329SOL    HW133623   0.949   4.250   5.634  2.3783  0.0504  0.9323
 7329SOL    HW233624   1.067   4.203   5.543 -0.7465 -1.3769 -0.3028
 7330SOL     OW33625   0.536   0.580  13.701 -0.1576 -0.6503  0.8476
 7330SOL    HW133626   0.445   0.557  13.717 -0.1992 -0.0124  1.5689
 7330SOL    HW233627   0.569   0.513  13.642 -2.3437 -1.4792  0.5753
 7331SOL     OW33628   0.780   0.680   7.639  0.4141 -0.0531 -0.7455
 7331SOL    HW133629   0.728   0.678   7.559 -0.6412 -0.3289 -0.0503
 7331SOL    HW233630   0.807   0.771   7.631  0.0459  0.0642 -0.6545
 7332SOL     OW33631   2.449   2.418   4.042  0.5280 -0.0020  0.5561
 7332SOL    HW133632   2.401   2.475   4.101 -0.7517  0.9734 -1.4148
 7332SOL    HW233633   2.525   2.475   4.031  0.6072 -0.4115 -1.0703
 7333SOL     OW33634   3.493   1.536  16.272 -0.0465 -0.1385  0.1233
 7333SOL    HW133635   3.413   1.555  16.321 -0.9353 -0.3431 -1.2587
 7333SOL    HW233636   3.501   1.620  16.227  3.0837 -0.1602  0.5867
 7334SOL     OW33637   1.858   2.233   1.767 -0.0673 -0.0298 -0.4337
 7334SOL    HW133638   1.849   2.148   1.724 -2.3025  0.0824 -0.1808
 7334SOL    HW233639   1.894   2.198   1.849 -2.0732 -1.4643 -0.1492
 7335SOL     OW33640   4.171   3.762  12.637  0.1577  0.2906  0.1405
 7335SOL    HW133641   4.239   3.812  12.593 -1.6307  1.3558 -1.4298
 7335SOL    HW233642   4.137   3.707  12.565 -0.3177  1.0046 -0.1845
 7336SOL     OW33643   4.369   3.260   9.455  0.5608 -0.0354 -0.2481
 7336SOL    HW133644   4.456   3.297   9.470  0.6247 -1.1759  2.2486
 7336SOL    HW233645   4.326   3.336   9.416 -0.7737 -1.2010 -1.0573
 7337SOL     OW33646   3.594   1.833  12.455  0.0224 -0.0161 -0.0344
 7337SOL    HW133647   3.678   1.788  12.444 -0.2016 -0.2647 -0.7301
 7337SOL    HW233648   3.535   1.786  12.396  0.3512 -0.4765  0.0051
 7338SOL     OW33649   2.053   2.159   1.530  0.7397  0.0134 -0.0112
 7338SOL    HW133650   2.017   2.245   1.549  1.9784  0.6326 -0.4889
 7338SOL    HW233651   2.125   2.183   1.472 -0.2261  1.5937 -0.5333
 7339SOL     OW33652   2.250   4.290  17.502 -0.3611 -0.3501  0.9459
 7339SOL    HW133653   2.178   4.256  17.449 -0.1652  0.3853  0.2128
 7339SOL    HW233654   2.271   4.367  17.450 -3.1490  0.9261  1.7072
 7340SOL     OW33655   1.141   0.033   5.769  0.3386  0.2944  0.4464
 7340SOL    HW133656   1.102   0.120   5.761 -0.1166  0.1159  0.7021
 7340SOL    HW233657   1.062   4.719   5.771  0.1313  0.5261 -1.4609
 7341SOL     OW33658   0.319   3.551   3.502 -0.6795  0.0842  0.0311
 7341SOL    HW133659   0.273   3.517   3.579  0.5210  1.9335  1.5850
 7341SOL    HW233660   0.303   3.484   3.435 -0.0999 -0.1174  0.0936
 7342SOL     OW33661   0.297   2.776   1.181 -0.0582 -0.1732 -1.3163
 7342SOL    HW133662   0.220   2.748   1.230 -0.1334  0.5912 -0.9982
 7342SOL    HW233663   0.359   2.785   1.253 -0.5914 -0.6786 -0.7935
 7343SOL     OW33664   2.622   4.238   9.878  0.0818 -0.4428 -0.0223
 7343SOL    HW133665   2.590   4.242   9.968  1.2650 -0.0783  0.3922
 7343SOL    HW233666   2.545   4.200   9.836  0.0148 -0.0440 -0.2617
 7344SOL     OW33667   3.572   1.428  13.001 -0.4030  0.4766  0.0559
 7344SOL    HW133668   3.655   1.387  13.025  0.3585  0.5644 -2.4454
 7344SOL    HW233669   3.569   1.397  12.910  1.7330  0.5375 -0.0303
 7345SOL     OW33670   1.480   3.053  13.955 -0.7543 -0.2883 -0.2096
 7345SOL    HW133671   1.553   3.111  13.976 -0.8458  0.3085 -1.5037
 7345SOL    HW233672   1.464   3.017  14.042  2.2734 -1.5963 -0.2141
 7346SOL     OW33673   1.254   3.131  14.168 -0.0431  0.3172 -0.3737
 7346SOL    HW133674   1.237   3.075  14.092  0.5684 -0.2384 -0.0980
 7346SOL    HW233675   1.243   3.066  14.237 -0.0356  0.2709 -0.4160
 7347SOL     OW33676   0.275   0.046   2.140  0.1290 -0.0881  0.4377
 7347SOL    HW133677   0.242   0.012   2.223 -0.2014 -0.9181 -0.0433
 7347SOL    HW233678   0.310   0.132   2.166  3.9844 -0.9295 -2.0304
 7348SOL     OW33679   0.958   1.556   7.513 -0.0745 -0.1195  0.1215
 7348SOL    HW133680   0.886   1.609   7.547 -1.7959 -2.6019  0.4159
 7348SOL    HW233681   0.944   1.467   7.546  1.7031 -0.4766 -0.1146
 7349SOL     OW33682   3.099   0.856   7.084 -0.4361  0.5037  0.3760
 7349SOL    HW133683   3.043   0.785   7.054  1.4071  0.7008 -3.4361
 7349SOL    HW233684   3.147   0.883   7.006  1.0958 -0.2947  1.0411
 7350SOL     OW33685   2.384   1.824   3.575 -0.2439  0.0870  0.2278
 7350SOL    HW133686   2.379   1.789   3.486  1.6848  0.4365 -0.0193
 7350SOL    HW233687   2.476   1.852   3.576 -0.5864  1.2090  0.0706
 7351SOL     OW33688   4.697   1.212  13.892 -0.1437  0.2863  0.5510
 7351SOL    HW133689   0.012   1.171  13.959  0.1181  0.7694  0.6255
 7351SOL    HW233690   4.678   1.297  13.932  0.1264  1.7583 -2.4426
 7352SOL     OW33691   3.744   1.433  11.284  0.0663 -0.5278  0.3040
 7352SOL    HW133692   3.755   1.351  11.237 -2.3841 -0.9117  0.3802
 7352SOL    HW233693   3.808   1.495  11.250 -1.6922  0.1329 -1.8164
 7353SOL     OW33694   3.034   3.392   8.266  0.2061  0.1598 -0.0494
 7353SOL    HW133695   3.117   3.344   8.272 -0.1914 -0.4225  0.9650
 7353SOL    HW233696   3.016   3.401   8.360 -0.4391  1.2283 -0.2829
 7354SOL     OW33697   2.898   4.533   8.324 -0.2982  0.2365  0.0273
 7354SOL    HW133698   2.829   4.468   8.335  0.7412 -1.4908 -3.8006
 7354SOL    HW233699   2.883   4.574   8.239 -0.3498 -2.3076 -1.2115
 7355SOL     OW33700   1.732   3.579   2.564 -0.4687  0.0553  0.0334
 7355SOL    HW133701   1.804   3.522   2.537 -1.5314 -0.4652 -1.6755
 7355SOL    HW233702   1.773   3.662   2.541 -0.3315 -0.2614 -0.8632
 7356SOL     OW33703   3.286   1.356   5.729 -0.0351  0.1727 -0.2716
 7356SOL    HW133704   3.294   1.417   5.656  2.0282  0.7455  0.4394
 7356SOL    HW233705   3.344   1.389   5.798 -0.6305  1.3147 -0.3215
 7357SOL     OW33706   1.715   1.406  15.226 -0.2907  0.2147 -0.3188
 7357SOL    HW133707   1.725   1.326  15.277 -0.7321 -0.0600 -0.6624
 7357SOL    HW233708   1.726   1.476  15.290  1.7250  0.0922 -0.5538
 7358SOL     OW33709   3.023   2.750  15.661  0.0872 -0.0828 -0.0821
 7358SOL    HW133710   2.936   2.761  15.699  0.0389  1.4912 -0.6530
 7358SOL    HW233711   3.027   2.655  15.647 -0.6052 -0.3345  1.4835
 7359SOL     OW33712   2.663   4.034   3.055 -0.1205 -1.0999  0.3363
 7359SOL    HW133713   2.625   3.949   3.075 -0.6681 -1.0303 -0.3959
 7359SOL    HW233714   2.640   4.091   3.128 -1.5339 -1.1037 -0.1086
 7360SOL     OW33715   0.183   1.252   3.038  0.1233 -0.2023  0.5746
 7360SOL    HW133716   0.273   1.248   3.005  0.4635 -0.0179  1.4982
 7360SOL    HW233717   0.133   1.247   2.957  0.2677  0.3774  0.4488
 7361SOL     OW33718   3.254   4.178   3.288 -0.6623 -0.2521  0.1370
 7361SOL    HW133719   3.236   4.178   3.194  1.1187  0.4136 -0.2033
 7361SOL    HW233720   3.197   4.111   3.326  1.3622 -1.7539  0.5902
 7362SOL     OW33721   4.169   0.906  12.688 -0.8212 -0.6238  0.2584
 7362SOL    HW133722   4.259   0.920  12.716 -1.7549  2.9180  1.4691
 7362SOL    HW233723   4.120   0.938  12.763 -0.2645  2.0598 -0.5325
 7363SOL     OW33724   1.603   0.097   3.076 -0.1530  0.0237 -0.3012
 7363SOL    HW133725   1.598   0.192   3.072  1.5418  0.1678  1.0026
 7363SOL    HW233726   1.536   0.079   3.010 -1.0002 -0.9968  0.8352
 7364SOL     OW33727   2.784   0.696  11.613  1.1836  0.4818  0.3982
 7364SOL    HW133728   2.780   0.783  11.574 -0.5925  1.4030  2.6113
 7364SOL    HW233729   2.877   0.699  11.634  0.5572  0.6214  3.1743
 7365SOL     OW33730   0.173   3.819   1.801 -0.0048 -0.3174 -0.1575
 7365SOL    HW133731   0.175   3.798   1.708 -1.5779 -1.1910  0.0071
 7365SOL    HW233732   0.078   3.814   1.814 -0.1310 -0.8782 -1.2219
 7366SOL     OW33733   0.341   1.243  15.968  0.1131 -0.0538  0.0425
 7366SOL    HW133734   0.378   1.167  15.922  0.6230  1.0791 -1.4210
 7366SOL    HW233735   0.423   1.284  15.996 -1.3867  3.0453 -0.1126
 7367SOL     OW33736   2.344   2.047   4.060  0.0905 -0.4899 -0.0437
 7367SOL    HW133737   2.328   1.975   4.120 -0.3843 -1.6797 -1.6091
 7367SOL    HW233738   2.392   2.002   3.990 -3.4415 -1.5156 -1.7884
 7368SOL     OW33739   1.376   3.305   5.747 -0.2019 -0.0808  0.2398
 7368SOL    HW133740   1.454   3.253   5.730  0.6566  0.6804  1.8967
 7368SOL    HW233741   1.378   3.323   5.841  1.2481 -0.3619  0.2531
 7369SOL     OW33742   0.470   3.670   6.734 -0.3144 -0.2099 -0.0860
 7369SOL    HW133743   0.403   3.732   6.705  0.5190  0.0473 -1.4104
 7369SOL    HW233744   0.453   3.661   6.828 -2.1081 -0.5795 -0.4327
 7370SOL     OW33745   4.355   2.589  13.521 -0.2011 -0.6041  0.0384
 7370SOL    HW133746   4.310   2.534  13.587 -0.8550  0.8063  0.7589
 7370SOL    HW233747   4.277   2.621  13.475 -0.3049 -0.0121  0.6366
 7371SOL     OW33748   3.051   1.739   6.942  0.1971 -0.1622  0.4407
 7371SOL    HW133749   3.001   1.674   6.893 -1.4971  1.8331 -0.4866
 7371SOL    HW233750   3.135   1.694   6.949  0.1974 -0.0736  0.9850
 7372SOL     OW33751   2.067   0.907   9.321  0.3853 -0.3383 -0.7060
 7372SOL    HW133752   2.122   0.929   9.396 -0.5260 -0.1090 -0.1096
 7372SOL    HW233753   2.042   0.984   9.270 -0.7416 -0.3689 -0.1887
 7373SOL     OW33754   4.219   3.635   9.086 -0.2898 -0.1197 -0.2315
 7373SOL    HW133755   4.189   3.726   9.091 -1.2272 -0.4651  0.6559
 7373SOL    HW233756   4.223   3.626   8.991 -1.0094  3.9503 -0.6684
 7374SOL     OW33757   2.802   3.437   5.907 -0.0209 -0.3327 -0.6910
 7374SOL    HW133758   2.832   3.404   5.822 -0.1966 -1.7732 -0.1833
 7374SOL    HW233759   2.874   3.436   5.970 -0.8166 -0.4891  0.2179
 7375SOL     OW33760   3.977   1.614   2.122  0.9599  0.6366 -0.3409
 7375SOL    HW133761   3.996   1.578   2.036  0.4269  1.6487 -0.8872
 7375SOL    HW233762   4.033   1.692   2.128  1.3676  0.2273  1.3039
 7376SOL     OW33763   1.920   0.383  17.322  0.0588 -0.2501  0.4798
 7376SOL    HW133764   1.941   0.292  17.299  1.2661  0.8063 -2.4716
 7376SOL    HW233765   1.949   0.379  17.413  0.7270 -0.0632  0.2708
 7377SOL     OW33766   2.373   2.916  11.049 -0.4091 -0.2251  1.0330
 7377SOL    HW133767   2.294   2.927  10.995  0.4709  0.5033 -0.0941
 7377SOL    HW233768   2.340   2.879  11.131  2.2244 -2.6852  0.9615
 7378SOL     OW33769   3.190   4.060   5.833  0.4641  0.0446 -0.3735
 7378SOL    HW133770   3.242   4.015   5.766  2.7807  0.0884  1.4112
 7378SOL    HW233771   3.115   4.005   5.812  0.3285  0.1779 -0.2379
 7379SOL     OW33772   2.373   1.018   4.795  0.2345  0.3303 -0.1265
 7379SOL    HW133773   2.436   1.064   4.851  0.1545 -0.9434  1.0196
 7379SOL    HW233774   2.305   1.084   4.787  0.0625  0.1779  0.0704
 7380SOL     OW33775   0.729   1.094   5.678  0.1798  0.1176  0.5808
 7380SOL    HW133776   0.813   1.063   5.712 -0.1078  0.7328  1.8425
 7380SOL    HW233777   0.746   1.128   5.590  0.3419 -2.5712 -0.4163
 7381SOL     OW33778   3.651   0.311  11.059 -0.1791 -0.4105 -0.2562
 7381SOL    HW133779   3.737   0.282  11.089 -0.3495  0.8009  1.3797
 7381SOL    HW233780   3.604   0.328  11.141 -0.0528 -3.5889  0.4695
 7382SOL     OW33781   3.242   0.543   1.202  0.3136  0.2438 -0.3888
 7382SOL    HW133782   3.279   0.562   1.288  1.5995 -1.2165 -0.6198
 7382SOL    HW233783   3.290   0.462   1.183 -1.2160 -0.4097 -1.4522
 7383SOL     OW33784   2.034   1.068   9.106  0.1219 -0.4175  0.1200
 7383SOL    HW133785   2.043   1.001   9.038 -2.6062 -0.4036 -0.2733
 7383SOL    HW233786   2.126   1.090   9.118  0.0037  0.2618 -0.2221
 7384SOL     OW33787   0.977   3.869   7.132  0.3946 -0.1934  0.1884
 7384SOL    HW133788   1.027   3.858   7.051 -0.0878  0.6090 -0.2226
 7384SOL    HW233789   1.021   3.804   7.186  1.5757  0.7084  0.3012
 7385SOL     OW33790   3.269   0.672   3.086  0.2446 -0.3365 -0.3125
 7385SOL    HW133791   3.349   0.633   3.051 -0.1843 -2.0289  0.6221
 7385SOL    HW233792   3.295   0.685   3.177  2.4386  2.0754 -1.2821
 7386SOL     OW33793   1.604   3.358  17.078 -0.0445  0.3576  0.6690
 7386SOL    HW133794   1.573   3.300  17.148 -1.3783 -1.5860 -1.5225
 7386SOL    HW233795   1.693   3.322  17.077  0.3750  1.3259  3.2984
 7387SOL     OW33796   0.929   2.052   5.633 -0.0459 -0.4989  0.3249
 7387SOL    HW133797   0.956   1.960   5.638 -2.7902 -1.2768  0.8635
 7387SOL    HW233798   0.834   2.053   5.646 -0.3982  1.1826 -2.4209
 7388SOL     OW33799   2.122   0.013  16.210 -0.4404 -0.1895 -0.0212
 7388SOL    HW133800   2.136   0.071  16.285 -1.3175 -0.6771  0.5204
 7388SOL    HW233801   2.031   0.043  16.197 -0.1690 -0.9035 -3.5031
 7389SOL     OW33802   0.350   2.073   2.648 -0.2816  0.5348 -0.4970
 7389SOL    HW133803   0.364   2.108   2.560  0.9624  2.0022  0.2824
 7389SOL    HW233804   0.426   2.107   2.694  2.5316 -1.8955 -3.2927
 7390SOL     OW33805   3.503   2.402   2.670 -0.2977  0.2226  0.0509
 7390SOL    HW133806   3.557   2.391   2.592  1.1576 -0.8090  1.2047
 7390SOL    HW233807   3.545   2.337   2.726 -1.1145 -3.1960 -3.3062
 7391SOL     OW33808   0.545   3.817   7.956 -0.0171 -0.2241  0.0153
 7391SOL    HW133809   0.634   3.813   7.921 -1.3807 -1.2837 -3.3139
 7391SOL    HW233810   0.517   3.730   7.984  2.1855 -1.1806 -0.7961
 7392SOL     OW33811   0.075   0.560   2.780  0.5365  0.2930 -0.4219
 7392SOL    HW133812   0.008   0.546   2.846 -1.6853  1.4830 -2.4166
 7392SOL    HW233813   0.089   0.472   2.746 -0.4965 -0.3059  0.7263
 7393SOL     OW33814   1.283   4.580   5.438  0.5616 -0.3211  0.4336
 7393SOL    HW133815   1.249   4.524   5.508 -0.6773  1.0272  0.9231
 7393SOL    HW233816   1.199   4.577   5.393  0.5900  0.1011  0.3478
 7394SOL     OW33817   0.608   3.409  11.338  0.1709 -0.9665 -0.1229
 7394SOL    HW133818   0.638   3.389  11.250  0.3860  2.3039 -0.7811
 7394SOL    HW233819   0.520   3.440  11.316  0.1126 -0.8316  0.2934
 7395SOL     OW33820   3.553   3.764   9.756  0.0395 -0.2702  0.1431
 7395SOL    HW133821   3.465   3.749   9.792  0.6143 -2.1668  0.8065
 7395SOL    HW233822   3.579   3.673   9.740  0.9767  0.1493 -0.7385
 7396SOL     OW33823   4.029   0.745   8.656  0.3448 -0.2063 -0.0987
 7396SOL    HW133824   3.960   0.812   8.658 -0.6675 -1.2913  1.1793
 7396SOL    HW233825   4.099   0.796   8.697  0.6411  0.4936 -1.4751
 7397SOL     OW33826   1.781   3.241  16.294  0.2770  0.2958 -0.0254
 7397SOL    HW133827   1.807   3.310  16.234  0.8186 -1.1109 -1.4001
 7397SOL    HW233828   1.777   3.281  16.381 -1.2860  2.2780 -1.0094
 7398SOL     OW33829   3.053   2.961   4.596  0.1416 -0.2330  0.7931
 7398SOL    HW133830   3.096   3.019   4.533  0.7789 -1.7664 -0.2047
 7398SOL    HW233831   3.078   2.880   4.550 -0.6973 -0.1075  0.1243
 7399SOL     OW33832   4.249   1.436   6.778 -0.4498 -0.5343 -0.0021
 7399SOL    HW133833   4.332   1.392   6.795  0.7869  0.6142 -2.9148
 7399SOL    HW233834   4.228   1.481   6.859 -2.6804 -0.6364 -0.5296
 7400SOL     OW33835   0.837   3.789  15.888 -0.0955 -0.1511  0.8173
 7400SOL    HW133836   0.925   3.822  15.906 -0.8041  2.8197 -1.2186
 7400SOL    HW233837   0.770   3.857  15.895 -0.1002  0.1240 -1.9946
 7401SOL     OW33838   4.683   3.465   2.969  0.1742 -0.3101 -0.9533
 7401SOL    HW133839   4.737   3.493   3.043  0.5196 -0.0539 -1.3020
 7401SOL    HW233840   4.739   3.488   2.895  1.6382 -3.4518 -0.8410
 7402SOL     OW33841   1.372   3.378   3.086 -0.2926 -0.7549  0.0790
 7402SOL    HW133842   1.302   3.322   3.053 -0.7570  0.1177 -0.4373
 7402SOL    HW233843   1.438   3.354   3.022 -0.3253 -0.4400 -0.0749
 7403SOL     OW33844   1.320   3.670   1.686  0.4276  0.0169 -0.6612
 7403SOL    HW133845   1.360   3.588   1.713  1.0603  1.5612  3.1427
 7403SOL    HW233846   1.380   3.700   1.617  1.1548 -0.3500 -0.1889
 7404SOL     OW33847   3.962   2.420   8.853 -0.3195 -0.1456 -0.2719
 7404SOL    HW133848   3.987   2.332   8.880 -0.4514  0.3408  1.4292
 7404SOL    HW233849   3.964   2.463   8.939 -0.2476  0.8562 -0.7665
 7405SOL     OW33850   0.965   2.446   2.977 -0.4050  0.6083  0.5280
 7405SOL    HW133851   1.019   2.520   2.949  0.2293  0.2472  0.7775
 7405SOL    HW233852   0.908   2.493   3.036 -1.5913 -1.6059  1.1548
 7406SOL     OW33853   2.691   4.270   4.458 -0.6502  0.2626 -0.1695
 7406SOL    HW133854   2.727   4.225   4.382  0.0020  1.1284 -0.3617
 7406SOL    HW233855   2.687   4.207   4.531 -1.0295  1.1284  0.5617
 7407SOL     OW33856   0.743   1.373   7.864  0.5881 -0.5984  0.6900
 7407SOL    HW133857   0.826   1.420   7.857  0.6776 -0.9167 -0.4894
 7407SOL    HW233858   0.726   1.387   7.957 -2.4189 -1.0269  0.1918
 7408SOL     OW33859   2.735   3.509   2.162  0.5527 -0.1969 -0.0086
 7408SOL    HW133860   2.748   3.436   2.222 -0.4403  0.3808  0.9099
 7408SOL    HW233861   2.640   3.506   2.170  0.3632 -0.6044 -2.3006
 7409SOL     OW33862   0.480   3.539   2.834 -0.4256  0.5877  0.1444
 7409SOL    HW133863   0.385   3.550   2.829 -0.2393  1.5436 -1.4936
 7409SOL    HW233864   0.503   3.607   2.770 -0.0731  0.2315 -0.1054
 7410SOL     OW33865   2.654   3.769   7.908  0.3703  0.0273  0.0037
 7410SOL    HW133866   2.602   3.849   7.910  0.9719  0.4394 -1.0953
 7410SOL    HW233867   2.741   3.808   7.908  1.7944 -3.1183  0.7199
 7411SOL     OW33868   3.045   3.867   8.467  0.2368  0.0360 -0.1249
 7411SOL    HW133869   3.058   3.838   8.377 -2.9620  0.3863 -0.7028
 7411SOL    HW233870   3.050   3.962   8.463  0.1220  0.0280 -0.4289
 7412SOL     OW33871   1.248   2.001   9.484 -0.7484  0.1758 -0.3361
 7412SOL    HW133872   1.315   2.058   9.523  0.7701  0.2558 -3.1049
 7412SOL    HW233873   1.183   2.014   9.554 -1.8203 -1.0158 -1.1134
 7413SOL     OW33874   2.022   0.116   6.395 -0.0639  0.0326 -0.5152
 7413SOL    HW133875   2.016   0.147   6.486 -1.4903  0.4733 -0.7703
 7413SOL    HW233876   2.020   0.022   6.408  1.3264 -0.5404 -4.5777
 7414SOL     OW33877   0.252   1.709   7.894  0.2697  0.4589  0.3392
 7414SOL    HW133878   0.294   1.757   7.965 -0.4680  2.5063 -0.6045
 7414SOL    HW233879   0.322   1.648   7.872 -0.3024  0.0346 -0.3104
 7415SOL     OW33880   1.261   4.589  11.993 -0.1481 -0.1179  0.0167
 7415SOL    HW133881   1.235   4.511  12.041  3.8482 -1.6749 -0.3585
 7415SOL    HW233882   1.321   4.630  12.055  1.2397  0.1555 -1.4948
 7416SOL     OW33883   3.116   0.450  17.042  0.3043  0.3313  0.1061
 7416SOL    HW133884   3.182   0.461  16.973  1.3973  1.2284  1.2794
 7416SOL    HW233885   3.045   0.391  17.018  2.0692 -2.3409  1.5032
 7417SOL     OW33886   3.627   1.758  15.659 -0.5309 -0.4841 -0.4461
 7417SOL    HW133887   3.717   1.770  15.627 -0.4015 -2.3522 -0.7894
 7417SOL    HW233888   3.583   1.744  15.575 -1.4312  0.8405 -0.1969
 7418SOL     OW33889   2.441   1.974   1.947 -0.0560  0.5105 -0.4148
 7418SOL    HW133890   2.346   1.979   1.939  0.0721 -1.2005 -3.1195
 7418SOL    HW233891   2.451   1.886   1.909  0.4577  0.9477 -1.2910
 7419SOL     OW33892   4.259   2.475   6.020  0.2970  0.2549  0.6263
 7419SOL    HW133893   4.205   2.543   5.980  1.4268  0.8485  0.1036
 7419SOL    HW233894   4.283   2.428   5.940  1.4675  0.9475  0.5614
 7420SOL     OW33895   1.770   4.356   6.632  0.3276  0.8876  0.2781
 7420SOL    HW133896   1.770   4.263   6.654 -0.1761  0.2707 -2.3023
 7420SOL    HW233897   1.680   4.379   6.608  0.2945  2.0855  1.5276
 7421SOL     OW33898   1.136   2.581   3.236  0.1327 -0.0932  0.0354
 7421SOL    HW133899   1.055   2.630   3.219  1.1100  2.0980  1.7235
 7421SOL    HW233900   1.179   2.640   3.298  1.2256 -1.2996  0.4198
 7422SOL     OW33901   4.328   4.642   8.574 -0.4426 -0.1621  0.1775
 7422SOL    HW133902   4.376   4.579   8.627 -1.3556 -1.2107 -0.2414
 7422SOL    HW233903   4.241   4.601   8.578 -1.2768  1.6671  1.3653
 7423SOL     OW33904   2.179   1.599   8.123  0.5362  0.5812 -0.1981
 7423SOL    HW133905   2.135   1.656   8.186  1.5825  1.3680 -0.1627
 7423SOL    HW233906   2.223   1.666   8.070  0.8309 -0.3455 -1.1299
 7424SOL     OW33907   2.204   0.925   6.642  0.0626 -0.2123 -0.5474
 7424SOL    HW133908   2.155   0.917   6.724  0.3333  0.7377 -0.2864
 7424SOL    HW233909   2.205   1.019   6.623  0.5432  0.1466  1.2366
 7425SOL     OW33910   3.208   4.416   2.599 -0.7479  0.0312  0.0912
 7425SOL    HW133911   3.179   4.374   2.518 -0.8310 -1.3003  0.7977
 7425SOL    HW233912   3.298   4.384   2.596 -0.8637 -0.2740 -0.0653
 7426SOL     OW33913   2.939   3.441  15.668 -0.0065 -0.0633  0.2830
 7426SOL    HW133914   2.860   3.400  15.633  0.5454  0.0652 -1.0954
 7426SOL    HW233915   3.007   3.389  15.626  0.3827  0.0008  0.8268
 7427SOL     OW33916   3.118   1.363   7.168 -0.4762  0.2279 -0.6697
 7427SOL    HW133917   3.083   1.429   7.227  0.8254  0.2867  0.0495
 7427SOL    HW233918   3.165   1.425   7.113  0.8252  0.1273  0.3177
 7428SOL     OW33919   2.461   1.049   7.757 -0.0359  0.0441  0.4170
 7428SOL    HW133920   2.452   0.991   7.681 -3.3441  1.7989 -0.5190
 7428SOL    HW233921   2.552   1.075   7.751  0.2585 -1.5855 -1.9830
 7429SOL     OW33922   4.110   2.076   7.851  0.6057  0.0268 -0.5254
 7429SOL    HW133923   4.160   2.143   7.898  1.0604 -2.0687  1.9407
 7429SOL    HW233924   4.113   2.010   7.920  2.4286 -0.7651 -1.3672
 7430SOL     OW33925   4.198   0.975  15.202  0.4829 -0.0748  0.0824
 7430SOL    HW133926   4.260   0.919  15.156 -0.0393  0.4158 -1.2229
 7430SOL    HW233927   4.211   0.950  15.294  1.4742 -1.2815 -0.3926
 7431SOL     OW33928   3.844   4.228   9.115  0.1711 -0.4319 -0.1917
 7431SOL    HW133929   3.795   4.310   9.106  0.7477 -0.2180 -1.4970
 7431SOL    HW233930   3.862   4.216   9.021 -1.4549 -1.8388 -0.3194
 7432SOL     OW33931   3.495   2.260   3.024  0.3833  0.3439 -0.4682
 7432SOL    HW133932   3.571   2.225   3.071  0.7353  1.0737 -0.4857
 7432SOL    HW233933   3.414   2.239   3.069  0.3009 -1.3879 -1.4369
 7433SOL     OW33934   1.068   2.092   4.758 -0.2447 -0.2674 -0.4269
 7433SOL    HW133935   1.119   2.171   4.774 -1.0085  0.4328 -1.4240
 7433SOL    HW233936   1.010   2.089   4.834 -0.8758 -4.1894 -1.0618
 7434SOL     OW33937   4.402   3.682   1.888 -0.1454 -0.3477 -0.0684
 7434SOL    HW133938   4.365   3.599   1.858 -1.0965 -0.2266  0.7839
 7434SOL    HW233939   4.317   3.720   1.906  0.6207  1.0780  0.5123
 7435SOL     OW33940   4.451   3.994   1.599 -0.5981  0.4169 -0.5499
 7435SOL    HW133941   4.439   3.907   1.561  0.0596  0.9123 -1.9225
 7435SOL    HW233942   4.463   3.963   1.688 -0.8811 -1.5470 -1.1857
 7436SOL     OW33943   1.046   3.351   4.346 -0.2948 -0.4229  0.1373
 7436SOL    HW133944   1.130   3.390   4.371 -0.0473 -0.9244  0.0916
 7436SOL    HW233945   1.029   3.305   4.429  0.5712  2.1832  1.7720
 7437SOL     OW33946   3.043   4.352   2.811  0.2619 -0.2534  0.2037
 7437SOL    HW133947   2.987   4.429   2.800 -1.0174 -1.4504 -1.6490
 7437SOL    HW233948   3.085   4.349   2.725  0.7662 -0.5331  0.4607
 7438SOL     OW33949   0.378   2.861   9.154  0.1218 -0.0579 -0.5344
 7438SOL    HW133950   0.378   2.898   9.243 -2.0242 -0.6489 -0.2703
 7438SOL    HW233951   0.417   2.776   9.173 -0.2761 -0.1349 -0.0581
 7439SOL     OW33952   4.130   2.757   4.193  0.8852 -0.1519 -0.0489
 7439SOL    HW133953   4.102   2.666   4.198 -0.7948  0.4088  0.5691
 7439SOL    HW233954   4.224   2.740   4.190  0.6679 -1.3306 -0.0475
 7440SOL     OW33955   2.249   0.455   8.738 -0.4700 -0.2075 -0.0082
 7440SOL    HW133956   2.280   0.423   8.822 -0.2823  0.7109  0.2699
 7440SOL    HW233957   2.196   0.383   8.704 -1.1715  0.1891  0.2601
 7441SOL     OW33958   1.366   3.347   7.775  0.0798 -0.3631 -0.2805
 7441SOL    HW133959   1.436   3.308   7.827  0.6943 -0.9687 -1.5639
 7441SOL    HW233960   1.296   3.341   7.840 -0.0063  0.9908 -0.2615
 7442SOL     OW33961   3.588   4.652   8.882 -0.2467  0.2618 -0.4451
 7442SOL    HW133962   3.640   4.665   8.962 -0.9256 -0.6885  0.1531
 7442SOL    HW233963   3.535   4.577   8.909  0.4163 -0.7992 -2.0658
 7443SOL     OW33964   0.115   2.624  16.853 -0.1329  0.3650 -0.3236
 7443SOL    HW133965   0.121   2.529  16.856 -1.5028  0.2556 -1.2972
 7443SOL    HW233966   0.053   2.634  16.925 -1.8781  0.0774 -1.8145
 7444SOL     OW33967   3.363   2.330   3.994  0.0402 -0.5806 -0.4708
 7444SOL    HW133968   3.430   2.399   3.988  0.3115 -0.7814  0.3096
 7444SOL    HW233969   3.290   2.382   4.028 -1.3270 -2.1294 -1.0519
 7445SOL     OW33970   3.833   3.791   4.926 -0.6328 -0.3108 -0.4979
 7445SOL    HW133971   3.876   3.706   4.912  0.0941 -0.1705  0.8507
 7445SOL    HW233972   3.818   3.817   4.835  0.6343  2.3535  0.0444
 7446SOL     OW33973   4.207   2.651   3.300 -0.3715  0.2514 -0.1080
 7446SOL    HW133974   4.217   2.701   3.219  1.2131 -0.1285 -0.1525
 7446SOL    HW233975   4.194   2.568   3.254 -1.4648 -0.4652  1.4963
 7447SOL     OW33976   2.665   0.298   8.134  0.0264  0.6335  0.5724
 7447SOL    HW133977   2.635   0.382   8.098 -2.4916  0.0814  1.3329
 7447SOL    HW233978   2.596   0.276   8.197 -2.5495  0.7046 -2.1935
 7448SOL     OW33979   1.427   0.754   7.202 -0.2840  0.1464  0.0581
 7448SOL    HW133980   1.444   0.738   7.295  2.3420 -0.0064 -0.4470
 7448SOL    HW233981   1.354   0.816   7.201 -0.3972 -0.0191 -1.2185
 7449SOL     OW33982   0.776   1.754   2.665 -0.3244 -0.2242 -0.2762
 7449SOL    HW133983   0.835   1.718   2.599  1.9658  2.0385  0.5414
 7449SOL    HW233984   0.758   1.844   2.638 -0.1906 -0.2289 -0.3823
 7450SOL     OW33985   2.988   3.383   6.085  0.7958  0.1614  0.0175
 7450SOL    HW133986   3.059   3.321   6.069  0.4364  0.0042 -0.9878
 7450SOL    HW233987   3.002   3.398   6.178  2.2008  1.2662 -0.3858
 7451SOL     OW33988   3.668   1.569  15.149 -0.3302  0.2396  0.4115
 7451SOL    HW133989   3.654   1.515  15.227 -2.9452  1.2672  0.6574
 7451SOL    HW233990   3.727   1.635  15.185  0.3534  0.5524 -1.3213
 7452SOL     OW33991   1.544   2.308   6.147  0.3083  0.2009 -0.5903
 7452SOL    HW133992   1.617   2.300   6.085 -0.0368 -0.4911 -0.9081
 7452SOL    HW233993   1.568   2.253   6.221 -1.1700 -0.3833 -0.5551
 7453SOL     OW33994   0.815   2.422   2.481  0.6136 -0.1115 -0.2188
 7453SOL    HW133995   0.774   2.347   2.438 -0.3256  0.1121  0.2854
 7453SOL    HW233996   0.738   2.455   2.526 -1.1709 -0.0533 -3.2810
 7454SOL     OW33997   3.114   0.402  17.504 -0.1682  0.1112  0.2893
 7454SOL    HW133998   3.073   0.433  17.586 -0.7637  0.8075 -0.2680
 7454SOL    HW233999   3.112   0.307  17.517  1.2830 -0.0909 -1.0834
 7455SOL     OW34000   0.542   0.267  15.383 -0.0841  0.2740 -0.3777
 7455SOL    HW134001   0.571   0.335  15.322  2.1006 -0.5695 -0.2528
 7455SOL    HW234002   0.482   0.328  15.426 -0.1090 -1.0628  1.4909
 7456SOL     OW34003   4.414   3.552   6.378  0.6067  0.2349 -1.0609
 7456SOL    HW134004   4.410   3.461   6.408 -1.2041  0.7593  0.3120
 7456SOL    HW234005   4.325   3.564   6.348  0.1846  0.2142  0.1775
 7457SOL     OW34006   2.126   1.321  14.416  0.1866  0.2787 -0.3195
 7457SOL    HW134007   2.133   1.299  14.323 -0.3843 -1.2958  0.0203
 7457SOL    HW234008   2.157   1.411  14.405 -1.2432  1.2639  3.8233
 7458SOL     OW34009   4.484   1.449   3.566 -0.5469 -0.1859 -0.1124
 7458SOL    HW134010   4.474   1.512   3.637  1.2246  0.0889 -0.1079
 7458SOL    HW234011   4.403   1.401   3.579 -0.9748  0.2703 -1.0736
 7459SOL     OW34012   2.037   2.687   7.155  0.2323 -0.1125  0.4255
 7459SOL    HW134013   2.031   2.709   7.062  0.2875 -0.4799  0.3360
 7459SOL    HW234014   1.974   2.752   7.187  0.7710  0.8490 -0.4617
 7460SOL     OW34015   4.080   2.858  15.590  0.4571 -0.1310  1.0130
 7460SOL    HW134016   4.069   2.777  15.640  0.0079 -1.3737 -1.1080
 7460SOL    HW234017   4.175   2.868  15.598  0.3827 -0.2924  2.2051
 7461SOL     OW34018   3.261   1.514   7.004 -0.0040  0.2299  0.2518
 7461SOL    HW134019   3.337   1.569   7.019  0.0956  0.7208 -1.9730
 7461SOL    HW234020   3.303   1.447   6.949 -1.0444 -1.0519  1.0057
 7462SOL     OW34021   4.388   4.053   2.351  0.3021 -0.3410  0.7638
 7462SOL    HW134022   4.362   4.138   2.316 -1.2882 -0.7567  0.9118
 7462SOL    HW234023   4.439   4.018   2.278  0.4914 -2.1746  1.7690
 7463SOL     OW34024   4.215   1.871   2.853 -0.0317 -0.1534 -0.0050
 7463SOL    HW134025   4.306   1.889   2.879  0.0080  0.2119 -0.3924
 7463SOL    HW234026   4.239   1.818   2.777  0.6372  1.5982 -1.0129
 7464SOL     OW34027   1.339   3.691   5.624  0.2242  0.4500  0.0814
 7464SOL    HW134028   1.389   3.768   5.598 -2.0463  1.4762 -1.1570
 7464SOL    HW234029   1.379   3.681   5.711 -0.7079 -2.9518  0.1205
 7465SOL     OW34030   0.118   4.734   9.452 -0.3473 -0.3565  0.2767
 7465SOL    HW134031   0.082   4.727   9.541 -0.8133  0.5680  0.1623
 7465SOL    HW234032   0.145   4.648   9.420 -2.2165 -0.5514 -0.7504
 7466SOL     OW34033   1.006   1.173   1.964 -0.1129 -0.1994 -0.7223
 7466SOL    HW134034   1.081   1.232   1.962  0.9636 -1.5523 -0.5207
 7466SOL    HW234035   1.059   1.093   1.970  0.2540  0.1918  1.4118
 7467SOL     OW34036   2.419   1.261  11.561 -0.1558 -0.1203  0.3605
 7467SOL    HW134037   2.474   1.338  11.575  0.1854 -1.0770  4.3310
 7467SOL    HW234038   2.341   1.281  11.613 -0.4545  0.7862 -0.4336
 7468SOL     OW34039   3.509   1.211  13.310  0.6202  0.3223 -0.1209
 7468SOL    HW134040   3.506   1.181  13.401  0.6849 -0.1253 -0.2665
 7468SOL    HW234041   3.517   1.306  13.317  0.1048  0.4476 -1.4120
 7469SOL     OW34042   3.034   3.609  12.647 -0.5465 -0.3802  0.3295
 7469SOL    HW134043   3.078   3.524  12.640  0.9999  0.3124  1.5987
 7469SOL    HW234044   3.064   3.638  12.733 -0.1285  1.7977 -0.5548
 7470SOL     OW34045   0.917   4.009  12.248 -0.1455 -0.3028  0.3237
 7470SOL    HW134046   1.011   4.026  12.237  0.0885 -3.9165 -2.9027
 7470SOL    HW234047   0.902   4.067  12.323  0.3942  1.3841 -0.8603
 7471SOL     OW34048   1.106   1.316   3.889  0.3422  0.4354  0.2078
 7471SOL    HW134049   1.039   1.334   3.823  0.1026  0.3261  0.4210
 7471SOL    HW234050   1.083   1.223   3.898  0.3311  0.5899  1.6649
 7472SOL     OW34051   3.303   2.200   3.626 -0.1634  0.0716 -0.1840
 7472SOL    HW134052   3.390   2.217   3.661 -0.7274  0.1934  1.1693
 7472SOL    HW234053   3.319   2.121   3.574  3.0710  1.0539 -0.6615
 7473SOL     OW34054   4.117   4.263   7.518  0.4140 -0.0586 -0.1711
 7473SOL    HW134055   4.081   4.338   7.565 -0.7719 -1.2408  0.8296
 7473SOL    HW234056   4.177   4.296   7.452  1.2191 -0.7664  0.2061
 7474SOL     OW34057   1.190   1.369   9.698 -0.2015 -0.2186 -0.4941
 7474SOL    HW134058   1.212   1.425   9.773  1.8278 -0.1199 -1.1805
 7474SOL    HW234059   1.103   1.400   9.671 -0.3139  0.8834  1.1352
 7475SOL     OW34060   4.383   0.276   3.636 -0.3437  0.1364  0.1916
 7475SOL    HW134061   4.288   0.286   3.631 -0.1140  2.2887  0.2895
 7475SOL    HW234062   4.390   0.201   3.576 -4.2266 -0.0376 -0.0697
 7476SOL     OW34063   0.809   0.773   9.021  0.2153  0.2197  0.6073
 7476SOL    HW134064   0.859   0.692   9.019 -0.8243 -0.3765 -1.0180
 7476SOL    HW234065   0.874   0.839   9.048  0.3392  0.0853  0.6393
 7477SOL     OW34066   0.602   1.808   5.802 -0.0055  0.4152 -1.0138
 7477SOL    HW134067   0.540   1.760   5.858  3.6062  0.1503  2.7584
 7477SOL    HW234068   0.631   1.877   5.862  1.1282  0.3153 -1.4468
 7478SOL     OW34069   2.529   2.083   7.927 -0.2791  1.0357  0.1737
 7478SOL    HW134070   2.552   1.998   7.891  1.4475  1.0113  1.3456
 7478SOL    HW234071   2.484   2.058   8.008  0.5133  1.4387  0.7334
 7479SOL     OW34072   4.249   1.789   4.434  0.4667  0.1008  0.0659
 7479SOL    HW134073   4.283   1.706   4.467  2.2920 -0.0522 -2.2191
 7479SOL    HW234074   4.314   1.824   4.374  2.1602 -1.6943  0.8644
 7480SOL     OW34075   2.451   2.185  10.904  0.5501  0.0596 -0.5109
 7480SOL    HW134076   2.540   2.217  10.889  0.1189  1.1473 -0.7568
 7480SOL    HW234077   2.453   2.154  10.994 -1.6461 -0.8486 -0.7781
 7481SOL     OW34078   2.316   0.723   7.080  0.4247  0.3261 -0.1249
 7481SOL    HW134079   2.308   0.646   7.136  0.8872 -0.1043 -0.6407
 7481SOL    HW234080   2.386   0.692   7.022  1.3940  0.6075  0.8907
 7482SOL     OW34081   4.364   3.298   7.646  0.2409  0.0744 -0.0170
 7482SOL    HW134082   4.458   3.281   7.643  0.0466 -1.0311 -0.0045
 7482SOL    HW234083   4.336   3.233   7.710 -0.7700 -0.9487 -1.5170
 7483SOL     OW34084   4.002   2.724   6.435  0.1430  0.3010  0.0130
 7483SOL    HW134085   4.054   2.790   6.481  1.8361  0.3802 -2.0308
 7483SOL    HW234086   3.943   2.779   6.384  0.5325  1.0130  0.3330
 7484SOL     OW34087   0.939   3.907   1.534 -0.4728  0.4652 -0.2583
 7484SOL    HW134088   1.015   3.897   1.592 -0.8343  1.9046  0.4809
 7484SOL    HW234089   0.874   3.861   1.588 -0.5574  2.8321  1.6656
 7485SOL     OW34090   3.802   4.234  14.559  0.6004 -0.1938  0.5275
 7485SOL    HW134091   3.713   4.257  14.585  0.0895 -1.3516 -0.1851
 7485SOL    HW234092   3.851   4.310  14.591  0.0187  1.2891 -2.1030
 7486SOL     OW34093   3.751   3.541   3.812  0.0233  0.1998 -0.6985
 7486SOL    HW134094   3.710   3.505   3.733  0.9113 -0.8538 -0.6910
 7486SOL    HW234095   3.843   3.535   3.787  0.3528 -1.1674  0.8527
 7487SOL     OW34096   1.047   4.530   4.000 -0.4338  0.5544  0.1220
 7487SOL    HW134097   1.116   4.597   4.004  1.0202 -0.8570 -1.1883
 7487SOL    HW234098   1.057   4.486   4.084 -0.3373  0.7171  0.1948
 7488SOL     OW34099   0.786   2.321  12.724 -0.3608  0.4665 -0.0574
 7488SOL    HW134100   0.761   2.320  12.817 -2.6636 -1.4600 -0.7149
 7488SOL    HW234101   0.862   2.379  12.729  0.2596 -0.4000  0.5605
 7489SOL     OW34102   3.641   3.509  10.692  0.0177 -0.0423  0.0940
 7489SOL    HW134103   3.603   3.434  10.739  0.1894 -0.0291  0.2536
 7489SOL    HW234104   3.657   3.566  10.767 -2.2824 -0.3720  0.8374
 7490SOL     OW34105   2.544   2.016   5.478 -0.5237  0.0966 -0.0276
 7490SOL    HW134106   2.625   1.969   5.459 -0.1476  1.2920 -1.3518
 7490SOL    HW234107   2.523   2.040   5.388  0.8406 -2.4341 -1.0345
 7491SOL     OW34108   2.224   2.939   6.266 -0.0836  0.2100  0.4373
 7491SOL    HW134109   2.255   2.987   6.342  0.6714 -0.4145  0.5258
 7491SOL    HW234110   2.235   3.004   6.197  0.9057 -0.9093 -0.4594
 7492SOL     OW34111   0.297   4.476   9.332 -0.6852  0.2269 -0.6491
 7492SOL    HW134112   0.236   4.428   9.388  0.5366  1.4051  1.6877
 7492SOL    HW234113   0.324   4.537   9.401  2.0519  0.1799 -1.6590
 7493SOL     OW34114   3.963   3.145   2.898 -0.0237 -0.0246  0.1293
 7493SOL    HW134115   4.041   3.161   2.951  0.6575 -0.2052 -0.8287
 7493SOL    HW234116   3.983   3.063   2.853 -0.7582  0.1159 -0.4537
 7494SOL     OW34117   3.953   2.411   1.647  0.2833  0.4593  0.1198
 7494SOL    HW134118   3.950   2.356   1.569 -1.9601  2.1430 -0.9798
 7494SOL    HW234119   3.887   2.477   1.625  1.1403  1.0301 -0.7500
 7495SOL     OW34120   0.528   3.659   0.127 -0.5680 -0.4958  0.0345
 7495SOL    HW134121   0.565   3.674   0.040 -1.0049  0.3109 -0.0140
 7495SOL    HW234122   0.570   3.574   0.138 -0.3769  0.0308  3.3699
 7496SOL     OW34123   2.096   3.326   7.537 -0.3649 -0.1449 -0.4865
 7496SOL    HW134124   2.163   3.258   7.522 -1.2920 -0.5972 -2.5994
 7496SOL    HW234125   2.091   3.370   7.452  0.6421  2.3274  0.7177
 7497SOL     OW34126   4.051   1.661   0.313 -0.2708 -0.1405  0.3768
 7497SOL    HW134127   4.068   1.714   0.391  1.2308 -1.2333  0.7869
 7497SOL    HW234128   4.113   1.588   0.317  0.4556  0.2743 -3.9058
 7498SOL     OW34129   4.440   1.539  12.843 -0.3156 -0.3039  0.3395
 7498SOL    HW134130   4.482   1.572  12.922  0.3576  0.0635 -0.1804
 7498SOL    HW234131   4.508   1.482  12.807  0.5232 -0.0175  1.4843
 7499SOL     OW34132   0.793   4.586   8.791 -0.2408  0.0778 -0.4594
 7499SOL    HW134133   0.740   4.513   8.825  1.8881  0.2585  3.1460
 7499SOL    HW234134   0.779   4.651   8.860  0.6526  0.9011 -1.0590
 7500SOL     OW34135   2.698   2.857   9.932 -0.0013 -0.2903  0.2141
 7500SOL    HW134136   2.667   2.778   9.976 -1.8983  0.0321 -0.5621
 7500SOL    HW234137   2.766   2.817   9.877  1.3505  1.2708  0.7325
 7501SOL     OW34138   1.722   2.936   7.171  0.3022 -0.2322 -0.3424
 7501SOL    HW134139   1.800   2.958   7.222  0.3564 -1.0523 -0.0565
 7501SOL    HW234140   1.750   2.863   7.115 -1.0786 -1.1332  0.1306
 7502SOL     OW34141   0.599   3.255  13.442 -0.7221  0.3247 -0.1259
 7502SOL    HW134142   0.634   3.338  13.409 -3.3305  0.8503 -1.5922
 7502SOL    HW234143   0.609   3.191  13.371 -2.2840 -0.3293  0.2433
 7503SOL     OW34144   2.073   1.788  10.639  0.0913  0.1675 -0.1813
 7503SOL    HW134145   2.157   1.816  10.676  0.4977  0.7216 -1.5476
 7503SOL    HW234146   2.031   1.741  10.711 -0.7045  0.8422 -0.2126
 7504SOL     OW34147   1.205   2.530  14.924  0.1497  0.2279  0.0076
 7504SOL    HW134148   1.275   2.577  14.878  0.7957  0.7004  1.4363
 7504SOL    HW234149   1.146   2.504  14.854  2.0907  1.6663 -2.1893
 7505SOL     OW34150   3.802   1.752   3.171 -0.1498 -0.0928 -0.3578
 7505SOL    HW134151   3.817   1.660   3.190  1.6792  0.6322  1.6947
 7505SOL    HW234152   3.880   1.770   3.118  0.6565 -1.7959  0.2766
 7506SOL     OW34153   2.857   4.078  13.684 -0.4528  0.1322  0.3016
 7506SOL    HW134154   2.775   4.055  13.641 -0.1459  0.6297 -0.5343
 7506SOL    HW234155   2.903   4.089  13.601 -0.0512  0.3674  0.5524
 7507SOL     OW34156   3.971   3.330   4.722 -0.1303  0.3546  0.0128
 7507SOL    HW134157   3.927   3.245   4.717  0.6129  0.0309 -1.1493
 7507SOL    HW234158   4.061   3.308   4.696  0.1086  1.2913  0.0519
 7508SOL     OW34159   1.921   3.145   4.571  0.0193 -0.8920 -0.1904
 7508SOL    HW134160   1.850   3.113   4.626 -0.4566  1.0354  0.2883
 7508SOL    HW234161   1.989   3.170   4.633  0.8018 -2.2256 -0.4886
 7509SOL     OW34162   0.277   4.668  12.602 -0.3334  0.5310 -0.3002
 7509SOL    HW134163   0.189   4.675  12.639 -0.6183 -1.8457 -0.5008
 7509SOL    HW234164   0.317   4.588  12.636 -0.0666  1.3050  1.2155
 7510SOL     OW34165   2.263   2.523   3.590 -0.2268  0.1667 -0.4516
 7510SOL    HW134166   2.173   2.490   3.584 -0.2899  0.3478 -0.4938
 7510SOL    HW234167   2.268   2.568   3.675 -0.7155 -0.9754  0.1793
 7511SOL     OW34168   0.835   3.237   5.539 -0.1711  0.0309  0.7559
 7511SOL    HW134169   0.891   3.306   5.505 -2.1311  1.5618  0.6094
 7511SOL    HW234170   0.881   3.214   5.620  0.2128 -0.7616  0.3084
 7512SOL     OW34171   3.595   3.652   6.107 -0.1038  0.3645 -0.1723
 7512SOL    HW134172   3.540   3.577   6.130 -0.8231  1.4444  1.5576
 7512SOL    HW234173   3.676   3.632   6.153 -1.1882 -1.7758  0.8205
 7513SOL     OW34174   3.682   3.016   9.056  0.0432 -0.4754  0.0951
 7513SOL    HW134175   3.691   2.948   9.123  0.8311 -0.9080 -0.4482
 7513SOL    HW234176   3.757   3.075   9.069  0.1955 -0.9534  1.4075
 7514SOL     OW34177   3.568   1.330   5.221 -0.2777 -0.7547 -0.0853
 7514SOL    HW134178   3.514   1.394   5.174  1.9270 -0.8649 -2.7559
 7514SOL    HW234179   3.533   1.247   5.188  2.0364 -2.1371  1.0066
 7515SOL     OW34180   1.736   4.015   6.013 -0.1509 -0.4057  0.1339
 7515SOL    HW134181   1.764   4.007   5.922 -0.3346 -1.3672  0.1713
 7515SOL    HW234182   1.756   3.927   6.045  0.4833 -0.1506  0.4641
 7516SOL     OW34183   1.319   3.769   8.416  0.0373  0.0851 -0.1676
 7516SOL    HW134184   1.289   3.765   8.325  1.1690 -1.4627 -0.4694
 7516SOL    HW234185   1.298   3.859   8.439 -1.7411 -1.2448  3.3277
 7517SOL     OW34186   3.618   4.276   5.888 -0.0068  0.3470 -0.2725
 7517SOL    HW134187   3.613   4.181   5.887 -2.0755  0.4462  1.4228
 7517SOL    HW234188   3.528   4.304   5.907 -0.2748 -1.3488  0.8963
 7518SOL     OW34189   2.002   3.287   6.783 -0.3698 -0.1617  0.0351
 7518SOL    HW134190   2.090   3.253   6.798 -0.6458 -1.3672 -1.0378
 7518SOL    HW234191   1.945   3.253   6.852  0.4717 -2.3254 -0.3316
 7519SOL     OW34192   1.245   3.990   4.510  0.5531  0.1290 -0.8089
 7519SOL    HW134193   1.167   4.036   4.541  0.0969 -0.0952 -1.6202
 7519SOL    HW234194   1.206   3.903   4.505 -1.2936  1.0539 -2.2634
 7520SOL     OW34195   3.172   2.796   6.587  0.4989 -0.0159  0.3331
 7520SOL    HW134196   3.191   2.762   6.674 -1.7433  1.6577  1.4675
 7520SOL    HW234197   3.084   2.760   6.570 -0.3091  1.6067  1.0724
 7521SOL     OW34198   0.035   0.330   3.965 -0.1302  0.1284  0.1725
 7521SOL    HW134199   0.082   0.347   3.883  1.0368 -2.2959  0.3458
 7521SOL    HW234200   4.691   0.291   3.940 -1.1646  1.9281  0.7791
 7522SOL     OW34201   0.326   0.872   3.656  0.2937  0.4264 -0.2600
 7522SOL    HW134202   0.290   0.783   3.648  0.2072  0.5584 -1.4448
 7522SOL    HW234203   0.253   0.918   3.613 -0.0797  1.1848  1.1823
 7523SOL     OW34204   0.384   2.297   6.677  0.3150  0.5604 -0.1531
 7523SOL    HW134205   0.334   2.224   6.713  1.7069 -0.0810  0.4705
 7523SOL    HW234206   0.451   2.250   6.628  0.7899 -1.8985  2.8902
 7524SOL     OW34207   2.071   3.335   9.568 -0.1984  0.5189 -0.5609
 7524SOL    HW134208   2.087   3.408   9.507 -1.0447  0.3683 -0.9706
 7524SOL    HW234209   1.984   3.357   9.601  0.0390 -2.3023  1.9339
 7525SOL     OW34210   2.484   2.102   4.414 -0.1317  0.0569  0.4059
 7525SOL    HW134211   2.420   2.115   4.345  0.4201  1.6277  0.1981
 7525SOL    HW234212   2.565   2.137   4.377 -0.7719  0.5536 -0.4905
 7526SOL     OW34213   1.565   2.948   9.529  0.8051  0.0076  0.0148
 7526SOL    HW134214   1.533   2.862   9.557  2.7673 -0.6321  0.3069
 7526SOL    HW234215   1.660   2.935   9.530  1.0938  2.4286  3.4437
 7527SOL     OW34216   1.777   1.508  12.349 -0.0711  0.2910  0.3023
 7527SOL    HW134217   1.702   1.450  12.334  0.5289 -0.4955  0.3313
 7527SOL    HW234218   1.744   1.581  12.402 -0.4884 -1.2757  2.2188
 7528SOL     OW34219   0.861   1.511   3.378  0.8145 -0.2663  0.6734
 7528SOL    HW134220   0.828   1.429   3.416  1.7217 -0.5764  0.7866
 7528SOL    HW234221   0.804   1.578   3.416  1.8382  0.4731  0.8896
 7529SOL     OW34222   1.352   3.972   3.157  0.0265 -0.6847  0.1553
 7529SOL    HW134223   1.403   3.961   3.238  1.8353  3.2382 -0.4436
 7529SOL    HW234224   1.266   4.001   3.187 -0.5297 -1.8222 -0.3397
 7530SOL     OW34225   3.462   1.345   4.084  0.1990  0.3427  0.5189
 7530SOL    HW134226   3.501   1.343   3.997 -0.3634  1.2022  0.2454
 7530SOL    HW234227   3.543   1.367   4.130 -0.5848  3.0586  0.5916
 7531SOL     OW34228   2.090   0.744  10.430 -0.1796 -0.1726  0.5902
 7531SOL    HW134229   2.115   0.707  10.514 -0.5848 -1.7181  0.0296
 7531SOL    HW234230   1.998   0.723  10.414  0.6291 -2.9491 -0.5233
 7532SOL     OW34231   2.412   4.035   2.545  0.5959 -0.0333 -0.8597
 7532SOL    HW134232   2.336   4.090   2.525 -0.5541 -0.6386  1.8403
 7532SOL    HW234233   2.372   3.949   2.557  1.7531 -0.6815 -1.7240
 7533SOL     OW34234   0.707   1.686   6.121  0.2434  0.0619  0.3863
 7533SOL    HW134235   0.718   1.673   6.215 -1.0222 -1.1704  0.3625
 7533SOL    HW234236   0.721   1.599   6.083  0.0086  0.2592 -0.1535
 7534SOL     OW34237   0.203   1.374   0.417  0.6636  0.1013  0.3108
 7534SOL    HW134238   0.205   1.467   0.437  3.0364  0.1179 -0.0645
 7534SOL    HW234239   0.168   1.341   0.500 -0.2167 -0.6654 -0.3624
 7535SOL     OW34240   3.195   1.473   9.323  0.0323 -0.6145 -0.3255
 7535SOL    HW134241   3.141   1.456   9.246 -3.0046 -0.0267  1.6760
 7535SOL    HW234242   3.262   1.406   9.307  1.1853  0.4113  0.2003
 7536SOL     OW34243   3.454   0.475  17.333  0.1978 -0.6140 -0.3704
 7536SOL    HW134244   3.381   0.415  17.316  0.3476 -0.6645 -0.8281
 7536SOL    HW234245   3.465   0.472  17.428 -0.7978 -2.4397 -0.3226
 7537SOL     OW34246   1.447   2.056   0.842 -0.1194 -0.4087 -0.7697
 7537SOL    HW134247   1.528   2.105   0.848  0.5791 -1.4113 -2.0302
 7537SOL    HW234248   1.383   2.125   0.824  0.2439  0.0681 -0.2199
 7538SOL     OW34249   1.177   4.085   2.079 -0.3178  0.3923  0.2915
 7538SOL    HW134250   1.223   4.159   2.119 -0.3171 -0.7835  2.4594
 7538SOL    HW234251   1.237   4.056   2.010 -0.3836  1.8788 -0.3957
 7539SOL     OW34252   3.477   1.416   3.549  0.0724  0.3610  0.6452
 7539SOL    HW134253   3.552   1.357   3.552  0.2156  0.6256  2.2335
 7539SOL    HW234254   3.470   1.444   3.458 -2.6808  0.3459  0.8528
 7540SOL     OW34255   0.927   2.961   8.289 -0.5051 -0.0973  0.0692
 7540SOL    HW134256   0.865   3.032   8.270 -1.4256 -1.0664 -0.6120
 7540SOL    HW234257   0.984   2.959   8.212 -0.6125  1.0494 -0.0267
 7541SOL     OW34258   3.251   2.252   8.843  0.1599 -0.2818  0.2437
 7541SOL    HW134259   3.249   2.282   8.934  0.7830 -0.0958  0.1962
 7541SOL    HW234260   3.173   2.289   8.804  0.2019  1.0746  1.4706
 7542SOL     OW34261   3.099   2.466   5.878  0.2791  0.1345  0.7014
 7542SOL    HW134262   3.072   2.416   5.801  3.1535  1.9880 -1.5080
 7542SOL    HW234263   3.012   2.454   5.916  0.6283  2.1160  2.1627
 7543SOL     OW34264   0.054   0.604  10.121 -0.2410 -0.3031 -0.0360
 7543SOL    HW134265   0.128   0.661  10.099  0.5759 -2.5450 -3.0999
 7543SOL    HW234266   4.730   0.666  10.157 -1.8701 -0.7347 -2.1917
 7544SOL     OW34267   0.936   2.320  11.170 -0.0393 -0.4707  0.5774
 7544SOL    HW134268   0.929   2.359  11.083 -3.9858 -1.2503  0.5399
 7544SOL    HW234269   0.863   2.259  11.182 -1.6035  0.8227 -2.4300
 7545SOL     OW34270   0.676   4.652  15.995  0.3223 -0.5560  0.6918
 7545SOL    HW134271   0.672   0.007  16.008 -1.5612 -0.7576  1.5165
 7545SOL    HW234272   0.754   4.646  15.939 -0.2247 -0.1378 -0.1266
 7546SOL     OW34273   3.864   1.565  12.904 -0.1619  0.3112 -0.1181
 7546SOL    HW134274   3.876   1.500  12.973  1.2418  1.1919  0.4577
 7546SOL    HW234275   3.904   1.645  12.937  0.4969 -1.2071  2.7583
 7547SOL     OW34276   2.847   0.934   4.476  0.2997  0.6146 -0.0842
 7547SOL    HW134277   2.812   0.989   4.406 -1.9825  1.2845  1.5957
 7547SOL    HW234278   2.776   0.950   4.538 -0.0763  3.4888 -1.3006
 7548SOL     OW34279   0.202   0.682   9.604  0.1364  0.0106 -0.3928
 7548SOL    HW134280   0.153   0.733   9.669 -1.5048 -0.7052 -1.0502
 7548SOL    HW234281   0.134   0.679   9.536 -1.6486  0.8836  1.3777
 7549SOL     OW34282   1.643   4.423   2.479  0.2989 -0.2753 -0.3864
 7549SOL    HW134283   1.722   4.422   2.534  0.6354  1.4144 -0.8336
 7549SOL    HW234284   1.588   4.364   2.531  0.1128  0.3212  0.0981
 7550SOL     OW34285   3.253   1.726   1.752  0.0335  0.2986 -0.9609
 7550SOL    HW134286   3.182   1.760   1.698 -1.0902  0.4277  0.6102
 7550SOL    HW234287   3.219   1.641   1.781 -0.7995  1.8521  2.6880
 7551SOL     OW34288   1.238   2.953   3.180  0.2088 -0.1216 -0.8120
 7551SOL    HW134289   1.220   3.039   3.140  1.1665  0.0340 -0.9020
 7551SOL    HW234290   1.217   2.900   3.103  1.3490 -0.2907 -1.0070
 7552SOL     OW34291   0.672   3.387   4.550  0.7220  0.5355  0.6037
 7552SOL    HW134292   0.760   3.413   4.578  1.1119  1.2261 -1.3197
 7552SOL    HW234293   0.677   3.293   4.529  0.7955  0.9303 -1.0770
 7553SOL     OW34294   1.707   2.114   6.890 -0.1417 -0.5634 -0.3914
 7553SOL    HW134295   1.732   2.025   6.914 -0.3868 -0.0920  1.5782
 7553SOL    HW234296   1.634   2.119   6.951 -0.4616  1.0819 -0.9071
 7554SOL     OW34297   0.100   2.987   6.636  0.1882 -0.0305  0.5532
 7554SOL    HW134298   0.038   3.031   6.694  1.1880  0.9147  0.9045
 7554SOL    HW234299   0.122   2.907   6.684  1.7826  0.3069  0.3962
 7555SOL     OW34300   0.090   2.774   9.196 -0.0130  0.5048  0.3998
 7555SOL    HW134301   0.170   2.770   9.248  1.0562  2.2112 -1.1128
 7555SOL    HW234302   0.116   2.843   9.135 -2.8324  0.6619 -0.6224
 7556SOL     OW34303   4.673   0.948   6.443 -0.2302  0.5759 -0.1219
 7556SOL    HW134304   4.586   0.988   6.442 -0.1099  0.8001 -3.3361
 7556SOL    HW234305   4.649   0.874   6.498 -1.2912  0.6654 -0.4660
 7557SOL     OW34306   0.679   3.956   2.809  0.6557 -0.6837 -0.2055
 7557SOL    HW134307   0.744   3.958   2.879  0.3244  1.3707  0.0483
 7557SOL    HW234308   0.738   3.951   2.735 -0.8124 -1.5622 -1.3196
 7558SOL     OW34309   4.087   1.937   3.743  0.8143  0.4607  0.1557
 7558SOL    HW134310   4.027   1.910   3.812  0.5629 -1.0548 -0.6524
 7558SOL    HW234311   4.172   1.934   3.786  1.0358 -1.3234 -0.3900
 7559SOL     OW34312   1.445   0.783  15.898  0.0587 -0.3909 -0.7677
 7559SOL    HW134313   1.378   0.714  15.894 -0.0664 -0.3679  0.8627
 7559SOL    HW234314   1.479   0.781  15.809  1.9512 -2.2977  0.0126
 7560SOL     OW34315   0.741   3.528  15.801  0.0304 -0.0119 -0.2284
 7560SOL    HW134316   0.764   3.619  15.781  0.4544 -0.2444 -0.8189
 7560SOL    HW234317   0.827   3.486  15.808 -0.9099 -1.6887  1.0362
 7561SOL     OW34318   0.592   0.853   3.620 -0.5321  0.0515 -0.4878
 7561SOL    HW134319   0.607   0.830   3.711  0.2646  3.3589  0.2305
 7561SOL    HW234320   0.499   0.875   3.622 -0.2361  1.1959  0.3512
 7562SOL     OW34321   2.683   2.801   5.677 -0.2566 -0.5378  0.2769
 7562SOL    HW134322   2.726   2.884   5.700 -0.2052 -1.1051  2.2304
 7562SOL    HW234323   2.681   2.758   5.763 -0.8071 -1.6879 -0.3187
 7563SOL     OW34324   4.685   3.159   8.066 -0.0381  0.8246  0.1653
 7563SOL    HW134325   4.685   3.063   8.071 -0.4889  0.8820  1.1544
 7563SOL    HW234326   4.626   3.171   8.140  1.1776 -1.5229  1.5246
 7564SOL     OW34327   1.318   3.958   3.623  0.6350 -0.1497 -0.1365
 7564SOL    HW134328   1.288   4.036   3.670 -0.2748 -0.8351  0.4153
 7564SOL    HW234329   1.235   3.926   3.588 -0.5883  2.0547  0.7720
 7565SOL     OW34330   0.898   3.819   6.091 -0.3416  0.1593 -0.4297
 7565SOL    HW134331   0.837   3.891   6.108  0.1590  0.0664  1.8497
 7565SOL    HW234332   0.963   3.873   6.046  0.2635  0.7613  1.1375
 7566SOL     OW34333   2.537   0.894   3.901  0.0216  0.4363 -0.4907
 7566SOL    HW134334   2.480   0.822   3.930 -0.9612  1.7653  0.9089
 7566SOL    HW234335   2.624   0.855   3.906 -0.1912  0.5124  4.1999
 7567SOL     OW34336   3.162   4.658  14.260 -0.2627  0.7369  0.0746
 7567SOL    HW134337   3.171   0.013  14.248  0.2291  0.6921  0.0871
 7567SOL    HW234338   3.193   4.645  14.350  1.1108  0.1050 -0.4921
 7568SOL     OW34339   4.372   1.886   1.564 -0.5416 -0.4102  0.3267
 7568SOL    HW134340   4.441   1.877   1.629 -0.5241 -0.2130  0.3367
 7568SOL    HW234341   4.345   1.795   1.553 -1.0300 -0.3260  0.8130
 7569SOL     OW34342   2.966   1.618   2.079 -0.1935  0.3332 -0.4030
 7569SOL    HW134343   3.030   1.550   2.103 -0.2800 -0.1771 -1.6326
 7569SOL    HW234344   2.965   1.677   2.154  1.2828 -0.4453  0.2274
 7570SOL     OW34345   0.037   4.523   5.721  0.0781 -0.2675 -0.2370
 7570SOL    HW134346   4.709   4.459   5.743  0.2039  0.2722  1.7161
 7570SOL    HW234347   4.722   4.592   5.685  0.1320 -0.2264 -0.2397
 7571SOL     OW34348   0.081   1.422   9.200  0.1558 -0.7075 -0.2322
 7571SOL    HW134349   0.146   1.413   9.270  0.1884 -1.2772 -0.3390
 7571SOL    HW234350   0.135   1.471   9.137 -0.7306  0.4045 -0.1348
 7572SOL     OW34351   0.277   2.757   9.419 -0.0175 -0.1790  0.7740
 7572SOL    HW134352   0.220   2.821   9.462  1.8870  1.6407  0.5953
 7572SOL    HW234353   0.364   2.787   9.443  0.1109  2.0427 -2.4725
 7573SOL     OW34354   1.572   3.573   8.843 -0.0978 -0.4628 -0.2357
 7573SOL    HW134355   1.630   3.624   8.899  1.5131  0.1774 -2.5023
 7573SOL    HW234356   1.529   3.641   8.791 -1.9889 -1.5008 -0.0455
 7574SOL     OW34357   4.118   0.394   4.310 -0.1529  0.0573 -0.2692
 7574SOL    HW134358   4.180   0.344   4.363 -0.2737 -1.0628 -1.1820
 7574SOL    HW234359   4.054   0.431   4.371 -0.3212  1.6443 -1.4155
 7575SOL     OW34360   0.724   3.503   7.026  0.1993  0.0413 -0.9918
 7575SOL    HW134361   0.676   3.420   7.033 -1.7661  1.3482  1.1505
 7575SOL    HW234362   0.763   3.509   6.939  0.5196 -1.6439 -0.9781
 7576SOL     OW34363   2.498   1.637   4.293 -0.2912 -0.2697 -0.0552
 7576SOL    HW134364   2.593   1.642   4.291 -0.2303 -1.1631  0.4215
 7576SOL    HW234365   2.485   1.542   4.285 -1.2014 -0.0362 -1.4271
 7577SOL     OW34366   0.337   3.131   6.650 -0.1089 -0.4929 -0.0211
 7577SOL    HW134367   0.297   3.181   6.579  1.5599 -1.0385 -1.3259
 7577SOL    HW234368   0.268   3.068   6.672 -1.6864  0.3996 -2.4052
 7578SOL     OW34369   1.611   4.579  12.092  0.2370 -0.2123  0.1865
 7578SOL    HW134370   1.539   4.515  12.088 -0.6900  0.8927 -0.9667
 7578SOL    HW234371   1.597   4.617  12.178  1.0004 -0.5182  0.4413
 7579SOL     OW34372   4.648   3.629   5.689 -0.2272  0.0350  0.7069
 7579SOL    HW134373   4.566   3.656   5.731 -1.3296 -1.4632 -0.4724
 7579SOL    HW234374   4.641   3.534   5.675  0.6572  0.1232 -0.3661
 7580SOL     OW34375   2.865   4.154  10.793  0.3018  0.1624  0.3431
 7580SOL    HW134376   2.772   4.166  10.814  0.2955 -2.0739  1.5945
 7580SOL    HW234377   2.915   4.138  10.873 -0.2363  0.4382  0.7336
 7581SOL     OW34378   1.445   3.146   3.296  0.5857 -0.4554  0.1132
 7581SOL    HW134379   1.454   3.232   3.338 -0.4121  0.8520 -2.3451
 7581SOL    HW234380   1.350   3.138   3.285  0.5512 -0.2208  0.2286
 7582SOL     OW34381   0.925   2.480   7.303 -0.0649 -0.2428 -0.9021
 7582SOL    HW134382   0.940   2.420   7.230  0.2538 -1.0303 -0.1927
 7582SOL    HW234383   0.980   2.555   7.281  1.6021 -2.0522 -2.8672
 7583SOL     OW34384   3.308   4.498   3.286 -0.0350 -0.3646 -0.0646
 7583SOL    HW134385   3.238   4.501   3.220 -1.1638 -1.1160  1.0942
 7583SOL    HW234386   3.365   4.436   3.241  0.2266  0.1006 -0.3748
 7584SOL     OW34387   4.300   2.814   4.753 -0.2572 -0.0505  0.2839
 7584SOL    HW134388   4.263   2.839   4.837 -0.1366  1.3341 -0.0780
 7584SOL    HW234389   4.245   2.846   4.681 -0.9232 -2.1654 -0.1565
 7585SOL     OW34390   1.094   3.358   7.091  1.1316 -0.2719 -1.0426
 7585SOL    HW134391   1.146   3.363   7.011  0.9575  0.9671 -1.0710
 7585SOL    HW234392   1.152   3.308   7.149  0.5734  0.1151 -0.1414
 7586SOL     OW34393   1.521   0.529   3.826 -0.4851  0.3683 -0.2670
 7586SOL    HW134394   1.497   0.622   3.827  2.0449  1.0066  0.7624
 7586SOL    HW234395   1.574   0.523   3.747  2.5226  3.1521  1.5241
 7587SOL     OW34396   0.269   0.190   9.044 -0.5197 -0.1617 -0.6445
 7587SOL    HW134397   0.239   0.281   9.050  2.8290  0.8423  0.9109
 7587SOL    HW234398   0.205   0.154   9.105  0.5489 -2.1099 -0.6816
 7588SOL     OW34399   2.339   1.585  12.597  0.4333 -0.0893 -0.3200
 7588SOL    HW134400   2.319   1.534  12.518  1.4456 -2.5233  0.9993
 7588SOL    HW234401   2.265   1.645  12.604  0.4593 -0.3394  2.1022
 7589SOL     OW34402   3.237   1.066   2.517 -0.1122 -0.0670 -0.3660
 7589SOL    HW134403   3.270   1.075   2.428 -1.2678 -1.5469 -0.9410
 7589SOL    HW234404   3.187   0.985   2.519 -1.7130  0.9618  2.0506
 7590SOL     OW34405   1.853   2.878   1.699  0.4026  0.0648  0.3021
 7590SOL    HW134406   1.761   2.902   1.686  0.0095 -0.5821  1.7858
 7590SOL    HW234407   1.843   2.791   1.739  0.7820  1.2212  2.8773
 7591SOL     OW34408   0.240   4.564   4.253  0.3562 -0.3808 -0.5175
 7591SOL    HW134409   0.223   4.587   4.345 -0.3105 -0.6135 -0.5895
 7591SOL    HW234410   0.232   4.654   4.222  4.1254  0.1353 -0.0731
 7592SOL     OW34411   1.847   3.193  10.036  0.5484 -0.3293 -0.4456
 7592SOL    HW134412   1.783   3.144   9.984 -0.9295  2.3473 -1.1772
 7592SOL    HW234413   1.922   3.138  10.012  0.8499 -0.1909  0.2013
 7593SOL     OW34414   0.124   0.264   4.643 -0.6936  0.1629 -0.1402
 7593SOL    HW134415   0.167   0.324   4.704 -1.6534  1.4552 -0.7167
 7593SOL    HW234416   0.167   0.282   4.560 -0.1273 -1.0717 -0.1139
 7594SOL     OW34417   4.047   1.155   3.648 -0.5003 -0.4442  0.1164
 7594SOL    HW134418   4.008   1.075   3.684  0.4179 -1.9972 -2.3362
 7594SOL    HW234419   4.019   1.222   3.710 -2.1104  0.7832 -1.9445
 7595SOL     OW34420   0.389   0.961  13.607 -0.0404 -0.4203  0.4201
 7595SOL    HW134421   0.327   0.889  13.594 -0.5619  0.5744 -2.6483
 7595SOL    HW234422   0.400   0.977  13.513  1.3859  1.8712  0.9756
 7596SOL     OW34423   0.407   2.641   0.001 -0.4596  0.4222  0.1173
 7596SOL    HW134424   0.423   2.735  17.754 -1.3217  0.6631  2.0723
 7596SOL    HW234425   0.332   2.631   0.059  1.2124 -2.7371  1.7212
 7597SOL     OW34426   0.665   4.727   5.382  0.5324 -0.1462  0.2086
 7597SOL    HW134427   0.673   4.739   5.477  0.7154 -0.8097  0.2824
 7597SOL    HW234428   0.744   0.027   5.346 -0.1940  0.8911 -0.2307
 7598SOL     OW34429   1.669   3.349   6.159  0.0742 -0.4251 -0.1675
 7598SOL    HW134430   1.622   3.266   6.172  0.3856 -0.7570 -1.1956
 7598SOL    HW234431   1.693   3.335   6.068 -0.7647 -4.0091  0.1507
 7599SOL     OW34432   3.012   1.412   9.110 -0.0915 -0.1614 -0.0869
 7599SOL    HW134433   2.957   1.420   9.033  0.1376  0.0823 -0.2235
 7599SOL    HW234434   2.984   1.328   9.148 -0.2110 -0.3158 -0.5141
 7600SOL     OW34435   4.386   1.352  11.189 -0.4912  0.2671 -0.2001
 7600SOL    HW134436   4.409   1.261  11.168  0.0981  0.4240 -0.2221
 7600SOL    HW234437   4.291   1.347  11.182 -0.5733  1.1897  0.3718
 7601SOL     OW34438   0.979   1.568  12.071 -0.1685 -0.3537  0.6297
 7601SOL    HW134439   1.003   1.641  12.014  1.2116 -2.7235 -1.8218
 7601SOL    HW234440   1.066   1.529  12.082 -0.1048  0.5026  3.1002
 7602SOL     OW34441   2.876   1.726   6.009  0.2917  0.3935 -0.2257
 7602SOL    HW134442   2.932   1.690   6.078 -0.7808 -2.3029 -0.7803
 7602SOL    HW234443   2.913   1.814   6.007 -0.7486  0.8260 -0.6365
 7603SOL     OW34444   3.019   1.513   7.721  0.1218 -0.1038 -0.2155
 7603SOL    HW134445   2.956   1.520   7.649 -0.7429 -1.7775  0.3603
 7603SOL    HW234446   3.082   1.450   7.686 -1.2993 -1.3651 -0.5029
 7604SOL     OW34447   0.578   1.811   5.273 -0.1283  0.3513  0.8018
 7604SOL    HW134448   0.547   1.899   5.293 -2.0627 -0.0464 -0.4940
 7604SOL    HW234449   0.668   1.807   5.307  0.2224  0.7216 -0.0813
 7605SOL     OW34450   2.315   3.687  17.006  0.4320 -0.1790 -0.5766
 7605SOL    HW134451   2.267   3.605  16.999  0.9523 -0.4455 -0.9687
 7605SOL    HW234452   2.292   3.705  17.098  2.0361  1.5072 -0.5039
 7606SOL     OW34453   4.554   1.270   7.423 -0.1904 -0.3382  0.5546
 7606SOL    HW134454   4.579   1.261   7.331 -0.2225  1.1714  0.3984
 7606SOL    HW234455   4.495   1.195   7.431 -2.4900  1.4241 -0.0739
 7607SOL     OW34456   1.354   3.083   5.429 -0.1562 -0.0476  0.0800
 7607SOL    HW134457   1.289   3.026   5.387  1.1827 -1.2914 -0.3039
 7607SOL    HW234458   1.410   3.121   5.361 -2.2661  0.0844 -1.5898
 7608SOL     OW34459   3.297   0.328   7.384  0.5778 -0.2021  0.7505
 7608SOL    HW134460   3.243   0.391   7.335  0.5219  1.0105  2.3546
 7608SOL    HW234461   3.264   0.247   7.346  1.5020  0.7573 -2.0826
 7609SOL     OW34462   3.715   0.707   8.356 -0.2711 -0.0337  0.1260
 7609SOL    HW134463   3.729   0.612   8.360  0.8028  0.1379  0.5171
 7609SOL    HW234464   3.691   0.729   8.446 -0.2465  0.1817  0.0784
 7610SOL     OW34465   4.115   3.987   3.674 -0.2015  0.5031  0.3758
 7610SOL    HW134466   4.048   3.935   3.630  2.5070 -0.7329 -2.2557
 7610SOL    HW234467   4.053   4.055   3.701 -0.4958 -0.3054  1.7319
 7611SOL     OW34468   2.659   0.729   9.400  0.6126 -0.0457  0.1016
 7611SOL    HW134469   2.655   0.696   9.310 -0.8189  0.3150  0.0368
 7611SOL    HW234470   2.569   0.757   9.414  1.1181  1.6366 -0.0214
 7612SOL     OW34471   3.660   2.946   9.718  0.2713 -0.2012 -0.4008
 7612SOL    HW134472   3.735   2.912   9.670 -0.3903 -0.4068 -1.2995
 7612SOL    HW234473   3.598   2.930   9.646 -1.9628  0.1265  1.4402
 7613SOL     OW34474   3.341   3.019   5.938  0.0386 -0.5673  0.4374
 7613SOL    HW134475   3.354   2.967   5.859 -1.2253  0.7950 -0.6520
 7613SOL    HW234476   3.271   2.971   5.982 -0.4038 -1.0665 -0.8385
 7614SOL     OW34477   2.345   1.881   2.226  0.2145  0.2506  0.3220
 7614SOL    HW134478   2.431   1.919   2.212  0.1956  0.1480 -0.0668
 7614SOL    HW234479   2.325   1.931   2.306 -0.2005 -0.7750  0.8666
 7615SOL     OW34480   3.575   3.435   6.901 -0.3261 -0.3235 -0.2739
 7615SOL    HW134481   3.551   3.357   6.952 -0.0963 -0.6521 -0.6665
 7615SOL    HW234482   3.489   3.476   6.889 -0.0084  0.3394 -0.2358
 7616SOL     OW34483   1.606   3.063   2.735 -0.0500 -0.0634  0.5908
 7616SOL    HW134484   1.579   2.994   2.675  0.6711  1.9241 -1.9749
 7616SOL    HW234485   1.657   3.119   2.677 -1.0547  1.1627  0.8756
 7617SOL     OW34486   1.914   0.810   6.332 -0.4955 -0.2870 -0.2447
 7617SOL    HW134487   1.903   0.889   6.386 -0.1397 -2.4106  2.8922
 7617SOL    HW234488   1.909   0.736   6.392 -1.0285 -0.1148 -0.0777
 7618SOL     OW34489   2.556   0.463   5.668 -0.4632 -0.1952  0.2970
 7618SOL    HW134490   2.515   0.408   5.601  0.1261  1.8395 -1.7508
 7618SOL    HW234491   2.479   0.475   5.723 -0.5687  0.4041  0.0235
 7619SOL     OW34492   0.892   2.430   2.177 -0.2036  0.8265  0.1761
 7619SOL    HW134493   0.972   2.431   2.229  0.8779 -0.8507 -1.4680
 7619SOL    HW234494   0.915   2.359   2.117  0.1069  0.4318  0.7569
 7620SOL     OW34495   0.608   4.692   0.721  0.3159  0.3202 -0.2264
 7620SOL    HW134496   0.640   0.041   0.704  0.0390  0.7723  1.6914
 7620SOL    HW234497   0.657   4.639   0.658 -0.7420  1.9242 -2.4284
 7621SOL     OW34498   2.879   1.663   6.285 -0.4063  0.4928  1.3736
 7621SOL    HW134499   2.789   1.689   6.307 -1.1430 -0.3014 -0.7410
 7621SOL    HW234500   2.928   1.736   6.324  2.5493 -0.0427 -1.3037
 7622SOL     OW34501   1.224   1.871   4.739  0.5355  0.1245  0.1029
 7622SOL    HW134502   1.167   1.947   4.727 -2.4583 -1.9863  0.9906
 7622SOL    HW234503   1.219   1.876   4.835 -3.2012  0.9484 -0.1257
 7623SOL     OW34504   2.947   0.644   8.438 -0.4927 -0.0842 -0.4324
 7623SOL    HW134505   2.960   0.625   8.531 -3.8748  0.1905  0.1160
 7623SOL    HW234506   2.893   0.572   8.406 -0.3068 -1.0103  1.3354
 7624SOL     OW34507   0.888   2.297   0.886  0.1052  0.9021  0.2379
 7624SOL    HW134508   0.798   2.285   0.855 -0.4718  1.0885  1.8600
 7624SOL    HW234509   0.935   2.325   0.808 -0.6321  3.7492  0.8106
 7625SOL     OW34510   1.289   0.736   1.841  0.2561  0.1993  0.1947
 7625SOL    HW134511   1.238   0.688   1.906  0.1461 -1.0945 -0.8418
 7625SOL    HW234512   1.377   0.699   1.851  0.9548  1.1625 -2.3612
 7626SOL     OW34513   2.246   1.570  16.881  0.1357 -0.6643  0.1437
 7626SOL    HW134514   2.203   1.514  16.816  0.3533  3.6681 -3.7114
 7626SOL    HW234515   2.241   1.658  16.844 -1.7135 -0.7650  0.1104
 7627SOL     OW34516   3.787   1.389  14.994  0.4216  0.0262 -0.1583
 7627SOL    HW134517   3.750   1.458  15.048  1.4697  2.0983 -2.1045
 7627SOL    HW234518   3.717   1.361  14.935  0.0661 -0.7986  0.6562
 7628SOL     OW34519   3.857   3.667   6.201 -0.0524 -0.2184 -0.1637
 7628SOL    HW134520   3.950   3.689   6.194 -0.2922 -0.1456 -3.3173
 7628SOL    HW234521   3.830   3.711   6.281  1.8224  0.1015  0.2852
 7629SOL     OW34522   0.963   0.107   3.970 -0.1204  0.2783 -0.3468
 7629SOL    HW134523   0.898   0.174   3.950 -1.9456 -1.3395  0.0997
 7629SOL    HW234524   1.027   0.162   4.014 -0.3837  0.8999 -0.7510
 7630SOL     OW34525   2.918   2.664   8.407  0.0334  0.7414  0.4258
 7630SOL    HW134526   2.992   2.631   8.457 -0.2052  0.3882  0.5509
 7630SOL    HW234527   2.869   2.720   8.467  0.1470  0.7236  0.5357
 7631SOL     OW34528   1.413   2.938   5.648 -0.1909 -0.5423 -0.8226
 7631SOL    HW134529   1.320   2.923   5.634 -0.5098 -0.8265  1.6273
 7631SOL    HW234530   1.434   2.993   5.573  0.1639 -1.2351 -1.2361
 7632SOL     OW34531   2.816   2.814   8.650  0.0454 -0.1623 -0.5854
 7632SOL    HW134532   2.844   2.894   8.603  0.4787  1.0135  1.6841
 7632SOL    HW234533   2.721   2.825   8.649  0.1945  1.1698  0.1902
 7633SOL     OW34534   2.035   4.334   9.539 -0.2467  0.2436  0.3167
 7633SOL    HW134535   1.987   4.406   9.498 -0.9554 -0.1645  0.4250
 7633SOL    HW234536   2.057   4.381   9.620  2.4481 -2.2393  1.0295
 7634SOL     OW34537   1.304   1.711   3.582  0.4378 -0.2172 -0.6748
 7634SOL    HW134538   1.337   1.788   3.628  3.6512 -1.3875 -1.0499
 7634SOL    HW234539   1.329   1.644   3.645 -2.5874 -1.6238 -0.9792
 7635SOL     OW34540   3.421   4.714  12.920  0.0490  0.1438  0.3899
 7635SOL    HW134541   3.437   4.731  12.828 -2.9503 -0.9746 -0.3469
 7635SOL    HW234542   3.488   4.648  12.935  0.7382  0.6705 -0.3985
 7636SOL     OW34543   1.601   1.935   4.257 -0.5106 -0.2935 -0.4334
 7636SOL    HW134544   1.687   1.974   4.247  0.9324 -3.1269  0.8858
 7636SOL    HW234545   1.581   1.929   4.163 -0.7942 -1.0384 -0.3253
 7637SOL     OW34546   3.970   1.316   3.382 -0.4829  0.1565 -0.6873
 7637SOL    HW134547   4.045   1.359   3.341  0.5100 -0.9501 -0.0253
 7637SOL    HW234548   3.999   1.225   3.381  0.2930  0.4044 -0.4122
 7638SOL     OW34549   4.480   0.378   9.465  0.6721 -0.5535  0.5384
 7638SOL    HW134550   4.491   0.372   9.371 -3.2838  0.9576 -0.0486
 7638SOL    HW234551   4.395   0.334   9.474 -0.0024  0.5057 -0.6437
 7639SOL     OW34552   4.600   0.726   7.092 -0.5694 -0.0520 -0.0701
 7639SOL    HW134553   4.690   0.740   7.063 -0.2335 -0.5787  0.7101
 7639SOL    HW234554   4.565   0.680   7.016 -0.1684 -0.6889  0.1253
 7640SOL     OW34555   2.939   2.792   9.813 -0.2629  0.4957  0.1823
 7640SOL    HW134556   3.032   2.809   9.828  0.1035 -1.1353 -0.2725
 7640SOL    HW234557   2.941   2.773   9.719 -2.8577  0.0904  0.2022
 7641SOL     OW34558   2.165   1.318  14.151 -0.3662  0.1576  0.4436
 7641SOL    HW134559   2.249   1.355  14.127 -0.9683  1.6652  0.6434
 7641SOL    HW234560   2.115   1.380  14.098 -1.8781 -1.1099  0.3918
 7642SOL     OW34561   1.588   3.466  10.597 -0.9086  0.4623  0.0445
 7642SOL    HW134562   1.653   3.401  10.572 -0.4268  0.1358  2.2029
 7642SOL    HW234563   1.651   3.531  10.630  2.6587 -1.8289 -2.3054
 7643SOL     OW34564   3.277   0.414   3.834  0.5054 -0.5991  0.3153
 7643SOL    HW134565   3.247   0.486   3.778  0.4150 -1.8009 -1.1928
 7643SOL    HW234566   3.203   0.353   3.832 -1.4210  1.7606 -1.2405
 7644SOL     OW34567   2.137   2.301   3.115 -0.5733 -0.1116  0.0505
 7644SOL    HW134568   2.079   2.372   3.088 -1.3995 -1.2547 -1.2091
 7644SOL    HW234569   2.147   2.313   3.209  0.9829 -3.4600  0.3461
 7645SOL     OW34570   1.270   0.776  17.120  0.1359  0.0107  0.5489
 7645SOL    HW134571   1.296   0.854  17.169 -0.1520 -0.4449  1.4284
 7645SOL    HW234572   1.353   0.734  17.097 -1.7352 -3.0100 -0.6624
 7646SOL     OW34573   0.457   2.729   7.073 -0.1779  0.1401  0.1479
 7646SOL    HW134574   0.454   2.806   7.017 -0.5811  0.3954  0.5174
 7646SOL    HW234575   0.373   2.688   7.054 -0.2518 -0.1446  1.0646
 7647SOL     OW34576   2.052   3.070   9.590  0.4875  0.8839 -0.4737
 7647SOL    HW134577   2.065   3.165   9.591 -0.1915  0.9558  0.7188
 7647SOL    HW234578   2.141   3.048   9.619  0.7540 -0.3723 -2.2481
 7648SOL     OW34579   0.345   2.840   7.687  0.4299 -0.1116  0.1448
 7648SOL    HW134580   0.394   2.910   7.731  1.5944 -0.8893  0.0653
 7648SOL    HW234581   0.420   2.791   7.653 -0.5860 -1.5040 -0.0970
 7649SOL     OW34582   4.041   2.936   2.706 -0.5818  0.6059  0.5908
 7649SOL    HW134583   4.055   2.928   2.612  0.6422 -0.3481  0.8541
 7649SOL    HW234584   4.052   2.842   2.723 -0.6906  0.6696  1.0251
 7650SOL     OW34585   2.478   0.643   6.062  0.3947 -0.1725  0.7922
 7650SOL    HW134586   2.447   0.560   6.025  0.5904 -0.7382  1.8919
 7650SOL    HW234587   2.485   0.620   6.155 -1.9869 -1.1045  0.7243
 7651SOL     OW34588   2.489   0.009  14.630 -0.7964 -0.3362  0.3006
 7651SOL    HW134589   2.511   0.025  14.721 -2.4511 -0.5808  0.7569
 7651SOL    HW234590   2.560   4.690  14.605 -1.3634 -0.7871 -0.2868
 7652SOL     OW34591   0.809   0.171   1.649 -0.0620 -0.4834 -0.5980
 7652SOL    HW134592   0.804   0.150   1.742  0.5390  1.0067 -0.2255
 7652SOL    HW234593   0.835   0.263   1.645  1.3655 -0.9125 -1.1943
 7653SOL     OW34594   1.459   3.210  14.406  0.1412  0.3078  0.4656
 7653SOL    HW134595   1.408   3.138  14.442  0.6274 -0.1142  0.3085
 7653SOL    HW234596   1.428   3.243  14.322 -0.6010  1.1815  1.0770
 7654SOL     OW34597   4.250   3.823   8.674 -0.3316 -0.5006 -0.1538
 7654SOL    HW134598   4.336   3.852   8.706 -0.3857  0.2357 -0.6586
 7654SOL    HW234599   4.221   3.756   8.736 -0.3449  0.6854  1.1263
 7655SOL     OW34600   4.611   4.109   9.063  0.1189  0.2398 -0.2173
 7655SOL    HW134601   4.632   4.202   9.057 -1.3070  0.6457  1.3226
 7655SOL    HW234602   4.598   4.102   9.157  1.0095 -0.1834 -0.1265
 7656SOL     OW34603   3.626   3.236   4.700 -0.8535  0.0908 -0.7301
 7656SOL    HW134604   3.682   3.309   4.672  0.2081 -0.3976  0.1240
 7656SOL    HW234605   3.568   3.223   4.625  1.5660 -1.0268 -2.4223
 7657SOL     OW34606   0.234   1.290   4.872 -0.1848 -0.2527  0.3174
 7657SOL    HW134607   0.291   1.367   4.869  1.5290 -1.4750  1.2906
 7657SOL    HW234608   0.265   1.254   4.955  3.7280  1.3021 -0.4820
 7658SOL     OW34609   3.272   4.343  13.653 -0.0261  0.2136 -0.0741
 7658SOL    HW134610   3.293   4.436  13.660 -1.4576  0.3862  1.8753
 7658SOL    HW234611   3.353   4.310  13.613  0.1630  1.2410 -0.5264
 7659SOL     OW34612   3.404   0.161   4.511  1.1343  0.0047  0.8186
 7659SOL    HW134613   3.447   0.079   4.488  2.2307  1.3361 -1.8966
 7659SOL    HW234614   3.367   0.185   4.426  4.6268 -0.8755 -0.9657
 7660SOL     OW34615   2.722   1.313   2.990 -0.4936 -0.3432  0.1803
 7660SOL    HW134616   2.691   1.391   2.944 -0.1398 -1.9220 -2.7680
 7660SOL    HW234617   2.687   1.244   2.933  0.3355 -1.7273  1.3463
 7661SOL     OW34618   3.431   0.854   5.712 -0.0984 -0.3416  0.2551
 7661SOL    HW134619   3.420   0.948   5.703  0.9123 -0.2238  0.2492
 7661SOL    HW234620   3.341   0.827   5.696  0.0807 -0.4370 -0.5858
 7662SOL     OW34621   0.101   0.900  11.909  0.2846 -0.6275  0.0223
 7662SOL    HW134622   0.137   0.966  11.968 -0.9917 -0.2921  0.4238
 7662SOL    HW234623   0.175   0.890  11.848 -0.0390  1.1384 -0.6364
 7663SOL     OW34624   1.149   2.367   6.286 -0.0174  0.3568  0.0126
 7663SOL    HW134625   1.065   2.322   6.287  0.1319  0.0702 -0.2961
 7663SOL    HW234626   1.157   2.388   6.193  3.3893 -0.2788  0.1277
 7664SOL     OW34627   0.375   0.008   4.500 -0.0483 -0.6657 -0.3351
 7664SOL    HW134628   0.401   0.022   4.591  0.9828  1.9849 -1.0592
 7664SOL    HW234629   0.285   4.717   4.513 -1.1004  2.2143 -0.6405
 7665SOL     OW34630   1.995   3.511   7.970  0.0088  0.5385 -0.5435
 7665SOL    HW134631   2.001   3.449   8.043  0.8934 -0.2024 -1.2431
 7665SOL    HW234632   2.043   3.468   7.899  1.3754  1.4098 -0.1377
 7666SOL     OW34633   4.403   0.698   5.969  0.0659 -0.1221 -0.7560
 7666SOL    HW134634   4.468   0.634   5.941  1.5283  0.9362  0.2157
 7666SOL    HW234635   4.328   0.651   5.933  1.4017 -2.0833 -0.9642
 7667SOL     OW34636   1.599   2.237  15.196 -0.4256  0.0653 -0.6048
 7667SOL    HW134637   1.551   2.309  15.155 -1.8320  0.5859  1.9678
 7667SOL    HW234638   1.536   2.212  15.263 -1.1672 -1.5622 -1.8931
 7668SOL     OW34639   1.930   2.112   8.441  1.5389 -0.4785 -0.0568
 7668SOL    HW134640   1.978   2.067   8.511  2.8638 -0.3217 -0.8585
 7668SOL    HW234641   2.014   2.139   8.404  1.5330  0.2943  0.4955
 7669SOL     OW34642   0.463   3.803  11.258  0.0998  0.3376 -0.0555
 7669SOL    HW134643   0.508   3.875  11.301  0.0147 -1.9349  3.8568
 7669SOL    HW234644   0.490   3.729  11.313  1.7086  1.1465  0.2473
 7670SOL     OW34645   4.400   4.232  17.414 -0.1579 -0.0679 -0.3864
 7670SOL    HW134646   4.314   4.199  17.387 -0.1717  0.6373 -1.1642
 7670SOL    HW234647   4.378   4.312  17.462 -0.6097  0.5588 -1.6454
 7671SOL     OW34648   0.073   3.638  10.672  0.0729  0.0205  0.0793
 7671SOL    HW134649   0.007   3.694  10.631  2.4470  2.9951  0.3139
 7671SOL    HW234650   0.069   3.554  10.626 -1.9762 -0.0434  0.3743
 7672SOL     OW34651   4.738   1.666   7.869 -0.1424 -0.0898 -0.3392
 7672SOL    HW134652   0.093   1.660   7.879 -0.1937  0.7547  0.6500
 7672SOL    HW234653   4.702   1.664   7.957  1.5820 -4.3670  0.2647
 7673SOL     OW34654   3.865   2.476   5.751 -0.3643 -0.4015  0.4632
 7673SOL    HW134655   3.882   2.385   5.726 -0.7191 -0.1663 -0.6090
 7673SOL    HW234656   3.776   2.460   5.782 -0.0224 -0.6581  1.3142
 7674SOL     OW34657   2.151   1.410   1.685  0.1914  0.7062 -0.2777
 7674SOL    HW134658   2.192   1.448   1.762 -0.4968  0.1216  0.3758
 7674SOL    HW234659   2.125   1.333   1.735  0.3018  1.3110  0.7227
 7675SOL     OW34660   2.451   3.503   6.830  0.1596  0.0092  0.1794
 7675SOL    HW134661   2.366   3.522   6.869 -0.0599  0.9698 -0.7493
 7675SOL    HW234662   2.490   3.496   6.917 -2.0320 -0.4791  1.1146
 7676SOL     OW34663   4.302   1.631   1.493 -0.3684  0.2594  0.0733
 7676SOL    HW134664   4.350   1.572   1.435 -1.4887 -1.0624  0.4840
 7676SOL    HW234665   4.226   1.656   1.439 -1.7623  1.3956  2.5721
 7677SOL     OW34666   2.854   1.346   8.739 -0.0959  0.2230 -0.0258
 7677SOL    HW134667   2.821   1.257   8.751 -1.7857  0.7376 -0.8329
 7677SOL    HW234668   2.922   1.335   8.673  1.5857  1.0917  1.5724
 7678SOL     OW34669   2.503   3.491   1.168  0.2895  0.3319 -0.3898
 7678SOL    HW134670   2.577   3.431   1.159  0.9008  1.2147 -1.2279
 7678SOL    HW234671   2.437   3.437   1.126  0.5045  0.7723 -1.2841
 7679SOL     OW34672   0.936   2.527  12.763 -0.1823 -0.0220  0.4452
 7679SOL    HW134673   1.029   2.546  12.753 -0.2505  0.2517  0.3344
 7679SOL    HW234674   0.911   2.601  12.818 -0.4377  0.0239  0.2659
 7680SOL     OW34675   2.763   1.476  12.092  0.0629 -0.8497  0.8010
 7680SOL    HW134676   2.668   1.478  12.099  0.1197  1.9390  0.8770
 7680SOL    HW234677   2.780   1.518  12.007 -0.0976 -1.0612  0.6654
 7681SOL     OW34678   0.374   4.148   9.710 -0.1652  0.0561  0.0428
 7681SOL    HW134679   0.280   4.135   9.716 -0.4452  2.3290  0.3805
 7681SOL    HW234680   0.399   4.107   9.793 -2.3544 -0.8974  0.2267
 7682SOL     OW34681   1.031   2.986   2.145  0.4318 -0.5341  0.4815
 7682SOL    HW134682   1.077   3.029   2.218 -1.8486  0.4932  1.3257
 7682SOL    HW234683   1.083   3.024   2.074  0.2586  0.4931  0.8932
 7683SOL     OW34684   2.968   3.736  13.072  0.1741  0.1484 -0.0051
 7683SOL    HW134685   2.984   3.654  13.025  0.8380  0.2655  0.0129
 7683SOL    HW234686   2.929   3.779  12.996  1.7551  2.0633  0.2821
 7684SOL     OW34687   0.581   2.756  16.821 -0.1059 -0.1373  0.5083
 7684SOL    HW134688   0.568   2.709  16.904 -2.1401  2.8357  1.8610
 7684SOL    HW234689   0.669   2.791  16.834 -0.4768  1.3226 -1.0191
 7685SOL     OW34690   3.230   4.703   2.707  0.5334 -0.0277 -0.1701
 7685SOL    HW134691   3.325   4.702   2.723  1.0733 -1.4694 -3.4394
 7685SOL    HW234692   3.219   4.617   2.667 -0.0328 -0.1689  0.2955
 7686SOL     OW34693   4.065   4.372   9.615  0.1684 -0.4146  0.0654
 7686SOL    HW134694   4.144   4.325   9.591  1.1109  0.5641  1.2610
 7686SOL    HW234695   4.010   4.294   9.627 -0.4892 -0.0841 -0.8482
 7687SOL     OW34696   0.690   2.275   3.927 -0.0493  0.7124  0.1160
 7687SOL    HW134697   0.707   2.255   4.019 -1.4967  0.9840  0.4323
 7687SOL    HW234698   0.778   2.253   3.895 -0.4056  2.5257 -2.1291
 7688SOL     OW34699   1.811   0.485   5.850  0.5564  0.2159 -0.4336
 7688SOL    HW134700   1.768   0.412   5.805 -2.4417  1.0142  1.0930
 7688SOL    HW234701   1.770   0.474   5.936  2.4967  0.2448  0.4908
 7689SOL     OW34702   2.168   3.162   3.631 -0.1736 -0.4374 -0.2659
 7689SOL    HW134703   2.125   3.132   3.711  1.8626  0.5970  1.2469
 7689SOL    HW234704   2.218   3.236   3.666 -0.7003  0.5027 -1.5176
 7690SOL     OW34705   4.713   0.256   2.097  0.4354  0.5629 -0.2386
 7690SOL    HW134706   0.052   0.243   2.150 -1.2030  0.1792  2.1417
 7690SOL    HW234707   4.738   0.333   2.047 -0.5535  1.5551  0.7888
 7691SOL     OW34708   3.332   0.291  12.590 -0.0927  0.1464  0.2902
 7691SOL    HW134709   3.358   0.350  12.519 -0.0536 -1.8519 -1.3839
 7691SOL    HW234710   3.260   0.347  12.618 -0.1801  0.1202  0.1166
 7692SOL     OW34711   1.880   4.644  17.109  0.4455 -0.1986  0.0086
 7692SOL    HW134712   1.816   4.642  17.038  0.0779  1.1242  0.2908
 7692SOL    HW234713   1.885   4.552  17.135  1.8545 -0.0172  0.3720
 7693SOL     OW34714   1.871   1.118   7.025 -0.7578  0.4522  0.6920
 7693SOL    HW134715   1.795   1.065   7.052  0.3050 -0.7832  1.2314
 7693SOL    HW234716   1.879   1.178   7.099 -1.4230  2.5543 -0.9601
 7694SOL     OW34717   2.363   3.916   3.299  0.6226 -0.4774  0.4656
 7694SOL    HW134718   2.396   3.976   3.365 -3.1292  2.7364 -0.5373
 7694SOL    HW234719   2.303   3.857   3.344  0.4123 -0.9000 -0.3614
 7695SOL     OW34720   2.018   2.243   3.443  0.0570 -0.1172 -0.7483
 7695SOL    HW134721   1.969   2.296   3.381 -0.2679  0.6518  0.1675
 7695SOL    HW234722   2.044   2.292   3.521  1.0278 -1.5708 -0.1346
 7696SOL     OW34723   0.135   3.669   9.405 -0.3783 -0.4807 -0.2091
 7696SOL    HW134724   0.123   3.727   9.481 -0.1940  0.0541 -0.5909
 7696SOL    HW234725   0.072   3.708   9.344 -0.7059  0.8413  0.9663
 7697SOL     OW34726   3.627   2.322  10.907  0.2452 -0.2020 -0.0840
 7697SOL    HW134727   3.694   2.390  10.897 -1.3754  1.7304  2.0879
 7697SOL    HW234728   3.688   2.269  10.959  2.1875  2.6415  0.5190
 7698SOL     OW34729   0.920   0.681   9.618  0.4724  0.6727  0.3128
 7698SOL    HW134730   0.875   0.668   9.535 -0.4385 -0.5195  0.9918
 7698SOL    HW234731   1.012   0.668   9.594 -0.0261 -0.9000 -0.6925
 7699SOL     OW34732   1.950   3.715  16.189 -0.4583  0.0940 -0.0488
 7699SOL    HW134733   1.922   3.806  16.179  2.0113  0.8038 -0.4663
 7699SOL    HW234734   2.006   3.697  16.113  0.5419  3.6023 -0.1605
 7700SOL     OW34735   2.106   2.966   4.450 -0.2236  0.1118  0.7148
 7700SOL    HW134736   2.037   2.899   4.449 -0.4316  0.3894 -3.2146
 7700SOL    HW234737   2.059   3.039   4.490 -0.8889  1.1439 -1.9779
 7701SOL     OW34738   2.696   3.157   6.287  0.2530  0.0144 -0.8564
 7701SOL    HW134739   2.738   3.088   6.236  0.4629 -1.1715  0.8963
 7701SOL    HW234740   2.776   3.207   6.308 -0.0787  0.3667 -0.4109
 7702SOL     OW34741   3.050   3.024   9.639  0.2767  0.4010  0.0871
 7702SOL    HW134742   2.985   3.094   9.642  1.5098  1.5378 -0.1893
 7702SOL    HW234743   3.006   2.967   9.575 -0.5451 -0.8298  1.7503
 7703SOL     OW34744   0.999   1.932  16.613  0.4421 -0.1032 -0.1491
 7703SOL    HW134745   1.039   1.938  16.526  0.9477  0.2979  0.1077
 7703SOL    HW234746   0.939   1.859  16.604 -0.6409  0.6541  1.0259
 7704SOL     OW34747   0.971   0.900   3.682  0.2390  0.1757 -0.3756
 7704SOL    HW134748   0.996   0.961   3.613 -2.8856  0.6206 -1.1217
 7704SOL    HW234749   0.897   0.851   3.646 -0.0793 -0.9002  1.7559
 7705SOL     OW34750   0.334   1.733   2.219  0.5306 -0.3460  0.8022
 7705SOL    HW134751   0.312   1.711   2.310 -2.7536 -2.8396 -0.5750
 7705SOL    HW234752   0.322   1.828   2.217 -1.5302 -0.6329 -0.8816
 7706SOL     OW34753   3.021   1.403   1.393  0.7352 -0.3444  0.1205
 7706SOL    HW134754   2.940   1.361   1.421  0.7031  0.0101  0.5457
 7706SOL    HW234755   3.063   1.342   1.331 -1.8102 -1.6780 -0.2762
 7707SOL     OW34756   3.906   4.558   9.496 -0.4094  0.0938  0.3076
 7707SOL    HW134757   3.821   4.539   9.536 -0.6209  3.6156  1.5225
 7707SOL    HW234758   3.963   4.493   9.538  0.4049  0.4662 -0.2358
 7708SOL     OW34759   2.034   1.479  17.048  0.2035 -0.2053  0.5581
 7708SOL    HW134760   2.063   1.516  17.131  0.8878 -0.2418  0.3281
 7708SOL    HW234761   2.115   1.499  17.002  1.1951 -1.6343  1.7097
 7709SOL     OW34762   1.484   2.145   1.876 -0.2119 -0.4773  0.1060
 7709SOL    HW134763   1.513   2.056   1.856  3.1689  0.5286  0.4000
 7709SOL    HW234764   1.396   2.152   1.838 -1.0707 -3.0208  1.6773
 7710SOL     OW34765   1.196   0.613   2.052 -0.2797 -0.6483  0.1540
 7710SOL    HW134766   1.109   0.651   2.060 -0.9935 -2.7806  2.1367
 7710SOL    HW234767   1.238   0.645   2.132 -0.4156 -0.7753  0.2737
 7711SOL     OW34768   4.457   1.520   2.595 -0.6727  0.2843 -0.0548
 7711SOL    HW134769   4.515   1.509   2.671  2.1437  0.9743 -2.1282
 7711SOL    HW234770   4.517   1.489   2.528 -0.5940  1.0821 -0.3564
 7712SOL     OW34771   2.467   3.271   5.645  0.5631  0.4671 -0.0131
 7712SOL    HW134772   2.549   3.317   5.662  0.3856  1.5226 -2.0288
 7712SOL    HW234773   2.409   3.344   5.623 -0.2429 -0.3707 -0.6594
 7713SOL     OW34774   4.722   2.066   3.697  0.0193  0.4643 -0.0138
 7713SOL    HW134775   4.696   1.975   3.685  1.2371  0.2825 -1.2257
 7713SOL    HW234776   0.008   2.092   3.609  0.8631 -1.0298 -0.2079
 7714SOL     OW34777   1.313   2.666   6.492 -0.0495 -0.6215 -0.0828
 7714SOL    HW134778   1.271   2.711   6.419  0.9122 -3.2096 -2.2305
 7714SOL    HW234779   1.366   2.602   6.444  0.2915 -0.2974 -0.1380
 7715SOL     OW34780   3.739   1.057  13.253 -0.2329  0.3364 -0.2885
 7715SOL    HW134781   3.666   1.086  13.307  0.2231  0.6381  0.1627
 7715SOL    HW234782   3.818   1.077  13.303 -0.8031  1.6655  0.0665
 7716SOL     OW34783   0.005   2.000   4.034  0.4566  0.3100  0.2518
 7716SOL    HW134784   0.019   1.947   4.113 -1.1440 -0.3557  0.0833
 7716SOL    HW234785   4.663   1.961   4.004  1.3887 -0.7850 -0.8376
 7717SOL     OW34786   1.002   1.536   8.191  0.0578  0.0515  0.1838
 7717SOL    HW134787   0.912   1.505   8.182  0.1170  0.3934 -1.6623
 7717SOL    HW234788   1.027   1.559   8.101 -2.6558  1.6466 -0.1396
 7718SOL     OW34789   2.845   3.694   4.194 -0.2155  0.6394 -0.3735
 7718SOL    HW134790   2.868   3.622   4.252 -0.2993  0.0878 -1.0335
 7718SOL    HW234791   2.916   3.752   4.221  0.7490 -0.4601 -0.5715
 7719SOL     OW34792   3.531   2.926   9.471  0.1721 -1.0619 -0.1782
 7719SOL    HW134793   3.449   2.975   9.472 -0.4702 -2.1236  0.2036
 7719SOL    HW234794   3.526   2.890   9.383  0.0166  0.3316 -0.7314
 7720SOL     OW34795   4.541   3.562   8.102 -0.3435 -0.4778  0.2401
 7720SOL    HW134796   4.489   3.582   8.025 -0.6804 -1.1233  0.3061
 7720SOL    HW234797   4.484   3.596   8.171 -0.6655 -0.4247 -0.0578
 7721SOL     OW34798   3.836   3.235   9.094  0.3818 -0.3990  0.3166
 7721SOL    HW134799   3.923   3.252   9.131  1.2451 -0.6498 -1.5615
 7721SOL    HW234800   3.794   3.302   9.146 -1.4257 -0.5987 -0.9072
 7722SOL     OW34801   2.038   4.576   2.218  0.0538 -0.1242  0.2175
 7722SOL    HW134802   2.057   4.584   2.311  3.1501 -1.2902 -0.3049
 7722SOL    HW234803   1.991   4.657   2.196  2.4544  1.7432  1.9186
 7723SOL     OW34804   0.475   4.069  11.973 -0.4814  0.2969 -0.3779
 7723SOL    HW134805   0.472   4.050  11.879 -1.6810 -0.1033 -0.2681
 7723SOL    HW234806   0.567   4.090  11.987 -1.0459  1.7025  1.1852
 7724SOL     OW34807   1.035   3.476  14.806  0.3977 -0.5169  0.5153
 7724SOL    HW134808   1.039   3.484  14.711 -0.0197 -4.1043  0.2122
 7724SOL    HW234809   1.130   3.476  14.819  0.6311 -0.0877 -1.1462
 7725SOL     OW34810   0.426   4.394   8.305 -0.5954 -0.7058  0.0911
 7725SOL    HW134811   0.412   4.474   8.355 -0.0050 -0.8143  0.4364
 7725SOL    HW234812   0.521   4.380   8.297 -0.4849  0.2404 -0.2534
 7726SOL     OW34813   3.156   2.738   4.486 -0.2270 -0.0941 -0.3263
 7726SOL    HW134814   3.108   2.694   4.416 -4.4109  0.7847  2.0167
 7726SOL    HW234815   3.243   2.709   4.458 -0.7407 -1.4183 -0.5698
 7727SOL     OW34816   4.383   1.766   7.533 -0.7988  0.4883  0.1737
 7727SOL    HW134817   4.438   1.688   7.521 -0.8202  0.5190 -0.1195
 7727SOL    HW234818   4.430   1.808   7.605  2.1881  0.0050 -1.4839
 7728SOL     OW34819   1.619   1.993  10.811 -0.2759  0.0828  0.7099
 7728SOL    HW134820   1.673   2.050  10.866 -1.2413 -1.0759  2.8555
 7728SOL    HW234821   1.637   2.023  10.722 -2.1421  0.9514  0.6040
 7729SOL     OW34822   2.468   0.688   7.854 -1.3000  0.3695 -0.5807
 7729SOL    HW134823   2.561   0.701   7.874 -1.6078 -1.0154  1.7173
 7729SOL    HW234824   2.441   0.776   7.881  2.0470  0.4080  2.6017
 7730SOL     OW34825   3.884   0.432  13.807 -1.1162 -0.2982  0.1753
 7730SOL    HW134826   3.924   0.415  13.722 -1.6656  1.4491 -0.4213
 7730SOL    HW234827   3.838   0.515  13.797 -1.8904 -0.7068  0.2995
 7731SOL     OW34828   0.327   0.102   8.746  0.0339  0.0377  0.2572
 7731SOL    HW134829   0.356   0.091   8.836 -0.6656  1.1102  0.6129
 7731SOL    HW234830   0.234   0.124   8.752  0.5007  1.6444  1.7130
 7732SOL     OW34831   3.875   3.490  13.700 -0.5962  0.0008 -0.1445
 7732SOL    HW134832   3.796   3.457  13.655  0.5871 -1.5615 -1.0776
 7732SOL    HW234833   3.875   3.582  13.675 -0.7258  0.3300  1.0777
 7733SOL     OW34834   0.861   2.261   0.233 -0.3915  0.2016 -0.0810
 7733SOL    HW134835   0.867   2.356   0.228 -2.1585  0.1949 -2.1944
 7733SOL    HW234836   0.815   2.242   0.151 -1.2065 -0.1660  0.4585
 7734SOL     OW34837   1.295   3.812   2.927  0.3251  0.2366  0.5493
 7734SOL    HW134838   1.277   3.718   2.930 -0.5660  0.3419 -1.5112
 7734SOL    HW234839   1.329   3.823   3.016  0.9466 -2.3111  0.6229
 7735SOL     OW34840   0.683   2.677   9.021 -0.3158  0.5795  0.1310
 7735SOL    HW134841   0.704   2.741   8.954  1.8774 -1.2968 -0.9568
 7735SOL    HW234842   0.748   2.701   9.088  2.5521  0.1922 -2.5315
 7736SOL     OW34843   1.647   0.335   8.457  0.0445  0.7507  0.6203
 7736SOL    HW134844   1.598   0.415   8.438 -0.7684  0.7074  2.5826
 7736SOL    HW234845   1.580   0.267   8.460  0.6057  0.1115 -1.4276
 7737SOL     OW34846   3.195   3.922  11.705  0.0534 -0.2151 -0.1934
 7737SOL    HW134847   3.264   3.931  11.770  0.2427 -0.0063 -0.4210
 7737SOL    HW234848   3.209   3.829  11.691 -1.0599 -0.1595 -1.6955
 7738SOL     OW34849   2.639   1.841   2.654  0.1000  0.1562 -0.5671
 7738SOL    HW134850   2.699   1.777   2.692  0.5916  1.2903  0.5603
 7738SOL    HW234851   2.625   1.796   2.571  1.4639  0.0842 -0.7548
 7739SOL     OW34852   1.825   4.032   7.117 -0.3950 -0.4033  0.6332
 7739SOL    HW134853   1.830   4.074   7.203 -0.1386 -0.4011  0.6156
 7739SOL    HW234854   1.894   4.080   7.073 -0.2438  0.8031  2.2067
 7740SOL     OW34855   1.481   1.626  11.220 -0.3192 -0.1700 -0.2379
 7740SOL    HW134856   1.574   1.621  11.198  0.0155 -0.1970  1.1907
 7740SOL    HW234857   1.462   1.538  11.254  0.6253 -0.7670 -1.2659
 7741SOL     OW34858   4.387   4.649   9.079 -0.3606  0.2827  0.4839
 7741SOL    HW134859   4.340   4.684   9.003  3.2969  1.0721 -1.4154
 7741SOL    HW234860   4.426   4.723   9.125 -1.3619  1.7997 -1.0857
 7742SOL     OW34861   3.356   2.539   4.449 -0.8157  0.3672  0.0794
 7742SOL    HW134862   3.360   2.536   4.545  1.4753 -2.1516 -0.0942
 7742SOL    HW234863   3.448   2.549   4.425 -0.3828 -1.6620  0.9184
 7743SOL     OW34864   0.454   3.927   8.341  0.3773  0.0676  0.1723
 7743SOL    HW134865   0.363   3.953   8.328  0.5404 -0.2610 -1.6455
 7743SOL    HW234866   0.499   3.986   8.282  0.2897  0.3215  0.3619
 7744SOL     OW34867   4.488   4.512   7.900  0.1155 -0.0004  0.2034
 7744SOL    HW134868   4.418   4.448   7.913 -0.5960  0.5303 -1.1024
 7744SOL    HW234869   4.495   4.507   7.805 -0.1222 -1.1319  0.2407
 7745SOL     OW34870   4.423   4.355   9.868 -0.0979 -0.6364  0.1527
 7745SOL    HW134871   4.445   4.402   9.948 -1.1186  0.4693 -0.2141
 7745SOL    HW234872   4.329   4.367   9.856 -0.0903  0.3335  1.1498
 7746SOL     OW34873   2.818   0.144   8.357 -0.2879  0.5444 -0.0071
 7746SOL    HW134874   2.817   0.158   8.263 -2.3622 -1.5269 -0.3033
 7746SOL    HW234875   2.906   0.107   8.357  0.2935  1.9292  1.1892
 7747SOL     OW34876   1.346   0.182   2.375  0.0787  0.2901 -0.5541
 7747SOL    HW134877   1.261   0.222   2.360 -1.1249 -1.9299  0.4614
 7747SOL    HW234878   1.381   0.263   2.413  2.2909 -1.5619  1.3193
 7748SOL     OW34879   3.521   0.883   6.083  0.8640 -0.3665  0.4264
 7748SOL    HW134880   3.607   0.850   6.108 -0.3197 -1.3270  3.2370
 7748SOL    HW234881   3.486   0.944   6.148  1.8568 -0.2689  0.8709
 7749SOL     OW34882   1.440   2.537   4.495  0.1485 -0.2042  0.1776
 7749SOL    HW134883   1.387   2.467   4.532 -1.5820 -0.3856 -2.6421
 7749SOL    HW234884   1.518   2.539   4.551  0.1369  0.1669  0.1827
 7750SOL     OW34885   1.698   2.792   2.300 -0.0620  0.1804  0.0302
 7750SOL    HW134886   1.612   2.751   2.293  0.1339  0.1029 -1.9320
 7750SOL    HW234887   1.686   2.854   2.373 -2.7524  2.8610 -2.6825
 7751SOL     OW34888   2.138   0.638   1.452 -0.2138  0.0609 -0.0780
 7751SOL    HW134889   2.089   0.667   1.529 -1.2424  0.7691 -0.9943
 7751SOL    HW234890   2.173   0.724   1.429 -0.1365 -0.1466 -0.7389
 7752SOL     OW34891   1.758   1.925   8.703 -0.6541  0.1227 -0.1061
 7752SOL    HW134892   1.825   1.860   8.725 -0.6969 -1.0244 -3.3415
 7752SOL    HW234893   1.759   1.979   8.782 -1.5591 -0.7048  0.4655
 7753SOL     OW34894   2.983   1.830   3.767 -0.1739 -0.4353  0.1867
 7753SOL    HW134895   2.956   1.748   3.809 -1.0051 -0.2960 -0.0744
 7753SOL    HW234896   2.910   1.842   3.706  0.4856  0.9544 -0.3180
 7754SOL     OW34897   3.478   0.773  12.558  0.3746 -0.1026  0.0049
 7754SOL    HW134898   3.519   0.859  12.554 -0.4356  0.3221  0.6995
 7754SOL    HW234899   3.492   0.748  12.650 -1.0426  3.1744  1.1364
 7755SOL     OW34900   1.136   4.501   9.322 -0.6312 -0.3199  0.1705
 7755SOL    HW134901   1.199   4.443   9.366  0.9861  0.7896 -0.7245
 7755SOL    HW234902   1.163   4.499   9.231  2.6286 -0.5379  1.1226
 7756SOL     OW34903   1.075   0.054  11.936 -0.3196 -0.5901 -0.1523
 7756SOL    HW134904   1.030   4.735  11.995  0.1648 -0.4825  0.3204
 7756SOL    HW234905   1.162   0.015  11.940  0.2242  0.7295  0.8512
 7757SOL     OW34906   3.565   2.469   4.050  0.5886  0.0734  0.1469
 7757SOL    HW134907   3.513   2.547   4.030  1.5417  0.3603 -1.2309
 7757SOL    HW234908   3.652   2.498   4.021 -1.0206  1.8584 -2.7707
 7758SOL     OW34909   0.908   4.539  17.039 -0.7111 -0.5800  0.1404
 7758SOL    HW134910   0.893   4.530  17.133  0.7614  0.0399  0.4411
 7758SOL    HW234911   0.986   4.483  17.028 -0.5480 -0.1512 -0.9490
 7759SOL     OW34912   3.017   2.463   7.466 -0.0795  0.0107  0.3078
 7759SOL    HW134913   3.037   2.554   7.487  1.3817 -0.5732  1.4476
 7759SOL    HW234914   2.992   2.471   7.374  0.3739 -0.0579  0.1812
 7760SOL     OW34915   2.521   3.180   6.970 -0.1537  0.1734 -0.5644
 7760SOL    HW134916   2.568   3.141   7.044 -0.1158  1.2486 -0.0144
 7760SOL    HW234917   2.590   3.211   6.912 -1.9383 -0.9762 -3.2787
 7761SOL     OW34918   0.451   2.881  14.335  0.8797 -0.7041 -0.3128
 7761SOL    HW134919   0.450   2.944  14.406  1.7771  0.0259 -0.9547
 7761SOL    HW234920   0.526   2.918  14.290  2.3724 -0.5114  2.3735
 7762SOL     OW34921   1.917   1.100   4.888  0.5432 -0.2912  0.0793
 7762SOL    HW134922   2.009   1.114   4.867  0.6261 -0.0301  0.6065
 7762SOL    HW234923   1.876   1.140   4.811  0.3814 -0.7149 -0.0541
 7763SOL     OW34924   0.771   0.885   4.486  0.5864 -0.6160 -0.0960
 7763SOL    HW134925   0.847   0.908   4.432  0.0919 -1.2901 -1.0886
 7763SOL    HW234926   0.809   0.804   4.519  0.3887 -0.6654  0.0082
 7764SOL     OW34927   2.578   2.448   4.357  0.0244 -0.8475  0.0541
 7764SOL    HW134928   2.562   2.522   4.298  2.3361  0.1713  0.6863
 7764SOL    HW234929   2.508   2.454   4.423  0.7067 -0.2761  0.7332
 7765SOL     OW34930   4.581   2.483   1.495  0.5178 -0.3176  0.3508
 7765SOL    HW134931   4.574   2.523   1.409 -0.3794 -0.3902  0.3958
 7765SOL    HW234932   4.635   2.551   1.536  0.5544  1.0894 -2.0411
 7766SOL     OW34933   2.920   3.867   1.257  0.1700  0.2835  0.0431
 7766SOL    HW134934   2.942   3.904   1.342  0.5351 -2.4025  1.1370
 7766SOL    HW234935   2.831   3.836   1.274 -0.3670  0.8477 -1.7140
 7767SOL     OW34936   3.916   1.198   2.533  0.4884 -0.2008 -0.4399
 7767SOL    HW134937   3.892   1.166   2.621 -2.1886  4.0413  0.3665
 7767SOL    HW234938   3.970   1.126   2.502 -0.0517 -0.0920 -1.6285
 7768SOL     OW34939   0.444   1.000   4.102 -0.3590  0.0534 -0.2959
 7768SOL    HW134940   0.509   0.966   4.163 -0.4732 -1.8077 -1.1963
 7768SOL    HW234941   0.369   1.008   4.160 -0.9513  1.6355 -1.2889
 7769SOL     OW34942   3.411   0.684  14.778  0.0560 -0.5921  0.4902
 7769SOL    HW134943   3.425   0.740  14.855  1.7462 -0.6682  0.2574
 7769SOL    HW234944   3.499   0.646  14.771 -0.5434 -2.2336  1.8647
 7770SOL     OW34945   1.608   2.754   5.548  0.2350 -0.1472  0.4001
 7770SOL    HW134946   1.544   2.805   5.598  0.5302  0.2919  0.3272
 7770SOL    HW234947   1.551   2.738   5.472  1.4019  1.9512 -0.9092
 7771SOL     OW34948   1.696   1.972   9.315  0.4875 -0.3385 -0.5642
 7771SOL    HW134949   1.685   2.065   9.294  1.4687  0.0192  0.5170
 7771SOL    HW234950   1.777   1.956   9.267  1.4098 -1.7787  1.4873
 7772SOL     OW34951   1.753   3.879  13.002 -0.1858  0.2940  0.0217
 7772SOL    HW134952   1.783   3.796  13.038 -2.9684 -0.3103  0.9546
 7772SOL    HW234953   1.660   3.858  13.006  0.4277 -2.2586  0.8427
 7773SOL     OW34954   3.722   4.584   3.901  0.2638 -0.3297 -0.2177
 7773SOL    HW134955   3.656   4.591   3.970  2.2285  1.4981  1.4579
 7773SOL    HW234956   3.810   4.584   3.937  1.1679  1.2372 -2.4512
 7774SOL     OW34957   3.232   2.984   6.359 -0.2329 -0.0982 -0.0555
 7774SOL    HW134958   3.178   2.932   6.299 -2.1763  0.5764  1.1134
 7774SOL    HW234959   3.246   2.930   6.437  0.8856 -1.4889 -1.2036
 7775SOL     OW34960   3.371   1.065   1.799  0.5784 -0.1460 -0.0878
 7775SOL    HW134961   3.434   1.078   1.870  0.5782  2.7878 -0.6141
 7775SOL    HW234962   3.434   1.043   1.731  0.0496 -0.4460 -0.4828
 7776SOL     OW34963   2.655   4.015   8.226  0.2754  0.1125 -0.0708
 7776SOL    HW134964   2.730   3.972   8.268  0.6958  0.1920 -0.7342
 7776SOL    HW234965   2.588   4.008   8.293  1.1862  3.5783  1.1780
 7777SOL     OW34966   4.122   4.717   6.322 -0.0141 -0.1812 -0.4185
 7777SOL    HW134967   4.159   0.055   6.363  1.3732 -1.2050  0.2604
 7777SOL    HW234968   4.093   4.668   6.399  1.1283  0.9819  0.7530
 7778SOL     OW34969   4.055   3.847  14.792  0.2571  0.1297  0.1230
 7778SOL    HW134970   4.008   3.826  14.873 -2.6010  1.0752 -1.2955
 7778SOL    HW234971   4.005   3.809  14.720  1.8619 -1.0449 -0.3761
 7779SOL     OW34972   4.273   0.550   7.489 -0.0335  0.0419  0.2669
 7779SOL    HW134973   4.204   0.485   7.480  0.5353 -0.4389 -0.5672
 7779SOL    HW234974   4.228   0.633   7.472 -0.4926 -0.1472  0.5669
 7780SOL     OW34975   4.270   4.289  11.835 -0.3016  0.3113  0.1233
 7780SOL    HW134976   4.357   4.274  11.872 -1.0243 -0.9562  1.3155
 7780SOL    HW234977   4.274   4.377  11.796 -0.8094 -0.4326 -1.6204
 7781SOL     OW34978   1.240   0.758   3.714  0.9048  0.7808 -0.1637
 7781SOL    HW134979   1.165   0.777   3.658 -0.3460  1.7130  1.8328
 7781SOL    HW234980   1.269   0.674   3.678  1.7719  0.2991  1.6734
 7782SOL     OW34981   4.633   3.892   2.543 -0.7534 -0.8524  0.0176
 7782SOL    HW134982   4.604   3.858   2.458 -3.2260  1.5042 -0.1011
 7782SOL    HW234983   4.646   3.985   2.525 -1.3231 -1.0544 -1.4964
 7783SOL     OW34984   3.033   2.713   7.543  0.0748 -0.3405 -0.1545
 7783SOL    HW134985   3.020   2.807   7.553 -2.7562 -0.7341 -0.1040
 7783SOL    HW234986   3.128   2.698   7.545  0.4922  2.5630  0.7531
 7784SOL     OW34987   0.586   4.009   5.563  0.2352  0.1504 -0.3042
 7784SOL    HW134988   0.597   4.067   5.487  1.5291  1.2992  0.7755
 7784SOL    HW234989   0.594   3.929   5.512 -2.1364  0.0510 -0.5143
 7785SOL     OW34990   2.757   4.309   3.422  1.0831  0.1607  0.8094
 7785SOL    HW134991   2.834   4.310   3.365  1.1231  1.0602  0.8659
 7785SOL    HW234992   2.788   4.365   3.494 -1.0692  3.8903 -1.1440
 7786SOL     OW34993   0.764   2.607   7.875  0.1004  0.2251  0.1915
 7786SOL    HW134994   0.701   2.631   7.808 -0.4333 -2.5478 -0.3078
 7786SOL    HW234995   0.844   2.599   7.824  0.9729 -1.4923  1.8189
 7787SOL     OW34996   2.938   0.014  16.863 -0.8507  0.2776  0.6577
 7787SOL    HW134997   2.943   4.687  16.930 -0.1412  0.5421  0.8684
 7787SOL    HW234998   3.026   0.014  16.825 -0.7578  0.1247  0.8749
 7788SOL     OW34999   2.941   0.739   9.410 -0.4506  0.3617  0.3965
 7788SOL    HW135000   2.846   0.744   9.405 -0.3985  0.2410 -0.6792
 7788SOL    HW235001   2.973   0.827   9.431  0.7463  0.2541 -0.9527
 7789SOL     OW35002   0.716   1.351   2.889  0.0070  0.3383 -0.2030
 7789SOL    HW135003   0.721   1.435   2.843 -0.8122  0.1829 -0.5774
 7789SOL    HW235004   0.773   1.372   2.962  0.3179  0.5236 -0.4990
 7790SOL     OW35005   0.372   3.587   9.772 -0.1574 -0.5381 -0.0783
 7790SOL    HW135006   0.298   3.562   9.828 -0.8672 -1.3933 -1.3944
 7790SOL    HW235007   0.440   3.525   9.799  0.5866 -0.7333 -2.4778
 7791SOL     OW35008   4.571   0.937   1.343  0.3998  0.3896  0.5064
 7791SOL    HW135009   4.639   0.890   1.296  0.4964  1.1594 -0.1178
 7791SOL    HW235010   4.611   1.018   1.374  0.3094  0.7160 -0.2456
 7792SOL     OW35011   1.292   1.757  16.451  0.1734  0.2505 -0.0766
 7792SOL    HW135012   1.211   1.714  16.479 -0.0196 -1.7068 -3.7346
 7792SOL    HW235013   1.367   1.718  16.496  1.4971  1.8429 -0.9268
 7793SOL     OW35014   2.291   2.879   6.746 -0.0167 -0.6161  0.1416
 7793SOL    HW135015   2.359   2.830   6.791 -2.8220 -4.7936 -0.1705
 7793SOL    HW235016   2.307   2.968   6.776  0.2730  0.1417 -2.2432
 7794SOL     OW35017   3.205   1.612   8.616 -0.3355  0.0709  0.1531
 7794SOL    HW135018   3.292   1.588   8.648 -1.6043 -2.1012  1.9156
 7794SOL    HW235019   3.190   1.554   8.541 -0.3513 -0.2696  0.4240
 7795SOL     OW35020   2.348   1.945   0.730  0.1329 -0.0220  0.3849
 7795SOL    HW135021   2.367   2.008   0.661  1.9560 -0.5172  0.4450
 7795SOL    HW235022   2.430   1.897   0.728  0.5695  0.6520  1.7107
 7796SOL     OW35023   1.492   4.406  12.505  0.3605  0.8741 -0.5006
 7796SOL    HW135024   1.545   4.328  12.487 -0.4412  0.3612 -0.6980
 7796SOL    HW235025   1.490   4.408  12.601  0.0891 -0.4002 -0.4716
 7797SOL     OW35026   2.041   3.840   8.221 -0.4505  0.3883 -0.0217
 7797SOL    HW135027   2.112   3.903   8.234 -1.3738  0.9181  2.4466
 7797SOL    HW235028   2.091   3.763   8.196  2.0939  1.2129  2.5632
 7798SOL     OW35029   2.214   2.037  12.048  0.5969 -0.6190 -0.4147
 7798SOL    HW135030   2.130   2.009  12.010  0.7359 -3.0499  1.0756
 7798SOL    HW235031   2.257   1.958  12.079 -0.0220 -0.0310  1.9189
 7799SOL     OW35032   3.542   1.064   8.573 -0.2778 -0.0650 -0.7560
 7799SOL    HW135033   3.486   1.015   8.513  0.2914 -1.5931 -0.0251
 7799SOL    HW235034   3.542   1.014   8.654 -1.1732 -0.1445 -0.8012
 7800SOL     OW35035   1.880   1.447   2.636 -0.2742  0.3331  0.2357
 7800SOL    HW135036   1.803   1.397   2.610  0.8780 -0.9582 -0.6697
 7800SOL    HW235037   1.908   1.486   2.553  0.3397 -1.3889 -0.3661
 7801SOL     OW35038   0.321   2.927  14.096 -0.2315 -0.1549 -0.3349
 7801SOL    HW135039   0.376   2.904  14.170 -0.1865 -0.2426 -0.3952
 7801SOL    HW235040   0.244   2.876  14.122  0.6922 -0.7937  1.1087
 7802SOL     OW35041   4.483   0.106   9.255 -0.6637  0.3957  0.1743
 7802SOL    HW135042   4.517   0.195   9.252  3.4201 -1.1775 -0.5548
 7802SOL    HW235043   4.410   0.132   9.312 -2.2173  0.5685 -1.8920
 7803SOL     OW35044   1.801   1.309   7.856  0.6834 -1.2728 -0.0174
 7803SOL    HW135045   1.872   1.368   7.831  0.3201 -0.8798 -0.1011
 7803SOL    HW235046   1.755   1.300   7.773  0.3125 -0.9402  0.1548
 7804SOL     OW35047   4.628   3.639   4.081  0.7524 -0.2881  0.6816
 7804SOL    HW135048   4.698   3.669   4.139  0.2934  2.0639  0.0175
 7804SOL    HW235049   4.588   3.724   4.062  0.7396 -0.0000  1.9991
 7805SOL     OW35050   0.602   3.417   9.830  0.4964 -0.4304 -0.5195
 7805SOL    HW135051   0.669   3.416   9.898  1.2953 -0.1587 -1.2989
 7805SOL    HW235052   0.564   3.333   9.853 -0.6634  0.8839  2.3388
 7806SOL     OW35053   3.772   4.719   2.075 -0.2822  0.1970  0.0849
 7806SOL    HW135054   3.817   4.718   1.991 -1.8933  0.8254 -0.7686
 7806SOL    HW235055   3.726   4.635   2.074  1.0572 -0.5472  0.0850
 7807SOL     OW35056   3.682   0.740   2.890 -1.0094  0.8348  0.1458
 7807SOL    HW135057   3.755   0.749   2.952 -1.3864 -3.1138  1.2303
 7807SOL    HW235058   3.672   0.644   2.888 -0.8344  0.7925  1.2312
 7808SOL     OW35059   1.099   4.178   6.427  0.2065  0.0830 -0.1549
 7808SOL    HW135060   1.011   4.205   6.452 -0.7061 -2.4966 -0.6172
 7808SOL    HW235061   1.102   4.084   6.448  0.3302  0.7296  2.7892
 7809SOL     OW35062   4.355   3.380   1.891  0.0426  0.1079 -0.1550
 7809SOL    HW135063   4.305   3.427   1.958  4.0755  0.6371  2.4605
 7809SOL    HW235064   4.413   3.326   1.945 -2.5799 -1.6512  0.9088
 7810SOL     OW35065   2.158   2.342  17.010  0.5941 -0.0815  0.1552
 7810SOL    HW135066   2.146   2.282  16.937 -3.0013  1.5048 -0.5237
 7810SOL    HW235067   2.141   2.428  16.973 -0.1405 -0.3759 -0.1716
 7811SOL     OW35068   2.582   0.909   6.989  0.5659 -0.1454  0.5814
 7811SOL    HW135069   2.522   0.967   7.037  1.4670  2.3221 -1.3029
 7811SOL    HW235070   2.638   0.967   6.937  0.9198 -0.2192  0.8844
 7812SOL     OW35071   4.272   1.306   5.673  0.1825 -0.5719 -0.0338
 7812SOL    HW135072   4.327   1.236   5.709  0.3517  0.4020  1.6296
 7812SOL    HW235073   4.281   1.296   5.579  1.8547  1.5695 -0.1118
 7813SOL     OW35074   2.879   2.433   8.287 -0.3323 -0.1317  0.7319
 7813SOL    HW135075   2.903   2.519   8.323 -0.9798 -0.3084  1.5766
 7813SOL    HW235076   2.964   2.389   8.279 -0.5246 -0.4115  0.2500
 7814SOL     OW35077   3.940   3.760   2.896 -0.2289 -0.1974 -0.4998
 7814SOL    HW135078   3.848   3.780   2.911  0.2682  1.7770 -0.0060
 7814SOL    HW235079   3.933   3.697   2.824  2.4534 -1.4918  0.3644
 7815SOL     OW35080   4.109   1.859   2.156 -0.2873  0.2097  0.0532
 7815SOL    HW135081   4.199   1.889   2.147  0.3344 -2.1515 -1.5722
 7815SOL    HW235082   4.059   1.894   2.083  0.6187  0.3518 -0.4953
 7816SOL     OW35083   3.332   0.707   0.044 -0.0104 -0.2983  0.0863
 7816SOL    HW135084   3.318   0.696  17.707  1.3754  0.3500 -0.1854
 7816SOL    HW235085   3.311   0.625   0.087  1.1857 -0.6575 -0.0230
 7817SOL     OW35086   1.592   2.940   1.667  0.4431  0.5959 -0.2489
 7817SOL    HW135087   1.538   3.000   1.718 -0.4429 -0.8353  0.4921
 7817SOL    HW235088   1.585   2.987   1.584  0.4505  1.6263  0.3336
 7818SOL     OW35089   2.388   1.894   8.576  0.2623 -0.1355  0.2165
 7818SOL    HW135090   2.442   1.816   8.566 -0.5154 -0.6846  0.2940
 7818SOL    HW235091   2.453   1.942   8.627  1.7293 -1.0474 -0.7810
 7819SOL     OW35092   1.955   1.888   6.137  0.1887 -0.4771  0.0481
 7819SOL    HW135093   2.048   1.866   6.136 -0.0856 -1.7345  3.9988
 7819SOL    HW235094   1.922   1.814   6.188 -2.0131  0.6794  0.3098
 7820SOL     OW35095   3.634   0.245  17.503  0.0692 -0.3356 -0.0577
 7820SOL    HW135096   3.577   0.176  17.468  1.7218 -2.1039  0.8039
 7820SOL    HW235097   3.575   0.277  17.572  0.4899 -0.0661  0.1721
 7821SOL     OW35098   1.121   4.442   5.116 -0.4362 -0.5722 -0.0868
 7821SOL    HW135099   1.112   4.471   5.206 -2.3252  2.0060 -1.0967
 7821SOL    HW235100   1.185   4.502   5.079 -0.3441 -0.9823 -0.5992
 7822SOL     OW35101   4.158   0.871   2.780  0.2623 -0.1725 -0.1000
 7822SOL    HW135102   4.148   0.882   2.685  0.6693 -2.7388 -0.4652
 7822SOL    HW235103   4.217   0.943   2.802  0.2609 -0.2108  0.0273
 7823SOL     OW35104   3.196   1.304   2.630 -0.4951  0.2642 -0.3193
 7823SOL    HW135105   3.268   1.345   2.583 -0.5479  0.6176 -0.0947
 7823SOL    HW235106   3.211   1.213   2.602 -0.1707 -0.4810  2.1833
 7824SOL     OW35107   2.331   3.375   7.186 -0.1429 -0.3226  0.0174
 7824SOL    HW135108   2.352   3.323   7.264 -1.9949  1.0894  1.4578
 7824SOL    HW235109   2.277   3.440   7.230 -3.3218 -0.8196 -3.1804
 7825SOL     OW35110   4.084   4.262   1.878  0.3428 -0.2730 -0.0040
 7825SOL    HW135111   4.128   4.236   1.959  2.1753  0.1919 -0.8499
 7825SOL    HW235112   4.083   4.184   1.821 -0.5217  0.8376 -1.5132
 7826SOL     OW35113   4.317   3.488   0.232 -0.6873  0.3607 -0.1413
 7826SOL    HW135114   4.396   3.517   0.185  0.6784 -1.1498  1.2320
 7826SOL    HW235115   4.317   3.566   0.287 -0.3398 -0.2404  0.7044
 7827SOL     OW35116   3.812   0.605   1.832 -0.2189  0.1858 -0.2075
 7827SOL    HW135117   3.817   0.596   1.737  1.3950  1.5765 -0.2512
 7827SOL    HW235118   3.731   0.556   1.843  0.5542 -1.4863 -1.9357
 7828SOL     OW35119   3.066   3.458   1.857  0.3965  0.3606 -0.0384
 7828SOL    HW135120   3.009   3.468   1.933 -1.1064 -0.1392 -1.0990
 7828SOL    HW235121   3.140   3.512   1.882  0.9615 -0.8746  0.9736
 7829SOL     OW35122   1.399   1.339  15.992 -0.0626 -0.0537 -0.4007
 7829SOL    HW135123   1.319   1.377  15.955  0.3028  2.0806  0.9992
 7829SOL    HW235124   1.358   1.289  16.063  0.3041  0.7115  0.3526
 7830SOL     OW35125   0.376   2.475   6.434  0.8502  0.0225  0.0707
 7830SOL    HW135126   0.373   2.426   6.516 -2.9283  0.7124  0.3484
 7830SOL    HW235127   0.336   2.557   6.463  3.2343  1.7946 -1.6186
 7831SOL     OW35128   2.545   1.906   6.105 -0.4562  0.2571  0.2253
 7831SOL    HW135129   2.557   1.948   6.021  0.0308  2.8314  1.5808
 7831SOL    HW235130   2.541   1.984   6.161 -0.9587  1.4525 -1.4983
 7832SOL     OW35131   4.082   0.320   6.598  0.5837  0.0618 -0.5710
 7832SOL    HW135132   4.150   0.263   6.565  2.2645  1.4262  0.4969
 7832SOL    HW235133   4.054   0.379   6.528 -1.2129  0.8767  0.8139
 7833SOL     OW35134   2.210   4.124   9.524  0.2730 -0.1215 -0.1052
 7833SOL    HW135135   2.269   4.149   9.595 -1.0648  0.0780  0.9356
 7833SOL    HW235136   2.168   4.208   9.507 -0.6851 -0.4017  0.9004
 7834SOL     OW35137   4.456   1.785  14.768 -0.1542  0.3116  0.6924
 7834SOL    HW135138   4.415   1.745  14.690 -2.6833  1.6479  1.3278
 7834SOL    HW235139   4.445   1.720  14.838 -0.4914  0.9758  1.2475
 7835SOL     OW35140   0.557   2.564   9.368  0.2957  0.2081 -0.0361
 7835SOL    HW135141   0.597   2.597   9.449 -0.1655 -0.3325  0.4100
 7835SOL    HW235142   0.630   2.528   9.319  0.6497 -0.1724  0.7847
 7836SOL     OW35143   3.162   2.144   3.844 -0.7325  0.5135  0.1747
 7836SOL    HW135144   3.210   2.149   3.762 -0.3321 -0.4015  0.3525
 7836SOL    HW235145   3.205   2.209   3.899  0.5640 -1.1405  1.1204
 7837SOL     OW35146   0.581   3.315   3.471  0.5432 -0.0006 -0.0277
 7837SOL    HW135147   0.661   3.353   3.508  0.3854 -0.7657  1.1352
 7837SOL    HW235148   0.517   3.358   3.528  1.6194  0.6132  0.7112
 7838SOL     OW35149   1.059   1.982   4.457 -0.9572  0.6517 -0.0111
 7838SOL    HW135150   1.134   2.011   4.405 -0.8079 -1.2036 -0.8165
 7838SOL    HW235151   1.036   2.060   4.509 -2.9391  1.2297 -1.7277
 7839SOL     OW35152   1.495   4.037   2.921  0.2143  0.0372 -0.0081
 7839SOL    HW135153   1.429   4.088   2.875  0.2379  2.0121  2.1469
 7839SOL    HW235154   1.449   4.008   3.000 -0.3488  1.4810  0.1794
 7840SOL     OW35155   0.238   1.508  17.329 -0.1974 -0.2364  0.3951
 7840SOL    HW135156   0.146   1.514  17.303 -0.2487  1.2410  0.8738
 7840SOL    HW235157   0.240   1.490  17.423 -0.4858  1.7011  0.7824
 7841SOL     OW35158   2.167   0.230  13.298  0.4483 -0.3022  0.2257
 7841SOL    HW135159   2.249   0.183  13.282  0.6986 -0.1576  1.0811
 7841SOL    HW235160   2.206   0.316  13.315 -0.5340  0.5789 -1.9718
 7842SOL     OW35161   2.842   3.555  14.178 -0.2599  0.3358 -0.9079
 7842SOL    HW135162   2.824   3.478  14.124 -0.6015 -1.1867  1.3790
 7842SOL    HW235163   2.818   3.628  14.121 -0.6813  1.7387  1.0506
 7843SOL     OW35164   3.268   4.371   6.833 -0.6342 -0.6224  0.3923
 7843SOL    HW135165   3.194   4.339   6.883 -2.5169 -0.9676 -2.6021
 7843SOL    HW235166   3.224   4.414   6.760 -0.2204 -1.1789 -0.1892
 7844SOL     OW35167   3.538   4.680   0.337  0.0923  0.5043  0.0622
 7844SOL    HW135168   3.615   4.682   0.280 -0.5652 -0.1755 -0.8503
 7844SOL    HW235169   3.563   4.623   0.410  0.5067  2.9630  1.8454
 7845SOL     OW35170   4.361   2.472   4.088  0.4723 -0.2725  0.4234
 7845SOL    HW135171   4.450   2.498   4.108  0.5884 -0.0424 -0.3884
 7845SOL    HW235172   4.342   2.546   4.031  3.7264  1.4142  1.5433
 7846SOL     OW35173   3.837   0.871   4.799  0.1739 -0.2878 -0.1202
 7846SOL    HW135174   3.860   0.902   4.712  0.7700  1.4789  0.6609
 7846SOL    HW235175   3.926   0.850   4.828  0.0814  1.1488  1.2058
 7847SOL     OW35176   0.422   0.218   9.932  0.2241 -0.1746  0.3157
 7847SOL    HW135177   0.353   0.206   9.998 -1.0409  0.0118 -0.9872
 7847SOL    HW235178   0.406   0.140   9.879  1.2532  1.7965 -2.8463
 7848SOL     OW35179   4.322   3.665  11.037 -0.3369  0.1718 -0.0674
 7848SOL    HW135180   4.378   3.593  11.009 -1.2745 -0.2979 -0.7312
 7848SOL    HW235181   4.366   3.691  11.118  0.1348 -0.5494 -0.0930
 7849SOL     OW35182   3.084   0.979   3.818  0.2383 -0.4858  0.3655
 7849SOL    HW135183   3.161   0.983   3.761 -0.0252 -2.9133 -0.1682
 7849SOL    HW235184   3.058   1.071   3.826 -1.4569 -0.9358  0.0379
 7850SOL     OW35185   0.770   3.192   6.337 -0.1024 -0.5060 -0.2746
 7850SOL    HW135186   0.837   3.127   6.317  1.0483  0.8474 -0.7667
 7850SOL    HW235187   0.802   3.267   6.288 -1.0821  1.2906  1.8028
 7851SOL     OW35188   3.562   1.057  14.880  0.3262 -0.1417  0.0621
 7851SOL    HW135189   3.590   0.968  14.902 -0.7916 -0.5799 -0.2806
 7851SOL    HW235190   3.468   1.039  14.888  0.2131  0.0969 -0.7023
 7852SOL     OW35191   4.040   1.380  17.462 -0.4176  0.0274  0.3832
 7852SOL    HW135192   3.991   1.449  17.418 -0.1316 -1.4662 -2.2312
 7852SOL    HW235193   3.963   1.323  17.465 -0.5958  0.2087 -1.0416
 7853SOL     OW35194   1.463   2.202   4.475  0.3522 -0.0554  0.4130
 7853SOL    HW135195   1.475   2.169   4.386 -1.2266  0.0700  0.1629
 7853SOL    HW235196   1.461   2.122   4.527 -2.7233  0.0899  0.5139
 7854SOL     OW35197   1.462   2.293   2.380 -0.3013  0.1793  0.4873
 7854SOL    HW135198   1.539   2.237   2.370 -0.6175 -0.0126 -0.8828
 7854SOL    HW235199   1.410   2.241   2.441 -0.8587 -1.1791 -1.1497
 7855SOL     OW35200   2.709   1.044   2.138 -0.0406  0.4157 -0.3463
 7855SOL    HW135201   2.620   1.050   2.103  0.7727  0.3055 -2.4717
 7855SOL    HW235202   2.731   1.129   2.176 -0.9416  0.5799 -0.2126
 7856SOL     OW35203   4.043   0.542  16.703 -0.1372  0.2901  0.1303
 7856SOL    HW135204   4.111   0.498  16.754 -0.2987  1.5270  1.4235
 7856SOL    HW235205   3.971   0.479  16.699  0.2196 -0.1883  1.1290
 7857SOL     OW35206   1.177   3.082   6.815 -0.6310 -0.2557 -0.1018
 7857SOL    HW135207   1.110   3.046   6.873 -0.6788  0.2658  0.1654
 7857SOL    HW235208   1.183   3.175   6.837  4.5270 -0.6300  0.2121
 7858SOL     OW35209   1.950   0.100   8.515  0.0701  0.0140  0.2767
 7858SOL    HW135210   1.899   0.076   8.438 -0.4311 -3.1878  1.6221
 7858SOL    HW235211   2.039   0.106   8.479  0.0183  1.4241  0.3701
 7859SOL     OW35212   2.562   0.006   4.974 -0.7459  0.2345 -0.2748
 7859SOL    HW135213   2.495   4.704   4.920  0.4482 -1.7671 -0.1925
 7859SOL    HW235214   2.620   4.675   5.001  0.6268  1.2098 -0.7070
 7860SOL     OW35215   4.692   3.738   2.253 -0.3485 -0.3924  0.3686
 7860SOL    HW135216   0.039   3.718   2.220 -0.3450  0.3554 -0.0681
 7860SOL    HW235217   4.660   3.813   2.204  1.9663 -0.8614 -1.8543
 7861SOL     OW35218   3.923   1.890   3.940  0.0688  0.1463 -0.5188
 7861SOL    HW135219   3.843   1.925   3.900 -0.5311  0.0268  0.5672
 7861SOL    HW235220   3.938   1.947   4.015  0.9202  1.5182 -1.7405
 7862SOL     OW35221   0.840   1.867   5.356  0.0425  0.1337  1.0373
 7862SOL    HW135222   0.892   1.864   5.276 -0.1963  0.5557  0.8689
 7862SOL    HW235223   0.915   1.845   5.413  0.0713 -1.5422  0.3549
 7863SOL     OW35224   3.029   1.967   8.311  0.5012 -0.2283 -0.1679
 7863SOL    HW135225   2.980   1.952   8.231  0.3950 -0.6274 -0.0266
 7863SOL    HW235226   3.114   1.939   8.277  0.9971  0.0069  0.8509
 7864SOL     OW35227   4.314   4.199   6.166 -0.8369  0.6611 -0.2799
 7864SOL    HW135228   4.259   4.276   6.177 -1.2205  0.5035 -1.0655
 7864SOL    HW235229   4.403   4.234   6.172 -0.1845 -1.1776  0.5604
 7865SOL     OW35230   2.634   1.887   5.007 -0.0394  0.6175  0.1679
 7865SOL    HW135231   2.726   1.909   4.994 -0.1656  1.4147  0.6593
 7865SOL    HW235232   2.614   1.874   4.914  2.0641  1.0041 -0.3448
 7866SOL     OW35233   1.741   4.738   5.788  0.7770  0.5051 -0.9309
 7866SOL    HW135234   1.688   4.713   5.712  1.3570  1.1428 -1.5452
 7866SOL    HW235235   1.685   4.737   5.866  2.3060 -0.0785  0.1497
 7867SOL     OW35236   0.181   0.879   8.126 -0.3545 -0.1153  0.5089
 7867SOL    HW135237   0.238   0.913   8.196 -0.1430  0.6568 -0.0317
 7867SOL    HW235238   0.165   0.788   8.150  0.6708 -0.6060 -0.6404
 7868SOL     OW35239   0.074   1.301   6.166  0.4454  0.6345 -0.0808
 7868SOL    HW135240   0.117   1.308   6.081 -1.9290 -0.8717 -1.4016
 7868SOL    HW235241   0.020   1.223   6.156  0.4696  0.7746 -1.3254
 7869SOL     OW35242   0.257   0.753  10.015  0.0994 -0.2982  0.2531
 7869SOL    HW135243   0.309   0.676  10.035 -0.7347 -0.9539 -0.0870
 7869SOL    HW235244   0.325   0.795   9.963 -1.3390  1.7334  0.0144
 7870SOL     OW35245   2.695   3.035   0.252 -0.2154  0.0389  0.0154
 7870SOL    HW135246   2.740   2.971   0.307 -0.0795 -0.4582 -0.6811
 7870SOL    HW235247   2.707   2.993   0.167 -0.9483  1.9231 -1.0253
 7871SOL     OW35248   1.447   3.105  16.181  0.5029 -0.0851 -0.2022
 7871SOL    HW135249   1.388   3.048  16.130  2.3933  0.6001 -3.1255
 7871SOL    HW235250   1.530   3.064  16.156  1.8590  1.2340  2.1348
 7872SOL     OW35251   4.339   2.213  11.123 -0.0928  0.1295  0.1493
 7872SOL    HW135252   4.381   2.295  11.150  0.6563 -0.3081  0.3308
 7872SOL    HW235253   4.409   2.150  11.142  1.3913  1.5589 -0.5555
 7873SOL     OW35254   2.959   3.865   9.304  0.6243  0.1132  0.3959
 7873SOL    HW135255   2.948   3.956   9.332  0.7266 -0.0479  0.9581
 7873SOL    HW235256   2.888   3.857   9.240  0.5887 -0.1262  0.4653
 7874SOL     OW35257   1.237   3.859   7.318 -0.3896  0.2380  0.4206
 7874SOL    HW135258   1.288   3.891   7.243 -0.6957 -0.5184 -0.1205
 7874SOL    HW235259   1.206   3.772   7.292 -1.8374  0.7204  0.5365
 7875SOL     OW35260   4.229   4.535   2.619 -0.3058  0.1969 -0.0200
 7875SOL    HW135261   4.252   4.444   2.599 -0.7469 -0.0683  0.6669
 7875SOL    HW235262   4.223   4.568   2.530 -1.5588  0.0547  0.0050
 7876SOL     OW35263   2.173   3.985   0.977  0.0516 -0.0084  0.6051
 7876SOL    HW135264   2.141   4.070   1.007 -1.2240  0.5943 -2.4637
 7876SOL    HW235265   2.260   4.013   0.949 -0.7510  2.1216  0.2516
 7877SOL     OW35266   0.321   2.033  14.063  0.4581  0.8270  0.2272
 7877SOL    HW135267   0.394   1.970  14.069  0.8000  1.2451  0.4314
 7877SOL    HW235268   0.308   2.052  14.156  1.4527  1.4374  0.2493
 7878SOL     OW35269   1.860   1.466   1.883  0.1447 -0.1378  0.0185
 7878SOL    HW135270   1.914   1.432   1.955  0.0626 -1.6125 -0.6087
 7878SOL    HW235271   1.787   1.404   1.888  0.5114 -0.8110 -3.1078
 7879SOL     OW35272   3.426   3.328   4.475  0.1264  0.1694  0.1723
 7879SOL    HW135273   3.401   3.347   4.566  0.8598 -0.5446  0.5275
 7879SOL    HW235274   3.407   3.409   4.428  0.9755  0.7647  0.8546
 7880SOL     OW35275   1.684   1.046   2.271 -0.0772 -0.0350  0.0207
 7880SOL    HW135276   1.711   1.137   2.260  0.1665 -0.2683 -1.3974
 7880SOL    HW235277   1.761   1.010   2.314 -0.2135 -0.0494  0.2497
 7881SOL     OW35278   0.718   3.765   6.678  0.2643  0.4672 -0.0810
 7881SOL    HW135279   0.745   3.764   6.769  0.1564 -2.0123 -0.0787
 7881SOL    HW235280   0.633   3.724   6.691  0.7191 -0.2529  0.5696
 7882SOL     OW35281   3.684   4.579   8.642 -0.8926  0.0289  0.1750
 7882SOL    HW135282   3.656   4.582   8.733 -0.1615 -0.7232  0.4220
 7882SOL    HW235283   3.661   4.488   8.620  2.6725 -0.7479 -0.2899
 7883SOL     OW35284   2.469   0.592   4.703  0.2855 -0.9441  0.1557
 7883SOL    HW135285   2.507   0.568   4.618  1.7497  2.0722 -0.0590
 7883SOL    HW235286   2.547   0.602   4.757  0.4235  2.5231 -0.6714
 7884SOL     OW35287   0.483   3.506   9.038 -0.0248  0.6458  1.3650
 7884SOL    HW135288   0.511   3.598   9.032  0.7777  0.1686 -2.1271
 7884SOL    HW235289   0.419   3.522   9.108 -0.5462  2.2213  0.5236
 7885SOL     OW35290   4.077   3.230  14.688  0.6787 -0.4515  0.1857
 7885SOL    HW135291   4.033   3.153  14.650 -3.4944  0.8367  2.4165
 7885SOL    HW235292   4.112   3.203  14.773 -0.4982 -0.1355  0.7652
 7886SOL     OW35293   0.620   3.567   2.168  0.2556 -1.0186 -0.1504
 7886SOL    HW135294   0.682   3.496   2.186  1.2148 -0.0041  0.5051
 7886SOL    HW235295   0.575   3.581   2.251  0.7949 -0.2529  0.0098
 7887SOL     OW35296   1.315   4.053  11.136  0.1782 -0.3618  0.6303
 7887SOL    HW135297   1.339   4.146  11.141  0.5419 -0.3930 -0.4630
 7887SOL    HW235298   1.399   4.021  11.104  1.3296  1.2081  2.0677
 7888SOL     OW35299   1.859   3.771   8.042  0.1000  0.0831  0.2569
 7888SOL    HW135300   1.843   3.677   8.039 -1.6067  0.3280  1.3672
 7888SOL    HW235301   1.925   3.780   8.110  0.1461 -1.8382  0.4659
 7889SOL     OW35302   1.602   4.624   3.727  0.1438  0.7411 -0.0632
 7889SOL    HW135303   1.533   4.687   3.748 -0.4672  0.1526 -0.2967
 7889SOL    HW235304   1.672   4.635   3.792  1.5702 -3.7774 -0.8535
 7890SOL     OW35305   0.062   2.651  11.266  0.1287 -0.8404  0.4004
 7890SOL    HW135306   0.028   2.714  11.330 -1.5418  0.7136 -1.9836
 7890SOL    HW235307   4.733   2.658  11.200  0.1152 -0.1072  0.4914
 7891SOL     OW35308   3.191   0.693   2.211  0.3415  0.1364  0.3645
 7891SOL    HW135309   3.224   0.726   2.294  0.3885  2.3833 -0.5516
 7891SOL    HW235310   3.257   0.727   2.150  0.1953 -0.2369 -0.0070
 7892SOL     OW35311   4.429   0.751   8.351  0.5854  0.3318  0.0036
 7892SOL    HW135312   4.471   0.670   8.378  2.4562  1.1950 -0.3456
 7892SOL    HW235313   4.497   0.793   8.299  1.1233 -1.8210 -1.0285
 7893SOL     OW35314   3.127   3.497  15.854  0.4470  0.4767 -0.2994
 7893SOL    HW135315   3.058   3.469  15.794  3.0118 -0.9241 -2.5370
 7893SOL    HW235316   3.176   3.415  15.854 -2.2875 -1.1686 -0.3224
 7894SOL     OW35317   2.999   0.623   5.618 -0.1798  0.0348  0.5888
 7894SOL    HW135318   3.070   0.644   5.678 -0.4103 -1.4511  1.3868
 7894SOL    HW235319   2.937   0.589   5.684 -0.0231  0.5314  0.9872
 7895SOL     OW35320   1.068   1.625  16.475  0.0961 -0.2643  0.2573
 7895SOL    HW135321   0.982   1.631  16.517  0.3962 -0.3735  0.8742
 7895SOL    HW235322   1.050   1.563  16.405 -0.2883  0.9136 -0.6915
 7896SOL     OW35323   4.180   4.603   2.875 -0.2727 -0.2456 -0.1257
 7896SOL    HW135324   4.197   4.574   2.786  2.9931  0.1460  0.3692
 7896SOL    HW235325   4.219   4.525   2.915 -0.3922  0.6843  1.8411
 7897SOL     OW35326   1.416   3.509   9.296  0.1647  0.3001 -0.1541
 7897SOL    HW135327   1.378   3.524   9.209  0.4523 -0.5388 -0.4202
 7897SOL    HW235328   1.467   3.588   9.314 -1.8185  1.6358 -0.3460
 7898SOL     OW35329   2.979   3.303  12.035 -0.1255 -0.3030  0.0744
 7898SOL    HW135330   2.979   3.281  11.942  1.0026  0.3386 -0.0761
 7898SOL    HW235331   3.048   3.240  12.057  0.4290 -0.1693 -1.3039
 7899SOL     OW35332   0.743   0.372  16.526  0.2221  0.5537  0.8360
 7899SOL    HW135333   0.745   0.376  16.621  3.4769 -1.2820  0.8672
 7899SOL    HW235334   0.703   0.285  16.526  1.0776  0.1458 -0.7383
 7900SOL     OW35335   3.133   1.995   8.887  0.2456  0.2492  0.2197
 7900SOL    HW135336   3.199   2.060   8.864  0.3784  0.0687  0.0847
 7900SOL    HW235337   3.173   1.950   8.961  2.6602  1.5678 -0.3052
 7901SOL     OW35338   3.815   2.190   3.932  0.5950  0.2360  0.2320
 7901SOL    HW135339   3.888   2.222   3.986 -0.5150  0.9452  1.3081
 7901SOL    HW235340   3.849   2.203   3.844  0.9188 -0.6643  0.2239
 7902SOL     OW35341   1.874   0.184   6.958 -0.7399  0.4645  0.2720
 7902SOL    HW135342   1.836   0.188   7.045  0.0467  0.0408  0.6355
 7902SOL    HW235343   1.918   0.268   6.971 -0.8498  0.6237 -0.3602
 7903SOL     OW35344   0.998   0.463   3.800 -0.2388  0.6941 -0.4422
 7903SOL    HW135345   1.008   0.488   3.708 -2.7264 -2.3261 -1.5261
 7903SOL    HW235346   0.929   0.398   3.797  0.3987  0.0346 -0.8951
 7904SOL     OW35347   1.562   0.606   6.503 -0.7896 -0.0993 -0.8452
 7904SOL    HW135348   1.619   0.680   6.521 -0.4500 -0.9977  1.6973
 7904SOL    HW235349   1.506   0.605   6.581  2.1786 -0.6448  1.2481
 7905SOL     OW35350   0.367   1.184   3.878 -0.3535  0.1932  0.4015
 7905SOL    HW135351   0.372   1.109   3.937  0.3842  0.4892  0.7074
 7905SOL    HW235352   0.286   1.161   3.831 -0.4829  0.0660  0.6850
 7906SOL     OW35353   2.028   1.589   0.003 -0.2767  0.2445 -0.8455
 7906SOL    HW135354   1.990   1.502   0.011  1.8532 -0.3825  2.6845
 7906SOL    HW235355   1.971   1.634  17.698 -2.6099 -1.0867  0.3378
 7907SOL     OW35356   0.133   4.073   1.999  0.3150 -0.4302 -0.5752
 7907SOL    HW135357   0.213   4.029   1.971  1.6453  1.9106 -0.4871
 7907SOL    HW235358   0.099   4.077   1.909  0.5765 -4.0706 -0.8417
 7908SOL     OW35359   1.074   4.672   2.578 -0.3914 -0.0950 -0.5845
 7908SOL    HW135360   1.128   4.653   2.501  1.7556  0.9237  0.6501
 7908SOL    HW235361   1.028   4.588   2.584 -0.0973 -0.0888  1.7004
 7909SOL     OW35362   4.126   2.396   6.966 -0.2217  0.5849  0.4648
 7909SOL    HW135363   4.038   2.359   6.972  0.9685 -2.8637 -3.2295
 7909SOL    HW235364   4.177   2.334   7.018  0.6266  1.0686  0.2118
 7910SOL     OW35365   3.576   3.662   4.679  0.2630 -0.0047  0.4248
 7910SOL    HW135366   3.590   3.585   4.734  0.2727  1.2059  2.1352
 7910SOL    HW235367   3.641   3.649   4.610  1.2739 -0.7137  1.5166
 7911SOL     OW35368   3.577   0.929  10.544 -0.3538  0.0444  0.1280
 7911SOL    HW135369   3.617   0.842  10.540  0.4423  0.3142  2.2349
 7911SOL    HW235370   3.483   0.910  10.539 -0.5226 -0.7309  5.7440
 7912SOL     OW35371   1.859   2.986   5.831  0.1803 -0.6083 -0.1054
 7912SOL    HW135372   1.878   2.894   5.853  0.4391 -0.5203  0.0428
 7912SOL    HW235373   1.935   3.004   5.776 -0.1968 -2.1696 -1.1305
 7913SOL     OW35374   2.207   3.585   6.957 -0.2425  1.0268 -0.0332
 7913SOL    HW135375   2.140   3.618   6.897 -0.2533  1.3148  0.1380
 7913SOL    HW235376   2.159   3.523   7.011  1.4997 -0.0315  0.3186
 7914SOL     OW35377   2.116   2.217   1.188  0.2224 -0.2698 -0.0672
 7914SOL    HW135378   2.105   2.312   1.193  0.8351 -0.1662 -0.7696
 7914SOL    HW235379   2.210   2.209   1.200 -0.0449 -0.4523  1.8370
 7915SOL     OW35380   0.767   4.177   3.457 -0.5411 -0.3288  0.7161
 7915SOL    HW135381   0.781   4.112   3.526  1.0021  2.2659  2.8504
 7915SOL    HW235382   0.767   4.259   3.506  1.5198  0.3997 -0.5297
 7916SOL     OW35383   3.190   3.025   4.320  0.6593 -0.3100  0.2623
 7916SOL    HW135384   3.140   2.953   4.280 -0.5474  0.1724  0.8877
 7916SOL    HW235385   3.271   3.025   4.270 -0.1944  1.3437 -1.1392
 7917SOL     OW35386   3.471   2.800   6.196  0.3744 -0.2597  0.6707
 7917SOL    HW135387   3.426   2.726   6.237 -1.1040  0.7360  0.8233
 7917SOL    HW235388   3.471   2.784   6.101 -2.3157  0.3034  0.5883
 7918SOL     OW35389   0.627   0.711   3.866  0.7000 -0.2177 -0.0128
 7918SOL    HW135390   0.646   0.617   3.862  0.0463 -0.3822  0.8508
 7918SOL    HW235391   0.539   0.715   3.903  0.9513  0.0736  0.5587
 7919SOL     OW35392   0.777   0.105  16.721 -0.6233 -0.4303 -0.8531
 7919SOL    HW135393   0.784   0.158  16.801 -0.9846 -0.5585 -0.7368
 7919SOL    HW235394   0.855   0.132  16.672  0.5205 -2.4458 -0.1334
 7920SOL     OW35395   0.354   3.033  13.585  0.0802  0.0334  0.0019
 7920SOL    HW135396   0.390   2.944  13.588  0.0571 -0.0059 -0.8541
 7920SOL    HW235397   0.284   3.037  13.650 -0.7889 -2.0380 -0.8314
 7921SOL     OW35398   1.196   4.119  15.383 -0.0742  0.2987 -0.7936
 7921SOL    HW135399   1.105   4.125  15.352  0.8881 -1.0873 -3.8499
 7921SOL    HW235400   1.238   4.150  15.303 -0.2005  0.1556 -0.9165
 7922SOL     OW35401   3.102   3.866   4.838  0.1909  0.0729 -0.0450
 7922SOL    HW135402   3.160   3.798   4.872 -2.0071 -1.1013  1.2840
 7922SOL    HW235403   3.109   3.928   4.911 -1.7126  0.7980 -0.4927
 7923SOL     OW35404   1.163   2.450  13.412 -0.0264  0.6398 -0.5677
 7923SOL    HW135405   1.109   2.487  13.343  0.4495 -0.9975 -1.8269
 7923SOL    HW235406   1.230   2.404  13.360  0.5671  0.4555  0.3657
 7924SOL     OW35407   4.541   4.474   3.249 -0.2558  0.0446 -0.1787
 7924SOL    HW135408   4.548   4.381   3.271  0.4902 -0.1341 -1.1564
 7924SOL    HW235409   4.452   4.489   3.280 -0.3501  0.4264 -0.6281
 7925SOL     OW35410   3.189   0.061   7.666  0.0802 -0.0227 -0.6033
 7925SOL    HW135411   3.247   0.040   7.740  0.6166 -2.1224 -1.6252
 7925SOL    HW235412   3.178   0.156   7.671  2.5522  0.3334 -1.7483
 7926SOL     OW35413   0.972   0.377   2.125  0.4224  0.0957  0.5325
 7926SOL    HW135414   0.987   0.407   2.035  0.0581  2.4493  1.2616
 7926SOL    HW235415   0.938   0.458   2.162 -3.7153 -1.6299  0.5494
 7927SOL     OW35416   3.023   0.699   1.123  0.5726 -0.0446 -0.2253
 7927SOL    HW135417   3.044   0.780   1.170 -0.6984  1.1333 -1.6499
 7927SOL    HW235418   3.094   0.647   1.160 -0.7711 -2.1847 -0.6778
 7928SOL     OW35419   1.071   1.662   4.951  0.2329  0.0879 -0.4977
 7928SOL    HW135420   1.142   1.602   4.974  1.0591  0.4214 -2.1594
 7928SOL    HW235421   1.040   1.626   4.868 -1.7799 -0.2492  0.3845
 7929SOL     OW35422   1.683   4.196   7.921  0.5519 -0.9449  0.0679
 7929SOL    HW135423   1.692   4.124   7.983 -1.6221 -1.2489  0.0083
 7929SOL    HW235424   1.774   4.191   7.891  0.1015 -0.9981 -1.3056
 7930SOL     OW35425   2.302   1.079   2.283 -0.0858 -0.3580 -0.3309
 7930SOL    HW135426   2.267   1.072   2.372 -0.6568  3.6611 -0.2707
 7930SOL    HW235427   2.224   1.115   2.241  0.6042  1.8214  0.2874
 7931SOL     OW35428   1.088   4.637  14.439 -0.1116  0.4539 -0.5459
 7931SOL    HW135429   1.152   4.608  14.374  0.4650 -0.1701  0.2910
 7931SOL    HW235430   1.132   4.608  14.519  2.0084 -0.1099 -1.9092
 7932SOL     OW35431   2.759   4.448   8.728  0.1714  0.0597 -0.0950
 7932SOL    HW135432   2.762   4.491   8.643  2.0421  0.8334  0.3726
 7932SOL    HW235433   2.846   4.467   8.763  0.5743 -1.9788  0.0404
 7933SOL     OW35434   4.680   0.114  16.500 -0.1686  0.4086  0.0657
 7933SOL    HW135435   4.740   0.168  16.449 -0.9533  0.5249 -0.7260
 7933SOL    HW235436   4.616   0.087  16.435 -0.6477 -0.3672  0.8546
 7934SOL     OW35437   1.508   2.494   0.718 -0.5412  0.2167  0.4979
 7934SOL    HW135438   1.554   2.411   0.706  0.2808  0.7966 -0.3171
 7934SOL    HW235439   1.553   2.539   0.789 -1.4390  1.3077  0.3695
 7935SOL     OW35440   2.657   4.008   1.742  0.7639  0.3238  0.3523
 7935SOL    HW135441   2.610   3.951   1.803  0.7751  2.6200  2.5733
 7935SOL    HW235442   2.658   3.956   1.662 -0.4855  0.3615  0.3029
 7936SOL     OW35443   2.658   1.459   4.749 -0.7251 -0.4831 -0.3955
 7936SOL    HW135444   2.706   1.392   4.701 -0.9161 -1.0849  0.2576
 7936SOL    HW235445   2.704   1.459   4.833 -1.4176  2.0959 -0.0218
 7937SOL     OW35446   4.317   0.583   7.124  0.2904 -0.3857  0.2231
 7937SOL    HW135447   4.348   0.618   7.040  0.7952  1.2528  1.0853
 7937SOL    HW235448   4.224   0.607   7.119  0.3998  0.3357  1.6386
 7938SOL     OW35449   1.554   0.379   2.497 -0.1607  0.1469 -0.1663
 7938SOL    HW135450   1.627   0.436   2.519 -1.2892  1.0994  1.1573
 7938SOL    HW235451   1.479   0.432   2.524  0.2908  0.1009  1.1691
 7939SOL     OW35452   1.980   4.362   9.823  0.0317  0.1294 -0.5896
 7939SOL    HW135453   2.002   4.440   9.874 -0.4314  0.5179 -0.9889
 7939SOL    HW235454   1.885   4.361   9.822  0.0185  2.5322 -0.7010
 7940SOL     OW35455   4.337   1.166   2.241  0.7055 -0.0266 -0.0467
 7940SOL    HW135456   4.337   1.205   2.328 -1.1823  3.7553 -1.7392
 7940SOL    HW235457   4.299   1.079   2.255  0.9318  0.2164  2.1471
 7941SOL     OW35458   4.518   1.233   9.351  0.0923 -0.5759  0.2617
 7941SOL    HW135459   4.443   1.205   9.298  0.5647 -0.1756 -0.6229
 7941SOL    HW235460   4.589   1.177   9.321  0.2256 -0.9309  1.2585
 7942SOL     OW35461   1.340   2.485   9.561  0.3586  0.0381 -0.0943
 7942SOL    HW135462   1.369   2.396   9.541 -1.1095 -0.1176 -1.4923
 7942SOL    HW235463   1.421   2.523   9.597 -1.6788  2.7321  1.6647
 7943SOL     OW35464   1.463   2.716   3.109  0.2941  0.4935  0.2704
 7943SOL    HW135465   1.511   2.776   3.166  0.6972 -0.3263  0.7956
 7943SOL    HW235466   1.385   2.770   3.095 -0.1539 -0.2001  0.0804
 7944SOL     OW35467   1.481   1.481   9.726  0.0818  0.3599  0.6568
 7944SOL    HW135468   1.505   1.390   9.746 -2.2009 -0.7054 -1.4528
 7944SOL    HW235469   1.424   1.498   9.801  0.2331  1.2280  0.5812
 7945SOL     OW35470   0.159   1.612   6.504  0.2112 -0.2860  0.2005
 7945SOL    HW135471   0.083   1.655   6.544  1.2437  0.8802  0.9069
 7945SOL    HW235472   0.223   1.597   6.573  1.3224 -2.5568 -1.3124
 7946SOL     OW35473   1.450   3.591   4.941  0.2117 -0.7731 -0.1568
 7946SOL    HW135474   1.464   3.624   4.852  1.7853  0.8392  0.6796
 7946SOL    HW235475   1.447   3.496   4.935 -2.5493 -0.7616  1.1727
 7947SOL     OW35476   3.180   3.341   7.359 -0.6492 -0.1111  0.3443
 7947SOL    HW135477   3.253   3.401   7.342 -0.9823  0.0795 -0.3972
 7947SOL    HW235478   3.155   3.377   7.444 -0.9002 -0.8066  0.5695
 7948SOL     OW35479   3.615   3.138   8.278  0.2934  0.4692  0.4660
 7948SOL    HW135480   3.635   3.100   8.364  1.0547  2.2734  1.0817
 7948SOL    HW235481   3.629   3.229   8.306 -0.1014  0.0742  1.9619
 7949SOL     OW35482   3.772   3.235   7.217  0.2119  0.4613 -0.2672
 7949SOL    HW135483   3.847   3.282   7.179 -1.0401  0.9697 -2.1162
 7949SOL    HW235484   3.824   3.192   7.285 -0.8080 -1.2128 -0.5474
 7950SOL     OW35485   1.781   4.592  11.900  0.3787  0.3688 -0.0807
 7950SOL    HW135486   1.717   4.586  11.971  0.0233  0.8825 -0.3609
 7950SOL    HW235487   1.840   4.521  11.923  0.7745  1.4599  2.2403
 7951SOL     OW35488   4.223   3.872   6.517  0.4469  0.2372 -0.3714
 7951SOL    HW135489   4.295   3.902   6.461  1.5972  0.2563  1.1292
 7951SOL    HW235490   4.146   3.917   6.481  0.2805 -0.3430 -0.7340
 7952SOL     OW35491   0.389   2.306   8.339 -0.1861 -0.1781 -0.2679
 7952SOL    HW135492   0.450   2.253   8.287  0.2486  0.4202 -0.3785
 7952SOL    HW235493   0.430   2.314   8.425 -1.5803  1.6099  0.2376
 7953SOL     OW35494   0.542   4.186  10.791  0.2139  0.9115  0.2371
 7953SOL    HW135495   0.628   4.146  10.798 -0.3333 -0.2317  0.4700
 7953SOL    HW235496   0.482   4.113  10.804 -2.3617  2.6609 -1.7220
 7954SOL     OW35497   2.914   0.279   2.123  0.3885  0.3451  0.0602
 7954SOL    HW135498   2.920   0.198   2.174 -1.2045 -0.0486 -0.3767
 7954SOL    HW235499   2.987   0.326   2.163  0.7128 -1.0247  1.0734
 7955SOL     OW35500   1.231   1.686   3.292  0.3756  0.4267 -0.3646
 7955SOL    HW135501   1.254   1.751   3.358  1.4819  0.3970 -0.7212
 7955SOL    HW235502   1.211   1.740   3.216  1.3353 -1.0051 -1.6463
 7956SOL     OW35503   2.246   4.510   4.558  0.4123  0.5609 -0.3813
 7956SOL    HW135504   2.280   4.551   4.479  0.8525  0.0761 -0.4368
 7956SOL    HW235505   2.260   4.419   4.535 -3.8500 -0.0213 -0.6780
 7957SOL     OW35506   0.278   1.303   3.428  0.4799  0.1298  0.1616
 7957SOL    HW135507   0.235   1.366   3.369 -0.8300 -2.0209 -1.1735
 7957SOL    HW235508   0.270   1.234   3.362  0.5203  1.6027 -1.3946
 7958SOL     OW35509   3.156   2.696   7.226 -0.1494 -0.1376  0.3921
 7958SOL    HW135510   3.074   2.745   7.235 -1.8166 -2.6153 -1.5075
 7958SOL    HW235511   3.205   2.746   7.160 -1.1294  1.3191  0.7750
 7959SOL     OW35512   0.287   0.816   3.210 -0.0542  0.1092  0.6761
 7959SOL    HW135513   0.280   0.743   3.271  2.2944 -0.5353  0.1838
 7959SOL    HW235514   0.193   0.832   3.207 -0.4236 -1.7283  2.6001
 7960SOL     OW35515   1.207   4.730   4.625  0.4502 -0.5598 -0.0139
 7960SOL    HW135516   1.192   0.056   4.557 -1.6442 -0.4884  0.5206
 7960SOL    HW235517   1.260   4.667   4.576 -1.6671 -1.2274 -1.4565
 7961SOL     OW35518   4.257   4.630  12.376  0.5307 -0.4082  0.2405
 7961SOL    HW135519   4.180   4.662  12.422  1.8813  2.5599  0.4098
 7961SOL    HW235520   4.281   4.552  12.427 -4.3413 -0.5946  2.2425
 7962SOL     OW35521   1.010   4.168   8.911 -0.3533  0.9123 -0.7112
 7962SOL    HW135522   1.028   4.202   8.823 -0.0189  1.6092 -0.3729
 7962SOL    HW235523   0.931   4.216   8.933 -0.7869  0.1444 -0.5950
 7963SOL     OW35524   0.906   0.233   1.257 -0.3374 -0.7091  0.0847
 7963SOL    HW135525   0.905   0.326   1.234 -1.0197 -0.4398  1.2229
 7963SOL    HW235526   1.001   0.223   1.248 -0.2865  0.5288 -0.6911
 7964SOL     OW35527   3.426   1.800  17.074  0.6060  0.2673  0.4241
 7964SOL    HW135528   3.521   1.794  17.082  0.5127  0.2696  1.6214
 7964SOL    HW235529   3.407   1.707  17.087 -1.8140  0.6865 -0.1715
 7965SOL     OW35530   1.654   4.055  13.283  0.4630  0.4961 -0.0598
 7965SOL    HW135531   1.635   4.126  13.221  2.1425  3.0152  2.2700
 7965SOL    HW235532   1.724   4.098  13.333  1.1066  0.3746 -0.8508
 7966SOL     OW35533   3.377   4.014   6.647 -0.6212 -0.0242  0.3706
 7966SOL    HW135534   3.323   4.000   6.569  1.4777  0.9549 -1.2554
 7966SOL    HW235535   3.466   3.988   6.621  0.5085  2.5017  1.7214
 7967SOL     OW35536   0.801   1.470   5.938 -0.1273  0.6516  0.7102
 7967SOL    HW135537   0.865   1.406   5.968 -1.0762 -1.5872 -2.0812
 7967SOL    HW235538   0.862   1.537   5.907  1.6335 -1.2107  0.1420
 7968SOL     OW35539   0.592   0.074   2.278 -0.2690  0.1193  0.0458
 7968SOL    HW135540   0.667   0.093   2.222 -0.9882 -2.3351 -1.7527
 7968SOL    HW235541   0.632   0.004   2.330 -0.1418  0.0820 -0.1034
 7969SOL     OW35542   0.717   1.954  12.790  0.1501 -0.9692 -0.3777
 7969SOL    HW135543   0.686   1.991  12.707  2.9337  2.9573  0.3578
 7969SOL    HW235544   0.648   1.978  12.850  0.0070  1.3096 -1.4402
 7970SOL     OW35545   1.841   3.520   2.135 -0.3358 -0.7088  0.0410
 7970SOL    HW135546   1.794   3.563   2.064  3.9972  0.1405 -2.3246
 7970SOL    HW235547   1.921   3.485   2.096 -0.9379 -2.7287  0.5768
 7971SOL     OW35548   2.692   0.512   5.371 -0.6498  0.2532 -0.2254
 7971SOL    HW135549   2.697   0.422   5.402  1.2162  1.1229  1.9434
 7971SOL    HW235550   2.743   0.512   5.290 -0.0096  2.3100  0.1793
 7972SOL     OW35551   3.121   4.321  11.185 -0.2155 -0.3606 -0.2348
 7972SOL    HW135552   3.085   4.396  11.233  0.4161 -0.0529 -0.2463
 7972SOL    HW235553   3.216   4.324  11.197 -0.1341  1.5430 -1.3608
 7973SOL     OW35554   4.160   2.483   3.079  0.2421  0.2221 -0.0454
 7973SOL    HW135555   4.084   2.427   3.067  1.1564 -0.5631 -2.2122
 7973SOL    HW235556   4.194   2.493   2.990 -0.8377 -0.4756 -0.5256
 7974SOL     OW35557   4.604   3.314  17.216 -0.0149  0.0325 -0.5221
 7974SOL    HW135558   4.623   3.220  17.211  2.8778  0.6626 -1.0049
 7974SOL    HW235559   4.619   3.349  17.128  1.0299 -1.2491 -0.8567
 7975SOL     OW35560   0.012   1.068   2.600 -0.0116 -0.7090  0.4649
 7975SOL    HW135561   0.009   0.995   2.661 -0.7980 -2.0042 -1.1136
 7975SOL    HW235562   0.007   1.014   2.521 -2.2236 -2.0993  1.5752
 7976SOL     OW35563   2.101   0.226   5.021 -0.3021 -0.1343 -0.0138
 7976SOL    HW135564   2.158   0.297   4.992  1.5010 -0.8478  1.7966
 7976SOL    HW235565   2.148   0.189   5.096 -0.2535  2.0268  0.9997
 7977SOL     OW35566   0.058   4.346   7.518  0.5721 -0.2187  0.1589
 7977SOL    HW135567   0.004   4.285   7.468  0.5813  0.2933 -0.4813
 7977SOL    HW235568   0.011   4.370   7.598  2.9138  1.1407  1.1184
 7978SOL     OW35569   4.560   2.934   8.119 -0.0817  0.2879 -0.0830
 7978SOL    HW135570   4.558   2.911   8.212 -0.9592 -1.2927 -0.4902
 7978SOL    HW235571   4.582   2.855   8.069  3.7907  0.1561  1.8388
 7979SOL     OW35572   0.755   2.158   7.449  0.2482 -0.1189 -0.2037
 7979SOL    HW135573   0.768   2.091   7.516  0.8217  0.7227  0.5251
 7979SOL    HW235574   0.780   2.234   7.501  0.3704 -1.6416  1.9851
 7980SOL     OW35575   1.269   4.196   1.536 -0.1062  0.0119  0.0937
 7980SOL    HW135576   1.283   4.104   1.560 -1.6187 -0.0443  0.7632
 7980SOL    HW235577   1.218   4.238   1.605  0.0199 -1.5342  1.1421
 7981SOL     OW35578   1.748   1.754   3.187 -0.0240 -0.4408  0.6046
 7981SOL    HW135579   1.818   1.688   3.193 -0.8716 -1.3014  1.1453
 7981SOL    HW235580   1.780   1.835   3.226  0.2500  0.1024 -0.7509
 7982SOL     OW35581   1.893   3.670  13.129 -0.3467 -0.2456  0.4909
 7982SOL    HW135582   1.860   3.587  13.096 -0.1611  0.0868 -0.5267
 7982SOL    HW235583   1.827   3.685  13.196  0.1833  0.5510  0.8368
 7983SOL     OW35584   1.329   2.654  13.084 -0.1157 -0.4105 -0.0907
 7983SOL    HW135585   1.392   2.586  13.062  1.4962  0.8145  0.7830
 7983SOL    HW235586   1.400   2.711  13.112 -1.4619  0.6398  1.1705
 7984SOL     OW35587   4.048   2.960   3.467 -0.2668  0.3183 -0.0452
 7984SOL    HW135588   4.089   3.009   3.539  1.2167  1.2942 -1.5571
 7984SOL    HW235589   4.047   3.035   3.408 -1.4095  0.5290  0.2313
 7985SOL     OW35590   3.746   1.582  14.648 -0.5130  0.3285 -0.0198
 7985SOL    HW135591   3.784   1.509  14.600 -0.4956 -0.4805  1.2278
 7985SOL    HW235592   3.655   1.553  14.655 -1.6073  4.0683  1.5416
 7986SOL     OW35593   4.207   4.057   5.019  0.0730  0.2028  0.1935
 7986SOL    HW135594   4.119   4.022   5.032  0.9194 -1.6922  0.9065
 7986SOL    HW235595   4.260   4.000   5.074  0.1009  1.1548  1.1435
 7987SOL     OW35596   3.467   3.859   8.212 -0.5046 -0.0012  0.3140
 7987SOL    HW135597   3.464   3.937   8.157 -1.3006 -0.4712 -0.3223
 7987SOL    HW235598   3.525   3.809   8.155 -0.6644  0.2009 -0.0216
 7988SOL     OW35599   2.216   0.775   2.240 -0.0730 -0.1741  0.3370
 7988SOL    HW135600   2.290   0.724   2.272 -0.3419 -1.4483 -1.0904
 7988SOL    HW235601   2.156   0.701   2.237  2.5929 -2.3203  0.0736
 7989SOL     OW35602   1.134   1.258  14.781  0.4145  0.4422  0.4815
 7989SOL    HW135603   1.226   1.269  14.758  0.2623  1.4350  0.3393
 7989SOL    HW235604   1.142   1.301  14.867 -2.2298  0.5822  0.6713
 7990SOL     OW35605   2.576   4.415   4.116 -0.6876  0.4385  0.8579
 7990SOL    HW135606   2.612   4.327   4.116 -0.9054  0.3509  1.5991
 7990SOL    HW235607   2.538   4.413   4.028  0.5390  2.2885  0.2939
 7991SOL     OW35608   0.404   0.308   3.556  0.2560  0.6656 -0.2113
 7991SOL    HW135609   0.425   0.215   3.543  2.1422  1.3048 -1.7779
 7991SOL    HW235610   0.323   0.308   3.505 -1.0019 -2.2461  1.7536
 7992SOL     OW35611   2.536   1.305   3.693  0.1045 -0.6315 -0.2432
 7992SOL    HW135612   2.598   1.242   3.656  1.2173  0.0090  0.5334
 7992SOL    HW235613   2.455   1.257   3.677 -0.0596  0.0013 -1.3559
 7993SOL     OW35614   4.424   3.597   4.670 -0.5986 -0.7680  0.5457
 7993SOL    HW135615   4.475   3.664   4.624 -0.4952  0.7340  2.8241
 7993SOL    HW235616   4.481   3.570   4.742  1.8627 -3.1238 -2.3131
 7994SOL     OW35617   4.672   4.319   5.072  0.4921 -0.4775 -0.7225
 7994SOL    HW135618   4.603   4.258   5.046  0.7050 -1.0724  0.1300
 7994SOL    HW235619   4.722   4.324   4.990  1.1606  0.4112 -0.2569
 7995SOL     OW35620   3.744   3.415  17.009  0.4308  0.3610 -0.6448
 7995SOL    HW135621   3.709   3.347  16.952 -0.0798 -0.4057  0.5804
 7995SOL    HW235622   3.781   3.480  16.950 -0.7372  1.0604 -0.5961
 7996SOL     OW35623   2.262   3.919   4.279  0.2799 -0.0386  0.2679
 7996SOL    HW135624   2.182   3.929   4.228  0.1853  0.7837  0.5772
 7996SOL    HW235625   2.314   3.994   4.250 -0.6566 -0.1985 -1.7892
 7997SOL     OW35626   4.279   1.421  17.612  0.1115  0.2140  0.1545
 7997SOL    HW135627   4.302   1.329  17.611 -0.8709 -0.0414  0.8160
 7997SOL    HW235628   4.210   1.428  17.546 -1.2921 -1.6084  1.4127
 7998SOL     OW35629   3.945   3.431  15.184  0.0840 -0.1298 -0.4698
 7998SOL    HW135630   3.859   3.424  15.225 -0.2032 -1.4282 -1.2997
 7998SOL    HW235631   3.952   3.367  15.113  1.5461 -0.2811 -0.1796
 7999SOL     OW35632   1.536   2.844   3.580  0.2196 -0.2155  0.0536
 7999SOL    HW135633   1.605   2.909   3.568  0.1224 -0.4757 -1.7923
 7999SOL    HW235634   1.508   2.855   3.671  1.3214  0.1509  0.3463
 8000SOL     OW35635   3.825   1.503  13.250  0.2431  0.1239  0.1143
 8000SOL    HW135636   3.738   1.513  13.289  0.2303 -1.8014  0.5515
 8000SOL    HW235637   3.811   1.423  13.199 -0.4338 -0.3219  0.9957
 8001SOL     OW35638   3.930   4.482   2.373  0.7416 -0.0385  0.1104
 8001SOL    HW135639   3.920   4.512   2.464 -0.0837  3.0121 -0.9957
 8001SOL    HW235640   3.942   4.390   2.398 -2.2665 -0.9843 -2.0378
 8002SOL     OW35641   1.437   1.831   0.994  0.0984  0.1649 -0.2473
 8002SOL    HW135642   1.497   1.870   1.057 -0.2480 -1.5712  1.1570
 8002SOL    HW235643   1.433   1.895   0.923 -0.3100  0.1212 -0.2597
 8003SOL     OW35644   4.174   3.582  16.765  0.1461 -0.1427  0.2666
 8003SOL    HW135645   4.140   3.584  16.854 -1.8419 -0.0256 -0.5114
 8003SOL    HW235646   4.163   3.675  16.745  3.6002  0.2617  0.2117
 8004SOL     OW35647   1.413   3.514  12.462 -0.1617  0.2689  0.9793
 8004SOL    HW135648   1.351   3.524  12.534 -2.2223  1.1999 -0.9168
 8004SOL    HW235649   1.492   3.520  12.516 -1.0927  2.0204  2.1586
 8005SOL     OW35650   1.603   2.215  17.426  0.3855 -0.2950 -0.5352
 8005SOL    HW135651   1.575   2.163  17.502 -0.4966  1.7609  0.5553
 8005SOL    HW235652   1.537   2.200  17.359 -0.0379  2.6540 -0.7869
 8006SOL     OW35653   3.798   4.031   1.976  0.3292 -0.5519  0.0178
 8006SOL    HW135654   3.880   4.064   1.940 -0.8723  1.4926 -0.8635
 8006SOL    HW235655   3.820   4.041   2.068  0.7111  0.7435 -0.2227
 8007SOL     OW35656   4.736   1.480  17.496 -0.0167  0.0406 -0.2117
 8007SOL    HW135657   0.010   1.386  17.505  2.5127  0.7719  3.8331
 8007SOL    HW235658   0.047   1.511  17.572  1.0564 -2.2203 -0.0112
 8008SOL     OW35659   2.900   2.994  10.075 -0.2400  0.3184  0.1803
 8008SOL    HW135660   2.892   2.933  10.002  0.7229  1.5002 -0.9237
 8008SOL    HW235661   2.811   2.989  10.111 -0.1655  2.1458  0.6300
 8009SOL     OW35662   0.048   3.084   7.741 -0.2233  0.2880  0.6671
 8009SOL    HW135663   0.087   3.132   7.668  1.2052  1.6638  2.3300
 8009SOL    HW235664   4.695   3.105   7.733  0.2901  2.0665 -0.5809
 8010SOL     OW35665   0.348   0.995   5.383 -0.4478 -0.1839  0.3911
 8010SOL    HW135666   0.302   0.918   5.415 -1.2345 -0.9612 -2.5376
 8010SOL    HW235667   0.318   1.006   5.292  0.5462  0.8367  0.1868
 8011SOL     OW35668   1.667   4.495   9.252 -0.1714 -0.0612 -0.1704
 8011SOL    HW135669   1.740   4.519   9.195 -0.3601  1.2292  0.1445
 8011SOL    HW235670   1.611   4.566   9.222 -0.1854  0.3384  0.7815
 8012SOL     OW35671   0.631   2.992   9.055  0.0454  0.6724 -0.7677
 8012SOL    HW135672   0.613   3.085   9.041 -0.5563  0.9785  2.1302
 8012SOL    HW235673   0.555   2.947   9.091  0.0454  0.5043 -0.9782
 8013SOL     OW35674   0.650   4.310   4.876 -0.5093 -0.4779 -0.1838
 8013SOL    HW135675   0.675   4.249   4.807 -1.3584 -1.5437  0.4558
 8013SOL    HW235676   0.735   4.333   4.916  0.1524 -0.8090 -1.3953
 8014SOL     OW35677   3.389   2.381  17.262 -0.5477  0.2805  0.2899
 8014SOL    HW135678   3.349   2.365  17.347 -0.2123  1.0704  0.5912
 8014SOL    HW235679   3.366   2.298  17.219  1.3128  0.5374 -1.1986
 8015SOL     OW35680   1.176   4.562   2.173  0.0539 -0.4774  0.2217
 8015SOL    HW135681   1.210   4.590   2.258  0.9266  1.8685 -0.8805
 8015SOL    HW235682   1.203   4.636   2.118 -0.0190 -0.3788  0.3177
 8016SOL     OW35683   2.464   3.212   7.390  0.0045 -0.3030  0.5391
 8016SOL    HW135684   2.390   3.157   7.415 -0.4762  0.6257  1.1270
 8016SOL    HW235685   2.491   3.249   7.474 -0.5373 -1.7854  1.3704
 8017SOL     OW35686   4.703   3.798   5.470 -0.0224 -0.2347  0.0714
 8017SOL    HW135687   4.723   3.717   5.516 -0.2787  0.4899  1.4484
 8017SOL    HW235688   4.621   3.832   5.505  0.1269 -2.1879  2.2474
 8018SOL     OW35689   2.645   3.089   7.212 -0.0016  0.0731  0.0016
 8018SOL    HW135690   2.568   3.110   7.265 -0.2912  0.8125 -0.7205
 8018SOL    HW235691   2.694   3.040   7.279 -1.3500 -1.7742 -0.3623
 8019SOL     OW35692   4.373   2.356  16.419  0.3159  0.0959  0.4169
 8019SOL    HW135693   4.439   2.297  16.456 -1.1817 -0.2452  2.5553
 8019SOL    HW235694   4.420   2.390  16.343  1.3160  0.3787  1.1647
 8020SOL     OW35695   1.272   2.628   5.227  0.4177  0.0038 -0.1099
 8020SOL    HW135696   1.290   2.539   5.259 -0.1348 -0.0459  0.0656
 8020SOL    HW235697   1.187   2.647   5.267  0.4854  0.4868 -0.2047
 8021SOL     OW35698   1.050   2.869   3.666 -0.5248  0.2501  0.6378
 8021SOL    HW135699   1.071   2.948   3.617 -2.8372 -0.2182 -1.0939
 8021SOL    HW235700   1.102   2.864   3.747 -0.7761 -0.4874  0.7634
 8022SOL     OW35701   1.281   2.288  13.834 -0.2756  0.1998  0.6628
 8022SOL    HW135702   1.283   2.369  13.783 -0.0701  0.6842  1.4472
 8022SOL    HW235703   1.204   2.247  13.794 -1.1690  1.4828  1.0763
 8023SOL     OW35704   4.344   1.774   0.169 -0.0987  0.1191 -0.4413
 8023SOL    HW135705   4.315   1.707   0.107  0.4357 -2.0333  1.6285
 8023SOL    HW235706   4.347   1.722   0.250  0.0901 -0.0597 -0.5613
 8024SOL     OW35707   4.446   4.601  14.941 -0.4219  0.2614 -0.1506
 8024SOL    HW135708   4.464   4.599  15.035 -0.3916  0.5575 -0.1508
 8024SOL    HW235709   4.521   4.656  14.915  0.4868 -0.1539  1.5749
 8025SOL     OW35710   4.532   4.175   6.551  0.3891 -0.9744 -0.5719
 8025SOL    HW135711   4.528   4.099   6.493  0.4074 -1.4631  0.0637
 8025SOL    HW235712   4.582   4.143   6.626  0.3610  0.5923  0.1095
 8026SOL     OW35713   2.933   1.569   0.564 -0.3198 -0.1212  0.3335
 8026SOL    HW135714   2.976   1.616   0.493 -0.7335 -0.4414 -0.1278
 8026SOL    HW235715   3.005   1.538   0.619 -1.2498  0.9581  2.1956
 8027SOL     OW35716   3.383   4.465   8.973 -0.5470 -0.2712 -0.5428
 8027SOL    HW135717   3.396   4.399   8.905 -0.9324 -0.5636 -0.3300
 8027SOL    HW235718   3.320   4.414   9.023  0.1081 -1.9839 -1.4872
 8028SOL     OW35719   0.124   4.169   5.250 -0.3918  0.0369 -0.2612
 8028SOL    HW135720   0.048   4.226   5.237  0.9424  1.7201 -0.6621
 8028SOL    HW235721   0.079   4.085   5.237 -0.0569 -0.1715 -0.0640
 8029SOL     OW35722   3.895   3.459  13.089 -0.0898 -0.2822 -0.0512
 8029SOL    HW135723   3.855   3.543  13.113 -1.1133 -0.4674 -1.0741
 8029SOL    HW235724   3.814   3.420  13.055 -0.5349  0.1320  0.5217
 8030SOL     OW35725   1.728   2.176   6.608 -0.5377 -0.2501  0.0826
 8030SOL    HW135726   1.694   2.168   6.697  1.8848 -1.5372  0.8967
 8030SOL    HW235727   1.674   2.246   6.571 -1.1254  0.2856  1.9148
 8031SOL     OW35728   2.799   1.560   5.320 -0.2348 -0.6756  0.2682
 8031SOL    HW135729   2.848   1.630   5.276 -2.8024 -0.3113 -2.0181
 8031SOL    HW235730   2.867   1.509   5.363 -0.9708 -0.7600  1.3423
 8032SOL     OW35731   3.245   0.590  12.993  0.3382 -0.2349 -0.4900
 8032SOL    HW135732   3.284   0.537  13.064 -0.6512  1.5540  1.3730
 8032SOL    HW235733   3.231   0.671  13.041  0.5514  0.6315 -1.9068
 8033SOL     OW35734   0.328   0.635   2.578 -0.2321 -0.1096 -0.3583
 8033SOL    HW135735   0.324   0.729   2.594  1.1770 -0.3959  1.6749
 8033SOL    HW235736   0.250   0.606   2.625 -0.0421  1.4990  0.9552
 8034SOL     OW35737   1.357   0.035  12.194  0.4457  0.0315 -0.3634
 8034SOL    HW135738   1.408   4.736  12.265  2.0083 -0.8770 -1.9948
 8034SOL    HW235739   1.265   0.031  12.218  0.7120 -0.3613  0.5886
 8035SOL     OW35740   0.927   0.437   6.217  0.8173  0.2618 -0.3400
 8035SOL    HW135741   0.899   0.345   6.223  0.9550  0.3281  1.0997
 8035SOL    HW235742   0.930   0.451   6.122  0.3152  1.4435 -0.1804
 8036SOL     OW35743   1.561   0.621  17.359 -0.0472 -0.0328 -0.0456
 8036SOL    HW135744   1.528   0.572  17.434  0.0492 -1.4746 -0.9394
 8036SOL    HW235745   1.617   0.691  17.393  0.0260 -0.4920  0.7659
 8037SOL     OW35746   4.388   2.620   0.492  0.2893 -0.3348  0.0938
 8037SOL    HW135747   4.308   2.612   0.544  2.7309  1.7689  4.0854
 8037SOL    HW235748   4.412   2.706   0.526 -1.7459  0.3228 -0.0890
 8038SOL     OW35749   3.100   3.221  15.534  0.2728  0.5126  0.5192
 8038SOL    HW135750   3.095   3.130  15.505  0.8577 -0.1723  2.5916
 8038SOL    HW235751   3.057   3.272  15.465 -1.1315  0.4578  1.3433
 8039SOL     OW35752   4.140   3.949  16.452 -0.0011  0.0923  0.4091
 8039SOL    HW135753   4.070   4.015  16.445 -0.4728 -0.1800  2.4907
 8039SOL    HW235754   4.103   3.883  16.393  0.1822  1.5178 -1.3028
 8040SOL     OW35755   3.891   0.954   3.744  0.3794  0.1199  0.2214
 8040SOL    HW135756   3.811   0.953   3.797  0.8855 -2.3729  0.9052
 8040SOL    HW235757   3.926   0.868   3.765 -2.2321 -0.5446  1.9239
 8041SOL     OW35758   3.694   4.107  11.795  0.6957 -0.2737  0.0100
 8041SOL    HW135759   3.687   4.125  11.889  0.3984  1.1685 -0.2970
 8041SOL    HW235760   3.623   4.042  11.789  0.7110 -0.2084 -0.8303
 8042SOL     OW35761   3.657   2.589   8.699  0.1248  0.1751  0.1376
 8042SOL    HW135762   3.668   2.527   8.771  1.1868 -1.1642 -1.1803
 8042SOL    HW235763   3.651   2.671   8.748 -0.3450 -1.2069  2.3735
 8043SOL     OW35764   0.372   4.625   8.439  0.0427 -0.8057  0.6921
 8043SOL    HW135765   0.431   4.667   8.501 -1.6563  1.7919  0.5744
 8043SOL    HW235766   0.385   4.687   8.367  0.5897  0.2101  1.6633
 8044SOL     OW35767   0.649   2.788  13.106  0.0745 -1.2567 -0.1987
 8044SOL    HW135768   0.621   2.818  13.193 -1.9897 -0.8623 -1.0118
 8044SOL    HW235769   0.566   2.797  13.060  0.4415 -0.5225 -0.7239
 8045SOL     OW35770   1.576   1.500   4.200 -0.1869 -0.1076 -0.1942
 8045SOL    HW135771   1.628   1.549   4.264  0.6762  0.0771 -1.0458
 8045SOL    HW235772   1.523   1.443   4.256  0.3384  0.5655  0.9975
 8046SOL     OW35773   3.834   4.564   7.019 -0.0906  0.1017  0.5280
 8046SOL    HW135774   3.748   4.606   7.014  0.2533  0.9745  1.9284
 8046SOL    HW235775   3.858   4.587   6.929 -1.0879 -1.4830 -0.1523
 8047SOL     OW35776   2.715   0.574   7.154 -0.4334 -0.3901  0.3731
 8047SOL    HW135777   2.793   0.608   7.111  0.0051 -1.1021  0.6053
 8047SOL    HW235778   2.752   0.540   7.236 -0.9439 -0.3320  0.6270
 8048SOL     OW35779   4.377   4.647   7.226  0.2755  0.4527  0.3310
 8048SOL    HW135780   4.382   4.643   7.322  0.3695  2.4976  0.3993
 8048SOL    HW235781   4.356   0.000   7.222 -0.3289  0.2295 -1.3750
 8049SOL     OW35782   0.836   1.174   6.345  0.1093 -0.4607  0.2646
 8049SOL    HW135783   0.795   1.250   6.388  1.3562 -0.0818  0.7882
 8049SOL    HW235784   0.928   1.199   6.344  0.0251 -0.1610 -0.2214
 8050SOL     OW35785   0.559   2.096   2.101 -0.7377 -0.9159 -0.1163
 8050SOL    HW135786   0.598   2.015   2.134 -0.9623 -1.2593 -0.6939
 8050SOL    HW235787   0.471   2.068   2.076 -1.5160  1.1967  0.2856
 8051SOL     OW35788   2.592   0.223   6.345  0.0798 -0.9298  0.0971
 8051SOL    HW135789   2.654   0.241   6.415  0.7610 -1.1195 -0.4573
 8051SOL    HW235790   2.509   0.265   6.368  0.4139 -0.3626  0.2688
 8052SOL     OW35791   2.407   0.786   3.006 -0.5947  0.3597  0.2426
 8052SOL    HW135792   2.499   0.808   2.990  0.2562 -0.3069  4.1828
 8052SOL    HW235793   2.355   0.855   2.964 -1.3124  0.9499  2.0813
 8053SOL     OW35794   2.753   0.108   2.552  0.2204  0.1632  0.2679
 8053SOL    HW135795   2.702   0.027   2.551  0.7514 -0.1523 -1.8460
 8053SOL    HW235796   2.691   0.180   2.557  0.9550  0.7512  0.8952
 8054SOL     OW35797   4.381   2.854   8.980  0.1130 -0.3164 -0.2478
 8054SOL    HW135798   4.350   2.773   8.939 -2.3964 -0.1481  1.3404
 8054SOL    HW235799   4.428   2.815   9.054 -0.6762  2.4933  1.6849
 8055SOL     OW35800   0.721   0.905   5.289  0.2983  0.2577 -0.0406
 8055SOL    HW135801   0.760   0.974   5.236 -0.4176  0.0960 -0.7775
 8055SOL    HW235802   0.669   0.851   5.229  1.9823 -0.5579 -0.7683
 8056SOL     OW35803   2.133   4.126   5.091  0.8217 -0.3308  0.5533
 8056SOL    HW135804   2.149   4.220   5.077 -0.8657 -0.1523 -0.2130
 8056SOL    HW235805   2.173   4.090   5.012 -1.6663 -2.5126  0.2948
 8057SOL     OW35806   1.091   1.075   4.665 -0.0344 -0.0486  0.3360
 8057SOL    HW135807   1.132   1.158   4.644  0.2659 -0.1562  0.4955
 8057SOL    HW235808   1.025   1.105   4.728 -0.4598 -0.4800  0.0956
 8058SOL     OW35809   0.745   0.072   1.399 -0.2321 -0.1880 -0.1208
 8058SOL    HW135810   0.804   0.136   1.359 -1.4595 -0.0519 -1.6907
 8058SOL    HW235811   0.759   0.102   1.489  0.9672  0.0607 -0.3908
 8059SOL     OW35812   2.381   4.065   3.547  0.1981  0.3851 -0.3360
 8059SOL    HW135813   2.445   4.074   3.617  0.0979  1.3343 -0.3731
 8059SOL    HW235814   2.321   4.009   3.597  2.3247 -1.9022 -0.3437
 8060SOL     OW35815   2.057   3.881   7.850 -0.4976  0.1571  0.8684
 8060SOL    HW135816   2.025   3.823   7.781  0.4598 -1.1751  1.5611
 8060SOL    HW235817   2.003   3.861   7.926 -0.5425 -1.2846  0.4542
 8061SOL     OW35818   3.400   4.172   2.403  0.7145 -0.1096 -0.4870
 8061SOL    HW135819   3.321   4.219   2.377  0.7751 -0.3763 -1.1508
 8061SOL    HW235820   3.417   4.198   2.493  0.3211  0.1749 -0.4966
 8062SOL     OW35821   4.305   1.533   7.878 -0.0054  0.1273  0.3691
 8062SOL    HW135822   4.261   1.618   7.873  0.3816  0.3706  1.0283
 8062SOL    HW235823   4.280   1.502   7.966  2.4506 -2.6666  0.0850
 8063SOL     OW35824   0.140   3.480   5.495 -0.5958  0.2216 -0.5067
 8063SOL    HW135825   0.219   3.427   5.486 -1.2140 -1.0197  1.3420
 8063SOL    HW235826   0.102   3.439   5.572  1.0690 -0.3555  0.0227
 8064SOL     OW35827   3.868   2.250  16.513  0.3098 -0.0378  0.5181
 8064SOL    HW135828   3.888   2.274  16.603  0.4075 -0.2660  0.5578
 8064SOL    HW235829   3.905   2.321  16.461 -2.1527  2.3140  2.0064
 8065SOL     OW35830   3.109   4.121  13.900  0.2307  0.0608 -0.4827
 8065SOL    HW135831   3.172   4.181  13.941 -2.2217  0.5951  2.5624
 8065SOL    HW235832   3.027   4.160  13.933  0.4587  0.6806 -0.6562
 8066SOL     OW35833   1.641   4.134   9.601 -0.1910  0.2335  0.5741
 8066SOL    HW135834   1.596   4.195   9.542 -0.5666  0.0755  0.7023
 8066SOL    HW235835   1.727   4.122   9.560 -0.0780  2.1116  0.2374
 8067SOL     OW35836   2.993   4.497  14.074  0.2018  0.7484 -0.2461
 8067SOL    HW135837   3.069   4.440  14.059  0.7009  2.1557 -3.1529
 8067SOL    HW235838   3.027   4.558  14.139  1.4829 -1.9876  1.6178
 8068SOL     OW35839   2.907   3.913   1.524 -0.0717  0.4498 -0.6576
 8068SOL    HW135840   2.866   3.837   1.564 -1.1808  0.4543 -1.7920
 8068SOL    HW235841   2.972   3.926   1.592 -0.8071 -1.4649  0.4086
 8069SOL     OW35842   1.501   1.829   3.825 -0.4557 -0.1899  0.2766
 8069SOL    HW135843   1.409   1.856   3.825 -0.6241 -0.7572 -0.8867
 8069SOL    HW235844   1.543   1.895   3.879 -0.5149 -1.0703  1.3898
 8070SOL     OW35845   0.776   4.037  10.768  0.1048 -0.2251 -0.1281
 8070SOL    HW135846   0.855   4.061  10.720  0.7120 -1.1334  0.4011
 8070SOL    HW235847   0.799   3.944  10.764 -1.2639 -0.6706  2.4712
 8071SOL     OW35848   0.572   3.191   2.029  0.5751 -0.0750  0.3394
 8071SOL    HW135849   0.534   3.270   1.990 -1.4703 -1.9579 -1.5322
 8071SOL    HW235850   0.651   3.176   1.976  0.5718  2.5131 -0.3727
 8072SOL     OW35851   0.510   3.837   9.726 -0.4344  0.2747  0.0106
 8072SOL    HW135852   0.435   3.780   9.737 -1.6417  1.7167 -0.6934
 8072SOL    HW235853   0.494   3.910   9.787 -2.0821  2.3599 -2.8879
 8073SOL     OW35854   0.658   2.344  15.849 -0.0330  0.2870 -0.6419
 8073SOL    HW135855   0.567   2.343  15.821  0.0347  0.3076 -0.8658
 8073SOL    HW235856   0.684   2.425  15.804 -0.2651  1.3290  1.0862
 8074SOL     OW35857   4.110   2.170   5.839 -0.1346  0.3504  0.0653
 8074SOL    HW135858   4.020   2.196   5.854 -1.1894 -2.5490 -1.2503
 8074SOL    HW235859   4.125   2.246   5.782  0.3566  0.1483 -0.0755
 8075SOL     OW35860   3.695   0.280   1.765  0.0924 -0.4364 -0.2457
 8075SOL    HW135861   3.744   0.310   1.688  0.0434  0.8636  0.2413
 8075SOL    HW235862   3.641   0.215   1.719  0.3167 -2.1365  1.9016
 8076SOL     OW35863   1.369   4.549  16.175  0.6579 -0.3500 -0.1849
 8076SOL    HW135864   1.321   4.551  16.258  2.0348 -0.2700  0.6287
 8076SOL    HW235865   1.321   4.601  16.112 -1.1474  0.8907  2.2095
 8077SOL     OW35866   0.383   1.625  11.732  0.6033  0.3816 -0.4722
 8077SOL    HW135867   0.397   1.720  11.739 -3.5334  0.9826 -0.4401
 8077SOL    HW235868   0.303   1.637  11.682 -0.6708  1.9821  1.9586
 8078SOL     OW35869   3.979   4.060  16.895  0.1868 -0.0089  0.6288
 8078SOL    HW135870   4.010   3.996  16.959  0.7518 -0.7646 -0.3876
 8078SOL    HW235871   3.955   4.003  16.822 -0.0866  1.9139 -0.7776
 8079SOL     OW35872   1.529   3.890   9.640 -0.6458 -0.1839  0.2053
 8079SOL    HW135873   1.562   3.977   9.619 -2.2915  1.1535  3.0908
 8079SOL    HW235874   1.435   3.905   9.647 -0.7255 -0.6694  0.1884
 8080SOL     OW35875   1.416   3.635   3.107  0.1186 -0.1529 -0.7357
 8080SOL    HW135876   1.386   3.544   3.105 -1.0274  0.2017 -0.0138
 8080SOL    HW235877   1.467   3.637   3.027  0.4787  2.4938 -0.4396
 8081SOL     OW35878   2.349   2.577   2.437  0.6399 -0.8502  0.7680
 8081SOL    HW135879   2.331   2.592   2.530 -2.2587 -1.0361  0.2465
 8081SOL    HW235880   2.380   2.487   2.434  1.6414 -0.5307  1.7190
 8082SOL     OW35881   2.340   1.344   2.570  0.3891 -0.5160 -0.1015
 8082SOL    HW135882   2.411   1.340   2.506 -0.8778  2.3150 -1.7062
 8082SOL    HW235883   2.381   1.403   2.632 -1.1276 -1.6682  1.9876
 8083SOL     OW35884   0.182   4.300   8.271 -0.4607 -0.1600  0.3614
 8083SOL    HW135885   0.164   4.349   8.191 -1.1624  2.0188  1.8561
 8083SOL    HW235886   0.267   4.338   8.296  0.3892 -0.9518 -1.3125
 8084SOL     OW35887   2.783   1.007   7.194  0.0492  0.4372 -0.2973
 8084SOL    HW135888   2.711   0.981   7.136  0.4352  0.7718 -0.9234
 8084SOL    HW235889   2.806   1.088   7.148  1.7907  0.6651  0.9869
 8085SOL     OW35890   2.269   1.172   6.237 -0.2764 -0.0373  1.0388
 8085SOL    HW135891   2.354   1.145   6.202 -1.4160 -0.2526 -1.5530
 8085SOL    HW235892   2.217   1.099   6.202  0.6544 -0.2224  0.0575
 8086SOL     OW35893   2.101   3.745   4.532  0.0066  0.1050 -0.0419
 8086SOL    HW135894   2.118   3.671   4.590 -1.5619  0.1616  0.4852
 8086SOL    HW235895   2.182   3.792   4.551 -0.2283  0.9858 -1.2061
 8087SOL     OW35896   1.305   3.681   6.205  0.4986 -0.4487  0.1919
 8087SOL    HW135897   1.269   3.761   6.165  0.3744 -1.5120 -1.8234
 8087SOL    HW235898   1.297   3.627   6.126 -0.6445 -0.6546  0.4482
 8088SOL     OW35899   0.900   4.442   4.667  0.0498 -0.1537  0.3619
 8088SOL    HW135900   0.842   4.478   4.600  0.1025 -0.4101  0.1783
 8088SOL    HW235901   0.859   4.356   4.679 -0.5718  0.0959 -0.0228
 8089SOL     OW35902   1.799   1.249  11.493  0.2667 -0.2090  0.7351
 8089SOL    HW135903   1.863   1.272  11.561  0.8461 -0.4274  0.2700
 8089SOL    HW235904   1.739   1.320  11.515  0.5667 -0.1251  1.3102
 8090SOL     OW35905   4.647   2.936   9.719 -0.3079  0.1758 -0.0286
 8090SOL    HW135906   4.685   2.848   9.709 -1.4774 -0.2186 -0.9626
 8090SOL    HW235907   4.553   2.920   9.709 -0.5704  0.9688  1.0928
 8091SOL     OW35908   1.460   2.835   1.173  0.3382  0.9050  0.3543
 8091SOL    HW135909   1.501   2.895   1.111  0.4212 -0.3013 -0.7610
 8091SOL    HW235910   1.504   2.762   1.129  2.8226  1.7416  1.4460
 8092SOL     OW35911   3.065   1.044   8.431  0.1824 -0.5127 -0.6074
 8092SOL    HW135912   3.052   1.136   8.452  1.4277 -0.2414 -1.0110
 8092SOL    HW235913   3.116   1.010   8.505  0.8791 -0.1328 -0.9130
 8093SOL     OW35914   2.646   3.202   6.669 -0.0807 -1.0050 -0.1383
 8093SOL    HW135915   2.664   3.122   6.620  0.5704 -0.6739 -0.4384
 8093SOL    HW235916   2.604   3.258   6.603 -0.0883 -2.0611 -1.0301
 8094SOL     OW35917   4.175   3.595   8.809 -0.5157  0.3521  0.0414
 8094SOL    HW135918   4.120   3.516   8.807 -2.4884  1.6758  1.8962
 8094SOL    HW235919   4.258   3.561   8.775 -0.5456  1.3519 -1.0672
 8095SOL     OW35920   0.627   3.851   4.064  0.6567 -0.1716  0.2055
 8095SOL    HW135921   0.687   3.791   4.020  1.3451 -0.5331  1.6243
 8095SOL    HW235922   0.541   3.827   4.029  1.1081 -2.1567  0.4535
 8096SOL     OW35923   0.648   4.664   4.654  0.5122 -0.2418  0.0093
 8096SOL    HW135924   0.589   4.626   4.719 -1.5396  1.0619 -1.0834
 8096SOL    HW235925   0.628   4.599   4.587  0.6252 -1.0539  0.7723
 8097SOL     OW35926   0.563   4.049   8.128  0.2087  0.2053  0.4048
 8097SOL    HW135927   0.501   4.115   8.098 -0.1487  0.1647  1.0776
 8097SOL    HW235928   0.555   3.978   8.064  0.8260  0.6252 -0.1453
 8098SOL     OW35929   0.270   4.597   1.128  0.5665  0.3394  0.4429
 8098SOL    HW135930   0.288   4.689   1.147  1.0419 -0.0153  1.7304
 8098SOL    HW235931   0.340   4.549   1.173 -0.6382 -0.3270  1.6176
 8099SOL     OW35932   1.222   3.295  12.971 -0.1708  0.3541  0.0170
 8099SOL    HW135933   1.316   3.279  12.959 -0.3702 -1.4309  0.7516
 8099SOL    HW235934   1.216   3.382  13.009 -0.7935 -0.5302  1.9798
 8100SOL     OW35935   0.597   0.595   5.781 -0.3696  0.2767  0.6358
 8100SOL    HW135936   0.596   0.671   5.723  2.5455 -0.3391 -0.2213
 8100SOL    HW235937   0.548   0.611   5.862  0.4531  0.8798  1.0159
 8101SOL     OW35938   2.378   1.614   9.236  0.0303 -0.3773  0.0063
 8101SOL    HW135939   2.396   1.572   9.320 -0.2420  2.2777  1.3815
 8101SOL    HW235940   2.291   1.654   9.245  0.6786  0.9812  0.1895
 8102SOL     OW35941   3.198   0.767  12.499 -0.5302  0.0207  0.1985
 8102SOL    HW135942   3.214   0.819  12.420  1.2958 -0.1047  0.4957
 8102SOL    HW235943   3.288   0.754  12.529  0.0995 -1.1528 -2.1597
 8103SOL     OW35944   2.393   1.377   7.076  0.5816 -0.3644 -0.2164
 8103SOL    HW135945   2.370   1.455   7.025  1.4164 -1.1550 -1.8159
 8103SOL    HW235946   2.321   1.388   7.137 -0.9825  0.7286 -2.2497
 8104SOL     OW35947   1.630   3.912   6.965 -0.0865  0.1411  0.2549
 8104SOL    HW135948   1.706   3.942   7.014 -1.0407  1.2383  1.0413
 8104SOL    HW235949   1.676   3.846   6.912 -1.3564  1.1776 -2.1273
 8105SOL     OW35950   4.617   3.180  10.291  0.3497 -0.2802 -0.0361
 8105SOL    HW135951   4.543   3.168  10.231 -0.0884 -0.8432  0.6255
 8105SOL    HW235952   4.691   3.141  10.243  1.1452  0.5721  0.4971
 8106SOL     OW35953   3.473   1.171   3.017 -0.1303  0.4343  0.2498
 8106SOL    HW135954   3.389   1.207   3.046  1.0900  1.2778  2.7339
 8106SOL    HW235955   3.441   1.081   3.014 -2.2324  1.2571 -2.1061
 8107SOL     OW35956   0.011   3.679  12.379  0.3266  0.5749  0.2838
 8107SOL    HW135957   0.062   3.757  12.354 -0.1781  1.9169  3.4978
 8107SOL    HW235958   0.058   3.645  12.455 -0.1860  1.2835  0.9142
 8108SOL     OW35959   4.425   4.309   4.484  0.4155 -0.4497 -0.4578
 8108SOL    HW135960   4.384   4.223   4.490 -0.0213 -0.2200 -0.2274
 8108SOL    HW235961   4.386   4.345   4.563 -0.7767  2.4960 -2.3780
 8109SOL     OW35962   3.319   0.706   4.017  0.6136  0.1155 -0.6535
 8109SOL    HW135963   3.256   0.688   3.947 -1.1962 -1.0152  1.2622
 8109SOL    HW235964   3.294   0.634   4.075 -0.3574  1.0264  0.0341
 8110SOL     OW35965   2.157   2.276   3.686  0.5513 -0.4267 -0.3591
 8110SOL    HW135966   2.123   2.197   3.642  0.5058 -0.6874  0.1448
 8110SOL    HW235967   2.118   2.273   3.773  0.6046  3.0757 -0.2423
 8111SOL     OW35968   3.457   3.534  10.155  0.1851 -0.1706  0.1452
 8111SOL    HW135969   3.514   3.478  10.103  2.8203  2.8177 -0.1888
 8111SOL    HW235970   3.474   3.497  10.241  0.2881  1.1957  0.7189
 8112SOL     OW35971   1.805   0.562   3.004 -0.4318  0.0685  0.3493
 8112SOL    HW135972   1.778   0.470   3.000  2.1685 -0.7649  1.4507
 8112SOL    HW235973   1.794   0.585   3.096  0.6416  0.2788  0.4329
 8113SOL     OW35974   1.209   2.914   9.135 -0.0146  0.5105 -0.1211
 8113SOL    HW135975   1.215   2.872   9.221 -1.3698 -0.0783 -0.3134
 8113SOL    HW235976   1.283   2.975   9.133  0.4516  0.0296  1.9538
 8114SOL     OW35977   2.317   0.524   7.260 -0.7925 -0.0496  0.3311
 8114SOL    HW135978   2.231   0.494   7.232  0.6547 -2.8169 -1.1640
 8114SOL    HW235979   2.329   0.483   7.345 -0.4264  0.1735  0.3894
 8115SOL     OW35980   2.346   3.926   0.432 -0.3352  0.3914  0.1035
 8115SOL    HW135981   2.378   3.852   0.379 -0.1215  2.2974 -2.4286
 8115SOL    HW235982   2.420   3.947   0.489 -1.5962  0.9065  1.5517
 8116SOL     OW35983   3.660   0.912   5.387  0.5618 -0.0844 -0.1253
 8116SOL    HW135984   3.734   0.916   5.326  0.4376 -1.3129 -0.3474
 8116SOL    HW235985   3.647   1.007   5.394  0.0871 -0.1815  0.2088
 8117SOL     OW35986   1.426   2.759   1.805  0.6551 -0.3457  0.1729
 8117SOL    HW135987   1.461   2.734   1.891  1.6020 -0.2341 -0.1761
 8117SOL    HW235988   1.508   2.734   1.762  0.3922 -0.6721 -0.1402
 8118SOL     OW35989   2.004   4.500   8.904 -0.4664 -0.1151 -0.3512
 8118SOL    HW135990   2.046   4.507   8.818 -0.1667 -1.2001 -0.2994
 8118SOL    HW235991   2.052   4.422   8.934  1.8228  0.7095 -1.8518
 8119SOL     OW35992   0.568   3.608   9.373  0.2259 -0.0762 -0.1846
 8119SOL    HW135993   0.489   3.559   9.394 -0.3490  2.2554  3.2004
 8119SOL    HW235994   0.584   3.640   9.462  1.8565  2.5076 -1.3907
 8120SOL     OW35995   2.137   2.518   7.934  0.2755  0.5434  0.4111
 8120SOL    HW135996   2.059   2.529   7.988  0.7439 -2.7122  1.7130
 8120SOL    HW235997   2.112   2.499   7.843 -0.0277 -0.2619  0.6658
 8121SOL     OW35998   1.009   1.942   9.327  0.3260  0.6527  0.2756
 8121SOL    HW135999   1.096   1.949   9.367  0.5582 -0.4883 -0.0379
 8121SOL    HW236000   1.028   1.954   9.234  0.4451 -2.7104 -0.1356
 8122SOL     OW36001   0.774   0.648  16.465 -0.5624  0.6220  0.5676
 8122SOL    HW136002   0.732   0.611  16.387 -1.7113  1.4093  0.8115
 8122SOL    HW236003   0.772   0.573  16.524 -0.2043  0.2183  0.0598
 8123SOL     OW36004   2.470   1.354   4.293  0.1359  0.1977 -0.0018
 8123SOL    HW136005   2.455   1.324   4.204  2.3076 -1.8575  0.3219
 8123SOL    HW236006   2.452   1.275   4.345 -0.1961 -0.8242 -1.6619
 8124SOL     OW36007   3.395   2.922   2.797  0.3008  0.2600 -0.7432
 8124SOL    HW136008   3.357   2.876   2.872 -2.8787  1.2731 -1.7264
 8124SOL    HW236009   3.485   2.892   2.808  0.1382  0.2228  0.5058
 8125SOL     OW36010   2.312   4.035   3.928  0.1400 -0.2588  0.3340
 8125SOL    HW136011   2.218   4.044   3.909  0.7944  0.9419 -2.3345
 8125SOL    HW236012   2.322   4.071   4.016 -1.5377  1.1407 -0.0550
 8126SOL     OW36013   0.209   0.282  16.891 -0.0653  0.5516  0.6456
 8126SOL    HW136014   0.197   0.300  16.984 -1.3344  0.1669  0.5518
 8126SOL    HW236015   0.257   0.364  16.881  1.6343 -0.6064 -0.7090
 8127SOL     OW36016   3.646   3.176  14.062 -0.0419  0.3267 -0.1183
 8127SOL    HW136017   3.697   3.137  13.991 -1.7726 -0.8817 -0.7071
 8127SOL    HW236018   3.602   3.250  14.022  0.4731 -0.6483 -2.4813
 8128SOL     OW36019   4.427   2.722   8.451 -0.5716 -0.6547 -0.1760
 8128SOL    HW136020   4.500   2.773   8.486 -0.6037  0.1352 -1.2531
 8128SOL    HW236021   4.462   2.700   8.364  1.5752  0.2446  0.4667
 8129SOL     OW36022   4.553   2.381   3.422  0.5560 -0.3460 -0.3591
 8129SOL    HW136023   4.616   2.410   3.488  1.0707 -1.5304 -0.3208
 8129SOL    HW236024   4.562   2.287   3.440  0.4565  0.2312  2.6949
 8130SOL     OW36025   1.724   1.874  12.911  0.3918 -0.4160 -0.0485
 8130SOL    HW136026   1.638   1.873  12.869 -0.4342 -3.2292  1.6903
 8130SOL    HW236027   1.750   1.783  12.898  1.1391 -0.2153  0.0765
 8131SOL     OW36028   3.289   2.564   2.716  0.3123 -0.1969 -0.0519
 8131SOL    HW136029   3.374   2.529   2.741  0.9295  1.6510  0.4207
 8131SOL    HW236030   3.239   2.545   2.796 -1.1802 -0.7523 -1.1198
 8132SOL     OW36031   4.332   0.266   6.990  0.1710 -0.2559 -0.0894
 8132SOL    HW136032   4.391   0.312   6.930 -0.3209 -1.8630 -1.7885
 8132SOL    HW236033   4.245   0.276   6.953  0.7372  0.6185 -1.1706
 8133SOL     OW36034   1.873   0.093   0.844  0.2752 -0.1134 -1.5881
 8133SOL    HW136035   1.806   0.045   0.893  1.5685 -0.0064  0.3128
 8133SOL    HW236036   1.834   0.096   0.757  0.1730  2.3653 -1.4488
 8134SOL     OW36037   1.726   3.550  16.202 -0.1541  0.5566 -0.3308
 8134SOL    HW136038   1.675   3.608  16.258 -0.9030  0.3189 -0.7554
 8134SOL    HW236039   1.803   3.604  16.191  0.5827 -0.4781 -0.2346
 8135SOL     OW36040   4.639   1.136   2.148 -0.1843 -0.4243  0.2855
 8135SOL    HW136041   4.559   1.094   2.117  0.4012  0.2390 -2.1424
 8135SOL    HW236042   4.604   1.189   2.220  1.6638 -0.7629  1.4229
 8136SOL     OW36043   2.631   2.402   7.167 -0.0587  0.3653 -0.5174
 8136SOL    HW136044   2.720   2.437   7.177 -0.7252  2.3684 -1.5053
 8136SOL    HW236045   2.659   2.315   7.138 -0.0734  0.3337 -0.4362
 8137SOL     OW36046   1.229   0.006   7.544  0.2399 -0.8238 -0.5353
 8137SOL    HW136047   1.257   0.012   7.635  1.5856 -1.6891 -0.8808
 8137SOL    HW236048   1.145   0.051   7.541 -0.2427 -1.7541 -1.0891
 8138SOL     OW36049   1.717   3.505   7.968  0.3318 -0.1416  0.2111
 8138SOL    HW136050   1.690   3.419   7.936 -0.2508 -0.6888  2.1913
 8138SOL    HW236051   1.811   3.484   7.973  0.6059  1.0888  0.4721
 8139SOL     OW36052   4.341   2.855   7.604  0.0025  0.4632  0.0880
 8139SOL    HW136053   4.335   2.911   7.681  0.4351  2.3675 -1.2618
 8139SOL    HW236054   4.412   2.792   7.620  0.2907  0.1367 -2.3887
 8140SOL     OW36055   3.211   2.626  17.709 -0.3518 -0.2017 -0.1181
 8140SOL    HW136056   3.155   2.618   0.029 -0.7372 -2.8716 -0.6893
 8140SOL    HW236057   3.168   2.705  17.675 -0.2841 -0.2291 -0.2669
 8141SOL     OW36058   4.143   3.434   6.654  0.2487 -0.1536 -0.7599
 8141SOL    HW136059   4.101   3.508   6.610  1.2236  0.7241 -0.2247
 8141SOL    HW236060   4.096   3.362   6.612  1.3089 -2.0339  1.2641
 8142SOL     OW36061   1.727   4.191  12.107  0.1624 -0.1103 -0.3857
 8142SOL    HW136062   1.657   4.256  12.103  0.7148  0.4837 -0.2244
 8142SOL    HW236063   1.698   4.136  12.181  1.6955  2.0976  1.8640
 8143SOL     OW36064   1.597   2.976   5.870 -0.1845 -0.0310 -0.2261
 8143SOL    HW136065   1.561   2.975   5.782 -1.8258 -0.8202  0.4464
 8143SOL    HW236066   1.690   2.975   5.848 -0.4283  4.2462 -1.4247
 8144SOL     OW36067   3.211   3.502   5.364 -0.2820  0.2071 -0.2803
 8144SOL    HW136068   3.129   3.457   5.381  0.6342 -1.1344  0.5796
 8144SOL    HW236069   3.180   3.592   5.351 -2.9219 -0.5604  0.7005
 8145SOL     OW36070   3.418   3.842   3.619 -0.0035  0.1419  0.1638
 8145SOL    HW136071   3.501   3.886   3.638 -0.4791  1.1413 -0.0960
 8145SOL    HW236072   3.451   3.778   3.556  1.8760  0.1325  1.1430
 8146SOL     OW36073   2.573   0.577   8.586 -0.4620  0.4269 -0.3104
 8146SOL    HW136074   2.626   0.510   8.629  0.4145 -0.5921 -2.9272
 8146SOL    HW236075   2.624   0.575   8.505  0.0197  0.9410 -0.0204
 8147SOL     OW36076   3.729   0.474  14.025  0.5378  0.4364  0.3154
 8147SOL    HW136077   3.743   0.380  14.039 -1.1276  0.2752  0.8912
 8147SOL    HW236078   3.805   0.496  13.971  0.3981  3.0106  1.1898
 8148SOL     OW36079   3.274   3.711   5.034 -0.0797  0.4607  0.1270
 8148SOL    HW136080   3.329   3.790   5.037  1.6662 -0.6549 -2.4629
 8148SOL    HW236081   3.284   3.678   5.123 -1.0024 -0.5983 -0.1580
 8149SOL     OW36082   1.991   1.316   8.977  0.1899  0.0516  0.5326
 8149SOL    HW136083   1.984   1.399   9.024 -2.0226 -0.2433  0.7087
 8149SOL    HW236084   1.983   1.249   9.045 -0.7406 -0.9815 -0.6031
 8150SOL     OW36085   4.737   0.561   6.440  0.1152 -0.0386  0.1470
 8150SOL    HW136086   4.721   0.591   6.351  1.3354 -0.5870 -0.2459
 8150SOL    HW236087   0.053   0.490   6.411 -0.9613 -1.1315  0.7313
 8151SOL     OW36088   0.250   4.098  16.698 -0.2393  0.3150  0.2637
 8151SOL    HW136089   0.286   4.181  16.668 -0.8771  0.4192 -0.2271
 8151SOL    HW236090   0.331   4.049  16.710 -1.7842 -2.3504 -0.0390
 8152SOL     OW36091   4.717   3.850  11.956  0.1901 -0.4315  0.8726
 8152SOL    HW136092   0.035   3.926  11.951 -0.7091  0.2562  0.8043
 8152SOL    HW236093   4.634   3.888  11.986  1.0360  0.9921  1.4169
 8153SOL     OW36094   2.025   1.405  16.463 -0.7969 -0.4061  0.0769
 8153SOL    HW136095   2.087   1.449  16.405  1.5853 -3.2021  0.5286
 8153SOL    HW236096   1.940   1.400  16.420 -1.2331  1.5884  0.6708
 8154SOL     OW36097   0.343   0.904   8.404 -0.0570 -0.0562  0.4046
 8154SOL    HW136098   0.407   0.905   8.475  1.0692 -1.3313 -0.6138
 8154SOL    HW236099   0.291   0.982   8.425 -1.3967 -1.4197  2.1266
 8155SOL     OW36100   2.311   0.450  13.336 -0.2035 -0.5003  0.2527
 8155SOL    HW136101   2.367   0.427  13.262 -2.9235 -1.8151 -1.3960
 8155SOL    HW236102   2.362   0.414  13.408  3.0611 -0.3213 -1.9891
 8156SOL     OW36103   1.222   4.365   1.305 -0.3383 -0.4211  0.2470
 8156SOL    HW136104   1.251   4.289   1.254  0.5283 -0.2309  0.4633
 8156SOL    HW236105   1.205   4.318   1.387  0.5958  1.3588  1.4647
 8157SOL     OW36106   0.762   1.797   8.608  0.0503 -0.1083  0.1141
 8157SOL    HW136107   0.826   1.828   8.545  2.2742 -2.2018  1.3180
 8157SOL    HW236108   0.682   1.793   8.555  0.0557  1.2185  0.0013
 8158SOL     OW36109   2.698   0.031   1.423 -0.7720 -0.1490 -0.4858
 8158SOL    HW136110   2.740   4.708   1.483 -0.1624  3.0760  2.4941
 8158SOL    HW236111   2.741   0.021   1.338  1.9980 -0.0030  0.8766
 8159SOL     OW36112   2.273   0.116   1.331  0.4583 -0.3959 -0.3774
 8159SOL    HW136113   2.321   0.137   1.251 -1.3955 -0.6267 -1.5301
 8159SOL    HW236114   2.266   0.205   1.367 -0.3450 -0.6810  0.1593
 8160SOL     OW36115   4.630   3.470   8.585 -0.2168 -0.1376  0.2696
 8160SOL    HW136116   4.633   3.519   8.503  0.6386  1.4021  1.2300
 8160SOL    HW236117   4.671   3.389   8.555 -1.0114 -0.6674  0.6032
 8161SOL     OW36118   1.123   1.892   0.847  0.1692 -0.5660  0.4516
 8161SOL    HW136119   1.138   1.893   0.752 -0.0604 -3.2005  0.3888
 8161SOL    HW236120   1.169   1.973   0.868 -1.0143  0.0535  0.6549
 8162SOL     OW36121   4.461   2.661   0.239  0.8626 -0.7182  0.4377
 8162SOL    HW136122   4.425   2.651   0.327 -0.4723 -2.7048 -0.3178
 8162SOL    HW236123   4.384   2.632   0.189 -1.1837 -0.8982  3.7107
 8163SOL     OW36124   0.169   2.628  11.012 -0.2630 -0.6757 -0.0665
 8163SOL    HW136125   0.183   2.536  11.035  0.9967 -0.6506 -0.7338
 8163SOL    HW236126   0.187   2.665  11.099  2.4696  0.2589 -1.0216
 8164SOL     OW36127   2.923   1.225   6.078 -0.5140  0.4230 -0.4698
 8164SOL    HW136128   2.919   1.251   6.170 -2.0855 -0.1504 -0.3785
 8164SOL    HW236129   2.862   1.288   6.037  1.3026  2.3030 -0.2649
 8165SOL     OW36130   2.678   4.045   3.417  0.2959 -0.5667 -0.3289
 8165SOL    HW136131   2.696   4.025   3.508 -0.8039  0.9637  0.2331
 8165SOL    HW236132   2.702   4.137   3.408 -0.6528 -0.4481 -1.7965
 8166SOL     OW36133   3.715   0.947  13.529 -0.1639  0.0645 -0.1227
 8166SOL    HW136134   3.629   0.910  13.551  0.8605 -0.8662  2.3243
 8166SOL    HW236135   3.693   1.038  13.550 -1.2732 -0.3659  0.6189
 8167SOL     OW36136   3.398   4.194   9.164 -0.1999 -0.2808 -0.3348
 8167SOL    HW136137   3.483   4.196   9.120  1.1843  0.9761  2.3923
 8167SOL    HW236138   3.404   4.105   9.199 -1.2600  0.2353  1.1560
 8168SOL     OW36139   4.705   3.966   8.138  0.2300 -0.0513 -0.0993
 8168SOL    HW136140   4.730   3.965   8.231  1.1881 -0.4424 -0.3591
 8168SOL    HW236141   0.050   3.930   8.113  0.5329 -0.2650  1.2192
 8169SOL     OW36142   0.286   0.536  16.951 -0.4986  0.0879 -0.0359
 8169SOL    HW136143   0.284   0.585  17.033  0.7855 -0.0871  0.1036
 8169SOL    HW236144   0.226   0.578  16.890 -0.0512 -0.0388 -0.5725
 8170SOL     OW36145   4.278   2.702   7.109 -0.0027  0.0082  0.0610
 8170SOL    HW136146   4.301   2.614   7.139  0.5868  0.1075 -0.1174
 8170SOL    HW236147   4.188   2.684   7.079 -0.3043  0.8246  0.4736
 8171SOL     OW36148   4.627   2.696   5.972 -0.4802 -0.3056  0.3189
 8171SOL    HW136149   4.590   2.746   5.899  0.6415  0.5122  0.3061
 8171SOL    HW236150   4.703   2.654   5.933 -0.9424 -2.4543  1.7341
 8172SOL     OW36151   2.406   2.490   7.273 -0.0403  0.3169  0.0140
 8172SOL    HW136152   2.334   2.443   7.230  0.8661  0.5283 -1.7576
 8172SOL    HW236153   2.478   2.442   7.231  0.1533  0.8907 -0.3063
 8173SOL     OW36154   0.994   0.385  16.387 -0.7935 -0.1297  0.2160
 8173SOL    HW136155   0.922   0.402  16.447 -0.7663  2.7996 -0.5834
 8173SOL    HW236156   0.949   0.333  16.321  1.5772 -0.9149 -0.7937
 8174SOL     OW36157   4.135   2.428   7.982 -0.1788 -0.2580  0.3268
 8174SOL    HW136158   4.147   2.423   8.077 -3.9265 -0.6199  0.8125
 8174SOL    HW236159   4.168   2.345   7.948  0.9055  0.8399 -1.2797
 8175SOL     OW36160   4.035   1.256  10.861  0.2593 -0.0944 -0.1812
 8175SOL    HW136161   4.106   1.206  10.821  2.7507  2.2829  1.2526
 8175SOL    HW236162   4.057   1.344  10.832  1.2750  0.0201  0.9177
 8176SOL     OW36163   4.132   0.565   7.828 -0.2369  0.4810  0.0518
 8176SOL    HW136164   4.056   0.624   7.821  0.4616  1.4429  0.5972
 8176SOL    HW236165   4.171   0.606   7.905 -2.1644 -0.4959  1.5536
 8177SOL     OW36166   0.498   3.400   8.453 -0.0731  0.5468  0.1027
 8177SOL    HW136167   0.584   3.365   8.435  0.2941  2.5260 -2.0052
 8177SOL    HW236168   0.532   3.471   8.508 -2.5583  2.1408 -0.3888
 8178SOL     OW36169   1.344   2.434   5.413 -0.3969 -0.6145  0.3531
 8178SOL    HW136170   1.436   2.427   5.388 -0.0523  2.6884  0.7646
 8178SOL    HW236171   1.350   2.433   5.509  0.3065 -0.4792  0.3116
 8179SOL     OW36172   2.931   1.252   2.685  0.0899 -0.3455 -0.3181
 8179SOL    HW136173   3.019   1.289   2.675 -1.1482  2.3564 -1.1112
 8179SOL    HW236174   2.954   1.174   2.735  0.2058 -0.4605 -0.5529
 8180SOL     OW36175   0.679   0.040  12.727  0.6691  0.3642 -0.0963
 8180SOL    HW136176   0.771   0.065  12.727  1.3508 -2.2297 -0.3733
 8180SOL    HW236177   0.680   4.731  12.809  0.6949  0.7155  0.1127
 8181SOL     OW36178   0.740   1.128   5.132 -0.2160 -0.4387  0.2716
 8181SOL    HW136179   0.754   1.189   5.060  2.1908  0.0246  1.1232
 8181SOL    HW236180   0.682   1.183   5.184  0.8139  0.1273  0.8252
 8182SOL     OW36181   1.978   0.125   6.710 -0.0160  0.1937 -0.2502
 8182SOL    HW136182   1.961   0.163   6.796 -1.5114 -1.7498  0.3218
 8182SOL    HW236183   1.949   0.206   6.668  0.8064  1.4881  1.6799
 8183SOL     OW36184   3.210   2.777   4.934  0.0158  0.1997 -0.2361
 8183SOL    HW136185   3.197   2.700   4.878 -0.8608 -1.0223  1.6430
 8183SOL    HW236186   3.173   2.742   5.015 -0.8261  2.1156  0.2202
 8184SOL     OW36187   1.266   3.998  12.534  0.0283 -0.3116  0.1031
 8184SOL    HW136188   1.249   3.939  12.461 -0.0272 -1.2424  0.8662
 8184SOL    HW236189   1.314   3.945  12.598 -0.8892 -0.9156  0.2914
 8185SOL     OW36190   1.891   0.396   4.864 -0.1476  0.0460 -0.1230
 8185SOL    HW136191   1.875   0.362   4.952 -1.5125 -0.2987 -0.5021
 8185SOL    HW236192   1.918   0.316   4.818  0.3060  0.4264 -0.5098
 8186SOL     OW36193   1.736   2.998  14.217 -0.1355 -0.2344 -0.2497
 8186SOL    HW136194   1.648   2.988  14.181  0.8642 -0.7887 -2.5276
 8186SOL    HW236195   1.728   2.959  14.304 -1.7024 -0.9407 -0.7153
 8187SOL     OW36196   3.571   0.090  17.750  0.3548 -0.2431 -0.7091
 8187SOL    HW136197   3.498   0.033  17.727  0.4007 -0.8024  0.5524
 8187SOL    HW236198   3.647   0.033  17.754  0.7464  0.3455  0.1857
 8188SOL     OW36199   4.514   0.485   7.997  0.2391  0.0927 -0.3351
 8188SOL    HW136200   4.592   0.536   8.020  0.6350 -1.2500  1.3490
 8188SOL    HW236201   4.475   0.536   7.926  1.3135  1.1901 -0.1331
 8189SOL     OW36202   0.778   0.458  14.860  0.0299 -0.0315 -0.2866
 8189SOL    HW136203   0.714   0.528  14.851  1.4900  1.7072  2.7018
 8189SOL    HW236204   0.857   0.512  14.865 -0.5493  0.5703  2.4142
 8190SOL     OW36205   1.582   2.210  12.242  0.2786 -0.0155 -0.1275
 8190SOL    HW136206   1.657   2.269  12.235 -2.0195  2.5490 -3.0780
 8190SOL    HW236207   1.515   2.264  12.283  0.2783 -1.0665  1.2574
 8191SOL     OW36208   3.930   2.603  14.399  0.0940  0.3445  0.6572
 8191SOL    HW136209   3.953   2.642  14.483  0.2825 -1.0201  1.2370
 8191SOL    HW236210   3.858   2.663  14.377 -0.8886 -1.6963 -1.6416
 8192SOL     OW36211   1.496   4.392  16.685  0.1777 -0.0293 -0.4734
 8192SOL    HW136212   1.470   4.373  16.595 -3.0240  0.5949  0.3293
 8192SOL    HW236213   1.428   4.450  16.720 -0.4316 -0.8679 -0.2721
 8193SOL     OW36214   2.374   1.178  12.849  0.2353 -0.1148 -0.3172
 8193SOL    HW136215   2.428   1.171  12.770  2.0978 -1.3081  1.0762
 8193SOL    HW236216   2.355   1.085  12.864 -1.0745  0.4555  1.5590
 8194SOL     OW36217   3.782   4.212   5.597  0.2527  0.0156 -0.6882
 8194SOL    HW136218   3.769   4.301   5.564 -4.2602 -0.1701  0.5158
 8194SOL    HW236219   3.698   4.171   5.576 -0.5935  0.9740  0.7934
 8195SOL     OW36220   2.690   2.371   8.848 -0.0597 -0.1249 -0.1870
 8195SOL    HW136221   2.766   2.369   8.790 -0.8452  0.1754 -1.2156
 8195SOL    HW236222   2.627   2.335   8.787 -2.5743  0.9803  1.7534
 8196SOL     OW36223   1.994   1.552   5.553  0.2508  0.0079 -0.2326
 8196SOL    HW136224   1.911   1.592   5.581  0.4581  0.4909 -0.2983
 8196SOL    HW236225   1.976   1.539   5.460 -0.3987  1.4532 -0.3142
 8197SOL     OW36226   0.558   2.674   5.239 -0.2067 -0.2007 -0.0679
 8197SOL    HW136227   0.579   2.642   5.327 -0.0293 -0.8014 -0.3294
 8197SOL    HW236228   0.553   2.766   5.263  2.6169  0.1013 -0.7032
 8198SOL     OW36229   3.306   1.270   1.983 -0.0535  0.0147 -0.0065
 8198SOL    HW136230   3.322   1.218   1.905 -2.3491  0.8018 -1.0193
 8198SOL    HW236231   3.231   1.224   2.022  0.9346 -2.2854 -0.8627
 8199SOL     OW36232   1.171   0.386   6.649  0.2618  0.1298 -0.1019
 8199SOL    HW136233   1.228   0.326   6.600 -0.0359 -1.1919  1.1523
 8199SOL    HW236234   1.123   0.432   6.580  0.2166 -0.6899 -0.6277
 8200SOL     OW36235   3.482   1.395   2.531  0.7596 -0.4734 -0.5727
 8200SOL    HW136236   3.541   1.335   2.577  1.0726 -0.0945 -0.4882
 8200SOL    HW236237   3.459   1.455   2.601  0.5840  0.0252 -1.0599
 8201SOL     OW36238   2.328   4.620   1.929  0.1366 -0.2559  0.3482
 8201SOL    HW136239   2.383   4.677   1.875 -0.3407  0.2435  0.3874
 8201SOL    HW236240   2.262   4.684   1.954  0.5505 -0.3456  1.6445
 8202SOL     OW36241   4.355   0.414   5.210  0.2330  0.1660 -0.9369
 8202SOL    HW136242   4.356   0.473   5.285 -0.4666 -2.0281  0.8383
 8202SOL    HW236243   4.264   0.413   5.180  0.0936 -1.1072 -0.5148
 8203SOL     OW36244   0.142   2.620   1.813  0.4230 -0.2895 -0.0180
 8203SOL    HW136245   0.164   2.708   1.780  1.1240  0.4242  2.3587
 8203SOL    HW236246   0.199   2.558   1.767 -0.1302 -1.5018  0.9380
 8204SOL     OW36247   1.452   0.974   5.089 -0.3004  0.2910  0.8935
 8204SOL    HW136248   1.446   0.879   5.084 -0.3083  0.4477 -1.9142
 8204SOL    HW236249   1.469   1.001   4.999  0.2599  0.9495  1.1965
 8205SOL     OW36250   1.553   0.554   4.748 -0.8710  0.0425  0.0903
 8205SOL    HW136251   1.586   0.642   4.731  0.4759  0.1536  3.4068
 8205SOL    HW236252   1.613   0.531   4.819 -1.8310 -2.5777  0.0580
 8206SOL     OW36253   3.119   0.509   8.973  0.1047  0.0215 -0.1243
 8206SOL    HW136254   3.040   0.500   8.919  0.6662  1.1298 -1.1298
 8206SOL    HW236255   3.090   0.572   9.039  3.5512 -0.7652  2.1121
 8207SOL     OW36256   0.878   1.847  12.590  0.1283  0.1574  0.3878
 8207SOL    HW136257   0.864   1.925  12.537  2.7295  0.1984 -0.2346
 8207SOL    HW236258   0.809   1.857  12.656  0.5583 -0.0865  0.8744
 8208SOL     OW36259   3.715   1.211   3.118 -0.1353  0.0304  0.9290
 8208SOL    HW136260   3.637   1.222   3.063  0.1467  0.6949  0.6609
 8208SOL    HW236261   3.714   1.115   3.123  0.4654 -0.1649 -2.6161
 8209SOL     OW36262   2.574   4.115   9.037  0.2352 -0.8535 -0.0099
 8209SOL    HW136263   2.520   4.168   9.096  1.7771 -1.0596  1.5767
 8209SOL    HW236264   2.504   4.058   9.004  0.5838 -0.7651 -0.8819
 8210SOL     OW36265   3.061   2.205  15.617 -0.6877  0.1222  0.3115
 8210SOL    HW136266   3.075   2.122  15.570 -1.1045  1.1595 -1.6480
 8210SOL    HW236267   3.087   2.189  15.707  0.9315  0.9068 -0.0182
 8211SOL     OW36268   0.850   3.034   9.579  0.2412  0.1528  0.1026
 8211SOL    HW136269   0.822   3.056   9.491 -0.1555  0.0053  0.1908
 8211SOL    HW236270   0.944   3.054   9.583  0.3249 -0.5557  1.9027
 8212SOL     OW36271   0.514   0.071  13.491 -0.3410 -0.1130  0.5287
 8212SOL    HW136272   0.588   0.032  13.444 -0.5459 -1.2580  1.1776
 8212SOL    HW236273   0.450   0.040  13.427  1.1643 -0.0543 -1.0288
 8213SOL     OW36274   3.924   2.710  16.478 -0.2162 -0.2310  0.2322
 8213SOL    HW136275   3.867   2.649  16.431  0.6274 -0.2664 -0.7572
 8213SOL    HW236276   3.897   2.694  16.569  1.1745 -2.0327  0.3272
 8214SOL     OW36277   1.407   2.443  15.134  0.2775 -0.1180  0.2519
 8214SOL    HW136278   1.423   2.526  15.089 -1.7589 -0.1902 -0.6186
 8214SOL    HW236279   1.324   2.421  15.092  0.2061 -1.8390  1.3277
 8215SOL     OW36280   0.055   1.571   5.256  0.6651 -0.1421  0.0550
 8215SOL    HW136281   0.023   1.656   5.226  2.9486  1.3009  1.7214
 8215SOL    HW236282   0.126   1.578   5.320 -0.0899 -1.3575  1.0457
 8216SOL     OW36283   1.949   0.946   5.634 -0.2006  0.2617  0.1214
 8216SOL    HW136284   1.913   0.859   5.651  3.6760 -1.2342  0.6386
 8216SOL    HW236285   1.961   0.952   5.540 -2.1543  0.8643 -0.0832
 8217SOL     OW36286   3.276   3.963   4.195 -0.5333 -0.1118  0.4084
 8217SOL    HW136287   3.360   3.917   4.198 -0.2026  0.4624 -0.1191
 8217SOL    HW236288   3.286   4.029   4.127  0.5215 -0.1630  0.5128
 8218SOL     OW36289   2.760   2.948   1.335 -0.4251 -0.3467  0.1085
 8218SOL    HW136290   2.826   2.881   1.351 -0.2947 -0.8709 -2.6228
 8218SOL    HW236291   2.784   2.952   1.242 -2.3903  1.8789 -0.3042
 8219SOL     OW36292   0.324   1.807  15.663  0.1834 -0.0136 -0.0181
 8219SOL    HW136293   0.231   1.797  15.684  0.0894  1.0626  0.0767
 8219SOL    HW236294   0.332   1.748  15.589  0.3397 -0.5151  0.4000
 8220SOL     OW36295   3.500   3.113   9.216  0.1606 -0.2775 -0.1340
 8220SOL    HW136296   3.413   3.100   9.179 -0.6961  2.3598  0.9260
 8220SOL    HW236297   3.561   3.082   9.149 -1.4593 -3.1368 -0.2597
 8221SOL     OW36298   3.168   3.557   6.528  0.6598 -0.0334 -0.5117
 8221SOL    HW136299   3.138   3.599   6.448  1.6319 -0.0519 -0.8940
 8221SOL    HW236300   3.156   3.465   6.504 -1.4842 -0.0739  0.6842
 8222SOL     OW36301   0.292   3.538  17.436 -0.1597 -0.2991 -0.1514
 8222SOL    HW136302   0.329   3.616  17.478 -1.4505  0.8216 -1.1008
 8222SOL    HW236303   0.332   3.474  17.495  0.8746  0.5947  0.1103
 8223SOL     OW36304   1.866   4.178   4.124  0.1576 -1.1716  0.2337
 8223SOL    HW136305   1.813   4.214   4.052  0.5372  0.1359  0.6129
 8223SOL    HW236306   1.797   4.167   4.190  0.9695 -0.9694  1.1025
 8224SOL     OW36307   2.439   1.064  17.229  0.3639  0.2190 -0.1471
 8224SOL    HW136308   2.432   1.131  17.162  0.8209  0.4773  0.0577
 8224SOL    HW236309   2.512   1.098  17.281  0.1003 -0.6595  0.8026
 8225SOL     OW36310   0.101   0.050   4.990 -0.4893  0.6530  0.1159
 8225SOL    HW136311   0.066   0.028   4.904  0.4287  2.7221 -0.7936
 8225SOL    HW236312   0.061   4.725   5.049  2.0713  0.1495  1.3106
 8226SOL     OW36313   3.724   1.832  16.915 -0.1692 -0.9837  0.1671
 8226SOL    HW136314   3.658   1.813  16.848  0.7058  1.9295 -1.5619
 8226SOL    HW236315   3.763   1.909  16.873 -0.6473 -1.1019 -0.4967
 8227SOL     OW36316   4.629   2.787   3.348  0.3873  0.3262  0.2253
 8227SOL    HW136317   4.589   2.837   3.277  1.4852  0.5178 -0.2622
 8227SOL    HW236318   4.560   2.724   3.369  0.7139  0.1524  0.7831
 8228SOL     OW36319   3.497   1.797  13.293  0.0095  0.6244  0.0477
 8228SOL    HW136320   3.481   1.795  13.199 -0.0643  0.0453  0.0731
 8228SOL    HW236321   3.534   1.883  13.312 -1.2386  0.9763  0.9239
 8229SOL     OW36322   1.824   1.340  13.158 -0.1215 -0.1528 -0.8667
 8229SOL    HW136323   1.875   1.366  13.081  0.9858 -1.2219 -0.4853
 8229SOL    HW236324   1.831   1.420  13.210 -1.9865  0.5412 -1.6688
 8230SOL     OW36325   2.422   4.312   4.401 -0.4930  0.4435  0.0730
 8230SOL    HW136326   2.510   4.280   4.420  0.0667  1.2466 -1.1824
 8230SOL    HW236327   2.448   4.395   4.360  0.7534  0.5807  1.1470
 8231SOL     OW36328   1.791   2.994   8.065  1.0362  0.6027  0.4666
 8231SOL    HW136329   1.724   2.946   8.113 -1.2908  2.4544 -0.9471
 8231SOL    HW236330   1.756   2.989   7.976  0.6855 -0.4997  0.6626
 8232SOL     OW36331   4.125   1.432   6.546 -0.2511  0.6347 -0.6736
 8232SOL    HW136332   4.170   1.514   6.524  0.1427  0.2806 -1.1908
 8232SOL    HW236333   4.151   1.422   6.638 -0.5100 -0.8235 -0.7664
 8233SOL     OW36334   0.409   1.476   7.889  0.2992  0.0016 -0.5843
 8233SOL    HW136335   0.449   1.433   7.814  1.3477  2.2994 -1.3353
 8233SOL    HW236336   0.374   1.400   7.936 -0.1783  1.9115  2.2119
 8234SOL     OW36337   2.064   0.408   5.738 -0.2597  0.0448 -0.2817
 8234SOL    HW136338   2.092   0.486   5.690 -0.0066 -0.7859 -1.5063
 8234SOL    HW236339   1.984   0.436   5.782 -0.1758 -1.8804  1.1158
 8235SOL     OW36340   0.245   2.543   5.382  0.4813 -0.0881 -0.4609
 8235SOL    HW136341   0.281   2.456   5.370 -0.9478 -0.2478 -3.6459
 8235SOL    HW236342   0.284   2.571   5.465 -1.6628 -1.6357  1.0872
 8236SOL     OW36343   3.837   3.179   5.072 -0.0105  0.1511 -0.1177
 8236SOL    HW136344   3.768   3.239   5.098  0.3891  1.2627 -1.5390
 8236SOL    HW236345   3.807   3.142   4.989 -0.9342  0.2382  0.1852
 8237SOL     OW36346   3.671   3.047   1.537 -0.0614  0.1435 -0.2926
 8237SOL    HW136347   3.760   3.081   1.530  0.6586 -1.7252 -0.1133
 8237SOL    HW236348   3.690   2.953   1.538 -0.2331  0.0952 -1.5960
 8238SOL     OW36349   0.521   0.555   7.213 -0.6959  0.2575 -0.0481
 8238SOL    HW136350   0.607   0.534   7.249 -1.8543 -1.6216  1.6572
 8238SOL    HW236351   0.493   0.633   7.260 -1.1802  0.6225 -0.9323
 8239SOL     OW36352   4.465   3.455   5.003  0.3695 -0.2196 -0.0396
 8239SOL    HW136353   4.387   3.503   5.029 -0.5065 -1.4715 -0.3156
 8239SOL    HW236354   4.510   3.430   5.084 -0.9673 -0.6566  0.5583
 8240SOL     OW36355   3.044   0.295   9.145 -0.0569  0.4219 -0.2324
 8240SOL    HW136356   3.067   0.382   9.113  0.8296  0.2271 -0.1210
 8240SOL    HW236357   3.067   0.234   9.075 -0.3368  2.0446 -1.7471
 8241SOL     OW36358   1.065   0.089   2.769  0.3006 -0.8136 -0.1860
 8241SOL    HW136359   1.146   0.058   2.811  0.6428  1.3759  0.7812
 8241SOL    HW236360   1.066   0.044   2.684 -1.1175 -0.5975 -0.3026
 8242SOL     OW36361   4.183   0.033   7.716 -0.3687 -0.0164  0.2559
 8242SOL    HW136362   4.146   0.066   7.634  0.5173 -0.9204 -0.5107
 8242SOL    HW236363   4.276   0.050   7.702  0.0414 -3.1049 -0.8705
 8243SOL     OW36364   0.135   1.700   2.418 -0.2281 -0.2092 -0.2863
 8243SOL    HW136365   0.165   1.758   2.488 -0.1755 -1.4489  0.7376
 8243SOL    HW236366   0.067   1.750   2.373 -1.8464 -0.8669  1.4393
 8244SOL     OW36367   0.192   3.072   1.931 -0.5051 -0.3028  0.1353
 8244SOL    HW136368   0.121   3.034   1.879 -0.9107 -0.0623  0.5137
 8244SOL    HW236369   0.239   2.992   1.957  0.8033  0.3307 -0.2904
 8245SOL     OW36370   2.389   2.013   5.719 -0.1541  0.1989 -0.5220
 8245SOL    HW136371   2.340   1.951   5.664  1.7615 -0.3399 -1.6283
 8245SOL    HW236372   2.461   2.014   5.656  0.9142 -2.4738  0.6351
 8246SOL     OW36373   2.294   2.528   9.923  0.4224  0.2890 -0.1722
 8246SOL    HW136374   2.298   2.525  10.018  1.3418  2.9864 -0.1494
 8246SOL    HW236375   2.200   2.525   9.902  0.4150 -0.6460 -0.0136
 8247SOL     OW36376   4.530   0.484   8.433  0.3474  0.1091  0.0053
 8247SOL    HW136377   4.465   0.510   8.497  0.7912  0.5457  0.2776
 8247SOL    HW236378   4.603   0.454   8.487 -1.2550 -0.0308  2.0880
 8248SOL     OW36379   3.534   2.612  17.496  0.2039  0.1365 -0.7953
 8248SOL    HW136380   3.528   2.706  17.485 -0.6173  0.0822 -0.7940
 8248SOL    HW236381   3.468   2.582  17.433  0.4318 -2.3226  0.1161
 8249SOL     OW36382   1.801   1.931   3.574  0.3548 -0.0533 -0.0680
 8249SOL    HW136383   1.802   1.848   3.623 -1.3830 -1.3436 -2.2280
 8249SOL    HW236384   1.741   1.982   3.629  0.9422  0.7145 -0.1437
 8250SOL     OW36385   1.302   3.186   7.204 -0.3438 -0.0635  0.2359
 8250SOL    HW136386   1.321   3.192   7.298  0.0222 -1.1468  0.2301
 8250SOL    HW236387   1.312   3.091   7.196 -0.4908 -0.0711  0.1379
 8251SOL     OW36388   0.889   1.573   6.569  0.4193 -0.1191  0.3294
 8251SOL    HW136389   0.822   1.518   6.527 -0.2824  0.9276  0.0826
 8251SOL    HW236390   0.839   1.617   6.638  2.2658 -0.5545  1.9446
 8252SOL     OW36391   1.918   4.735   7.758 -0.0359 -1.0589 -0.7624
 8252SOL    HW136392   1.983   0.030   7.819 -0.0243 -2.8959  0.2674
 8252SOL    HW236393   1.865   0.072   7.738  2.2031  0.0611 -2.3683
 8253SOL     OW36394   0.347   1.122   2.481 -0.2784  0.3037 -0.5395
 8253SOL    HW136395   0.268   1.150   2.434  0.0544  1.0533 -0.6534
 8253SOL    HW236396   0.404   1.190   2.445 -1.1613  1.1599 -0.3412
 8254SOL     OW36397   4.051   2.343  14.397 -0.6379  0.4671 -0.1100
 8254SOL    HW136398   4.035   2.437  14.389 -0.3052  0.4275 -1.3417
 8254SOL    HW236399   3.986   2.320  14.463 -2.6685  0.8254 -1.9881
 8255SOL     OW36400   2.103   0.761  11.569  0.2222 -0.5445 -0.3531
 8255SOL    HW136401   2.105   0.846  11.613 -0.8725 -0.4229 -0.5256
 8255SOL    HW236402   2.140   0.790  11.486 -0.6395  0.1086 -0.5063
 8256SOL     OW36403   2.637   2.934   9.250  0.4601  0.2545  0.6957
 8256SOL    HW136404   2.586   3.005   9.287 -0.8148  0.2793 -1.1236
 8256SOL    HW236405   2.729   2.956   9.264  0.2324  1.4414  0.3131
 8257SOL     OW36406   1.939   0.345   8.459 -0.2444 -0.1673 -0.2080
 8257SOL    HW136407   1.850   0.365   8.429 -0.3981  0.7819  0.8890
 8257SOL    HW236408   1.942   0.250   8.470  2.6338 -0.0562  0.0544
 8258SOL     OW36409   0.736   4.709   9.038 -0.3635 -0.1050  0.0066
 8258SOL    HW136410   0.722   4.679   9.128  2.9007  0.1925  0.6182
 8258SOL    HW236411   0.652   0.012   9.019 -0.1378 -0.2943 -1.3883
 8259SOL     OW36412   1.760   4.736  17.445 -0.0883 -0.4106  0.0592
 8259SOL    HW136413   1.687   0.049  17.412 -3.1769 -3.1068  2.6120
 8259SOL    HW236414   1.755   4.652  17.399 -2.9684 -0.4862  0.5209
 8260SOL     OW36415   4.008   4.679  13.528 -0.0080 -0.2859  0.1732
 8260SOL    HW136416   4.002   4.617  13.600  1.2680 -0.4739  0.1137
 8260SOL    HW236417   4.018   0.027  13.564 -0.0898 -0.1485 -0.1361
 8261SOL     OW36418   0.742   4.258   7.358  0.5580 -1.0562 -0.5147
 8261SOL    HW136419   0.684   4.242   7.283  0.3356 -0.9386 -0.3682
 8261SOL    HW236420   0.799   4.181   7.359  0.9371 -0.7301  2.0778
 8262SOL     OW36421   1.026   1.809   5.175 -0.3156 -0.1955  0.0274
 8262SOL    HW136422   1.020   1.729   5.123 -3.5006 -1.1866  1.9448
 8262SOL    HW236423   1.094   1.859   5.129 -1.2036  0.2070 -0.8243
 8263SOL     OW36424   0.199   4.271  12.565 -0.5599 -0.0568 -0.3922
 8263SOL    HW136425   0.274   4.297  12.618 -1.1127  2.8973 -1.0539
 8263SOL    HW236426   0.233   4.184  12.544  0.0920 -0.1452  1.0874
 8264SOL     OW36427   1.303   1.777  10.986 -0.3387  0.1053 -0.3326
 8264SOL    HW136428   1.245   1.708  10.954 -0.0482 -0.3843  0.2086
 8264SOL    HW236429   1.362   1.731  11.045  0.6196 -0.1164 -1.4511
 8265SOL     OW36430   1.484   2.668  12.481 -0.2249 -0.4776  0.0628
 8265SOL    HW136431   1.550   2.723  12.438  0.0163  0.5264  1.7275
 8265SOL    HW236432   1.472   2.616  12.401 -0.9849 -1.1877  0.6423
 8266SOL     OW36433   0.593   4.727  15.410 -0.1514  0.4549  0.0334
 8266SOL    HW136434   0.574   0.080  15.418  2.3684  0.5177  5.3664
 8266SOL    HW236435   0.523   4.705  15.472  0.1394 -1.4799 -0.3156
 8267SOL     OW36436   0.175   3.807   6.944  0.8192 -0.1577 -0.0095
 8267SOL    HW136437   0.174   3.789   6.850  1.7159 -0.4232  0.0373
 8267SOL    HW236438   0.254   3.756   6.959  0.3711 -0.6191  0.8383
 8268SOL     OW36439   0.093   0.181   9.250 -0.1384 -0.4830 -0.0486
 8268SOL    HW136440   0.090   0.107   9.311 -0.8259  0.8583  1.5732
 8268SOL    HW236441   0.124   0.247   9.312  0.7231 -0.8763 -0.0570
 8269SOL     OW36442   1.637   2.642   0.346  0.5922  0.1563 -0.1162
 8269SOL    HW136443   1.714   2.694   0.369  0.3354  0.1941  0.6462
 8269SOL    HW236444   1.588   2.640   0.428  2.0531 -2.0795  0.7144
 8270SOL     OW36445   4.002   0.267   5.742 -0.9257 -0.3560 -0.1407
 8270SOL    HW136446   4.089   0.241   5.712 -0.9238 -0.8243  0.2838
 8270SOL    HW236447   3.956   0.261   5.658  0.9425 -0.4511 -1.1596
 8271SOL     OW36448   0.862   4.244   7.027 -0.0010 -0.2835 -1.2309
 8271SOL    HW136449   0.934   4.252   7.089  1.2793  0.0681 -2.7848
 8271SOL    HW236450   0.851   4.336   7.005 -2.8766 -0.2558  0.2833
 8272SOL     OW36451   4.250   4.566  13.397 -1.0577 -0.2301 -0.0238
 8272SOL    HW136452   4.311   4.608  13.458  0.0549 -1.3640 -0.3586
 8272SOL    HW236453   4.169   4.616  13.397 -1.5766 -1.0768  1.7167
 8273SOL     OW36454   3.017   2.100   8.533  0.2319  0.1700 -0.1150
 8273SOL    HW136455   3.006   2.051   8.451 -0.7046 -1.7621  1.1542
 8273SOL    HW236456   3.005   2.022   8.588 -0.4362 -0.4080 -1.0954
 8274SOL     OW36457   1.762   1.787   5.167 -0.9602 -0.1741 -0.0781
 8274SOL    HW136458   1.714   1.791   5.250 -1.6301 -1.9680 -0.3627
 8274SOL    HW236459   1.747   1.696   5.140 -1.8865  0.3093 -1.2067
 8275SOL     OW36460   2.050   2.175   5.122 -0.5874 -0.0855 -0.4698
 8275SOL    HW136461   2.052   2.082   5.144  0.8054  0.1884  0.5686
 8275SOL    HW236462   1.998   2.183   5.041  0.9784 -0.2048 -1.4843
 8276SOL     OW36463   3.156   0.020  15.177  0.6927  0.1381  0.4765
 8276SOL    HW136464   3.162   0.016  15.273 -2.8213  0.9756  0.7447
 8276SOL    HW236465   3.076   0.072  15.169  1.1311  0.6585 -0.5291
 8277SOL     OW36466   4.181   1.137  16.872  0.3187 -0.2670 -0.7519
 8277SOL    HW136467   4.130   1.174  16.800 -1.1907  1.2757  1.1202
 8277SOL    HW236468   4.273   1.153  16.850  0.9256 -0.0567  1.9668
 8278SOL     OW36469   3.816   1.523   3.914  0.8292 -0.4160 -0.7570
 8278SOL    HW136470   3.849   1.601   3.870 -1.3996 -0.8027 -3.0651
 8278SOL    HW236471   3.761   1.561   3.983 -2.3245 -1.1431 -2.8724
 8279SOL     OW36472   3.335   3.690   1.723 -0.7069  0.1766 -0.4503
 8279SOL    HW136473   3.313   3.656   1.809 -0.4218 -1.1462 -0.9036
 8279SOL    HW236474   3.419   3.646   1.706 -0.6431  0.2019 -0.2009
 8280SOL     OW36475   2.292   2.008   8.341  0.2734 -0.2457  0.1202
 8280SOL    HW136476   2.343   1.974   8.267  0.3263 -0.8832  0.4535
 8280SOL    HW236477   2.337   1.951   8.402  0.3895  0.6842  0.9079
 8281SOL     OW36478   2.306   2.676   9.507 -0.0595 -0.1364  0.0365
 8281SOL    HW136479   2.392   2.654   9.543  0.0948  0.6455  0.1370
 8281SOL    HW236480   2.258   2.596   9.528 -0.4648  0.1391  0.1595
 8282SOL     OW36481   1.386   2.593  10.569  0.0915 -0.3486 -0.4189
 8282SOL    HW136482   1.363   2.514  10.618  2.0874  0.8098  2.3693
 8282SOL    HW236483   1.324   2.661  10.598 -1.5245 -1.7903 -0.4932
 8283SOL     OW36484   3.101   2.599   7.813 -0.0818 -0.4797 -0.1602
 8283SOL    HW136485   3.155   2.646   7.749  2.1249 -0.3345  1.7860
 8283SOL    HW236486   3.167   2.575   7.879  0.0098  0.6070  0.1468
 8284SOL     OW36487   3.850   2.199   4.550 -0.2356  0.0281  0.0878
 8284SOL    HW136488   3.792   2.126   4.527  0.1161 -0.8987  2.0893
 8284SOL    HW236489   3.934   2.165   4.521  0.0318 -0.1071  1.0015
 8285SOL     OW36490   2.563   3.043   9.662 -0.0641 -0.3505  0.0062
 8285SOL    HW136491   2.540   3.116   9.719 -0.6143  0.2053 -0.9339
 8285SOL    HW236492   2.588   2.976   9.726 -3.3775 -0.4817  1.1443
 8286SOL     OW36493   4.633   3.227   1.734 -0.0498 -0.0990  0.2528
 8286SOL    HW136494   4.555   3.189   1.693  1.6428 -1.5902 -1.5634
 8286SOL    HW236495   4.638   3.188   1.821  0.7787  1.2599  0.8247
 8287SOL     OW36496   4.612   4.402   9.192 -0.9611  0.5655 -0.3746
 8287SOL    HW136497   4.569   4.393   9.277  0.7875  0.9134  0.5509
 8287SOL    HW236498   4.652   4.488   9.205 -1.1527  0.2608  2.2798
 8288SOL     OW36499   1.518   1.136   8.283  0.3343  0.6645  0.2242
 8288SOL    HW136500   1.592   1.176   8.238 -0.9723 -1.1215 -3.5153
 8288SOL    HW236501   1.515   1.191   8.361  1.3365  0.7860  0.1812
 8289SOL     OW36502   4.292   2.937   6.263  0.0042  0.3171  0.2056
 8289SOL    HW136503   4.204   2.928   6.227 -0.9485  2.7934  1.9664
 8289SOL    HW236504   4.317   2.847   6.242  1.2001  0.5144  0.7871
 8290SOL     OW36505   0.491   1.480  10.733  0.1365 -0.0294 -0.0570
 8290SOL    HW136506   0.421   1.440  10.785  1.0630 -0.9052  0.5009
 8290SOL    HW236507   0.510   1.400  10.685 -1.6617  1.3418 -3.0570
 8291SOL     OW36508   3.777   1.680   8.322  0.2401 -0.2913 -0.1534
 8291SOL    HW136509   3.706   1.741   8.345  0.9999  0.7319 -0.4903
 8291SOL    HW236510   3.732   1.596   8.323 -1.0245  0.4313  2.1767
 8292SOL     OW36511   4.287   4.091   4.539 -0.3396  0.6763  0.2944
 8292SOL    HW136512   4.294   4.076   4.633 -1.6903 -2.3999 -0.1170
 8292SOL    HW236513   4.193   4.103   4.536 -0.4242 -0.1559 -0.2977
 8293SOL     OW36514   2.072   2.346  16.089 -0.3514  0.1510 -0.1789
 8293SOL    HW136515   2.118   2.429  16.080  0.7770 -0.6007 -1.3366
 8293SOL    HW236516   2.136   2.285  16.126  0.4157  1.2039  0.2457
 8294SOL     OW36517   1.028   3.847   5.175  0.0481  0.3605  0.6822
 8294SOL    HW136518   1.045   3.941   5.186  0.0836  0.6195 -1.6848
 8294SOL    HW236519   1.118   3.819   5.161 -0.8835 -2.3485  0.2463
 8295SOL     OW36520   2.166   1.927   1.091  0.3315 -0.1869  0.5408
 8295SOL    HW136521   2.212   2.010   1.080 -2.0857  0.8938 -1.3823
 8295SOL    HW236522   2.225   1.873   1.039 -1.9902 -2.4981  0.2863
 8296SOL     OW36523   2.109   3.308   4.067  0.1392 -0.3543  0.4882
 8296SOL    HW136524   2.143   3.393   4.040  0.9421 -0.8731 -0.1222
 8296SOL    HW236525   2.116   3.317   4.162 -0.5842 -1.7959  0.6840
 8297SOL     OW36526   2.281   2.839  11.301 -0.1031 -0.2217 -0.0855
 8297SOL    HW136527   2.199   2.794  11.325  0.1208 -0.4933  0.1718
 8297SOL    HW236528   2.338   2.813  11.373 -0.9705 -2.1660 -0.1114
 8298SOL     OW36529   3.709   2.536   3.179  0.0707  0.5110  0.2467
 8298SOL    HW136530   3.620   2.539   3.143  1.1084  0.7804 -2.2208
 8298SOL    HW236531   3.703   2.587   3.260 -1.3057  0.9633 -0.1355
 8299SOL     OW36532   1.199   2.481  12.450  0.3008  0.2476  0.6645
 8299SOL    HW136533   1.109   2.506  12.470 -0.7723 -3.0105 -0.0595
 8299SOL    HW236534   1.187   2.388  12.433  0.0862 -0.0415  2.4380
 8300SOL     OW36535   1.545   4.605   4.839  0.1881  0.0234 -0.4830
 8300SOL    HW136536   1.558   4.699   4.853 -2.0458  0.4095 -0.9668
 8300SOL    HW236537   1.528   4.612   4.745 -2.1263  1.4027  0.0421
 8301SOL     OW36538   3.373   3.965   1.325 -0.4357  0.2490  0.1543
 8301SOL    HW136539   3.464   3.937   1.335 -0.9205 -0.0615  3.7948
 8301SOL    HW236540   3.354   3.957   1.418 -0.8965 -2.1249 -0.1460
 8302SOL     OW36541   0.995   3.033   2.678 -0.6402 -0.1539 -0.2413
 8302SOL    HW136542   1.016   2.946   2.711 -2.0715 -0.6257 -0.5979
 8302SOL    HW236543   0.962   3.009   2.591 -0.8089 -2.5747  0.5212
 8303SOL     OW36544   1.874   4.116  10.036  0.2863 -0.0162 -0.3267
 8303SOL    HW136545   1.873   4.184  10.104 -1.1400  0.0025 -0.3646
 8303SOL    HW236546   1.935   4.154   9.973 -0.1560 -0.6216 -1.1297
 8304SOL     OW36547   0.736   4.074   6.058  0.0494  0.1159 -0.1667
 8304SOL    HW136548   0.746   4.019   5.981  1.1814 -0.7944  0.6401
 8304SOL    HW236549   0.825   4.110   6.059 -0.0802  0.4197  0.5198
 8305SOL     OW36550   1.402   2.169   4.153 -0.0357 -0.0899 -0.0240
 8305SOL    HW136551   1.459   2.197   4.081  0.2385 -0.3086  0.1067
 8305SOL    HW236552   1.349   2.249   4.162  0.6697  0.2446  1.2308
 8306SOL     OW36553   4.559   2.721   7.680  0.1482  0.0217 -0.2728
 8306SOL    HW136554   4.554   2.626   7.669 -0.3974  0.2046 -1.6844
 8306SOL    HW236555   4.650   2.737   7.653 -0.2098  0.8067 -1.0452
 8307SOL     OW36556   1.198   1.389   7.779  0.1449 -0.1153  0.6334
 8307SOL    HW136557   1.222   1.437   7.700 -1.1805 -0.0917  0.2496
 8307SOL    HW236558   1.234   1.302   7.763 -1.7336 -0.6881 -0.3897
 8308SOL     OW36559   1.403   1.881  13.659 -0.3175  0.0666  0.2684
 8308SOL    HW136560   1.444   1.967  13.666  0.9654 -0.6043  1.0455
 8308SOL    HW236561   1.318   1.898  13.699 -0.3790 -3.1433  1.5242
 8309SOL     OW36562   1.301   0.813   4.527 -0.3347 -0.0178  0.5232
 8309SOL    HW136563   1.208   0.791   4.522 -0.1248 -0.1956 -2.4674
 8309SOL    HW236564   1.331   0.742   4.470  2.0457  3.2252 -2.2654
 8310SOL     OW36565   1.639   0.397   6.750 -0.0428 -0.1571  0.9512
 8310SOL    HW136566   1.659   0.393   6.844  0.6583 -2.9932  0.6741
 8310SOL    HW236567   1.546   0.420   6.747  0.1567  0.5476  0.3155
 8311SOL     OW36568   1.451   3.138   1.807 -0.9334  0.4041 -0.1353
 8311SOL    HW136569   1.393   3.146   1.883 -0.8467 -1.0909  0.0867
 8311SOL    HW236570   1.398   3.180   1.739 -1.9665  0.0266  0.4472
 8312SOL     OW36571   4.356   3.842  12.462  0.1562 -0.4153 -0.3262
 8312SOL    HW136572   4.343   3.920  12.407 -1.4167  0.9659  2.0165
 8312SOL    HW236573   4.405   3.783  12.405 -1.6237 -0.8281 -1.4479
 8313SOL     OW36574   0.055   1.327  12.251 -0.0687 -0.0411 -0.3397
 8313SOL    HW136575   0.126   1.375  12.293  0.8514  1.7893 -4.0137
 8313SOL    HW236576   4.728   1.373  12.302 -0.6927 -0.1264 -1.0785
 8314SOL     OW36577   3.281   3.759   7.161  0.5187 -0.0370 -0.2677
 8314SOL    HW136578   3.314   3.843   7.192 -1.0810 -0.0385  1.3800
 8314SOL    HW236579   3.309   3.689   7.220  2.5751 -0.4509 -1.7173
 8315SOL     OW36580   4.603   1.709  14.462 -0.0499 -0.0655  0.5756
 8315SOL    HW136581   4.526   1.687  14.514  0.0869  1.8261  1.5697
 8315SOL    HW236582   4.671   1.724  14.528 -1.7277  0.6413  2.1565
 8316SOL     OW36583   2.246   4.209   2.452  0.5410 -0.0108 -0.2585
 8316SOL    HW136584   2.150   4.218   2.453  0.5731  0.6729 -2.5347
 8316SOL    HW236585   2.266   4.297   2.484  2.0287 -0.1708 -0.7442
 8317SOL     OW36586   0.353   4.614   3.413  0.3779 -0.4537  0.5324
 8317SOL    HW136587   0.368   4.615   3.319 -0.4184  2.1277  0.4345
 8317SOL    HW236588   0.287   4.545   3.420  1.0779 -0.9925  1.9987
 8318SOL     OW36589   4.604   2.913  13.368  0.4309  0.5260  0.2527
 8318SOL    HW136590   4.550   2.912  13.447  1.9278  1.2985  1.2881
 8318SOL    HW236591   4.584   3.002  13.339  1.5031  0.4502 -0.7382
 8319SOL     OW36592   2.844   4.580   1.570  0.2058 -0.0257  0.3362
 8319SOL    HW136593   2.765   4.528   1.584 -0.7618  0.8919 -1.7382
 8319SOL    HW236594   2.900   4.524   1.517 -0.8740 -0.0820 -0.7344
 8320SOL     OW36595   4.536   3.026   4.598 -0.1020 -0.8160 -0.0041
 8320SOL    HW136596   4.630   3.040   4.609  0.7018 -4.3948 -2.4591
 8320SOL    HW236597   4.502   3.069   4.677  0.6606  0.3629 -0.3078
 8321SOL     OW36598   3.902   1.454   6.233  0.1183 -0.2775  0.2606
 8321SOL    HW136599   3.824   1.426   6.186  0.1411 -0.9628  0.6349
 8321SOL    HW236600   3.904   1.542   6.195 -3.1164 -0.4771 -0.3284
 8322SOL     OW36601   1.480   3.956   2.428 -0.6620 -0.0604 -0.0455
 8322SOL    HW136602   1.458   3.890   2.362 -3.1192 -0.2140  0.9585
 8322SOL    HW236603   1.462   3.917   2.513  1.9585 -0.8081  0.1651
 8323SOL     OW36604   0.585   4.490   7.726 -0.4751 -0.9122 -1.0197
 8323SOL    HW136605   0.490   4.496   7.713 -0.2100  1.1290 -1.9668
 8323SOL    HW236606   0.605   4.397   7.714  2.6495 -0.0751 -2.4338
 8324SOL     OW36607   0.707   0.701   7.393  0.4656 -0.1820  0.4288
 8324SOL    HW136608   0.758   0.728   7.317 -0.1280 -0.2315  0.0060
 8324SOL    HW236609   0.654   0.780   7.399  2.2357  1.1011 -1.2766
 8325SOL     OW36610   0.135   4.433   3.453  0.2499 -0.7979 -0.3136
 8325SOL    HW136611   0.132   4.342   3.484 -0.3427 -0.1401  1.5295
 8325SOL    HW236612   0.047   4.448   3.420 -0.4764  0.3696  2.1390
 8326SOL     OW36613   4.291   1.746   9.325  0.4795  0.1012  0.5901
 8326SOL    HW136614   4.258   1.755   9.414 -0.6862 -0.1847  0.1767
 8326SOL    HW236615   4.283   1.651   9.323  2.9023 -0.0163 -3.2619
 8327SOL     OW36616   1.460   1.455   7.293 -0.7215  0.2255 -0.1840
 8327SOL    HW136617   1.376   1.412   7.307 -0.1640  0.0406  2.6144
 8327SOL    HW236618   1.436   1.545   7.319 -1.4103  0.5027 -1.7861
 8328SOL     OW36619   4.244   3.077   1.837 -0.3396  0.4158 -0.5835
 8328SOL    HW136620   4.249   3.171   1.856 -1.8527  0.0550  1.5547
 8328SOL    HW236621   4.289   3.077   1.753  0.5152 -1.5181 -0.1068
 8329SOL     OW36622   3.824   4.104   3.489  0.0742  1.3327 -0.6049
 8329SOL    HW136623   3.749   4.163   3.483 -0.5463  0.4553 -1.4224
 8329SOL    HW236624   3.872   4.143   3.562 -0.6464 -0.4259  0.8160
 8330SOL     OW36625   4.285   3.040   8.540 -0.1805 -0.2989  0.0494
 8330SOL    HW136626   4.352   3.025   8.606 -1.7656  1.2944  2.0080
 8330SOL    HW236627   4.253   3.126   8.566  0.2081 -0.1766  0.1277
 8331SOL     OW36628   1.545   1.981   8.537 -0.5191  0.8426  0.6249
 8331SOL    HW136629   1.492   1.999   8.614 -2.6620  0.3889 -0.7461
 8331SOL    HW236630   1.630   1.950   8.569 -0.6168 -2.2010 -2.0137
 8332SOL     OW36631   2.558   2.772   1.883  0.0406 -0.3737 -0.6385
 8332SOL    HW136632   2.639   2.781   1.831  1.1803 -0.5871  1.0976
 8332SOL    HW236633   2.569   2.678   1.899  1.7093 -0.0686  0.0719
 8333SOL     OW36634   1.742   4.700   3.266 -0.4445  0.1506  0.1041
 8333SOL    HW136635   1.687   4.723   3.342  0.7632  0.9020  0.7491
 8333SOL    HW236636   1.707   0.016   3.197  1.5090  1.1163 -0.0784
 8334SOL     OW36637   0.752   3.767   7.442  0.1255 -0.0185 -0.1720
 8334SOL    HW136638   0.819   3.698   7.444  0.2286  0.0886  0.1334
 8334SOL    HW236639   0.726   3.767   7.534 -0.4793  1.2226 -0.3474
 8335SOL     OW36640   0.859   0.316   2.724 -0.0939 -0.3398  0.9701
 8335SOL    HW136641   0.935   0.265   2.750  0.2786  0.3136  1.1661
 8335SOL    HW236642   0.901   0.381   2.668 -0.4673 -2.3457 -1.6436
 8336SOL     OW36643   0.891   1.542   5.454 -0.6060 -0.3345  0.2729
 8336SOL    HW136644   0.845   1.620   5.483 -0.2249  0.3497 -0.9770
 8336SOL    HW236645   0.940   1.531   5.535  0.9753 -1.8448 -0.8744
 8337SOL     OW36646   3.173   3.682   7.867  0.4536  0.0892 -0.1411
 8337SOL    HW136647   3.117   3.677   7.944  0.1464 -0.0352 -0.3690
 8337SOL    HW236648   3.117   3.707   7.793  2.6040  0.8061 -1.5163
 8338SOL     OW36649   1.077   0.745   9.222 -0.3290 -0.1471  0.0861
 8338SOL    HW136650   1.131   0.823   9.210  0.7147 -0.7952  0.6120
 8338SOL    HW236651   0.998   0.786   9.260 -0.3761  0.5450 -0.7652
 8339SOL     OW36652   1.916   2.573   3.521  0.6849 -0.4708  0.3237
 8339SOL    HW136653   1.927   2.627   3.599  0.7991  0.5816 -0.4122
 8339SOL    HW236654   1.820   2.565   3.521  0.7752 -1.2854  3.3547
 8340SOL     OW36655   3.981   4.050   3.040 -0.7324  0.0591  0.0716
 8340SOL    HW136656   4.027   3.981   2.993  0.6772 -0.0621  1.6180
 8340SOL    HW236657   4.027   4.038   3.123 -0.7770  0.4395  0.1519
 8341SOL     OW36658   1.298   0.064   2.137  0.3146  0.0397 -0.2942
 8341SOL    HW136659   1.337   0.077   2.223 -1.9948 -1.9172  1.0296
 8341SOL    HW236660   1.304   0.154   2.104 -0.1219 -0.1495 -0.8915
 8342SOL     OW36661   0.561   2.085   6.196 -0.3988  0.2321 -0.2382
 8342SOL    HW136662   0.606   2.158   6.153 -0.1226  0.3137  0.1856
 8342SOL    HW236663   0.478   2.129   6.212  0.0280  0.9511 -0.0116
 8343SOL     OW36664   4.530   2.994   3.954 -0.1567  0.0602 -0.7633
 8343SOL    HW136665   4.504   2.972   3.865 -2.5998  0.4236 -0.1479
 8343SOL    HW236666   4.503   3.086   3.955  0.9017  0.3664 -0.6955
 8344SOL     OW36667   2.059   2.475   7.323  0.1708  0.8765  0.1498
 8344SOL    HW136668   2.114   2.529   7.379 -1.4951  1.8646  0.8446
 8344SOL    HW236669   2.042   2.545   7.260 -0.3791 -0.3884 -1.1028
 8345SOL     OW36670   3.677   2.155   3.179 -0.2750 -0.3370  0.2486
 8345SOL    HW136671   3.626   2.208   3.240 -0.0080 -0.4435  0.5609
 8345SOL    HW236672   3.681   2.079   3.237 -0.4182  0.3221  1.1134
 8346SOL     OW36673   2.289   1.310   9.598 -0.0585  0.2805  0.0514
 8346SOL    HW136674   2.209   1.342   9.557  0.3208  0.9936 -0.1363
 8346SOL    HW236675   2.258   1.220   9.602 -0.4559  0.3661 -1.0576
 8347SOL     OW36676   4.241   4.255  16.611 -0.2307 -0.1490  0.0616
 8347SOL    HW136677   4.293   4.176  16.619 -0.1537  0.1211  2.1895
 8347SOL    HW236678   4.246   4.282  16.519  0.6207 -1.1159 -0.1693
 8348SOL     OW36679   1.815   1.409   8.280 -1.2469 -0.1348 -0.8468
 8348SOL    HW136680   1.770   1.391   8.198 -1.1157  0.6201 -1.0857
 8348SOL    HW236681   1.745   1.458   8.323 -0.7224  0.3250 -0.5018
 8349SOL     OW36682   1.879   1.776  12.672  0.3893  0.2015 -0.0934
 8349SOL    HW136683   1.858   1.685  12.649  2.0470 -0.6211  1.6475
 8349SOL    HW236684   1.973   1.780  12.651  0.0202  0.2351 -1.7532
 8350SOL     OW36685   2.499   2.814   2.727 -0.2625 -0.0367 -0.2340
 8350SOL    HW136686   2.469   2.725   2.746 -2.0400  0.7513  0.6857
 8350SOL    HW236687   2.594   2.811   2.734 -0.2035  0.7391 -0.7275
 8351SOL     OW36688   1.051   1.072  15.991 -0.8216  0.0872  0.2821
 8351SOL    HW136689   0.988   1.066  15.919 -1.3499  0.6404  0.6935
 8351SOL    HW236690   0.997   1.100  16.065 -0.2153  1.4997  0.1997
 8352SOL     OW36691   2.810   2.478  14.055 -0.1612 -0.6979 -0.1899
 8352SOL    HW136692   2.802   2.442  14.143 -1.9019  2.8032  1.0827
 8352SOL    HW236693   2.823   2.391  14.016  1.4543 -1.0864  1.2314
 8353SOL     OW36694   3.396   1.980  13.700  0.9330 -0.1388  0.3574
 8353SOL    HW136695   3.369   1.952  13.612  1.9628 -0.1629  0.0462
 8353SOL    HW236696   3.383   1.899  13.750  1.3228  0.4326  1.3799
 8354SOL     OW36697   2.504   3.195   4.417  0.8197 -0.3555 -0.1938
 8354SOL    HW136698   2.506   3.237   4.503  1.1386 -2.8077  1.0016
 8354SOL    HW236699   2.478   3.106   4.441  2.0450 -0.4033  0.9321
 8355SOL     OW36700   0.337   0.552   3.680 -0.2324 -0.9430 -0.0714
 8355SOL    HW136701   0.244   0.533   3.694 -0.2128 -1.4829 -0.6738
 8355SOL    HW236702   0.379   0.468   3.699  1.3259 -0.9758 -3.6963
 8356SOL     OW36703   2.072   0.164  11.864 -0.1018  0.1775  0.1841
 8356SOL    HW136704   2.154   0.191  11.824  0.8305 -0.5973  1.5661
 8356SOL    HW236705   2.092   0.142  11.955  0.1223 -1.4572 -0.2612
 8357SOL     OW36706   0.542   2.204   3.204 -0.0919 -0.0215  1.2263
 8357SOL    HW136707   0.539   2.299   3.221 -1.6160  0.1233  0.1342
 8357SOL    HW236708   0.591   2.212   3.122  1.7630 -0.8836  2.2661
 8358SOL     OW36709   3.514   0.463   5.326  0.5205 -0.2636  0.1207
 8358SOL    HW136710   3.503   0.549   5.365 -2.6350 -1.4450  1.8519
 8358SOL    HW236711   3.523   0.490   5.234  1.7680 -1.8573 -0.2229
 8359SOL     OW36712   4.428   2.904  13.583 -0.3048  0.0973 -0.7057
 8359SOL    HW136713   4.381   2.822  13.601  1.0495 -0.7286 -0.9132
 8359SOL    HW236714   4.438   2.948  13.668 -0.0458  0.4172 -0.9024
 8360SOL     OW36715   3.625   3.502   9.650 -0.4125 -0.3453 -0.2192
 8360SOL    HW136716   3.537   3.480   9.619 -0.9687  0.9834  0.3750
 8360SOL    HW236717   3.657   3.414   9.671  2.1267  0.5093 -0.4762
 8361SOL     OW36718   3.442   0.347   8.015 -0.2126 -0.2035 -0.4184
 8361SOL    HW136719   3.390   0.419   8.051  1.2090  0.0297  1.1917
 8361SOL    HW236720   3.455   0.293   8.094  2.8650 -0.7026 -1.2553
 8362SOL     OW36721   1.368   3.824   2.653  0.1722  0.3707 -0.0398
 8362SOL    HW136722   1.305   3.760   2.620 -1.1719  0.3528  2.6057
 8362SOL    HW236723   1.341   3.837   2.743 -1.7862  1.2037 -0.7376
 8363SOL     OW36724   4.220   1.420   8.982 -0.7607  0.2755  0.0957
 8363SOL    HW136725   4.287   1.462   8.929 -0.3428 -0.1718  0.2622
 8363SOL    HW236726   4.144   1.434   8.925 -0.0028 -1.7309 -1.4453
 8364SOL     OW36727   3.204   3.158   3.868  0.4855 -0.0420 -0.1819
 8364SOL    HW136728   3.276   3.220   3.877 -0.9894  1.3611  1.9108
 8364SOL    HW236729   3.174   3.179   3.780 -1.4081 -1.6751  0.0851
 8365SOL     OW36730   0.869   0.676   5.953 -0.3649  0.3458 -0.1181
 8365SOL    HW136731   0.784   0.666   5.996 -0.4933 -1.5909 -0.8027
 8365SOL    HW236732   0.922   0.707   6.026  1.4738 -1.5906 -0.6199
 8366SOL     OW36733   3.011   4.252   6.184  0.1578  0.5080  0.0590
 8366SOL    HW136734   3.102   4.280   6.195  0.0276  0.2820  1.6555
 8366SOL    HW236735   3.021   4.161   6.210  0.5429  0.2857 -0.8618
 8367SOL     OW36736   2.077   0.042   4.520  0.5518  0.0044 -0.6169
 8367SOL    HW136737   2.171   0.062   4.520  0.4527  0.4601 -0.1789
 8367SOL    HW236738   2.054   0.109   4.584  0.8276 -2.3560  1.9637
 8368SOL     OW36739   1.830   4.397  10.144 -0.5065  0.0174  0.3864
 8368SOL    HW136740   1.768   4.457  10.102  2.1453  1.9728 -0.7576
 8368SOL    HW236741   1.866   4.445  10.219 -2.9578  2.0317  0.2558
 8369SOL     OW36742   1.363   4.075   0.543  0.1852 -0.2325  0.4946
 8369SOL    HW136743   1.279   4.112   0.571  0.5366  3.1543 -2.9682
 8369SOL    HW236744   1.416   4.084   0.622  0.5167  1.5024  0.0752
 8370SOL     OW36745   1.257   2.648   3.849  0.1234 -0.6752  0.0529
 8370SOL    HW136746   1.196   2.719   3.869  1.6508  0.6180  0.2028
 8370SOL    HW236747   1.338   2.695   3.871 -1.0881  2.4168 -2.0575
 8371SOL     OW36748   3.835   2.843   6.237 -0.1695  0.4016  0.3846
 8371SOL    HW136749   3.787   2.925   6.255 -0.9241 -0.5109  2.5441
 8371SOL    HW236750   3.794   2.825   6.153 -0.3051 -2.7387  1.1252
 8372SOL     OW36751   2.106   2.559   1.768  0.2912  0.1753  0.3098
 8372SOL    HW136752   2.189   2.516   1.746 -1.0157 -2.4580  0.4350
 8372SOL    HW236753   2.053   2.515   1.702  0.4008 -2.4919  1.9938
 8373SOL     OW36754   0.177   2.398  16.943  0.3985  0.3371 -0.5905
 8373SOL    HW136755   0.263   2.355  16.946 -0.7201 -1.8643  0.1535
 8373SOL    HW236756   0.125   2.334  16.991 -0.6590  1.4818 -0.2335
 8374SOL     OW36757   2.810   4.364   9.063  0.8824  0.5123 -0.0837
 8374SOL    HW136758   2.875   4.343   8.996  0.8778 -1.4832  0.5354
 8374SOL    HW236759   2.752   4.289   9.064  2.1797 -0.4844 -0.5578
 8375SOL     OW36760   3.046   3.947   4.548  0.2651 -0.1634 -0.3055
 8375SOL    HW136761   3.055   3.923   4.640  1.6167  0.3088 -0.3267
 8375SOL    HW236762   3.028   4.041   4.554 -1.5486 -0.2368 -4.0150
 8376SOL     OW36763   2.231   1.492   6.559 -0.1218  0.3567  0.3138
 8376SOL    HW136764   2.137   1.500   6.546  0.0003 -0.0967 -0.8920
 8376SOL    HW236765   2.249   1.537   6.476 -1.3109  0.8419  0.3195
 8377SOL     OW36766   0.898   1.070   7.773  0.0181  0.7450 -0.2617
 8377SOL    HW136767   0.803   1.070   7.780  0.0454  2.0275  0.0490
 8377SOL    HW236768   0.933   1.049   7.860  0.8861  2.0414 -0.2963
 8378SOL     OW36769   1.687   1.490   0.722  0.2897  0.2409 -0.0304
 8378SOL    HW136770   1.737   1.473   0.802 -0.6361 -0.4087  0.3992
 8378SOL    HW236771   1.722   1.425   0.661 -1.8872  0.4502 -1.4698
 8379SOL     OW36772   3.866   1.052   1.452  0.0365 -0.1945 -0.2121
 8379SOL    HW136773   3.821   0.999   1.386 -1.5273  1.2541 -0.3127
 8379SOL    HW236774   3.917   0.983   1.495  2.0103  0.1887 -1.9449
 8380SOL     OW36775   1.366   1.054  13.052 -0.6502  0.7624 -0.4977
 8380SOL    HW136776   1.319   0.980  13.013  1.2348 -0.5991 -0.1161
 8380SOL    HW236777   1.453   1.033  13.018 -0.6788  2.9419 -1.9716
 8381SOL     OW36778   3.556   1.268   2.248  0.5888 -0.7234 -0.5180
 8381SOL    HW136779   3.605   1.336   2.294 -2.2322  1.7958 -1.2205
 8381SOL    HW236780   3.601   1.188   2.274 -0.3717 -1.2741 -0.5370
 8382SOL     OW36781   2.153   3.742   3.366 -0.3648  0.1735 -0.0438
 8382SOL    HW136782   2.106   3.751   3.449  0.9623 -1.7737  0.9166
 8382SOL    HW236783   2.079   3.693   3.331 -0.8221  0.3158  0.7178
 8383SOL     OW36784   2.344   3.539   4.729 -0.7572  0.2488 -0.1016
 8383SOL    HW136785   2.256   3.536   4.693 -0.9554  1.3565  0.2791
 8383SOL    HW236786   2.326   3.548   4.823  0.3295  2.0913 -0.0669
 8384SOL     OW36787   3.655   2.859   2.868 -0.4288 -0.1213 -0.0509
 8384SOL    HW136788   3.658   2.867   2.963 -0.3449  0.9767 -0.1510
 8384SOL    HW236789   3.719   2.788   2.858 -0.0174  0.2606 -0.1449
 8385SOL     OW36790   0.322   2.881   2.067  0.4754 -0.0103  0.6770
 8385SOL    HW136791   0.306   2.891   2.161 -0.5968 -2.2239  0.7029
 8385SOL    HW236792   0.399   2.825   2.060 -0.9725 -2.0443  1.3338
 8386SOL     OW36793   4.259   0.147   7.259  0.1710 -0.4689 -0.4613
 8386SOL    HW136794   4.230   0.191   7.179  0.9373  0.2551 -0.3467
 8386SOL    HW236795   4.325   0.205   7.298 -0.4447 -1.8352  2.5934
 8387SOL     OW36796   1.748   3.287   5.886 -0.5816 -0.2429 -0.1993
 8387SOL    HW136797   1.766   3.212   5.829  0.3450  0.7895 -1.2825
 8387SOL    HW236798   1.770   3.359   5.827 -3.7605  0.5519 -0.4176
 8388SOL     OW36799   4.483   1.545   5.703 -0.0472 -0.1977 -0.4907
 8388SOL    HW136800   4.443   1.525   5.788 -1.1909 -0.1389 -1.0095
 8388SOL    HW236801   4.462   1.477   5.639  0.2604 -0.2789 -0.5043
 8389SOL     OW36802   3.384   2.861   5.710  0.3010 -0.6873  0.7299
 8389SOL    HW136803   3.418   2.950   5.696 -2.4596  0.6146  2.3425
 8389SOL    HW236804   3.332   2.835   5.634 -0.3703 -1.0734  1.3249
 8390SOL     OW36805   0.132   4.315   0.767 -0.4017  0.2468  0.5391
 8390SOL    HW136806   0.138   4.393   0.822  1.8417 -0.2475  0.9721
 8390SOL    HW236807   0.143   4.362   0.684  0.2489 -1.0455 -0.1068
 8391SOL     OW36808   1.516   4.002   3.409 -0.3921  0.4159 -0.3151
 8391SOL    HW136809   1.448   3.996   3.476 -1.6038 -2.5040 -1.8094
 8391SOL    HW236810   1.599   3.974   3.448  1.6606  3.9145 -2.2215
 8392SOL     OW36811   1.469   3.512   2.508 -0.0777 -0.5540 -0.4946
 8392SOL    HW136812   1.499   3.427   2.475  1.2265  0.1799 -1.2155
 8392SOL    HW236813   1.550   3.560   2.525 -1.2725  0.9865  0.8258
 8393SOL     OW36814   0.079   0.683   2.315 -0.5209  0.0463 -0.7199
 8393SOL    HW136815   4.739   0.630   2.308  0.6974 -1.9447  0.3628
 8393SOL    HW236816   0.145   0.615   2.332 -0.6458 -0.0945 -0.7974
 8394SOL     OW36817   1.089   0.725   6.143  0.1257 -0.3645  0.1310
 8394SOL    HW136818   1.184   0.731   6.143  0.2193 -1.8746 -0.2759
 8394SOL    HW236819   1.071   0.658   6.209 -1.6809  0.5866  0.6008
 8395SOL     OW36820   3.241   2.111   4.894  0.0930 -0.4600 -0.1554
 8395SOL    HW136821   3.216   2.179   4.831  1.1851  0.1643  0.0948
 8395SOL    HW236822   3.336   2.120   4.900 -0.0728 -1.3504  3.6332
 8396SOL     OW36823   1.730   3.217  13.071  0.2535  0.0046 -0.7177
 8396SOL    HW136824   1.641   3.190  13.048 -0.1263  1.3511 -0.8504
 8396SOL    HW236825   1.741   3.296  13.017  0.3673  0.2704 -0.3029
 8397SOL     OW36826   1.205   1.765   8.829  0.5330  0.0400  0.3313
 8397SOL    HW136827   1.188   1.856   8.806  0.7541 -0.0020  0.0017
 8397SOL    HW236828   1.286   1.774   8.880  2.4157 -0.1803 -2.6368
 8398SOL     OW36829   2.244   0.064   2.520  0.5820 -0.2172  0.1447
 8398SOL    HW136830   2.167   0.007   2.516  1.1408 -1.0562  1.3921
 8398SOL    HW236831   2.275   0.063   2.429  1.5096 -0.4334  0.4601
 8399SOL     OW36832   0.894   1.356  10.787 -0.0116 -0.0942 -0.0750
 8399SOL    HW136833   0.899   1.264  10.813  0.7722  0.4754  1.7400
 8399SOL    HW236834   0.987   1.376  10.789  0.1833 -1.0591  0.4160
 8400SOL     OW36835   1.523   4.254   2.653 -0.1361 -0.0759 -0.1004
 8400SOL    HW136836   1.590   4.263   2.721  0.0405 -2.7661  0.0728
 8400SOL    HW236837   1.467   4.187   2.692  0.4985 -1.8962 -2.3377
 8401SOL     OW36838   0.192   0.667   8.450  0.3293  0.0260  0.1963
 8401SOL    HW136839   0.212   0.672   8.543 -0.8835 -0.6562  0.4917
 8401SOL    HW236840   0.215   0.753   8.416  0.5575 -0.6138 -1.2912
 8402SOL     OW36841   1.187   1.238   2.702 -0.0143  0.2152  0.6642
 8402SOL    HW136842   1.110   1.213   2.651 -0.7976 -1.4847  2.6640
 8402SOL    HW236843   1.170   1.206   2.791  2.2181  0.0275  1.0353
 8403SOL     OW36844   4.603   3.668   6.738  0.0859 -0.0636 -0.6340
 8403SOL    HW136845   4.699   3.671   6.739  0.0968 -0.2906 -0.8611
 8403SOL    HW236846   4.573   3.713   6.816 -0.1539 -3.5123  1.2847
 8404SOL     OW36847   0.691   0.056   4.111  0.3452 -0.0968  0.6548
 8404SOL    HW136848   0.750   4.722   4.096  0.8005  0.8913 -2.5371
 8404SOL    HW236849   0.636   0.024   4.183 -1.0433  0.5629 -0.0942
 8405SOL     OW36850   3.348   0.925   6.430  0.0387 -0.1543  0.3132
 8405SOL    HW136851   3.309   0.936   6.517 -1.8936  0.4790 -0.6410
 8405SOL    HW236852   3.290   0.863   6.384  1.1367 -1.9267  1.3158
 8406SOL     OW36853   2.315   1.581  15.299 -0.4121 -0.3376 -0.2580
 8406SOL    HW136854   2.382   1.624  15.352 -0.3663  0.3098 -0.8446
 8406SOL    HW236855   2.353   1.605  15.214  0.5074 -0.7580  0.0297
 8407SOL     OW36856   3.172   0.482   6.028 -0.4233  0.2062  0.2484
 8407SOL    HW136857   3.200   0.391   6.030  0.3000  0.4451  1.3321
 8407SOL    HW236858   3.148   0.491   6.120  0.9490  1.2007  0.5114
 8408SOL     OW36859   3.264   0.229   2.596  0.1758 -0.4819 -0.3245
 8408SOL    HW136860   3.198   0.281   2.550  0.1535 -0.4344 -0.2397
 8408SOL    HW236861   3.214   0.156   2.630 -0.5250  0.1603  0.0236
 8409SOL     OW36862   0.212   2.988   3.978 -0.4160  0.1264  0.4657
 8409SOL    HW136863   0.239   3.041   3.902  0.4577  1.5095  1.7355
 8409SOL    HW236864   0.161   3.051   4.028 -1.8556 -0.9683  0.3747
 8410SOL     OW36865   0.631   1.787   7.588  0.0621  0.7574 -0.2205
 8410SOL    HW136866   0.716   1.830   7.602 -0.7874  2.5678 -0.5998
 8410SOL    HW236867   0.617   1.790   7.493  1.5199 -0.1908 -0.4703
 8411SOL     OW36868   1.784   2.704   8.952  0.0269  0.4328 -0.0566
 8411SOL    HW136869   1.856   2.763   8.976  0.8555  0.3964 -2.5119
 8411SOL    HW236870   1.821   2.622   8.920  0.1080 -0.0434  1.2553
 8412SOL     OW36871   0.429   2.963  16.578 -0.9105  0.7463 -0.2990
 8412SOL    HW136872   0.375   2.917  16.643 -0.7193  0.1104 -0.5924
 8412SOL    HW236873   0.402   3.055  16.582 -0.2536  0.9730 -1.1395
 8413SOL     OW36874   3.400   1.964   5.879 -0.2215 -0.2272 -0.3374
 8413SOL    HW136875   3.439   1.949   5.965 -2.3045  0.4398  0.7306
 8413SOL    HW236876   3.362   1.879   5.857 -2.1330 -0.0545  2.2371
 8414SOL     OW36877   2.608   1.013  14.252  0.6673 -0.2915  0.2505
 8414SOL    HW136878   2.692   0.976  14.280  0.9025 -1.6689 -2.2232
 8414SOL    HW236879   2.543   0.964  14.303  0.5855 -0.9250 -0.4527
 8415SOL     OW36880   0.170   4.001   1.561  0.1161 -0.3669  0.3035
 8415SOL    HW136881   0.202   4.040   1.480  0.7030  2.5599  1.9539
 8415SOL    HW236882   0.181   3.907   1.543 -1.6915 -0.3672 -0.8306
 8416SOL     OW36883   2.741   1.391   4.257 -0.5760 -0.4064 -0.1717
 8416SOL    HW136884   2.649   1.369   4.248 -0.8725  0.2349  1.2956
 8416SOL    HW236885   2.736   1.454   4.329 -0.2206 -1.9995  1.2560
 8417SOL     OW36886   0.613   2.701   7.659  0.1677  0.0302 -0.3229
 8417SOL    HW136887   0.628   2.701   7.564  2.1469  1.1424 -0.0032
 8417SOL    HW236888   0.657   2.782   7.683 -3.2923  1.8476 -0.1319
 8418SOL     OW36889   0.335   3.501   9.479 -0.2479  0.3225 -0.4364
 8418SOL    HW136890   0.348   3.529   9.569  1.5597  0.6737 -0.8055
 8418SOL    HW236891   0.251   3.539   9.453 -0.8348  0.0289  1.0409
 8419SOL     OW36892   2.283   4.149   2.987  0.3675 -0.1000 -0.1686
 8419SOL    HW136893   2.254   4.082   3.049  0.0946  0.0549 -0.1310
 8419SOL    HW236894   2.354   4.192   3.035  0.0844 -0.8333  0.8998
 8420SOL     OW36895   4.325   1.081  10.298 -0.1004  0.5481 -0.9115
 8420SOL    HW136896   4.250   1.024  10.316 -0.0744  0.3483 -1.4335
 8420SOL    HW236897   4.392   1.027  10.341 -0.8345 -0.1908 -0.6795
 8421SOL     OW36898   1.389   0.548   6.715 -0.1181 -0.1184 -0.0907
 8421SOL    HW136899   1.369   0.611   6.785  0.8750 -0.3427  0.4056
 8421SOL    HW236900   1.308   0.497   6.710 -0.3576  0.3767 -1.2344
 8422SOL     OW36901   4.627   4.222  14.161  0.3957 -0.1028  0.3951
 8422SOL    HW136902   4.541   4.205  14.200  1.0903 -1.7128  1.2324
 8422SOL    HW236903   4.603   4.249  14.073 -2.9563 -1.5045  0.8617
 8423SOL     OW36904   3.100   0.431   8.401  0.2972  0.2923  0.1558
 8423SOL    HW136905   3.106   0.423   8.305 -1.4296 -2.0267  0.2408
 8423SOL    HW236906   3.090   0.524   8.422  0.5773  0.5406 -0.8085
 8424SOL     OW36907   2.039   2.953  13.347  0.6411  0.5590  0.5681
 8424SOL    HW136908   2.009   2.988  13.431 -0.5513 -1.1181  0.8535
 8424SOL    HW236909   2.118   3.003  13.325 -0.3434  2.1391  0.5806
 8425SOL     OW36910   3.643   1.919   3.357  0.2694 -0.0535 -0.0694
 8425SOL    HW136911   3.708   1.937   3.425 -0.3537  0.1855  0.4627
 8425SOL    HW236912   3.688   1.866   3.291 -0.5625 -2.2734  1.1416
 8426SOL     OW36913   2.939   0.740   2.210  0.3610  0.1990 -0.5988
 8426SOL    HW136914   3.032   0.719   2.213  0.6230  1.4092 -0.1049
 8426SOL    HW236915   2.929   0.746   2.115 -1.9081 -0.1751 -0.3922
 8427SOL     OW36916   1.967   0.022   6.007  0.8782  0.3449  0.2384
 8427SOL    HW136917   1.897   0.016   5.943  2.8350 -0.9381 -1.7881
 8427SOL    HW236918   1.940   0.102   6.053 -1.7893 -0.7405  0.5592
 8428SOL     OW36919   1.579   3.621   6.126 -0.6800 -0.0435 -0.5614
 8428SOL    HW136920   1.584   3.531   6.158 -0.4339  1.0396  2.4745
 8428SOL    HW236921   1.519   3.673   6.181 -1.3224 -0.2193 -1.0948
 8429SOL     OW36922   1.194   0.817   7.615  0.5273 -0.5368 -0.3081
 8429SOL    HW136923   1.217   0.886   7.677 -0.8682 -0.2275 -0.1298
 8429SOL    HW236924   1.279   0.782   7.588  0.4821 -2.1413  1.6738
 8430SOL     OW36925   2.433   1.475   1.540 -0.0958  0.2726 -0.6231
 8430SOL    HW136926   2.373   1.400   1.544 -1.1361  1.0478 -1.7381
 8430SOL    HW236927   2.379   1.549   1.567  0.1256  0.1333  0.2004
 8431SOL     OW36928   4.416   4.004   6.363 -0.4977  0.2479  0.1419
 8431SOL    HW136929   4.501   3.986   6.323 -0.7076  0.1170 -0.2487
 8431SOL    HW236930   4.367   4.045   6.292 -1.7470  3.0472  2.5899
 8432SOL     OW36931   3.801   0.963   8.068  0.3250  0.4258 -0.8726
 8432SOL    HW136932   3.825   1.047   8.029 -0.5671  1.8811  1.6964
 8432SOL    HW236933   3.742   0.932   7.999  2.1229 -0.2021 -2.1427
 8433SOL     OW36934   0.135   0.734   3.860 -0.2844 -0.3024  0.0264
 8433SOL    HW136935   0.119   0.694   3.775 -2.8776  0.4840  0.1671
 8433SOL    HW236936   0.107   0.824   3.844 -0.4425 -0.0980  1.3995
 8434SOL     OW36937   2.399   1.145   8.014 -0.0589 -0.3709 -0.1249
 8434SOL    HW136938   2.378   1.052   8.020  0.2412 -0.3402  1.4203
 8434SOL    HW236939   2.428   1.149   7.923  0.1994  1.3274  0.0388
 8435SOL     OW36940   3.423   1.210  13.056 -0.1109 -0.3790 -0.1495
 8435SOL    HW136941   3.449   1.181  13.143  1.0860  1.3210  0.0633
 8435SOL    HW236942   3.484   1.282  13.039  0.1248 -0.5324  0.0506
 8436SOL     OW36943   1.257   0.971   7.241  0.0834 -0.7407  0.6496
 8436SOL    HW136944   1.305   1.046   7.276  0.9777 -0.9157 -0.2013
 8436SOL    HW236945   1.185   1.009   7.192 -0.7365 -1.5153  1.2674
 8437SOL     OW36946   4.039   3.304  16.657 -0.0550 -0.6953 -0.0277
 8437SOL    HW136947   4.100   3.275  16.590 -0.3853 -1.6363  0.0738
 8437SOL    HW236948   4.045   3.226  16.713 -0.4521 -1.7024 -1.3840
 8438SOL     OW36949   4.153   1.652  17.748  0.1539  0.3933 -0.5349
 8438SOL    HW136950   4.059   1.639   0.002  0.5353 -2.2820 -0.4091
 8438SOL    HW236951   4.185   1.570  17.709  1.4709 -0.3782  2.1985
 8439SOL     OW36952   0.866   2.001   0.950  0.3492 -0.0818 -0.4427
 8439SOL    HW136953   0.935   1.939   0.925  0.4822  0.8914 -2.4725
 8439SOL    HW236954   0.919   2.081   0.947  0.2563 -0.0085 -0.1374
 8440SOL     OW36955   1.129   1.229   2.301  0.1089 -0.2779 -0.1327
 8440SOL    HW136956   1.072   1.200   2.229 -1.0149  0.5241  0.4310
 8440SOL    HW236957   1.129   1.156   2.363 -0.7657 -1.9832 -2.1490
 8441SOL     OW36958   2.613   3.824   4.927  0.1800 -0.3249  0.4190
 8441SOL    HW136959   2.685   3.874   4.965 -0.1551  0.0030  0.6273
 8441SOL    HW236960   2.605   3.747   4.983 -1.5722 -0.2849  0.2235
 8442SOL     OW36961   0.526   0.536  16.302  0.3444 -0.2407 -0.1163
 8442SOL    HW136962   0.555   0.466  16.243  1.9761 -0.0757  0.4826
 8442SOL    HW236963   0.479   0.490  16.372  0.6140  1.1818  0.9883
 8443SOL     OW36964   2.661   0.523   4.196 -0.3493 -0.1588  0.6509
 8443SOL    HW136965   2.725   0.587   4.164 -0.4928 -0.2826  0.1129
 8443SOL    HW236966   2.617   0.501   4.113 -0.1002 -1.6087  0.8968
 8444SOL     OW36967   3.176   2.505   5.254 -0.2598  0.6380 -0.0345
 8444SOL    HW136968   3.166   2.489   5.161 -0.4209  0.1519  0.0682
 8444SOL    HW236969   3.271   2.518   5.263 -0.0581 -1.4365  0.7875
 8445SOL     OW36970   3.259   3.647  16.988  0.2788  0.3815  0.2852
 8445SOL    HW136971   3.334   3.661  17.046  0.4921 -1.8160  0.5695
 8445SOL    HW236972   3.309   3.615  16.912 -0.6428  1.2437 -0.6823
 8446SOL     OW36973   0.868   3.748   8.744  0.7446 -0.3155 -0.7125
 8446SOL    HW136974   0.829   3.669   8.780  1.7372  0.3964  1.9211
 8446SOL    HW236975   0.896   3.792   8.824 -0.2102 -1.0171  0.0057
 8447SOL     OW36976   1.042   4.454   5.377 -0.1747 -0.2447  0.1048
 8447SOL    HW136977   0.951   4.468   5.350 -0.3366  1.1055  1.3278
 8447SOL    HW236978   1.020   4.404   5.455 -0.1321 -1.3091 -0.5687
 8448SOL     OW36979   2.899   3.038  11.352 -0.2389  0.6010  0.0649
 8448SOL    HW136980   2.844   3.082  11.287 -0.6078  0.8045  0.5127
 8448SOL    HW236981   2.961   2.992  11.297 -1.3833 -0.1465 -0.6046
 8449SOL     OW36982   3.300   3.567   1.962 -0.1131  0.6381 -0.4656
 8449SOL    HW136983   3.332   3.644   2.008 -0.6386  0.1427  0.7343
 8449SOL    HW236984   3.381   3.516   1.952  0.8806  2.3002 -0.8254
 8450SOL     OW36985   1.316   1.095   4.495 -0.8371 -0.5338  0.0144
 8450SOL    HW136986   1.410   1.087   4.478 -0.9601  0.0476 -0.9282
 8450SOL    HW236987   1.297   1.009   4.534  2.0932 -0.9275  0.5399
 8451SOL     OW36988   0.394   0.122  15.135  0.2854  0.4033 -0.6258
 8451SOL    HW136989   0.376   0.179  15.061 -2.1432  0.7582  0.2115
 8451SOL    HW236990   0.443   0.165  15.205  0.7215 -0.2048 -0.5630
 8452SOL     OW36991   3.535   0.182   8.213  0.1951  0.1673 -0.3702
 8452SOL    HW136992   3.503   0.092   8.208  1.9164 -0.6478  2.9437
 8452SOL    HW236993   3.538   0.210   8.305 -0.1406 -1.6451  0.1921
 8453SOL     OW36994   1.829   0.942   8.433  0.1721  0.8489 -0.2309
 8453SOL    HW136995   1.900   0.879   8.446 -0.6415  0.1897  0.9230
 8453SOL    HW236996   1.806   0.943   8.340 -0.1008 -0.0792 -0.1656
 8454SOL     OW36997   1.397   3.022   2.455  0.0808 -0.1739  0.4569
 8454SOL    HW136998   1.479   3.071   2.454 -0.3996  0.6411  1.0095
 8454SOL    HW236999   1.423   2.930   2.444  0.4304 -0.2816  2.2937
 8455SOL     OW37000   0.937   3.714  12.542  0.1197  0.0753 -0.0676
 8455SOL    HW137001   0.928   3.675  12.455 -1.2155  0.1062  0.0626
 8455SOL    HW237002   1.024   3.755  12.538  0.3140 -0.0457  3.2715
 8456SOL     OW37003   1.260   3.962  16.376 -0.1143 -0.0065  0.6547
 8456SOL    HW137004   1.221   4.049  16.359  0.0051 -0.1026 -0.1368
 8456SOL    HW237005   1.269   3.935  16.284  0.8785 -1.7780  1.2894
 8457SOL     OW37006   3.246   1.459   2.218 -0.1315 -0.2586 -0.0325
 8457SOL    HW137007   3.330   1.421   2.244  0.4267  0.7451 -0.3627
 8457SOL    HW237008   3.251   1.431   2.127  0.1612 -2.5465  0.6858
 8458SOL     OW37009   0.658   4.475   2.849 -0.0748 -0.1196 -0.5030
 8458SOL    HW137010   0.691   4.487   2.938  1.8146 -3.7155 -0.6948
 8458SOL    HW237011   0.630   4.561   2.818  0.4995  0.2028 -0.1380
 8459SOL     OW37012   2.601   0.340   2.552 -0.5397  0.0791 -0.1274
 8459SOL    HW137013   2.580   0.359   2.460 -1.0822 -0.9026 -0.1974
 8459SOL    HW237014   2.579   0.423   2.595  1.1174  1.2785 -1.5792
 8460SOL     OW37015   3.212   1.070   6.945 -0.3211 -0.1717  0.4410
 8460SOL    HW137016   3.216   1.165   6.930 -0.1398 -0.1893  0.3702
 8460SOL    HW237017   3.255   1.080   7.031 -3.3216  1.7059  1.7044
 8461SOL     OW37018   1.766   0.533   3.687  0.3287  0.0846 -0.0189
 8461SOL    HW137019   1.841   0.552   3.631  1.2368  0.2484  1.2475
 8461SOL    HW237020   1.803   0.552   3.773 -2.0052 -1.5885  1.3626
 8462SOL     OW37021   2.306   4.713  15.181  0.4285  0.3861 -0.2111
 8462SOL    HW137022   2.325   0.013  15.096 -0.5030  4.0460  1.3026
 8462SOL    HW237023   2.267   4.630  15.153  1.6411 -0.3994  0.4451
 8463SOL     OW37024   2.277   1.034   4.216 -0.3861  0.3918 -0.0380
 8463SOL    HW137025   2.257   0.972   4.146  1.4425  0.9434 -1.0399
 8463SOL    HW237026   2.329   1.097   4.166  0.6228 -0.6779 -0.3326
 8464SOL     OW37027   1.239   2.092   3.414 -0.1937 -0.0198 -0.7886
 8464SOL    HW137028   1.268   2.176   3.377 -1.8059 -0.4926 -3.1612
 8464SOL    HW237029   1.147   2.115   3.426 -0.0928  0.6409 -1.2476
 8465SOL     OW37030   2.557   1.292   1.277 -0.0156  0.5322  0.4390
 8465SOL    HW137031   2.615   1.265   1.348 -0.5829 -1.1802  0.2432
 8465SOL    HW237032   2.470   1.279   1.315  1.1645 -0.0616  2.9610
 8466SOL     OW37033   1.640   2.870   5.164  0.1886  0.4996  0.6724
 8466SOL    HW137034   1.616   2.805   5.230 -0.2778 -0.4682 -0.4597
 8466SOL    HW237035   1.729   2.901   5.180  0.7875  0.8636 -3.2682
 8467SOL     OW37036   2.720   3.626  12.635 -0.1479 -0.2861 -0.6372
 8467SOL    HW137037   2.726   3.534  12.611 -1.4761 -0.6290  0.3286
 8467SOL    HW237038   2.809   3.658  12.644 -0.2904 -0.3701  1.0019
 8468SOL     OW37039   2.290   2.242   2.252 -0.6392 -0.0953 -0.1951
 8468SOL    HW137040   2.249   2.323   2.220  0.1767  0.0323 -0.9267
 8468SOL    HW237041   2.351   2.220   2.182  0.0815 -1.2971  0.8164
 8469SOL     OW37042   3.292   0.808   4.632 -0.4339 -0.1940  0.0012
 8469SOL    HW137043   3.274   0.716   4.652 -1.2907 -0.0366 -0.0274
 8469SOL    HW237044   3.208   0.847   4.659  0.4307  1.7206 -0.1267
 8470SOL     OW37045   1.849   2.303  12.183  0.0958  0.0543  0.5407
 8470SOL    HW137046   1.897   2.385  12.195 -0.3330  0.1048  1.9222
 8470SOL    HW237047   1.835   2.301  12.088  1.6817 -1.5821  0.3451
 8471SOL     OW37048   0.343   0.389  17.342 -0.2283 -0.3397 -0.0229
 8471SOL    HW137049   0.322   0.332  17.416 -1.7076 -1.4088 -1.2579
 8471SOL    HW237050   0.350   0.473  17.386  0.2148 -0.2041 -0.3490
 8472SOL     OW37051   2.770   1.763   5.721  0.1575  0.2507  0.4613
 8472SOL    HW137052   2.783   1.754   5.815  0.8803 -0.8581  0.2543
 8472SOL    HW237053   2.745   1.855   5.709  0.2013  0.1646 -0.2884
 8473SOL     OW37054   4.699   0.663  17.562  0.3078 -0.1408 -0.7441
 8473SOL    HW137055   4.663   0.574  17.555 -0.8166  0.2849 -0.4807
 8473SOL    HW237056   0.034   0.642  17.616  0.2625  0.7806 -0.3302
 8474SOL     OW37057   3.231   4.189   3.620 -0.4916  0.4189 -0.2909
 8474SOL    HW137058   3.141   4.168   3.644 -0.5916  0.5941 -0.5173
 8474SOL    HW237059   3.242   4.262   3.681 -3.6329  0.9934 -0.4314
 8475SOL     OW37060   1.298   3.877   1.936 -0.6817  0.5313 -0.1900
 8475SOL    HW137061   1.371   3.815   1.936 -2.5206 -1.6452  1.2893
 8475SOL    HW237062   1.337   3.946   1.882  0.3751 -0.0884 -0.2182
 8476SOL     OW37063   3.915   0.076   8.117 -0.0304  0.5791 -0.1336
 8476SOL    HW137064   3.943   0.142   8.055  0.2894  0.9248  0.3737
 8476SOL    HW237065   3.884   0.123   8.195 -0.3466  0.5214 -0.2272
 8477SOL     OW37066   4.712   0.495   3.032  0.6961 -0.3613  0.3353
 8477SOL    HW137067   4.618   0.507   3.015  0.7816  0.7394  0.5905
 8477SOL    HW237068   4.715   0.522   3.123  2.6306  2.8222 -0.6524
 8478SOL     OW37069   4.217   1.373   2.620 -0.3918  0.7575 -0.2905
 8478SOL    HW137070   4.236   1.283   2.594 -0.9953  1.0825 -1.8968
 8478SOL    HW237071   4.300   1.420   2.611 -0.3399  0.4412 -1.4666
 8479SOL     OW37072   1.025   0.294   0.495  0.2085 -0.2747 -0.2767
 8479SOL    HW137073   1.097   0.249   0.451  0.3671 -0.4692  0.1770
 8479SOL    HW237074   1.044   0.309   0.588  0.6046  0.7233 -0.5167
 8480SOL     OW37075   2.893   3.692   7.032  0.7783 -0.3822  0.0483
 8480SOL    HW137076   2.866   3.708   7.122  0.5158 -0.2601 -0.0503
 8480SOL    HW237077   2.950   3.768   7.024 -2.2209  1.3666 -5.0274
 8481SOL     OW37078   1.134   4.205  12.655  0.3710  0.4811 -0.4722
 8481SOL    HW137079   1.065   4.197  12.589  0.0203  0.7825 -0.1448
 8481SOL    HW237080   1.190   4.133  12.625 -0.1154  0.3454 -1.0512
 8482SOL     OW37081   2.436   1.120   4.421  0.0130 -0.5403  0.1089
 8482SOL    HW137082   2.389   1.076   4.350 -0.9247  0.4855  0.0890
 8482SOL    HW237083   2.480   1.045   4.463 -0.4697 -0.8625  0.0372
 8483SOL     OW37084   3.844   0.508   2.478  0.2215  0.3024  0.2303
 8483SOL    HW137085   3.909   0.503   2.548  0.9722  0.3376 -0.4714
 8483SOL    HW237086   3.887   0.560   2.410 -1.7734  0.1087 -1.1782
 8484SOL     OW37087   1.918   4.235   4.606 -0.0706 -0.1893 -0.4575
 8484SOL    HW137088   2.013   4.238   4.605 -0.0950  1.0280  0.9590
 8484SOL    HW237089   1.907   4.157   4.551  0.7617  0.2910 -1.2922
 8485SOL     OW37090   2.470   0.883   5.441 -0.3175 -0.3238 -0.6066
 8485SOL    HW137091   2.564   0.888   5.420 -0.4013  3.6301 -0.0998
 8485SOL    HW237092   2.472   0.885   5.537  0.4479  2.6972 -0.6768
 8486SOL     OW37093   1.496   1.039   6.458  0.4391 -0.3707 -0.0987
 8486SOL    HW137094   1.530   0.974   6.519  2.1289  1.4374  0.9046
 8486SOL    HW237095   1.554   1.115   6.468  0.5741 -0.5808  0.7208
 8487SOL     OW37096   2.869   3.923  12.637  0.1354 -0.7215 -0.1557
 8487SOL    HW137097   2.963   3.932  12.623  0.1155  1.5688  1.0450
 8487SOL    HW237098   2.828   3.958  12.558 -1.0052 -2.0551 -0.1531
 8488SOL     OW37099   0.492   4.439   2.102  0.4747 -0.3452 -0.1355
 8488SOL    HW137100   0.559   4.402   2.160  0.2410  1.0547  1.0460
 8488SOL    HW237101   0.492   4.531   2.130  0.8624 -0.5262  0.4629
 8489SOL     OW37102   4.285   0.583  10.274 -0.0863  0.3284  0.1299
 8489SOL    HW137103   4.328   0.583  10.359 -0.6820  1.3659  0.4301
 8489SOL    HW237104   4.333   0.519  10.221 -1.8162 -1.2442  0.4747
 8490SOL     OW37105   1.548   0.980   8.720 -0.6553 -0.2309  0.2983
 8490SOL    HW137106   1.534   1.052   8.658 -0.4978 -1.8876 -1.6664
 8490SOL    HW237107   1.640   0.987   8.745 -0.6276  2.6639 -0.5339
 8491SOL     OW37108   0.659   2.651  14.407  0.0186  0.0253  0.0224
 8491SOL    HW137109   0.617   2.736  14.416 -0.6570  0.0684 -3.7051
 8491SOL    HW237110   0.734   2.670  14.350 -0.8993 -1.2799 -1.6346
 8492SOL     OW37111   0.150   2.331   2.901 -0.0342  0.1410 -0.2386
 8492SOL    HW137112   0.239   2.355   2.877  0.3237 -1.6775 -0.6963
 8492SOL    HW237113   0.151   2.240   2.873  2.7994  0.0878  0.0781
 8493SOL     OW37114   1.770   1.070   9.175  0.3111  0.2098 -0.0354
 8493SOL    HW137115   1.779   1.119   9.256 -0.6236  1.7829 -0.8795
 8493SOL    HW237116   1.856   1.080   9.135  0.8119  0.4117  1.0955
 8494SOL     OW37117   0.503   4.686   6.465 -0.0175 -0.7272  0.0451
 8494SOL    HW137118   0.416   4.661   6.498 -0.3404 -1.1487 -1.1587
 8494SOL    HW237119   0.485   4.684   6.372 -0.8138  0.0820  0.1885
 8495SOL     OW37120   2.664   0.841   2.928  0.0485 -0.4031 -0.5881
 8495SOL    HW137121   2.703   0.839   2.841  2.6833  1.0974  0.5936
 8495SOL    HW237122   2.727   0.789   2.979 -0.6672  0.3884  1.1143
 8496SOL     OW37123   2.520   4.212  10.131 -0.0716  0.1017  0.2889
 8496SOL    HW137124   2.506   4.120  10.153 -1.5355  0.1942 -0.2287
 8496SOL    HW237125   2.447   4.249  10.181 -0.2552 -0.6777  0.5931
 8497SOL     OW37126   4.061   4.693   5.476 -0.3109  0.4008 -0.1120
 8497SOL    HW137127   4.067   4.619   5.415 -1.1711 -0.2891  0.6265
 8497SOL    HW237128   3.977   4.730   5.450  0.2347  1.4004 -0.4262
 8498SOL     OW37129   2.641   3.448  15.969  0.3192 -0.5090  0.8574
 8498SOL    HW137130   2.730   3.436  16.003  0.7606  0.9869  0.2318
 8498SOL    HW237131   2.662   3.527  15.919 -3.0369  1.0738  1.9725
 8499SOL     OW37132   3.137   2.041  15.385 -0.1301  0.1416 -0.5151
 8499SOL    HW137133   3.092   2.002  15.310 -0.0506  0.1271 -0.5555
 8499SOL    HW237134   3.193   2.111  15.352 -1.8102  1.5233 -0.4656
 8500SOL     OW37135   2.450   1.759   9.830  0.2831  0.2069  0.1696
 8500SOL    HW137136   2.453   1.749   9.734 -1.2751 -1.6141  0.3246
 8500SOL    HW237137   2.360   1.786   9.847 -1.0701 -2.9753 -1.9110
 8501SOL     OW37138   2.751   2.475   5.532 -0.1799  0.5683 -0.1222
 8501SOL    HW137139   2.752   2.418   5.455 -0.0854  0.0254  0.2859
 8501SOL    HW237140   2.708   2.553   5.495 -0.7879 -0.6754 -2.0515
 8502SOL     OW37141   3.613   3.817  14.901  0.0915  0.3387 -0.6637
 8502SOL    HW137142   3.702   3.780  14.896  0.1749  0.3555  0.6296
 8502SOL    HW237143   3.630   3.896  14.850  0.4782 -0.1788 -1.3303
 8503SOL     OW37144   0.777   4.477   5.316  0.3304  0.3713 -0.1512
 8503SOL    HW137145   0.745   4.565   5.298  1.1861  0.5882 -0.6253
 8503SOL    HW237146   0.701   4.422   5.333  0.4121  0.0523 -0.8263
 8504SOL     OW37147   2.103   1.746   4.643 -0.2718 -0.5783  0.1676
 8504SOL    HW137148   2.158   1.683   4.595  0.9050 -1.3401  2.5231
 8504SOL    HW237149   2.036   1.767   4.578  2.9247  1.9451 -2.3494
 8505SOL     OW37150   4.532   2.287   7.777  0.6325  0.2166  0.1048
 8505SOL    HW137151   4.443   2.266   7.806 -0.2882  3.2936 -0.5414
 8505SOL    HW237152   4.572   2.200   7.783 -0.6928 -0.3564  0.6583
 8506SOL     OW37153   0.848   3.326   7.514 -0.2559  0.1804  0.2206
 8506SOL    HW137154   0.848   3.397   7.579  0.7469  2.6669 -2.5125
 8506SOL    HW237155   0.906   3.265   7.559 -1.5778 -1.1230  0.1667
 8507SOL     OW37156   1.224   4.331   4.499 -0.1883  0.0010 -0.5165
 8507SOL    HW137157   1.217   4.327   4.594  2.9956 -0.4006 -0.3048
 8507SOL    HW237158   1.142   4.287   4.475  0.2333 -1.6361  1.0836
 8508SOL     OW37159   1.813   0.462   9.104  0.2758 -0.0918  0.0133
 8508SOL    HW137160   1.876   0.500   9.165  0.3365 -2.3440  1.3417
 8508SOL    HW237161   1.771   0.539   9.067 -2.9233 -0.7725  2.2820
 8509SOL     OW37162   1.405   1.641   8.196  0.4364 -0.1539  0.1419
 8509SOL    HW137163   1.379   1.620   8.286  1.6294  0.7073  0.6983
 8509SOL    HW237164   1.483   1.687   8.225  2.4393 -1.9218 -2.5133
 8510SOL     OW37165   0.436   4.390   1.834  0.2660  0.0994  0.2668
 8510SOL    HW137166   0.496   4.370   1.906 -0.2656  1.2058  1.0231
 8510SOL    HW237167   0.421   4.483   1.850 -0.4240  0.0178  0.1074
 8511SOL     OW37168   3.731   1.098   6.940 -0.6390 -0.7007  0.2128
 8511SOL    HW137169   3.819   1.116   6.972 -1.1529  1.8521  0.2040
 8511SOL    HW237170   3.746   1.073   6.849 -1.5900 -0.2643 -0.0676
 8512SOL     OW37171   0.354   0.617   7.591  0.3523  0.9631 -0.5206
 8512SOL    HW137172   0.382   0.539   7.541 -0.1707  0.3563  0.1414
 8512SOL    HW237173   0.321   0.683   7.529  0.8549  1.9786  0.3013
 8513SOL     OW37174   0.651   3.520   5.658 -0.0851  0.4629  0.7552
 8513SOL    HW137175   0.604   3.575   5.720 -1.6710  1.9459 -1.7892
 8513SOL    HW237176   0.595   3.508   5.582  0.2077  0.5876  0.5202
 8514SOL     OW37177   1.476   1.458   3.954 -0.4477  0.4615 -0.5494
 8514SOL    HW137178   1.514   1.477   4.040 -4.0304  0.3223  1.0598
 8514SOL    HW237179   1.386   1.457   3.984 -0.0941 -2.4886  0.3341
 8515SOL     OW37180   3.850   3.848   4.269  0.0415  0.3127 -0.0165
 8515SOL    HW137181   3.922   3.899   4.308 -0.2010  0.6394  0.0010
 8515SOL    HW237182   3.894   3.827   4.187 -0.2757  1.2153 -0.4182
 8516SOL     OW37183   4.177   2.414  14.966 -0.1701  0.4788 -0.9573
 8516SOL    HW137184   4.171   2.337  14.909  1.6977  1.9989 -3.2112
 8516SOL    HW237185   4.213   2.478  14.905  0.3953 -0.7004 -1.8797
 8517SOL     OW37186   1.363   4.431   9.067 -0.0890  0.4267  0.4266
 8517SOL    HW137187   1.400   4.395   9.148  0.7145 -1.7747 -0.9023
 8517SOL    HW237188   1.299   4.361   9.057  1.3821 -1.0659  1.6101
 8518SOL     OW37189   1.817   1.221   3.771 -0.3266  0.4871  1.0955
 8518SOL    HW137190   1.722   1.211   3.775 -0.2280 -2.2277 -3.9245
 8518SOL    HW237191   1.854   1.144   3.814 -0.8728 -0.9444 -1.0467
 8519SOL     OW37192   2.952   4.108  11.049  0.1184  0.3710 -0.3733
 8519SOL    HW137193   3.022   4.168  11.076  0.6002  0.7103 -2.3635
 8519SOL    HW237194   2.879   4.133  11.105  0.1668 -1.8284  0.6636
 8520SOL     OW37195   3.000   1.369   5.835  0.4495 -0.0069  0.2471
 8520SOL    HW137196   2.996   1.299   5.900  0.5094  0.2143  0.4926
 8520SOL    HW237197   3.093   1.375   5.813  0.6978  0.9812  1.5618
 8521SOL     OW37198   2.459   2.793   4.240  0.3797  0.1091 -0.0636
 8521SOL    HW137199   2.484   2.816   4.329  1.4464 -0.6516 -0.1643
 8521SOL    HW237200   2.533   2.830   4.192  0.0740 -0.1006 -0.6966
 8522SOL     OW37201   2.056   2.667  13.557 -0.1091  0.0415 -0.3145
 8522SOL    HW137202   1.990   2.703  13.617  1.1307 -1.4143  1.9316
 8522SOL    HW237203   2.041   2.717  13.477  1.5238 -1.9217 -1.8539
 8523SOL     OW37204   0.218   1.756   7.627 -0.6177  0.2671 -0.6584
 8523SOL    HW137205   0.224   1.660   7.627  0.7902  0.3577  0.2336
 8523SOL    HW237206   0.229   1.762   7.722 -2.7766  1.2244 -0.4712
 8524SOL     OW37207   3.334   4.519   1.272 -0.6126 -0.2510 -0.0950
 8524SOL    HW137208   3.331   4.430   1.307 -2.1432 -0.4813 -0.7965
 8524SOL    HW237209   3.427   4.539   1.263 -0.9175  1.2140  0.0195
 8525SOL     OW37210   0.824   3.569   7.282  0.6239  0.6437  0.4406
 8525SOL    HW137211   0.823   3.479   7.315 -0.7700  1.1870  1.9186
 8525SOL    HW237212   0.773   3.563   7.201 -2.3368 -0.1649  2.3367
 8526SOL     OW37213   1.594   3.930  17.351  0.3920 -0.4998  0.5830
 8526SOL    HW137214   1.653   3.878  17.405 -1.2948 -0.7539  2.1936
 8526SOL    HW237215   1.523   3.957  17.410  0.2210  0.0313  0.1303
 8527SOL     OW37216   4.541   1.369   4.621 -0.2029 -0.0510 -0.0496
 8527SOL    HW137217   4.606   1.301   4.600 -1.3657 -1.2054  0.0998
 8527SOL    HW237218   4.561   1.436   4.555 -1.5597 -1.3432 -1.7454
 8528SOL     OW37219   2.013   0.632   3.589 -0.0261  0.0826 -0.1644
 8528SOL    HW137220   1.964   0.698   3.638 -0.9581 -1.0717  0.4512
 8528SOL    HW237221   2.082   0.612   3.652 -1.2509  0.4796  1.2981
 8529SOL     OW37222   4.361   3.548   4.356 -0.0951 -0.2302  0.2432
 8529SOL    HW137223   4.358   3.564   4.450  0.3506 -0.2192  0.2591
 8529SOL    HW237224   4.311   3.468   4.338  1.1231 -0.7872 -0.6941
 8530SOL     OW37225   3.244   1.667   7.739 -0.0700  0.2680 -0.3091
 8530SOL    HW137226   3.179   1.599   7.753 -0.4541  0.8789  0.8155
 8530SOL    HW237227   3.322   1.615   7.757  0.8435  1.0737 -1.8625
 8531SOL     OW37228   2.594   0.873   5.679  0.1120  0.5269 -0.1539
 8531SOL    HW137229   2.593   0.816   5.756 -1.6470  2.3987  1.2129
 8531SOL    HW237230   2.644   0.821   5.616  0.8305 -0.6055  1.3475
 8532SOL     OW37231   0.924   2.472   3.484 -0.0233  0.7585 -0.0812
 8532SOL    HW137232   0.940   2.460   3.577  0.5765  0.8554 -0.1704
 8532SOL    HW237233   0.912   2.566   3.471 -1.1895  0.8554  1.7574
 8533SOL     OW37234   2.115   1.666   3.592 -0.3141 -0.1037  0.3295
 8533SOL    HW137235   2.144   1.594   3.538  1.2129 -0.0271  1.0485
 8533SOL    HW237236   2.158   1.725   3.530 -1.2456 -0.6394 -0.8215
 8534SOL     OW37237   0.595   1.892  15.631  0.1492 -0.1707 -0.2512
 8534SOL    HW137238   0.500   1.887  15.623  0.2593  1.1949 -2.4497
 8534SOL    HW237239   0.621   1.975  15.591  0.0637 -0.2830 -0.5442
 8535SOL     OW37240   3.849   3.961  16.672 -0.0027 -0.0774  0.3529
 8535SOL    HW137241   3.907   3.897  16.629  1.6559 -0.5594  3.3346
 8535SOL    HW237242   3.762   3.957  16.632 -0.0082  1.4581  0.2258
 8536SOL     OW37243   1.314   1.893  13.088 -0.4519  0.3487 -0.0355
 8536SOL    HW137244   1.261   1.958  13.136  0.2904  1.2568 -0.4533
 8536SOL    HW237245   1.366   1.862  13.162 -2.1535 -3.0440 -0.2835
 8537SOL     OW37246   4.290   1.713  10.919  0.2341  0.1730 -0.0530
 8537SOL    HW137247   4.277   1.744  11.009 -0.4830 -0.9648  0.2412
 8537SOL    HW237248   4.283   1.796  10.872  0.2765 -0.9139 -1.9636
 8538SOL     OW37249   0.940   3.927   7.915  0.0740 -0.1639  0.1697
 8538SOL    HW137250   1.031   3.952   7.930  0.7401 -1.4782 -1.7451
 8538SOL    HW237251   0.914   3.977   7.838 -0.6530  0.3820  0.7616
 8539SOL     OW37252   3.677   2.694   4.640  0.4366 -0.0314  0.1446
 8539SOL    HW137253   3.716   2.607   4.644  0.3240 -0.1293 -0.8172
 8539SOL    HW237254   3.756   2.737   4.606  0.5557  0.7803  1.4517
 8540SOL     OW37255   3.183   3.942   0.817  0.2841 -0.1364 -0.6744
 8540SOL    HW137256   3.231   4.002   0.759 -0.5762 -0.1235 -1.3731
 8540SOL    HW237257   3.216   3.962   0.905  1.1701  2.2673 -1.5479
 8541SOL     OW37258   3.560   2.142   5.345 -0.5531 -0.6594 -0.1557
 8541SOL    HW137259   3.607   2.096   5.414  2.7516  0.6845 -1.5351
 8541SOL    HW237260   3.521   2.065   5.304 -3.0771  0.4604  0.1086
 8542SOL     OW37261   0.447   3.915   2.960 -0.2813 -0.6749  0.1841
 8542SOL    HW137262   0.372   3.928   2.903  0.1648 -1.5729 -0.6127
 8542SOL    HW237263   0.522   3.922   2.900 -0.9125 -0.1896 -0.5394
 8543SOL     OW37264   0.601   2.506   7.390 -0.1604  0.7423 -0.5176
 8543SOL    HW137265   0.609   2.600   7.375  0.1343  0.8060  0.0033
 8543SOL    HW237266   0.642   2.468   7.313 -0.8983 -3.9087  1.4170
 8544SOL     OW37267   1.808   4.100  15.692  0.1961  0.0854 -0.2201
 8544SOL    HW137268   1.874   4.037  15.663  0.5122  0.0932  0.4932
 8544SOL    HW237269   1.790   4.156  15.616 -1.5494 -0.7215 -0.3932
 8545SOL     OW37270   1.757   2.537   7.390  0.1036 -0.0975 -0.0023
 8545SOL    HW137271   1.814   2.468   7.423  1.9782  1.9176  0.9206
 8545SOL    HW237272   1.746   2.592   7.468  1.3674 -1.8900  1.4273
 8546SOL     OW37273   0.429   3.301   9.262 -0.0287 -0.6260  0.5408
 8546SOL    HW137274   0.523   3.308   9.244 -0.2509 -2.0859 -1.0854
 8546SOL    HW237275   0.421   3.370   9.329 -1.9427  1.4554 -1.8377
 8547SOL     OW37276   2.232   0.466   9.709 -0.7384 -0.1218  0.2858
 8547SOL    HW137277   2.209   0.475   9.802 -1.7045  1.8109 -0.1515
 8547SOL    HW237278   2.316   0.512   9.710 -0.6273 -0.2995 -1.8746
 8548SOL     OW37279   3.576   0.608   1.248  0.9049 -0.2389  0.3021
 8548SOL    HW137280   3.590   0.542   1.316  2.5705  0.2443  0.4338
 8548SOL    HW237281   3.629   0.572   1.178 -1.1842 -0.8025 -0.9644
 8549SOL     OW37282   2.033   0.238  11.079  0.4738  0.3883  0.0349
 8549SOL    HW137283   2.112   0.188  11.059 -1.1091 -1.3079 -1.9195
 8549SOL    HW237284   1.967   0.192  11.027  1.2260 -0.6232 -0.0355
 8550SOL     OW37285   1.824   1.872   5.890 -0.6754  0.2514 -0.4648
 8550SOL    HW137286   1.843   1.867   5.984 -0.7921 -2.4885 -0.5729
 8550SOL    HW237287   1.839   1.780   5.869  0.5177  0.2135  0.5369
 8551SOL     OW37288   0.436   2.184   7.680  0.0913 -0.1700  0.8265
 8551SOL    HW137289   0.410   2.214   7.593  0.3654 -0.6150  0.5917
 8551SOL    HW237290   0.362   2.218   7.729  0.5038  1.7124  0.1427
 8552SOL     OW37291   1.529   3.416  11.813 -0.4974 -0.4876  0.5930
 8552SOL    HW137292   1.503   3.485  11.752 -0.1937  0.4626  1.5394
 8552SOL    HW237293   1.514   3.342  11.755  1.5575 -0.7071  0.3343
 8553SOL     OW37294   2.109   4.576  10.214  0.7389  0.2483 -0.7705
 8553SOL    HW137295   2.174   4.645  10.229 -0.1845  0.5950  1.5716
 8553SOL    HW237296   2.149   4.539  10.135  1.2408 -3.2057  1.1172
 8554SOL     OW37297   4.251   4.083  11.120 -0.2116 -0.5077  0.1477
 8554SOL    HW137298   4.164   4.047  11.140 -1.3454  0.3013 -3.4442
 8554SOL    HW237299   4.292   4.010  11.074 -0.3912  0.2777 -1.2492
 8555SOL     OW37300   2.304   1.758  12.065  0.1543 -0.0621 -0.3834
 8555SOL    HW137301   2.389   1.771  12.022  1.1486 -1.6769  1.1123
 8555SOL    HW237302   2.332   1.744  12.155 -0.0667 -0.1737 -0.3349
 8556SOL     OW37303   4.677   3.668  10.283  0.0959  0.4401 -0.2645
 8556SOL    HW137304   4.670   3.587  10.333  0.7497 -0.2400 -1.2622
 8556SOL    HW237305   4.643   3.739  10.336  2.1170  0.1953  1.3654
 8557SOL     OW37306   0.827   1.094   7.371  0.1582 -0.8430  0.0290
 8557SOL    HW137307   0.859   1.021   7.424 -1.4281 -1.8675 -0.4084
 8557SOL    HW237308   0.765   1.136   7.430  0.2966 -0.2903 -0.2161
 8558SOL     OW37309   3.722   1.181   6.224 -0.0893  0.1152 -0.2817
 8558SOL    HW137310   3.678   1.259   6.188 -0.8230 -0.3804 -0.4696
 8558SOL    HW237311   3.649   1.127   6.193  2.1524 -1.4197 -2.8512
 8559SOL     OW37312   2.059   1.563  15.384  0.4555  0.1230 -0.1996
 8559SOL    HW137313   2.047   1.481  15.432 -1.5229  0.1480 -0.6281
 8559SOL    HW237314   2.146   1.551  15.348  0.6969 -0.1640  0.4865
 8560SOL     OW37315   3.439   2.004  15.620  0.0607  0.4530  0.0131
 8560SOL    HW137316   3.527   1.967  15.622  0.0202  0.3478 -0.1246
 8560SOL    HW237317   3.453   2.093  15.589  0.8442 -0.2772 -1.7273
 8561SOL     OW37318   2.194   2.429   7.017 -0.0029 -0.3364 -0.8134
 8561SOL    HW137319   2.208   2.334   7.021  1.0223 -0.2260 -1.6496
 8561SOL    HW237320   2.128   2.436   7.086  0.7887  0.0746 -0.0993
 8562SOL     OW37321   1.143   2.887   5.530 -0.1031  0.0271 -0.2727
 8562SOL    HW137322   1.076   2.938   5.576  1.6781  1.2675  0.9675
 8562SOL    HW237323   1.092   2.812   5.500 -0.7562  0.3220  0.0890
 8563SOL     OW37324   4.651   2.147   6.745  0.2846 -0.0985  0.5628
 8563SOL    HW137325   4.574   2.148   6.803 -0.2792  0.4426 -0.1862
 8563SOL    HW237326   4.606   2.110   6.669  1.5796  1.0994 -0.7919
 8564SOL     OW37327   1.227   0.591   5.462  0.1927 -0.2191 -0.1216
 8564SOL    HW137328   1.132   0.584   5.456  0.1776  0.0243 -0.1811
 8564SOL    HW237329   1.238   0.576   5.556  0.3133  2.0459  0.2194
 8565SOL     OW37330   1.322   0.823  12.300 -0.3899  0.7047  0.4255
 8565SOL    HW137331   1.313   0.822  12.205 -1.3335 -0.1330  0.5329
 8565SOL    HW237332   1.310   0.737  12.339  1.2707 -0.2525 -1.1729
 8566SOL     OW37333   2.096   1.064  15.474 -0.1161 -0.2904 -0.0853
 8566SOL    HW137334   2.091   1.049  15.568  2.0078  0.7625  0.1773
 8566SOL    HW237335   2.172   1.007  15.460 -0.7019 -1.0452 -0.2633
 8567SOL     OW37336   0.623   2.847   9.563 -0.5849 -0.2054  0.1561
 8567SOL    HW137337   0.717   2.847   9.542 -0.3447 -0.8456  1.2447
 8567SOL    HW237338   0.596   2.926   9.515 -0.2867 -0.8232 -1.0428
 8568SOL     OW37339   0.800   0.166   3.304  0.3506  0.2866  0.1895
 8568SOL    HW137340   0.745   0.234   3.265  0.4228 -0.1607 -0.6928
 8568SOL    HW237341   0.883   0.209   3.325  0.8268 -0.6182  0.1766
 8569SOL     OW37342   3.218   3.812   6.143  0.0424 -0.3148  0.3880
 8569SOL    HW137343   3.295   3.868   6.137  0.0438 -0.3143  0.4111
 8569SOL    HW237344   3.248   3.748   6.078 -0.3121  0.6029 -0.6792
 8570SOL     OW37345   0.780   4.385  12.804  0.0306  0.3569 -0.3817
 8570SOL    HW137346   0.744   4.297  12.817  0.7582  0.6271  3.4044
 8570SOL    HW237347   0.801   4.413  12.893 -0.5628 -3.1204  0.8662
 8571SOL     OW37348   2.617   4.418   7.026 -0.6137  0.2466 -0.1866
 8571SOL    HW137349   2.687   4.404   6.962 -0.3155 -1.9824  0.5989
 8571SOL    HW237350   2.536   4.432   6.978 -0.6276 -0.2162 -0.3005
 8572SOL     OW37351   3.516   4.417   5.663  0.2781  0.0958 -0.7527
 8572SOL    HW137352   3.535   4.349   5.727  0.7479  0.1049 -0.8875
 8572SOL    HW237353   3.495   4.489   5.723 -1.2200 -1.2197  0.3035
 8573SOL     OW37354   3.902   3.194   2.613  0.4427 -0.2993  0.3375
 8573SOL    HW137355   3.832   3.129   2.624  0.9595 -0.9238 -0.0815
 8573SOL    HW237356   3.957   3.168   2.687  3.2349 -0.5823 -1.8948
 8574SOL     OW37357   1.324   4.615   8.726  0.0725  0.4293  0.3522
 8574SOL    HW137358   1.404   4.575   8.761  0.2775 -0.5023 -1.1627
 8574SOL    HW237359   1.288   4.667   8.797  1.8383  0.6175  1.1168
 8575SOL     OW37360   2.375   1.485   0.844  0.1891 -0.5148 -0.4005
 8575SOL    HW137361   2.426   1.412   0.810  1.9931  0.3576  0.4435
 8575SOL    HW237362   2.392   1.473   0.937  0.0116  1.0974 -0.1642
 8576SOL     OW37363   0.266   2.430  16.146  0.5085  0.3862  0.0353
 8576SOL    HW137364   0.265   2.341  16.183 -0.6428 -0.0103 -0.9623
 8576SOL    HW237365   0.342   2.457  16.198  2.2336 -0.8867 -1.8284
 8577SOL     OW37366   3.499   1.516   5.044  0.5467  0.0995  0.1073
 8577SOL    HW137367   3.513   1.450   4.975  0.4735 -0.9771  1.1325
 8577SOL    HW237368   3.587   1.542   5.070  0.8696 -1.3209  0.4308
 8578SOL     OW37369   0.172   2.783   4.495 -0.1746 -0.9604  0.5898
 8578SOL    HW137370   0.100   2.720   4.486 -1.0177  0.1998 -0.6028
 8578SOL    HW237371   0.201   2.785   4.404 -0.0226  1.4985  0.6965
 8579SOL     OW37372   0.218   0.691   5.928 -0.1525  0.5107 -0.3780
 8579SOL    HW137373   0.156   0.670   5.858  0.1610  0.8342 -0.7465
 8579SOL    HW237374   0.218   0.786   5.922  0.4906  0.5122 -0.2820
 8580SOL     OW37375   3.062   2.120   2.962 -0.1574  0.3335  0.1350
 8580SOL    HW137376   2.988   2.131   2.902  0.1245  1.0355 -0.0867
 8580SOL    HW237377   3.020   2.129   3.048 -1.4161 -1.4892 -0.2793
 8581SOL     OW37378   3.853   0.629  14.914 -0.1404 -0.5235 -0.1939
 8581SOL    HW137379   3.873   0.660  14.826 -0.2836  1.5681  0.5050
 8581SOL    HW237380   3.884   0.704  14.965 -0.6549  0.0735 -0.7583
 8582SOL     OW37381   4.008   1.791   4.518 -0.1566 -0.5953 -0.6139
 8582SOL    HW137382   3.947   1.821   4.451 -0.0684  0.6968 -0.1190
 8582SOL    HW237383   4.092   1.786   4.474  0.0300  0.9733 -0.4329
 8583SOL     OW37384   3.939   1.212   5.701  0.1402 -0.0000 -0.8909
 8583SOL    HW137385   3.990   1.226   5.780  1.3225  1.3228 -1.8913
 8583SOL    HW237386   4.004   1.164   5.650  0.8627  0.4890 -0.4339
 8584SOL     OW37387   2.395   3.827  13.571 -0.5413  0.5503 -0.0217
 8584SOL    HW137388   2.399   3.756  13.635  1.6969  1.0576  0.4094
 8584SOL    HW237389   2.318   3.800  13.521 -1.3134 -0.0647  1.5113
 8585SOL     OW37390   1.425   1.956   2.138 -0.1557  0.0923  0.0112
 8585SOL    HW137391   1.431   2.044   2.102  0.2299  0.6387  1.4175
 8585SOL    HW237392   1.520   1.946   2.140 -0.4208 -2.3648  0.2523
 8586SOL     OW37393   0.362   3.759   3.990 -0.3538 -0.1286 -0.2950
 8586SOL    HW137394   0.324   3.678   4.024 -1.4238  1.2840  1.8706
 8586SOL    HW237395   0.326   3.765   3.902  3.5329 -0.2124 -1.8836
 8587SOL     OW37396   1.718   1.900  11.089  0.5126  0.2069 -0.0694
 8587SOL    HW137397   1.743   1.991  11.069  0.5649 -0.3017 -2.3684
 8587SOL    HW237398   1.673   1.887  11.006 -0.8489  0.3480  0.6460
 8588SOL     OW37399   2.073   4.460   7.202 -0.1498  0.2201  0.4426
 8588SOL    HW137400   1.980   4.440   7.191 -0.0408  0.4343 -0.9303
 8588SOL    HW237401   2.101   4.493   7.116  1.7690 -2.3437  0.1009
 8589SOL     OW37402   4.330   0.786   5.469 -0.3243 -0.4046  0.0835
 8589SOL    HW137403   4.310   0.876   5.442  0.1620  0.0300  1.2144
 8589SOL    HW237404   4.394   0.795   5.539 -1.0405  2.4123  0.3765
 8590SOL     OW37405   0.399   0.190  12.272  0.0553  0.0864  0.2253
 8590SOL    HW137406   0.472   0.248  12.250  0.9778 -1.5405 -0.9969
 8590SOL    HW237407   0.398   0.186  12.368  0.5671 -1.4639  0.1629
 8591SOL     OW37408   4.510   1.929   6.190 -0.1055 -0.1267  0.3449
 8591SOL    HW137409   4.467   1.972   6.264 -1.4204  0.8412 -0.9694
 8591SOL    HW237410   4.599   1.958   6.209  0.7077 -1.4857 -1.3300
 8592SOL     OW37411   3.371   3.741   8.544 -0.2522  0.1046  0.3393
 8592SOL    HW137412   3.412   3.823   8.514 -1.1224  0.0131 -1.0717
 8592SOL    HW237413   3.288   3.787   8.554  0.8596  1.9940  1.0622
 8593SOL     OW37414   1.112   1.417   1.463  0.3805 -0.1032 -0.0263
 8593SOL    HW137415   1.200   1.452   1.449 -0.4623  1.3082 -1.8963
 8593SOL    HW237416   1.104   1.431   1.557  0.0843  3.3660 -0.5691
 8594SOL     OW37417   3.639   3.216   9.423 -0.2321  0.3025  0.1580
 8594SOL    HW137418   3.591   3.160   9.362 -0.3450  0.6033 -0.0299
 8594SOL    HW237419   3.646   3.161   9.501 -0.8220 -1.0714 -0.7545
 8595SOL     OW37420   0.068   4.325   6.743 -0.0440 -0.8297  0.7263
 8595SOL    HW137421   0.108   4.250   6.699 -0.6951 -0.3847 -0.6417
 8595SOL    HW237422   0.038   4.273   6.818  0.0843 -2.2523 -0.2089
 8596SOL     OW37423   3.944   3.465  13.951 -0.6913  0.9235 -0.6511
 8596SOL    HW137424   3.953   3.560  13.964 -0.1551  0.5737  1.5289
 8596SOL    HW237425   3.915   3.470  13.860 -1.8251  0.3834 -0.3208
 8597SOL     OW37426   1.767   3.669   6.909  0.1114 -0.0397  0.3951
 8597SOL    HW137427   1.830   3.618   6.857 -0.5318  0.7514 -1.1599
 8597SOL    HW237428   1.775   3.640   7.000  0.2220  0.5027  0.5538
 8598SOL     OW37429   2.778   2.733  15.764  0.6727 -0.4767 -0.0095
 8598SOL    HW137430   2.762   2.765  15.853 -2.8007 -0.9260 -0.4646
 8598SOL    HW237431   2.708   2.670  15.748  0.4823  0.2071 -1.9080
 8599SOL     OW37432   2.303   4.069   1.305 -0.3688  0.0070 -0.2135
 8599SOL    HW137433   2.321   3.979   1.278  1.9902  0.0063  1.4071
 8599SOL    HW237434   2.209   4.060   1.325 -0.0708  0.8251  1.5884
 8600SOL     OW37435   2.128   0.167   3.344 -0.2189 -0.4078 -0.2584
 8600SOL    HW137436   2.111   0.241   3.286 -1.9874  1.4433  2.6227
 8600SOL    HW237437   2.213   0.135   3.315  0.7172  2.1554 -0.3961
 8601SOL     OW37438   2.390   2.608   8.038 -0.9909  0.5840  0.3615
 8601SOL    HW137439   2.312   2.577   8.083  0.0099 -0.2986  1.5045
 8601SOL    HW237440   2.391   2.555   7.958 -1.1483  0.3664  0.5036
 8602SOL     OW37441   2.139   4.514  15.070  0.1381 -0.2385 -0.3495
 8602SOL    HW137442   2.143   4.430  15.024 -3.3149  0.0006 -1.0766
 8602SOL    HW237443   2.092   4.564  15.002 -0.1971  2.4973  1.9038
 8603SOL     OW37444   1.146   2.102   5.452 -0.0071 -0.0732 -0.4237
 8603SOL    HW137445   1.134   2.180   5.398  1.3717 -0.9170 -1.9745
 8603SOL    HW237446   1.055   2.080   5.471 -0.0358 -0.8076 -1.3840
 8604SOL     OW37447   1.398   3.229   3.716  0.0892 -0.3561 -0.1399
 8604SOL    HW137448   1.373   3.308   3.764  0.6071  0.3160 -0.9812
 8604SOL    HW237449   1.482   3.255   3.678  0.8235  0.7784  2.2188
 8605SOL     OW37450   1.088   1.605   4.656  0.0908  0.1518 -0.2981
 8605SOL    HW137451   1.131   1.690   4.666  0.2720  0.0890 -0.5452
 8605SOL    HW237452   1.001   1.629   4.623 -0.8825 -1.1915  1.3106
 8606SOL     OW37453   2.074   1.472   8.361  0.4766  0.1090 -0.2229
 8606SOL    HW137454   2.118   1.487   8.277  0.8795 -0.9966 -0.2060
 8606SOL    HW237455   1.982   1.472   8.334  0.6364  4.9294 -0.7521
 8607SOL     OW37456   2.164   0.156   3.597  0.3385  0.4453 -0.3570
 8607SOL    HW137457   2.216   0.236   3.603  1.0975 -0.0360 -0.5046
 8607SOL    HW237458   2.136   0.164   3.506 -1.1276 -1.4315 -0.0744
 8608SOL     OW37459   2.715   2.626  13.741  0.2275  0.5266  0.4258
 8608SOL    HW137460   2.727   2.532  13.755  2.8891  0.6776 -0.8521
 8608SOL    HW237461   2.765   2.629  13.659 -0.0769 -1.2403  0.1851
 8609SOL     OW37462   4.628   3.736   9.280 -0.0909 -0.8044  0.1132
 8609SOL    HW137463   4.605   3.706   9.192  0.0294 -0.6650  0.0349
 8609SOL    HW237464   4.576   3.678   9.336  0.1567 -2.0390 -0.9353
 8610SOL     OW37465   4.087   0.004  10.062  0.0495 -0.2433 -0.1687
 8610SOL    HW137466   4.033   4.728   9.985  2.7128  1.1270 -2.3318
 8610SOL    HW237467   4.026   0.014  10.135  2.9447 -0.4860  2.2953
 8611SOL     OW37468   0.479   4.403   3.600 -0.0189  0.4089 -0.3584
 8611SOL    HW137469   0.553   4.460   3.579 -0.2987  0.9108  0.0166
 8611SOL    HW237470   0.424   4.442   3.531 -1.5672 -2.9775 -1.0721
 8612SOL     OW37471   1.115   0.713   8.693  0.1060 -0.7380  0.3006
 8612SOL    HW137472   1.210   0.722   8.692  0.1941 -1.7953 -0.8191
 8612SOL    HW237473   1.092   0.790   8.745  2.9899 -0.9747  1.9534
 8613SOL     OW37474   3.695   3.044  12.111 -0.4001  0.5156 -0.4124
 8613SOL    HW137475   3.787   3.020  12.099 -0.8714 -1.1513 -0.5822
 8613SOL    HW237476   3.704   3.125  12.161 -0.9931  0.5926 -0.4302
 8614SOL     OW37477   3.571   0.284   4.936  0.3808  0.2678 -0.0731
 8614SOL    HW137478   3.628   0.287   5.012 -2.2743 -0.5702  1.9699
 8614SOL    HW237479   3.639   0.279   4.870 -1.3435  0.9210 -1.9095
 8615SOL     OW37480   2.475   2.297  12.126 -0.6260 -0.1756 -0.4920
 8615SOL    HW137481   2.489   2.204  12.108 -2.4247 -0.6882  0.6802
 8615SOL    HW237482   2.395   2.311  12.074 -1.4117 -0.7057  0.5750
 8616SOL     OW37483   4.094   2.700   2.909 -0.4287  0.1168 -0.0010
 8616SOL    HW137484   4.138   2.763   2.965 -1.8230  2.1845 -1.2200
 8616SOL    HW237485   4.024   2.676   2.969 -2.1667 -1.2379 -2.5451
 8617SOL     OW37486   2.202   2.837  17.280 -0.2017  0.5008 -0.1442
 8617SOL    HW137487   2.233   2.753  17.314 -0.3337 -0.1085 -1.5258
 8617SOL    HW237488   2.174   2.875  17.364  0.8488  0.4535  0.2212
 8618SOL     OW37489   0.112   2.541   2.092 -1.1353  0.5577  0.0495
 8618SOL    HW137490   0.093   2.634   2.104 -0.0022  0.5375  1.9632
 8618SOL    HW237491   0.109   2.533   1.996  1.5474  0.7675 -0.0511
 8619SOL     OW37492   3.885   1.726  10.522 -0.2016  0.8434 -0.4298
 8619SOL    HW137493   3.796   1.732  10.487 -0.6539  3.7615  1.2548
 8619SOL    HW237494   3.929   1.730  10.437 -1.0413  0.7712 -0.8683
 8620SOL     OW37495   0.454   0.607   6.008  0.3572 -0.7333  0.1435
 8620SOL    HW137496   0.363   0.623   5.981  0.1131 -0.6164  1.0203
 8620SOL    HW237497   0.452   0.602   6.104 -1.4908  2.6365  0.3067
 8621SOL     OW37498   0.200   3.713   2.172  0.4237  0.0261 -0.6308
 8621SOL    HW137499   0.263   3.645   2.149 -1.2053 -1.7024  0.0969
 8621SOL    HW237500   0.236   3.780   2.113 -0.7142  1.8732  0.7463
 8622SOL     OW37501   1.177   2.124   3.800  0.3724 -0.3068 -0.3284
 8622SOL    HW137502   1.243   2.097   3.736 -2.0039 -1.0544 -2.4850
 8622SOL    HW237503   1.228   2.187   3.850 -2.5460  1.7604  0.0332
 8623SOL     OW37504   2.532   1.024   8.912 -0.0099  0.2873 -0.5750
 8623SOL    HW137505   2.525   0.952   8.850  0.9991  0.4726 -0.9010
 8623SOL    HW237506   2.463   1.004   8.974  1.2942 -3.0426 -0.2004
 8624SOL     OW37507   0.229   2.496  12.786  0.1611  0.2864  0.1360
 8624SOL    HW137508   0.324   2.487  12.776  0.1337 -2.1760  2.1442
 8624SOL    HW237509   0.193   2.478  12.699  1.4023 -0.0015 -0.3265
 8625SOL     OW37510   0.221   3.104   7.017  0.5335 -0.3789  0.3332
 8625SOL    HW137511   0.175   3.127   7.098 -2.7498 -1.6735 -1.1381
 8625SOL    HW237512   0.146   3.124   6.961 -0.1019 -1.9608  0.6240
 8626SOL     OW37513   0.185   4.025  11.937 -0.7298  0.1673 -0.3405
 8626SOL    HW137514   0.275   4.050  11.958 -0.6359  0.6042 -1.2777
 8626SOL    HW237515   0.147   4.104  11.973  0.6752  0.5023  0.4235
 8627SOL     OW37516   1.001   3.636   2.733 -0.1605 -0.4423 -0.1936
 8627SOL    HW137517   1.078   3.609   2.683 -0.6483 -1.2761 -0.4998
 8627SOL    HW237518   0.954   3.706   2.689 -1.1648 -0.2481  1.1866
 8628SOL     OW37519   1.796   1.521  12.635 -0.0687 -0.0142  0.5014
 8628SOL    HW137520   1.768   1.455  12.571  0.0756 -0.8743  1.3276
 8628SOL    HW237521   1.821   1.465  12.708  1.5960 -0.5457 -0.4652
 8629SOL     OW37522   3.522   2.276   6.112  0.3859  0.5950  0.0433
 8629SOL    HW137523   3.564   2.227   6.183  0.3314 -0.6427 -0.7802
 8629SOL    HW237524   3.433   2.288   6.147  0.0668 -0.6187 -0.3464
 8630SOL     OW37525   4.073   1.399   7.312 -0.2223 -0.1632 -0.2975
 8630SOL    HW137526   4.026   1.377   7.393  0.5274 -1.3987 -0.2094
 8630SOL    HW237527   4.131   1.468   7.344  0.2373  0.4074 -2.3644
 8631SOL     OW37528   2.856   0.812   6.799 -0.0212 -0.1512  0.5045
 8631SOL    HW137529   2.800   0.879   6.760  0.6230 -1.6270 -3.0303
 8631SOL    HW237530   2.847   0.829   6.892  1.3568  1.1022  0.4219
 8632SOL     OW37531   1.117   3.636   3.256  0.2587 -0.4391  0.0782
 8632SOL    HW137532   1.091   3.552   3.293  1.2217 -0.9274 -0.3470
 8632SOL    HW237533   1.113   3.615   3.163 -0.9351 -1.9987  0.4885
 8633SOL     OW37534   0.056   1.573   6.123  0.6737  0.6702 -0.2798
 8633SOL    HW137535   0.002   1.601   6.197 -0.5082 -2.7591  0.1766
 8633SOL    HW237536   0.062   1.478   6.137  1.5113  1.0009  1.6946
 8634SOL     OW37537   1.809   1.086   5.798  0.0548 -0.3719  0.3392
 8634SOL    HW137538   1.859   1.027   5.743  0.4512 -0.0372  0.3362
 8634SOL    HW237539   1.861   1.086   5.878  0.6465  0.5038 -0.0472
 8635SOL     OW37540   3.358   0.448   8.673 -0.3688 -0.1821 -0.6186
 8635SOL    HW137541   3.447   0.426   8.700 -0.7238 -0.3977  0.3502
 8635SOL    HW237542   3.305   0.372   8.697  0.8728 -0.5772  0.8860
 8636SOL     OW37543   3.808   2.349  17.012 -0.2079  0.4382  0.0432
 8636SOL    HW137544   3.845   2.438  17.011  0.8479  0.0262  2.3090
 8636SOL    HW237545   3.748   2.369  17.083  0.7559 -0.6009  1.1373
 8637SOL     OW37546   2.935   3.305   3.328 -0.1340  0.0373  0.0016
 8637SOL    HW137547   2.951   3.374   3.393 -0.7473 -0.2332  0.4437
 8637SOL    HW237548   2.842   3.325   3.315 -0.3046 -0.5404  0.3403
 8638SOL     OW37549   2.971   1.695  12.530 -0.1493  0.2991  0.3386
 8638SOL    HW137550   3.037   1.763  12.534 -0.8219  0.9797 -0.1787
 8638SOL    HW237551   2.903   1.742  12.482 -1.1223  0.8465  2.2462
 8639SOL     OW37552   3.097   2.260   8.186  0.1392 -0.5780  0.1634
 8639SOL    HW137553   3.144   2.239   8.267 -0.1978 -1.5748  0.0858
 8639SOL    HW237554   3.175   2.253   8.131  0.4402  1.9818  0.2351
 8640SOL     OW37555   4.355   2.334   5.814  0.3022  0.1408  0.1370
 8640SOL    HW137556   4.425   2.273   5.790  1.0177  0.7303  0.7290
 8640SOL    HW237557   4.297   2.306   5.743 -0.0253 -0.5035  0.6538
 8641SOL     OW37558   0.778   4.060   4.136 -0.9804  0.4600 -0.1952
 8641SOL    HW137559   0.871   4.035   4.136 -0.8760  0.8429 -0.3616
 8641SOL    HW237560   0.737   3.995   4.079  0.2074 -0.7770  0.3629
 8642SOL     OW37561   4.295   2.759   9.240 -0.2310 -0.0499  0.3771
 8642SOL    HW137562   4.379   2.727   9.208 -0.4844 -1.9837  1.6515
 8642SOL    HW237563   4.311   2.853   9.233  0.7020 -0.4835 -3.5586
 8643SOL     OW37564   3.316   2.832   7.056  0.1968 -0.3957  0.5176
 8643SOL    HW137565   3.295   2.912   7.007 -0.7873  1.0913  3.3417
 8643SOL    HW237566   3.411   2.844   7.060  0.2051 -0.4765  0.5705
 8644SOL     OW37567   4.568   2.395   9.186  0.0716  0.3273  0.1707
 8644SOL    HW137568   4.622   2.374   9.110 -2.5928 -1.1066 -1.3057
 8644SOL    HW237569   4.636   2.442   9.235  0.4819 -0.6720  0.5465
 8645SOL     OW37570   4.281   1.721   2.628 -0.3297  0.0415 -0.8241
 8645SOL    HW137571   4.333   1.657   2.579  1.9326  0.4206  1.1211
 8645SOL    HW237572   4.196   1.703   2.588 -1.0426 -0.1934  0.7949
 8646SOL     OW37573   3.413   3.783   2.902  0.4214  0.0713 -0.4755
 8646SOL    HW137574   3.370   3.718   2.846 -2.3601  0.3750  1.3089
 8646SOL    HW237575   3.339   3.821   2.951  1.0675 -0.5009  0.9535
 8647SOL     OW37576   0.539   2.561  15.638  0.1211 -0.3216  0.3336
 8647SOL    HW137577   0.613   2.594  15.689  0.3119 -1.4868  0.8138
 8647SOL    HW237578   0.474   2.566  15.708  0.2580  1.5170  0.3345
 8648SOL     OW37579   1.976   0.425   6.968 -0.2268 -0.4275 -0.3806
 8648SOL    HW137580   1.954   0.506   7.014 -0.6750 -0.5136 -0.4391
 8648SOL    HW237581   2.050   0.459   6.918  0.5492 -1.3535  0.1287
 8649SOL     OW37582   3.190   4.576   3.945 -0.3983 -0.3649  0.6216
 8649SOL    HW137583   3.248   4.572   3.868  1.4070  0.8148  1.9215
 8649SOL    HW237584   3.252   4.589   4.017 -0.5432 -0.8450  0.8363
 8650SOL     OW37585   2.812   2.570  16.924 -0.1661 -0.4426 -0.0450
 8650SOL    HW137586   2.849   2.487  16.954  0.0198 -0.5690 -0.6300
 8650SOL    HW237587   2.873   2.626  16.973  0.0217 -0.9748  0.3315
 8651SOL     OW37588   2.550   3.742  16.882 -0.4728 -1.1176  0.2675
 8651SOL    HW137589   2.598   3.774  16.958  0.2403  0.0461 -0.6755
 8651SOL    HW237590   2.464   3.721  16.918 -0.6520 -1.7712 -0.5501
 8652SOL     OW37591   0.439   2.106   7.168  0.2194 -0.6244 -0.0888
 8652SOL    HW137592   0.434   2.077   7.259 -2.3768  0.5134  0.1366
 8652SOL    HW237593   0.416   2.029   7.115 -1.7890  0.8709 -1.3916
 8653SOL     OW37594   3.679   3.557   7.824 -0.6752  0.7771  0.6329
 8653SOL    HW137595   3.705   3.499   7.895  0.2401 -0.3113 -0.5811
 8653SOL    HW237596   3.668   3.639   7.872 -2.0428  1.3140 -0.5862
 8654SOL     OW37597   2.524   4.544   6.531 -0.0639  0.6631  0.7266
 8654SOL    HW137598   2.550   4.476   6.594 -0.0494  1.5980  1.7244
 8654SOL    HW237599   2.475   4.477   6.483 -0.6434  0.0441  2.1980
 8655SOL     OW37600   2.940   0.249   7.369  0.3366  0.0644 -0.1665
 8655SOL    HW137601   2.902   0.336   7.362 -0.5948 -0.4096 -1.2291
 8655SOL    HW237602   2.928   0.237   7.463  1.3106  0.8185  0.0507
 8656SOL     OW37603   4.569   4.263  13.903 -1.0697 -0.2881  0.7680
 8656SOL    HW137604   4.480   4.290  13.883 -0.3611  0.6550 -1.0678
 8656SOL    HW237605   4.572   4.174  13.869 -1.1048  0.3312 -0.8568
 8657SOL     OW37606   2.204   3.685   8.072  0.3503  0.0694  0.3435
 8657SOL    HW137607   2.271   3.621   8.094 -0.5856 -1.2163 -0.5913
 8657SOL    HW237608   2.149   3.627   8.020 -0.6766  0.7873  0.6351
 8658SOL     OW37609   4.586   2.244  10.056  0.4315 -0.1779 -0.4958
 8658SOL    HW137610   4.643   2.321  10.050  1.0121 -0.6571 -1.1022
 8658SOL    HW237611   4.633   2.187   9.995  0.1022 -0.4889 -0.4528
 8659SOL     OW37612   4.657   2.070   8.962 -0.1588  0.6290 -0.7059
 8659SOL    HW137613   4.662   1.978   8.987  0.1764  0.7611 -0.2851
 8659SOL    HW237614   4.637   2.099   9.051  0.0326  0.8699 -0.7399
 8660SOL     OW37615   1.937   4.402  15.610  0.4403  0.6412 -0.4134
 8660SOL    HW137616   1.880   4.478  15.609  0.6162  0.7536 -1.9484
 8660SOL    HW237617   1.876   4.331  15.590  2.9602 -1.6429 -0.0477
 8661SOL     OW37618   2.850   3.495   3.059 -0.4297  0.8285  0.4420
 8661SOL    HW137619   2.866   3.551   3.135  0.0089 -1.7247  2.2407
 8661SOL    HW237620   2.909   3.530   2.993  0.3169 -1.9933 -0.3838
 8662SOL     OW37621   2.983   3.475   3.554 -0.0889  0.0148  0.0916
 8662SOL    HW137622   3.055   3.450   3.612 -1.5172 -4.4764 -0.1082
 8662SOL    HW237623   3.004   3.568   3.549 -2.9326  0.6833  0.8268
 8663SOL     OW37624   1.411   0.569  16.164 -0.0265 -0.1811 -0.5204
 8663SOL    HW137625   1.416   0.481  16.204 -4.6264 -0.9631 -1.6225
 8663SOL    HW237626   1.417   0.616  16.247  2.0607  2.3171 -2.1106
 8664SOL     OW37627   3.598   3.744   5.150  0.2470 -0.5390 -0.1587
 8664SOL    HW137628   3.537   3.817   5.138 -0.1524 -0.5159  1.9725
 8664SOL    HW237629   3.649   3.738   5.069  0.1818 -1.4499 -0.1319
 8665SOL     OW37630   3.383   3.581   7.613 -0.7919 -0.1808  0.2793
 8665SOL    HW137631   3.455   3.520   7.630  0.2493  0.6297 -1.1753
 8665SOL    HW237632   3.408   3.662   7.657 -0.2112 -0.9932  1.4568
 8666SOL     OW37633   2.499   2.460   6.232  0.0821 -0.0632  0.1598
 8666SOL    HW137634   2.435   2.462   6.160 -0.3248 -2.9702  0.4651
 8666SOL    HW237635   2.445   2.486   6.307 -0.4404  0.5930 -0.4394
 8667SOL     OW37636   4.055   3.518   3.037 -0.2118 -0.1856 -0.2095
 8667SOL    HW137637   4.018   3.601   3.007  1.6131  0.2888 -1.1693
 8667SOL    HW237638   4.138   3.503   2.992 -0.5036  1.6574 -1.3849
 8668SOL     OW37639   0.152   4.411   5.480 -0.5700  0.4617 -0.0202
 8668SOL    HW137640   0.164   4.317   5.473  3.2162  0.9927 -0.5719
 8668SOL    HW237641   0.119   4.422   5.569  0.4218 -0.3417  0.4368
 8669SOL     OW37642   2.077   0.610   5.560 -0.1157  0.4709  0.4165
 8669SOL    HW137643   2.110   0.582   5.475 -2.8812 -1.8074  0.1486
 8669SOL    HW237644   2.003   0.658   5.523  0.1401 -0.9410 -1.8933
 8670SOL     OW37645   0.616   2.804   7.411  0.3333 -0.1177  0.8260
 8670SOL    HW137646   0.667   2.884   7.397  1.6462 -1.2271 -0.7990
 8670SOL    HW237647   0.526   2.834   7.410 -0.0262 -1.2082  0.7667
 8671SOL     OW37648   3.658   0.768   2.102  0.2741  0.2439  0.1386
 8671SOL    HW137649   3.636   0.676   2.114  0.3143  0.5369  2.3189
 8671SOL    HW237650   3.752   0.768   2.118  0.1817  2.1721  0.7248
 8672SOL     OW37651   3.760   2.467   6.902  0.0605 -0.0759 -0.4732
 8672SOL    HW137652   3.716   2.492   6.983 -0.9621 -0.4021 -0.9159
 8672SOL    HW237653   3.806   2.386   6.923 -0.1310 -0.3231 -0.9920
 8673SOL     OW37654   0.413   1.934   6.014 -0.2358 -0.0087 -0.6948
 8673SOL    HW137655   0.407   1.840   6.032 -0.2695  0.1457  0.0999
 8673SOL    HW237656   0.464   1.968   6.088  1.0493  1.7424 -2.3827
 8674SOL     OW37657   2.796   2.806   2.114 -0.8160 -0.2301  0.2155
 8674SOL    HW137658   2.734   2.734   2.105  0.0619 -1.0600  0.7737
 8674SOL    HW237659   2.794   2.862   2.037  1.0960  1.7078  1.5924
 8675SOL     OW37660   3.496   1.348  15.646  0.2328  0.2769 -0.1793
 8675SOL    HW137661   3.414   1.299  15.653 -0.1040  1.2697  2.8932
 8675SOL    HW237662   3.478   1.430  15.691 -1.1174  0.5942 -1.3211
 8676SOL     OW37663   4.431   1.407   6.199 -0.1368  0.1371 -0.1869
 8676SOL    HW137664   4.350   1.375   6.237  2.2169 -3.1884  2.0703
 8676SOL    HW237665   4.482   1.413   6.280  0.0882  0.8470 -0.3733
 8677SOL     OW37666   0.593   3.213  11.575 -0.2242 -0.9336  0.5798
 8677SOL    HW137667   0.616   3.267  11.499  2.8066 -0.3835  1.9051
 8677SOL    HW237668   0.515   3.258  11.608  1.3577  2.8237 -0.8536
 8678SOL     OW37669   1.802   2.556   5.157 -0.0013 -0.0642  0.0686
 8678SOL    HW137670   1.734   2.563   5.090  0.3405 -0.3831 -0.3135
 8678SOL    HW237671   1.865   2.500   5.112 -0.4105 -0.5706  0.1252
 8679SOL     OW37672   1.865   0.279   8.879  0.1622 -0.4033 -0.0186
 8679SOL    HW137673   1.833   0.337   8.949  0.1690 -0.8259  0.3330
 8679SOL    HW237674   1.928   0.336   8.834 -0.6182  0.0346 -0.5491
 8680SOL     OW37675   0.466   1.345   8.650 -0.4864  0.2723  0.5815
 8680SOL    HW137676   0.479   1.270   8.592 -0.0799  1.9188 -1.4082
 8680SOL    HW237677   0.376   1.374   8.636 -0.8388 -1.3504 -0.5975
 8681SOL     OW37678   4.407   3.867  16.426  0.3649  0.2071 -0.2668
 8681SOL    HW137679   4.318   3.900  16.418 -0.3589 -1.7829 -0.2563
 8681SOL    HW237680   4.437   3.921  16.500  1.3915 -0.0184 -0.5216
 8682SOL     OW37681   2.890   3.625   1.966 -0.3298  0.1034  0.5854
 8682SOL    HW137682   2.854   3.571   2.036  0.8016 -2.8962 -1.1615
 8682SOL    HW237683   2.830   3.698   1.986  0.1177  0.2157  1.4987
 8683SOL     OW37684   0.457   3.123   7.219  0.3555  0.0447 -0.3449
 8683SOL    HW137685   0.405   3.170   7.285 -0.9436 -0.0945 -1.2788
 8683SOL    HW237686   0.390   3.080   7.165  0.7935 -0.1782 -0.7067
 8684SOL     OW37687   3.614   3.385   6.478  0.1451 -0.3166 -0.0104
 8684SOL    HW137688   3.605   3.471   6.518 -0.6877 -0.8317  0.9133
 8684SOL    HW237689   3.527   3.346   6.486 -0.5468  1.1074 -0.5803
 8685SOL     OW37690   4.236   3.034   4.314  0.2351 -0.4083  0.5875
 8685SOL    HW137691   4.277   2.956   4.279  0.3862 -0.0949  0.0628
 8685SOL    HW237692   4.317   3.083   4.331 -0.8465  2.0360 -1.2675
 8686SOL     OW37693   0.522   3.540   8.049 -0.7529 -0.6356 -0.1018
 8686SOL    HW137694   0.569   3.569   8.127 -0.5207 -0.0212 -0.4638
 8686SOL    HW237695   0.462   3.483   8.096  1.9064 -2.6870  0.7658
 8687SOL     OW37696   0.923   1.907   8.089 -0.3906 -0.1156 -0.4561
 8687SOL    HW137697   0.883   1.959   8.158 -0.0112  0.8870 -0.9760
 8687SOL    HW237698   0.850   1.888   8.030 -0.7632  1.8872 -0.6538
 8688SOL     OW37699   1.999   3.410   7.104 -0.5637 -0.4011 -0.1634
 8688SOL    HW137700   1.915   3.424   7.060  0.2293  0.5758 -1.3786
 8688SOL    HW237701   1.965   3.330   7.143 -0.4384 -0.4348 -0.1213
 8689SOL     OW37702   2.218   2.413  12.659 -0.2208  0.4292 -0.0420
 8689SOL    HW137703   2.294   2.390  12.605  0.8684 -2.7260  2.8297
 8689SOL    HW237704   2.257   2.492  12.697  0.9242 -0.8083  1.3739
 8690SOL     OW37705   1.265   4.541   1.664  0.0214  0.0667 -1.2491
 8690SOL    HW137706   1.220   4.619   1.631  0.0356  0.9624  0.8326
 8690SOL    HW237707   1.323   4.577   1.731 -0.9592 -0.5533 -0.0857
 8691SOL     OW37708   0.057   3.881   6.538 -0.0880  0.5192  1.1765
 8691SOL    HW137709   0.017   3.919   6.616  0.9706  0.8271  1.5779
 8691SOL    HW237710   4.718   3.833   6.516  1.4039 -0.7664 -1.4461
 8692SOL     OW37711   1.307   2.443   4.150 -0.0445  0.8045  0.0865
 8692SOL    HW137712   1.267   2.504   4.211  0.7033  1.3355  0.0470
 8692SOL    HW237713   1.395   2.482   4.148 -0.9010  2.7871  0.6740
 8693SOL     OW37714   4.513   1.898   2.848  0.5060 -0.0604  0.0636
 8693SOL    HW137715   4.555   1.940   2.922  0.9916 -0.3266 -0.0645
 8693SOL    HW237716   4.575   1.828   2.828 -0.8391 -1.3363  0.3379
 8694SOL     OW37717   3.862   2.183   5.093  0.1937  0.0265 -0.0241
 8694SOL    HW137718   3.812   2.103   5.108  0.6249 -0.0269  1.2146
 8694SOL    HW237719   3.844   2.240   5.168 -0.7247  2.4764 -2.1270
 8695SOL     OW37720   1.172   1.257   5.709 -1.2241  0.2431 -0.2335
 8695SOL    HW137721   1.172   1.236   5.802 -0.5850  0.7370 -0.1223
 8695SOL    HW237722   1.197   1.172   5.672 -0.7179  1.0549 -1.7537
 8696SOL     OW37723   0.796   1.236   8.373 -0.1133  0.2082  0.4479
 8696SOL    HW137724   0.844   1.160   8.407  0.4168 -0.0426 -0.8470
 8696SOL    HW237725   0.796   1.294   8.449  0.6655  0.4815  0.2513
 8697SOL     OW37726   1.066   4.187   7.203  0.1981  0.0397  0.4741
 8697SOL    HW137727   1.156   4.190   7.169  0.1970  0.1681  0.4795
 8697SOL    HW237728   1.064   4.096   7.232 -0.6690 -0.1294 -0.1408
 8698SOL     OW37729   4.356   3.648  15.791  0.3679 -0.2034  0.2005
 8698SOL    HW137730   4.381   3.655  15.699  0.8122 -2.2976  0.1616
 8698SOL    HW237731   4.333   3.555  15.788 -0.1867 -0.0777  0.6082
 8699SOL     OW37732   1.756   3.297   7.543 -0.3956 -0.0627  0.2086
 8699SOL    HW137733   1.682   3.240   7.564 -1.4134  1.5792  1.0900
 8699SOL    HW237734   1.782   3.331   7.628 -0.4694  0.0788  0.1747
 8700SOL     OW37735   0.893   4.582   3.203 -0.2022  0.3500 -0.1179
 8700SOL    HW137736   0.875   4.605   3.294 -0.0706 -1.5480  0.4037
 8700SOL    HW237737   0.874   4.664   3.158  2.4898  0.0601 -1.7988
 8701SOL     OW37738   2.258   2.931   3.498  0.4800  0.6697  0.4442
 8701SOL    HW137739   2.235   3.022   3.517 -2.4077  0.4652 -2.0965
 8701SOL    HW237740   2.296   2.912   3.584  0.5993  1.7012  0.6174
 8702SOL     OW37741   3.451   1.384  12.412 -0.0363 -0.4402 -0.1368
 8702SOL    HW137742   3.445   1.289  12.402  2.0233 -0.3897 -1.9509
 8702SOL    HW237743   3.542   1.396  12.384 -1.0332  0.0490 -3.2229
 8703SOL     OW37744   2.102   0.908   1.521 -0.0402 -0.1223 -0.0728
 8703SOL    HW137745   2.065   0.849   1.586 -0.3191 -0.9925 -1.0088
 8703SOL    HW237746   2.031   0.907   1.456 -0.5040  0.5134  0.4250
 8704SOL     OW37747   3.480   4.402   7.001 -0.2584  0.2653  0.0490
 8704SOL    HW137748   3.420   4.389   6.929 -1.7149  1.6801  1.0175
 8704SOL    HW237749   3.491   4.496   7.011 -0.9909  0.5627 -2.0177
 8705SOL     OW37750   0.991   0.529   3.528 -0.1821 -0.1564  0.0574
 8705SOL    HW137751   1.039   0.574   3.459  1.1143 -0.6387  0.6361
 8705SOL    HW237752   0.914   0.585   3.531 -0.5308 -0.6747  0.9480
 8706SOL     OW37753   1.649   0.679   1.907 -0.5950  0.7062 -0.1919
 8706SOL    HW137754   1.640   0.764   1.952 -0.6713  0.3237  0.5152
 8706SOL    HW237755   1.732   0.657   1.949 -1.7392 -0.6666  1.3544
 8707SOL     OW37756   3.244   0.970   3.594 -0.4962 -0.7341  0.5081
 8707SOL    HW137757   3.251   1.021   3.513  1.8092 -0.7752  0.6875
 8707SOL    HW237758   3.330   0.986   3.631 -0.3875  1.7457 -0.8087
 8708SOL     OW37759   1.790   2.085   6.147 -0.0364  0.2340 -0.6072
 8708SOL    HW137760   1.858   2.031   6.109  1.4212  0.0233  2.2644
 8708SOL    HW237761   1.711   2.038   6.118  1.7726 -2.3284 -1.3335
 8709SOL     OW37762   2.324   3.093   9.274 -0.1307 -0.4094  0.1004
 8709SOL    HW137763   2.331   2.999   9.290  1.6055 -0.3763 -0.4660
 8709SOL    HW237764   2.230   3.107   9.270  0.0650  0.6849 -0.9057
 8710SOL     OW37765   1.167   1.871   2.210  0.1506  0.7110  0.4046
 8710SOL    HW137766   1.246   1.924   2.205 -0.9544  2.5994  2.8380
 8710SOL    HW237767   1.124   1.914   2.136 -2.9309 -1.1759  1.0973
 8711SOL     OW37768   1.483   0.167  12.497 -0.1150  0.4433  0.0253
 8711SOL    HW137769   1.552   0.178  12.432  0.4782  0.4266  0.6490
 8711SOL    HW237770   1.478   0.072  12.489 -1.1025  0.4466  0.5790
 8712SOL     OW37771   1.695   0.184   7.165  0.1884  0.3960 -0.1315
 8712SOL    HW137772   1.747   0.117   7.210 -1.4117 -0.1275  0.9382
 8712SOL    HW237773   1.624   0.124   7.141  2.9905 -2.4855 -1.1082
 8713SOL     OW37774   1.700   1.263  13.401  0.4096 -0.3589 -0.6015
 8713SOL    HW137775   1.780   1.268  13.453 -1.9330  0.5794  2.8722
 8713SOL    HW237776   1.730   1.269  13.310 -1.1195 -0.8306 -1.1401
 8714SOL     OW37777   1.108   0.394   9.040  0.3652 -0.0172 -0.3145
 8714SOL    HW137778   1.100   0.298   9.037 -1.0702  0.1139 -0.6731
 8714SOL    HW237779   1.168   0.418   8.970 -0.3981 -2.1172 -1.7023
 8715SOL     OW37780   0.238   4.075   2.829  0.3295  0.3572 -0.1559
 8715SOL    HW137781   0.186   4.135   2.882  0.1088 -1.3241  1.5288
 8715SOL    HW237782   0.313   4.131   2.809 -0.2828  1.1332 -0.2491
 8716SOL     OW37783   1.187   1.981   8.044 -0.4374  0.2308  0.2512
 8716SOL    HW137784   1.101   1.948   8.069 -0.9236  0.3416 -1.2547
 8716SOL    HW237785   1.226   1.992   8.131 -1.7354  1.7005  0.6474
 8717SOL     OW37786   1.438   1.926   9.237 -0.7309 -0.5231 -0.3438
 8717SOL    HW137787   1.527   1.909   9.268 -0.4521  0.7182 -0.4564
 8717SOL    HW237788   1.388   1.938   9.317 -0.3671 -0.1884 -0.1681
 8718SOL     OW37789   2.841   0.837   2.659  0.8766 -0.5263 -0.1662
 8718SOL    HW137790   2.858   0.877   2.573 -0.3799  3.1205  1.2716
 8718SOL    HW237791   2.901   0.890   2.713  0.4503 -1.6442  1.3949
 8719SOL     OW37792   2.605   1.725   6.390 -0.0146 -0.0953  0.3949
 8719SOL    HW137793   2.544   1.760   6.455  0.9142  2.3564 -0.0398
 8719SOL    HW237794   2.557   1.656   6.344 -1.4828  2.0817 -1.3619
 8720SOL     OW37795   2.619   0.208   3.711 -0.2391 -0.2743  0.4376
 8720SOL    HW137796   2.578   0.123   3.699  1.1723 -0.6489 -1.5139
 8720SOL    HW237797   2.710   0.188   3.690 -0.1256 -1.2484  1.8369
 8721SOL     OW37798   0.714   3.751  16.180  0.0265  0.2109 -0.0026
 8721SOL    HW137799   0.801   3.791  16.167 -0.4222  1.3352  0.4558
 8721SOL    HW237800   0.669   3.818  16.129 -0.7312 -0.0387  0.3465
 8722SOL     OW37801   2.399   1.623   4.836  1.2879  0.9089 -0.3433
 8722SOL    HW137802   2.453   1.559   4.789  1.6905  1.6461 -0.8768
 8722SOL    HW237803   2.460   1.697   4.840 -0.5251  2.3437  0.3820
 8723SOL     OW37804   3.134   2.758   6.176 -0.1263  0.8511  0.5014
 8723SOL    HW137805   3.184   2.683   6.144  1.1854  0.6223  3.0855
 8723SOL    HW237806   3.082   2.728   6.251  0.5683  1.5685  1.2746
 8724SOL     OW37807   4.489   3.350   2.321  0.1630 -0.0296  0.0907
 8724SOL    HW137808   4.395   3.341   2.332 -0.0149  1.0827 -0.5817
 8724SOL    HW237809   4.488   3.423   2.259  1.0370 -1.2573 -1.4015
 8725SOL     OW37810   1.170   3.145   2.314 -0.7013  0.1062  0.0943
 8725SOL    HW137811   1.166   3.194   2.396 -2.1716 -1.2814  0.8611
 8725SOL    HW237812   1.247   3.092   2.335 -0.0965  0.8905 -0.1454
 8726SOL     OW37813   1.013   0.492   1.213  0.1943 -0.7544  0.5586
 8726SOL    HW137814   1.080   0.516   1.276 -0.4549  2.0798  0.1731
 8726SOL    HW237815   0.995   0.571   1.162  1.6420 -0.0094  1.2033
 8727SOL     OW37816   1.976   0.065  12.117 -0.0619 -0.1314  0.0607
 8727SOL    HW137817   2.037   0.010  12.070  1.1889 -0.0383  1.5730
 8727SOL    HW237818   1.905   0.070  12.053 -0.7380 -0.5593  0.7675
 8728SOL     OW37819   0.056   3.673   7.419  0.1728  0.5198 -0.0131
 8728SOL    HW137820   0.047   3.762   7.385  0.0852  0.6527  0.3602
 8728SOL    HW237821   0.149   3.651   7.421 -0.1200 -0.6438  0.9980
 8729SOL     OW37822   0.138   2.516  10.704  0.1972 -0.0970  0.5829
 8729SOL    HW137823   0.129   2.532  10.610 -1.8157 -0.4609  0.7120
 8729SOL    HW237824   0.228   2.543  10.720 -0.8464  4.6483 -1.5260
 8730SOL     OW37825   0.953   4.424   7.407 -0.0307  0.1290 -0.4848
 8730SOL    HW137826   1.002   4.470   7.338 -1.2102  0.0869 -1.3553
 8730SOL    HW237827   0.920   4.350   7.356 -0.3925  1.5152 -2.2906
 8731SOL     OW37828   4.350   2.784   9.739 -0.7038 -0.2837  0.8168
 8731SOL    HW137829   4.333   2.724   9.666 -1.1789  1.7514 -0.7245
 8731SOL    HW237830   4.300   2.751   9.813 -0.3706 -0.9572  0.7468
 8732SOL     OW37831   3.082   1.214   1.713  0.2194 -0.5052  0.1097
 8732SOL    HW137832   3.032   1.283   1.669  0.8733 -1.0104 -1.4336
 8732SOL    HW237833   3.125   1.170   1.640 -1.6236 -2.5424  0.2472
 8733SOL     OW37834   3.095   2.631   9.598 -0.2261  0.0288  0.4070
 8733SOL    HW137835   3.185   2.629   9.567  0.5490 -2.6304  2.7876
 8733SOL    HW237836   3.061   2.712   9.560  0.4534  0.2856  0.3557
 8734SOL     OW37837   0.861   1.113  15.791  0.2091  0.1745  0.6991
 8734SOL    HW137838   0.919   1.158  15.729  0.8739 -2.7498 -0.8487
 8734SOL    HW237839   0.784   1.113  15.734 -0.0270 -0.3071  1.0176
 8735SOL     OW37840   4.449   0.778   5.209 -0.1281  0.3172 -0.0633
 8735SOL    HW137841   4.521   0.716   5.221  1.5326  2.8024  3.0585
 8735SOL    HW237842   4.420   0.805   5.297 -0.5620  0.2128 -0.1764
 8736SOL     OW37843   2.062   2.464   8.944 -0.4509 -0.0315  0.2458
 8736SOL    HW137844   2.051   2.370   8.962 -1.5571  0.1936  0.7445
 8736SOL    HW237845   1.975   2.481   8.908  0.1645  0.8230 -0.8313
 8737SOL     OW37846   0.535   3.330  14.380  0.1275  0.6022 -0.4522
 8737SOL    HW137847   0.559   3.390  14.309  0.0256 -0.5861 -1.4975
 8737SOL    HW237848   0.602   3.362  14.439  1.5243 -1.5817 -0.8510
 8738SOL     OW37849   3.432   2.582   5.247  0.2037  0.3049 -0.2907
 8738SOL    HW137850   3.496   2.597   5.177  1.3504 -3.3469 -0.0692
 8738SOL    HW237851   3.397   2.669   5.265  3.3393  1.4129  0.5301
 8739SOL     OW37852   3.423   1.894   8.682 -0.7516 -0.2163 -0.6743
 8739SOL    HW137853   3.416   1.838   8.760  3.4918  1.4663  0.9204
 8739SOL    HW237854   3.330   1.888   8.658 -0.5789 -1.1726 -1.1326
 8740SOL     OW37855   1.211   4.207   9.071 -0.4318 -0.5345 -0.2895
 8740SOL    HW137856   1.132   4.203   9.017 -1.1544 -0.6179  0.7714
 8740SOL    HW237857   1.201   4.133   9.131 -0.7634  0.7404  1.2323
 8741SOL     OW37858   0.084   4.162   5.610  0.1974  0.1216 -0.0422
 8741SOL    HW137859   0.069   4.163   5.704 -0.9716  0.3313 -0.2321
 8741SOL    HW237860   0.061   4.072   5.583 -0.4304 -0.2080  1.6014
 8742SOL     OW37861   3.471   3.989   8.469  0.7723 -0.3408 -1.0866
 8742SOL    HW137862   3.538   4.036   8.518 -1.5833  0.0431  1.8019
 8742SOL    HW237863   3.519   3.965   8.390  2.5482 -0.1378 -0.0722
 8743SOL     OW37864   1.686   0.833   6.645  0.4899 -0.1424  0.1082
 8743SOL    HW137865   1.755   0.774   6.677 -0.6844 -1.2795  0.5531
 8743SOL    HW237866   1.739   0.905   6.612 -0.7639  0.1017 -1.3474
 8744SOL     OW37867   2.070   0.360   2.888 -0.0279 -0.3937 -0.4938
 8744SOL    HW137868   1.995   0.316   2.928  1.5966 -1.3060  1.5539
 8744SOL    HW237869   2.102   0.302   2.820  0.4696 -0.1021 -0.5084
 8745SOL     OW37870   3.039   3.488   2.268 -0.3911  0.8849 -0.0534
 8745SOL    HW137871   2.955   3.469   2.227 -0.8088  2.1344  0.2097
 8745SOL    HW237872   3.043   3.582   2.251  2.1548  0.6486 -0.7901
 8746SOL     OW37873   4.226   1.299  10.169  0.6255  0.3024  0.4175
 8746SOL    HW137874   4.286   1.370  10.192 -0.4095  2.2566 -2.9012
 8746SOL    HW237875   4.262   1.222  10.212  1.2006  1.8885  2.7439
 8747SOL     OW37876   2.702   4.651   4.092  0.0109  0.0062 -0.2314
 8747SOL    HW137877   2.770   4.628   4.029 -0.6211 -1.6730 -0.2966
 8747SOL    HW237878   2.655   4.570   4.071  0.6094 -0.1226 -1.0544
 8748SOL     OW37879   0.620   2.743   4.536 -0.0965  0.0668 -0.0511
 8748SOL    HW137880   0.616   2.764   4.443 -0.8592  0.6197  0.1102
 8748SOL    HW237881   0.535   2.782   4.557 -0.1587  1.5089 -3.0054
 8749SOL     OW37882   1.167   4.278   4.159  0.5382 -0.4687  0.2618
 8749SOL    HW137883   1.261   4.293   4.165  0.2571  0.0896  3.4185
 8749SOL    HW237884   1.152   4.221   4.235  1.5756  0.9085  1.4946
 8750SOL     OW37885   0.035   0.994  17.660 -0.5117  0.0369  0.4382
 8750SOL    HW137886   0.110   1.018  17.713 -0.4740  0.4008  0.2227
 8750SOL    HW237887   0.077   0.957  17.582 -2.7171 -1.6561  0.0513
 8751SOL     OW37888   4.152   0.621   0.071  0.1944 -0.5253 -0.4236
 8751SOL    HW137889   4.070   0.670   0.067  0.2981 -0.1778  1.8302
 8751SOL    HW237890   4.207   0.685   0.115  1.8304 -0.7978 -2.0449
 8752SOL     OW37891   2.628   3.439   5.466  0.0762 -0.0462  0.2499
 8752SOL    HW137892   2.666   3.448   5.378 -0.4140  1.0228  0.1515
 8752SOL    HW237893   2.575   3.518   5.470 -0.3748 -0.2861 -0.8436
 8753SOL     OW37894   0.324   3.475  11.360  0.3933  0.5696 -0.5232
 8753SOL    HW137895   0.265   3.416  11.313 -2.6031  0.2779  3.6030
 8753SOL    HW237896   0.294   3.559  11.326  1.3089  1.7538  1.5527
 8754SOL     OW37897   3.927   4.325   6.293  0.3293 -0.3462 -0.3577
 8754SOL    HW137898   4.015   4.353   6.267  0.7268 -1.7767 -0.5837
 8754SOL    HW237899   3.940   4.311   6.387 -3.0246  0.4621  0.2192
 8755SOL     OW37900   1.825   0.823   9.469 -0.4994  0.4791  0.2525
 8755SOL    HW137901   1.829   0.883   9.544  1.8125  0.9079 -0.1865
 8755SOL    HW237902   1.907   0.842   9.423 -1.1685  1.4799 -0.5156
 8756SOL     OW37903   0.536   0.393  16.040 -0.0892  0.1137 -0.2220
 8756SOL    HW137904   0.590   0.314  16.036 -0.0681  0.1130  0.0717
 8756SOL    HW237905   0.536   0.411  15.946 -0.8055  1.8269  0.1012
 8757SOL     OW37906   4.001   2.352   0.500  0.1016 -0.1678 -0.3273
 8757SOL    HW137907   3.906   2.360   0.505  0.2983  1.5949  0.7167
 8757SOL    HW237908   3.998   2.258   0.484  0.1623 -0.1517 -0.4310
 8758SOL     OW37909   4.186   0.575  17.476  0.0564 -0.0639 -0.7114
 8758SOL    HW137910   4.261   0.633  17.464 -0.7736  0.6692 -2.3394
 8758SOL    HW237911   4.117   0.641  17.478  0.7897  0.6506  0.4979
 8759SOL     OW37912   0.887   2.180  11.569 -0.7475  0.0504 -0.0132
 8759SOL    HW137913   0.940   2.141  11.499 -0.1923  0.8123 -0.0101
 8759SOL    HW237914   0.886   2.269  11.536  0.7732 -1.1531 -3.2739
 8760SOL     OW37915   1.279   1.478   5.077  0.3804 -0.0942 -0.1374
 8760SOL    HW137916   1.203   1.480   5.135 -0.6124 -0.2738 -1.4587
 8760SOL    HW237917   1.333   1.406   5.111 -0.0792 -0.1386  0.5152
 8761SOL     OW37918   2.614   2.555   2.117  0.0840  0.0983  0.2072
 8761SOL    HW137919   2.588   2.570   2.208  1.1548 -1.1092  0.7230
 8761SOL    HW237920   2.580   2.469   2.093 -1.0107  0.7499 -0.5294
 8762SOL     OW37921   1.103   3.480  16.559  0.4179 -0.1421 -0.2710
 8762SOL    HW137922   1.105   3.385  16.546  0.6146 -0.3652  1.4017
 8762SOL    HW237923   1.196   3.499  16.547  0.5355 -0.6322 -0.1307
 8763SOL     OW37924   3.757   4.706   0.187 -0.3684 -0.2466  0.3935
 8763SOL    HW137925   3.849   4.682   0.197  0.1934  1.7148 -0.0707
 8763SOL    HW237926   3.731   4.658   0.108 -2.0342  1.0997  0.1231
 8764SOL     OW37927   3.684   2.415   5.000 -0.1409 -0.7588  0.8135
 8764SOL    HW137928   3.729   2.492   5.035 -0.0894 -0.7648  0.7617
 8764SOL    HW237929   3.735   2.350   5.049  1.1425  0.3100  0.8979
 8765SOL     OW37930   3.078   1.600   9.531 -0.1972 -0.0009  0.1051
 8765SOL    HW137931   3.062   1.663   9.461  1.5217 -0.7003 -0.9058
 8765SOL    HW237932   3.127   1.535   9.481 -0.7321  0.5072 -1.0872
 8766SOL     OW37933   0.891   0.212   6.943 -0.4032  0.1140 -0.1570
 8766SOL    HW137934   0.906   0.216   7.037  2.1950  1.6911 -0.6495
 8766SOL    HW237935   0.840   0.293   6.934  0.1801  0.5863  0.9436
 8767SOL     OW37936   4.305   4.001  13.598  0.6031 -0.0746  0.2198
 8767SOL    HW137937   4.258   3.969  13.675  1.0359  1.0303  0.9404
 8767SOL    HW237938   4.270   3.950  13.525  0.7247 -1.1978  0.9321
 8768SOL     OW37939   0.518   4.068   9.455 -0.1935 -0.1562 -0.2075
 8768SOL    HW137940   0.609   4.082   9.481  0.7290 -1.3288 -2.8116
 8768SOL    HW237941   0.463   4.064   9.533 -0.1358  1.8669 -0.0651
 8769SOL     OW37942   4.023   3.291   2.400  0.5544  0.3435 -0.1856
 8769SOL    HW137943   3.982   3.236   2.334 -1.0783 -1.4312  2.3008
 8769SOL    HW237944   3.988   3.256   2.482  0.2522  1.8873  0.3583
 8770SOL     OW37945   1.378   4.262   9.570 -0.5743 -0.2200  0.1545
 8770SOL    HW137946   1.409   4.265   9.660  0.1612  0.2502 -0.1215
 8770SOL    HW237947   1.310   4.195   9.581 -0.0726 -0.8070 -0.3778
 8771SOL     OW37948   4.184   1.152   4.812 -0.0006  0.3503 -0.5030
 8771SOL    HW137949   4.271   1.119   4.791  0.7527  2.6013 -0.9078
 8771SOL    HW237950   4.200   1.228   4.868  0.4147 -0.0397 -0.0941
 8772SOL     OW37951   4.148   2.572   9.095  0.3801 -0.1180 -0.5651
 8772SOL    HW137952   4.183   2.643   9.150  0.2740  1.6592 -2.7812
 8772SOL    HW237953   4.198   2.501   9.135  0.7103  1.7741  2.4081
 8773SOL     OW37954   3.872   1.675   9.129  0.2116  0.3914  0.0190
 8773SOL    HW137955   3.867   1.692   9.035 -1.5157  0.5625  0.1536
 8773SOL    HW237956   3.844   1.584   9.134 -2.5903  1.1494 -2.3031
 8774SOL     OW37957   3.379   1.536   6.604  0.2330  0.1146  0.3923
 8774SOL    HW137958   3.298   1.582   6.628 -0.4478  0.0844 -1.8814
 8774SOL    HW237959   3.397   1.560   6.513 -1.0165 -0.5255 -0.0161
 8775SOL     OW37960   1.885   4.428   6.289  0.1554 -0.1584  0.4381
 8775SOL    HW137961   1.916   4.355   6.236 -1.0658 -1.0836  1.0038
 8775SOL    HW237962   1.842   4.376   6.357  0.6768 -0.9812  0.1387
 8776SOL     OW37963   1.019   4.405   2.641 -0.4814  0.0820  0.1823
 8776SOL    HW137964   1.079   4.422   2.713  0.3738  1.3209 -0.8260
 8776SOL    HW237965   1.079   4.354   2.585 -1.4129 -1.2523  0.3890
 8777SOL     OW37966   0.344   3.264   5.539  0.5287  0.3608  0.1372
 8777SOL    HW137967   0.284   3.218   5.598  0.6861  0.4035  0.3324
 8777SOL    HW237968   0.404   3.283   5.612 -0.5813  1.0507  0.8625
 8778SOL     OW37969   3.029   1.500   3.156  0.0767 -0.0048  0.0567
 8778SOL    HW137970   2.934   1.505   3.166  0.0433 -0.3307 -0.0871
 8778SOL    HW237971   3.042   1.585   3.115  0.2348  0.4606  1.0632
 8779SOL     OW37972   1.556   1.490   1.770 -0.0256 -0.2491 -0.4104
 8779SOL    HW137973   1.615   1.417   1.789 -1.4254 -0.7277  2.0034
 8779SOL    HW237974   1.573   1.561   1.832  0.5963  0.8301 -1.8046
 8780SOL     OW37975   0.497   3.212   2.544  0.6759 -0.2959  0.3837
 8780SOL    HW137976   0.437   3.282   2.518  0.3359 -0.6058  0.3317
 8780SOL    HW237977   0.549   3.196   2.465 -1.3782  1.6121 -1.3505
 8781SOL     OW37978   0.180   0.023  14.870 -0.1103  0.4940 -0.1284
 8781SOL    HW137979   0.086   0.038  14.861  0.4277  2.6768 -2.0375
 8781SOL    HW237980   0.217   0.108  14.896  2.3088 -0.0539 -1.8501
 8782SOL     OW37981   0.302   0.546   5.250 -0.2138 -0.6568  0.2528
 8782SOL    HW137982   0.265   0.476   5.304 -2.4327  1.3110  1.2824
 8782SOL    HW237983   0.261   0.528   5.165  0.0696  0.3486 -0.1035
 8783SOL     OW37984   4.121   2.093   2.613 -0.5922  0.3611  0.4616
 8783SOL    HW137985   4.091   2.067   2.525 -0.1603  0.0357  0.4122
 8783SOL    HW237986   4.038   2.119   2.655 -1.4452  1.0493 -1.6134
 8784SOL     OW37987   1.114   3.360   2.163  0.5196  0.4731  0.5047
 8784SOL    HW137988   1.132   3.290   2.226  1.4398 -0.1949 -0.5071
 8784SOL    HW237989   1.164   3.335   2.085  0.9170  0.1834  0.8543
 8785SOL     OW37990   4.374   3.964   4.776 -0.0788 -0.2672 -0.0586
 8785SOL    HW137991   4.460   3.948   4.816  0.8640  1.5262 -1.3544
 8785SOL    HW237992   4.336   4.012   4.850  1.6843  0.4915  0.3488
 8786SOL     OW37993   2.472   3.113   6.412  0.4040  0.1701  0.1162
 8786SOL    HW137994   2.547   3.133   6.356 -0.1387 -1.3976 -1.1688
 8786SOL    HW237995   2.496   3.026   6.443  3.2901  1.5341  1.6715
 8787SOL     OW37996   3.705   2.445   2.854  0.6844  0.2292  0.0335
 8787SOL    HW137997   3.623   2.434   2.902 -0.2351  1.7606 -1.2117
 8787SOL    HW237998   3.674   2.474   2.769  1.5543  1.3719  0.1061
 8788SOL     OW37999   0.146   3.012   4.296 -0.4495  0.1086  0.2595
 8788SOL    HW138000   0.098   2.943   4.250 -2.6530  1.4803  0.4952
 8788SOL    HW238001   0.116   3.085   4.242  0.3873  1.6268  1.8446
 8789SOL     OW38002   3.014   1.042   9.398 -0.2072  0.1040  0.1242
 8789SOL    HW138003   3.034   1.100   9.472 -0.6294  2.3976 -1.5817
 8789SOL    HW238004   2.954   1.107   9.363  1.1513  0.6681 -1.1835
 8790SOL     OW38005   2.826   1.985   5.381  0.0507  0.0656 -0.6328
 8790SOL    HW138006   2.885   1.910   5.395 -0.5573 -0.3435 -0.2259
 8790SOL    HW238007   2.778   1.951   5.305  0.2591 -1.2292 -0.1990
 8791SOL     OW38008   3.231   3.211   8.057  0.6051  0.3483  0.2475
 8791SOL    HW138009   3.225   3.152   8.133 -2.7422  0.1507 -0.1626
 8791SOL    HW238010   3.306   3.268   8.073  1.0997  0.3366 -1.9692
 8792SOL     OW38011   4.083   3.376  12.012  0.1672 -0.5178  0.1418
 8792SOL    HW138012   4.093   3.401  11.920  0.4418  1.2889  0.6616
 8792SOL    HW238013   4.142   3.442  12.050 -1.1915  0.0829  1.2257
 8793SOL     OW38014   4.510   4.515   1.791 -0.1740  0.1021  0.1634
 8793SOL    HW138015   4.441   4.467   1.745  0.2126 -0.1570 -0.1410
 8793SOL    HW238016   4.466   4.601   1.789 -1.9095 -0.7773  0.1248
 8794SOL     OW38017   1.182   1.177   3.227  0.1839  0.0488  0.5590
 8794SOL    HW138018   1.146   1.261   3.256 -3.8410 -1.7840  0.9431
 8794SOL    HW238019   1.270   1.172   3.263 -0.6293 -0.2809  2.5258
 8795SOL     OW38020   1.810   3.442   9.631 -0.9282 -0.0642  0.6698
 8795SOL    HW138021   1.811   3.526   9.584 -3.1973 -0.1465  0.5033
 8795SOL    HW238022   1.743   3.408   9.573  1.6927 -1.2766 -1.6348
 8796SOL     OW38023   1.996   1.022   7.308  0.1426 -0.1884  0.8846
 8796SOL    HW138024   2.017   0.937   7.348  0.8835 -1.0757 -1.3453
 8796SOL    HW238025   2.048   1.012   7.228 -0.0995 -1.7718  0.9149
 8797SOL     OW38026   4.488   2.439  11.208  0.0264  0.1065 -0.0788
 8797SOL    HW138027   4.561   2.410  11.153  0.4287  0.7084  0.1457
 8797SOL    HW238028   4.488   2.532  11.187 -0.0775  0.0140 -0.4900
 8798SOL     OW38029   4.556   2.596   8.178  0.5315 -0.7181  0.2421
 8798SOL    HW138030   4.634   2.569   8.227  2.0789 -1.4750 -2.6591
 8798SOL    HW238031   4.594   2.622   8.094  1.0068  1.1745  1.0410
 8799SOL     OW38032   3.202   1.731   2.764 -0.2375 -0.2604 -0.1994
 8799SOL    HW138033   3.276   1.699   2.711  0.0046  0.2938 -0.1963
 8799SOL    HW238034   3.251   1.793   2.818 -0.9477 -0.2099  0.3902
 8800SOL     OW38035   3.362   4.477   2.984 -0.3919 -0.0596 -0.3080
 8800SOL    HW138036   3.360   4.467   2.889 -0.5484 -0.4077 -0.2694
 8800SOL    HW238037   3.420   4.548   3.009 -0.1273 -0.1861 -0.5611
 8801SOL     OW38038   4.070   0.104   7.470 -0.2744  0.3360  0.0903
 8801SOL    HW138039   4.138   0.100   7.403 -0.2387  0.6495  0.1072
 8801SOL    HW238040   3.991   0.071   7.426 -0.4616  1.6721 -0.5829
 8802SOL     OW38041   2.146   0.937   8.888 -0.2159 -0.0779  0.4214
 8802SOL    HW138042   2.084   0.983   8.831  0.2041 -1.5924 -1.2371
 8802SOL    HW238043   2.157   0.864   8.827 -0.7712 -1.6683  2.1928
 8803SOL     OW38044   1.246   1.949  17.259 -0.2299  0.1121  0.7483
 8803SOL    HW138045   1.201   1.941  17.175  1.8019 -1.7593 -0.1468
 8803SOL    HW238046   1.182   1.904  17.315  0.1363  0.3994  1.3986
 8804SOL     OW38047   1.290   3.086   6.542  0.0283 -0.4673  0.4148
 8804SOL    HW138048   1.225   3.129   6.486 -0.1878 -0.8979  0.3381
 8804SOL    HW238049   1.262   3.109   6.631 -1.3569 -0.4034 -0.0333
 8805SOL     OW38050   3.295   0.282   6.855  0.5759  0.2679  0.2151
 8805SOL    HW138051   3.385   0.296   6.882  1.0937  0.5021 -1.5907
 8805SOL    HW238052   3.320   0.253   6.767 -0.8586  3.0101 -1.1068
 8806SOL     OW38053   0.259   0.054  12.110 -0.3135  0.0471  0.9187
 8806SOL    HW138054   0.296   0.107  12.180  1.0905 -2.1297  1.8501
 8806SOL    HW238055   0.170   0.086  12.121 -0.2823  0.1440  0.8879
 8807SOL     OW38056   3.160   3.536   4.833  0.0971 -0.0417 -0.4974
 8807SOL    HW138057   3.240   3.495   4.801  0.2088 -0.0972 -0.1540
 8807SOL    HW238058   3.198   3.586   4.906 -2.4556  1.0241  0.1205
 8808SOL     OW38059   3.167   4.499   8.320 -0.3826  0.1464  0.2222
 8808SOL    HW138060   3.077   4.497   8.354 -1.0396 -0.0038 -1.5254
 8808SOL    HW238061   3.185   4.418   8.271  1.1285  0.8456 -0.3726
 8809SOL     OW38062   2.250   3.251   6.937  0.1450 -0.2728  0.2648
 8809SOL    HW138063   2.333   3.206   6.954 -0.0028 -0.7076 -0.1614
 8809SOL    HW238064   2.236   3.284   7.025  2.0088 -2.3377  1.3612
 8810SOL     OW38065   2.672   1.846   3.829  0.0749 -0.2609  0.1102
 8810SOL    HW138066   2.600   1.908   3.823 -0.0392 -0.2115  1.8639
 8810SOL    HW238067   2.684   1.821   3.738  0.7329  0.2746  0.0500
 8811SOL     OW38068   0.704   4.606   7.319  0.1659  0.2674 -0.2727
 8811SOL    HW138069   0.772   4.545   7.347 -0.5354 -0.3503  0.0692
 8811SOL    HW238070   0.633   4.550   7.289  1.2318 -2.6075  2.5969
 8812SOL     OW38071   0.029   1.531  14.218  0.4733 -0.3911  0.1259
 8812SOL    HW138072   4.677   1.553  14.234  0.7786  2.2263 -1.7337
 8812SOL    HW238073   0.066   1.607  14.263 -1.0769 -0.2745  1.2336
 8813SOL     OW38074   1.188   0.660   9.506 -0.5745  0.7325  0.0396
 8813SOL    HW138075   1.252   0.720   9.468 -0.7830  1.0250  0.1448
 8813SOL    HW238076   1.167   0.606   9.429  0.4662 -1.5494  1.3758
 8814SOL     OW38077   3.550   0.639   1.580  0.3477  0.7167  0.2762
 8814SOL    HW138078   3.544   0.614   1.672  1.1593 -1.4736 -0.2588
 8814SOL    HW238079   3.644   0.654   1.583  0.3023  1.0095  0.2634
 8815SOL     OW38080   2.757   2.044   7.475 -0.4945 -0.2834  0.0797
 8815SOL    HW138081   2.815   2.096   7.531 -2.0032  1.4772 -0.0093
 8815SOL    HW238082   2.827   1.989   7.439  0.9537  0.0936  2.3397
 8816SOL     OW38083   2.778   2.433   8.588 -0.0930 -0.0015  0.4285
 8816SOL    HW138084   2.730   2.506   8.628 -0.4214 -0.3260  0.6252
 8816SOL    HW238085   2.776   2.448   8.493  2.4453  1.2893  0.5721
 8817SOL     OW38086   1.994   1.053   8.665 -0.4159  0.2640  0.4364
 8817SOL    HW138087   2.017   1.008   8.584 -0.4806 -1.2276  1.2335
 8817SOL    HW238088   2.006   1.145   8.641 -1.5701  0.0321 -0.9891
 8818SOL     OW38089   2.789   0.683  10.580 -0.4405 -0.4660  0.2419
 8818SOL    HW138090   2.823   0.694  10.491  0.8546 -1.3690  0.6236
 8818SOL    HW238091   2.781   0.775  10.604 -0.1923 -0.0440 -1.3283
 8819SOL     OW38092   3.601   1.569   2.777  0.2811  0.1409  0.6634
 8819SOL    HW138093   3.646   1.513   2.841 -2.3919 -0.4785  1.9996
 8819SOL    HW238094   3.557   1.635   2.830  1.1409 -0.4232  2.1022
 8820SOL     OW38095   0.405   3.842   5.062 -0.1517  0.1056 -0.4387
 8820SOL    HW138096   0.476   3.833   4.999 -1.4085 -1.7203 -1.6104
 8820SOL    HW238097   0.380   3.752   5.081  0.1786 -0.1139 -1.0684
 8821SOL     OW38098   1.460   0.330   3.464 -0.3352 -0.1742 -1.1524
 8821SOL    HW138099   1.547   0.343   3.425 -0.0452 -0.4851 -0.6129
 8821SOL    HW238100   1.411   0.321   3.382  0.1185 -1.3366 -1.2952
 8822SOL     OW38101   3.319   1.545   5.535 -0.0787 -0.2451 -0.7703
 8822SOL    HW138102   3.268   1.535   5.454  0.0579 -0.4974 -0.8260
 8822SOL    HW238103   3.408   1.522   5.509  0.3373  0.9152 -0.3577
 8823SOL     OW38104   0.059   2.178   7.950 -0.2760 -0.1541  0.3356
 8823SOL    HW138105   0.069   2.231   8.030 -0.3462 -0.8777  0.8270
 8823SOL    HW238106   0.144   2.194   7.908 -0.5466 -4.3456 -1.7569
 8824SOL     OW38107   1.510   1.385   8.425 -0.0178  0.7236  0.1021
 8824SOL    HW138108   1.419   1.362   8.441 -0.4020  0.9410 -1.7776
 8824SOL    HW238109   1.500   1.479   8.437  2.4821  0.9562  0.5555
 8825SOL     OW38110   3.662   0.750   3.847  0.1993 -0.1693  0.2602
 8825SOL    HW138111   3.588   0.801   3.878 -0.5149  0.0144 -1.8127
 8825SOL    HW238112   3.665   0.675   3.907 -1.6542  0.1712  0.7788
 8826SOL     OW38113   1.121   2.235   5.977  0.2159  0.3287  0.0223
 8826SOL    HW138114   1.059   2.226   5.905 -0.5437 -3.0208  1.1010
 8826SOL    HW238115   1.192   2.174   5.956 -0.7416 -0.4852 -0.8694
 8827SOL     OW38116   0.827   0.275   0.309  0.5834  0.1400  0.1656
 8827SOL    HW138117   0.879   0.296   0.387  0.4427 -2.2607  0.8946
 8827SOL    HW238118   0.900   0.273   0.247  1.4070 -0.6069  1.1549
 8828SOL     OW38119   1.631   3.163   6.829 -0.2199 -0.5399  0.3085
 8828SOL    HW138120   1.669   3.111   6.758 -0.9101 -0.4273 -0.1393
 8828SOL    HW238121   1.612   3.247   6.788 -0.0408 -0.2511  0.8146
 8829SOL     OW38122   3.508   4.588   6.727  0.1211  0.0136  0.4991
 8829SOL    HW138123   3.575   4.586   6.659 -0.3195  0.1922  0.0547
 8829SOL    HW238124   3.461   4.506   6.711 -1.3857  0.9443  0.1434
 8830SOL     OW38125   2.876   0.926   7.577 -0.5743  0.2375  0.2661
 8830SOL    HW138126   2.927   0.902   7.499 -1.3092  0.5287 -0.3069
 8830SOL    HW238127   2.801   0.866   7.569  0.4261 -0.7235 -1.9471
 8831SOL     OW38128   1.412   3.563  12.189  0.7891 -0.1798  0.2551
 8831SOL    HW138129   1.388   3.543  12.280 -0.5391  0.2315  0.0020
 8831SOL    HW238130   1.476   3.492  12.183  1.1498  0.1499  0.1635
 8832SOL     OW38131   2.471   0.930   9.204 -0.0295  0.0601  0.6222
 8832SOL    HW138132   2.558   0.892   9.220  0.2422 -0.2165 -1.5043
 8832SOL    HW238133   2.412   0.885   9.264 -2.3911  0.8876 -1.0892
 8833SOL     OW38134   4.396   2.034   4.332 -1.3391 -0.1708 -0.4891
 8833SOL    HW138135   4.377   2.112   4.280  1.2260  2.1591  2.0756
 8833SOL    HW238136   4.459   1.988   4.276 -0.0220  0.2843  0.6395
 8834SOL     OW38137   2.345   0.448  11.633  0.3859 -0.1374 -0.1446
 8834SOL    HW138138   2.301   0.364  11.617  0.2380  0.0191 -0.5607
 8834SOL    HW238139   2.270   0.504  11.653  0.4899  0.7785 -2.2913
 8835SOL     OW38140   3.173   1.701   6.629  0.6181  0.6722 -0.1595
 8835SOL    HW138141   3.151   1.790   6.601 -0.1354  0.0851 -1.4315
 8835SOL    HW238142   3.097   1.664   6.674 -0.3429  0.4683 -1.9353
 8836SOL     OW38143   1.531   1.071   4.844  0.2324 -0.2590  0.0038
 8836SOL    HW138144   1.613   1.119   4.855  0.3852 -0.0455 -2.0329
 8836SOL    HW238145   1.547   1.013   4.770 -1.4032  0.2994 -0.7919
 8837SOL     OW38146   4.249   0.661  13.095 -0.0600 -0.3807 -0.1217
 8837SOL    HW138147   4.213   0.696  13.177  1.0370  1.7345 -0.5339
 8837SOL    HW238148   4.334   0.705  13.098  0.8085 -1.9665 -1.7185
 8838SOL     OW38149   1.977   2.862   9.049  0.1069 -0.4333 -0.4278
 8838SOL    HW138150   1.993   2.838   9.140 -0.1479  1.3451  0.0785
 8838SOL    HW238151   2.067   2.864   9.016 -0.1170  1.2193 -0.9632
 8839SOL     OW38152   4.543   0.442   1.680  0.0402  0.1400  0.5038
 8839SOL    HW138153   4.556   0.511   1.615  1.1894 -0.3445  0.2279
 8839SOL    HW238154   4.451   0.445   1.707  0.1277 -0.5124  0.8853
 8840SOL     OW38155   3.289   2.205   1.895 -0.0315  0.2068 -0.2318
 8840SOL    HW138156   3.258   2.132   1.949  0.7722  0.2265  0.2714
 8840SOL    HW238157   3.278   2.280   1.955 -1.6598 -0.4794  0.3153
 8841SOL     OW38158   3.905   1.735   8.844  0.2638  0.1348 -0.5577
 8841SOL    HW138159   3.996   1.725   8.816  0.9771 -1.0093  2.1623
 8841SOL    HW238160   3.905   1.831   8.853  2.1490 -0.0557  1.4052
 8842SOL     OW38161   2.621   0.836   1.072  0.1921  0.1320  0.7909
 8842SOL    HW138162   2.696   0.820   1.015 -0.5317 -0.1125 -0.1082
 8842SOL    HW238163   2.640   0.927   1.097 -1.6761  0.6236  0.4383
 8843SOL     OW38164   1.765   1.875  16.871  0.8268 -0.3565  0.2553
 8843SOL    HW138165   1.715   1.956  16.874 -0.3590 -1.0393 -1.3813
 8843SOL    HW238166   1.846   1.900  16.826  1.1856  0.0848  1.1325
 8844SOL     OW38167   1.384   2.018   3.637  0.0135 -0.0013  0.2575
 8844SOL    HW138168   1.334   2.049   3.562  0.4330  0.5330  0.1929
 8844SOL    HW238169   1.464   2.071   3.646 -0.6757  1.0189  0.3375
 8845SOL     OW38170   1.361   3.485   3.756  0.1989  0.0833 -0.3354
 8845SOL    HW138171   1.312   3.536   3.821  0.8316  1.3211 -0.8346
 8845SOL    HW238172   1.348   3.538   3.678 -0.5239 -0.9014 -0.8912
 8846SOL     OW38173   1.853   2.893   6.750  0.2063 -0.4634  0.3944
 8846SOL    HW138174   1.907   2.942   6.689 -0.0624  0.1835  0.6726
 8846SOL    HW238175   1.772   2.917   6.705  0.6159 -0.5840 -0.3987
 8847SOL     OW38176   0.093   3.548   8.744  0.3748 -0.0725  0.8316
 8847SOL    HW138177   0.023   3.519   8.686 -0.4826  1.9163  0.8449
 8847SOL    HW238178   0.175   3.540   8.695  0.0071  0.5096  0.1086
 8848SOL     OW38179   0.450   0.238  17.587  0.1689  0.2476  0.2910
 8848SOL    HW138180   0.396   0.160  17.573  0.8429 -0.2813  0.5976
 8848SOL    HW238181   0.518   0.210  17.649 -0.4147  0.2063  0.9070
 8849SOL     OW38182   2.344   3.198  16.020 -0.4881  0.4926  0.1099
 8849SOL    HW138183   2.309   3.256  16.087 -0.7341  1.7240 -1.0762
 8849SOL    HW238184   2.339   3.266  15.952  1.2171 -0.0134 -0.5375
 8850SOL     OW38185   1.521   0.932   9.226  0.0471 -0.6810 -0.2393
 8850SOL    HW138186   1.478   0.951   9.142  0.4698  2.3425  0.2223
 8850SOL    HW238187   1.603   0.977   9.211 -1.0959  1.3102 -0.5270
 8851SOL     OW38188   3.925   2.121   6.708 -0.4842 -0.4406 -0.0834
 8851SOL    HW138189   4.006   2.098   6.661 -0.7718  0.2540 -0.9219
 8851SOL    HW238190   3.893   2.037   6.741 -0.8187 -0.1529  0.3101
 8852SOL     OW38191   4.317   3.270  16.877 -0.0011 -0.0253 -0.6022
 8852SOL    HW138192   4.333   3.334  16.807  1.1952  0.8906  0.5326
 8852SOL    HW238193   4.314   3.333  16.949  1.6992 -0.1785 -0.4139
 8853SOL     OW38194   0.424   3.222   9.547  0.0548 -0.1914  0.0258
 8853SOL    HW138195   0.371   3.296   9.517  0.4874 -0.0800 -0.4540
 8853SOL    HW238196   0.376   3.192   9.625 -0.5027  0.6622  0.0211
 8854SOL     OW38197   2.518   4.691   3.715 -0.2136 -0.1912 -0.1561
 8854SOL    HW138198   2.429   4.662   3.693  0.1172 -0.2623 -1.4166
 8854SOL    HW238199   2.561   4.614   3.677  1.8846  0.4581  0.9074
 8855SOL     OW38200   1.124   1.702  11.901  0.5492  0.4029  0.1850
 8855SOL    HW138201   1.108   1.794  11.921  0.1099 -0.6848  4.7448
 8855SOL    HW238202   1.177   1.712  11.822  1.6881  0.5775  0.9839
 8856SOL     OW38203   1.796   4.412   4.393  0.1156  0.3066  0.5899
 8856SOL    HW138204   1.825   4.351   4.460 -1.6996  0.4603  1.5121
 8856SOL    HW238205   1.797   4.499   4.432  3.5315  0.5966 -0.1497
 8857SOL     OW38206   1.668   0.181   1.791  0.1324  0.3517  0.6976
 8857SOL    HW138207   1.733   0.240   1.829  0.6064 -0.9531  1.9240
 8857SOL    HW238208   1.593   0.236   1.814  0.5867  0.4398  2.0237
 8858SOL     OW38209   2.701   4.480   1.943  0.0063 -0.6509 -0.2222
 8858SOL    HW138210   2.615   4.438   1.937 -0.5966  0.9913 -3.2127
 8858SOL    HW238211   2.763   4.420   1.903  0.6935 -0.7008  0.9052
 8859SOL     OW38212   1.842   0.924   4.509  0.0048  0.5727  0.4416
 8859SOL    HW138213   1.934   0.904   4.494  0.1712  1.8223 -0.2527
 8859SOL    HW238214   1.860   1.011   4.545 -0.2218  0.0533  1.8077
 8860SOL     OW38215   0.063   1.005  14.432 -0.2145  0.0385 -0.1207
 8860SOL    HW138216   4.737   1.070  14.408  1.6266  2.0331  0.2232
 8860SOL    HW238217   0.010   0.925  14.439 -3.5128  2.2275 -0.0305
 8861SOL     OW38218   3.611   0.852   6.409 -0.1174 -0.1178 -0.1211
 8861SOL    HW138219   3.516   0.865   6.412 -0.0503  0.1164  0.9060
 8861SOL    HW238220   3.626   0.758   6.403 -0.4480 -0.1886  0.1635
 8862SOL     OW38221   3.018   1.677   1.551  0.2429 -0.4524  0.3819
 8862SOL    HW138222   2.996   1.724   1.470  3.5866 -0.8857 -0.7423
 8862SOL    HW238223   3.081   1.613   1.518 -1.2765 -0.9804 -1.5352
 8863SOL     OW38224   1.007   0.180   5.059 -1.0519  0.3866 -0.0491
 8863SOL    HW138225   0.967   0.260   5.025 -1.5375  0.6533  1.1484
 8863SOL    HW238226   1.079   0.156   5.000  0.6098 -0.4450  2.3171
 8864SOL     OW38227   0.099   3.430   5.977  0.0172 -0.2459 -0.1070
 8864SOL    HW138228   0.138   3.365   6.037  0.1040  0.4649  0.6117
 8864SOL    HW238229   0.017   3.448   6.023  0.9058 -0.6579  1.6479
 8865SOL     OW38230   1.110   2.590   9.508  0.7617 -0.0584 -0.7647
 8865SOL    HW138231   1.197   2.549   9.508  1.1384  0.7367  0.0297
 8865SOL    HW238232   1.114   2.641   9.589  1.0806 -0.6097 -0.4299
 8866SOL     OW38233   1.708   0.414  11.914  0.1368 -0.2946  0.0703
 8866SOL    HW138234   1.727   0.505  11.935 -0.1459  0.0049 -0.9556
 8866SOL    HW238235   1.629   0.396  11.966 -0.2154  0.8973 -0.0552
 8867SOL     OW38236   3.671   4.073  11.418  0.0995  0.0174 -0.6008
 8867SOL    HW138237   3.725   4.149  11.395 -0.4156  0.2052 -1.1927
 8867SOL    HW238238   3.589   4.116  11.393 -0.9462 -1.4423  0.3441
 8868SOL     OW38239   2.561   4.213   5.568 -0.1569 -0.1213  0.2073
 8868SOL    HW138240   2.560   4.253   5.655  0.3337 -1.6872  0.9345
 8868SOL    HW238241   2.474   4.242   5.538  0.5658  0.9136 -0.9063
 8869SOL     OW38242   0.047   3.182   4.071 -0.1015 -0.5985 -0.2599
 8869SOL    HW138243   0.041   3.240   4.147  1.3898  0.6639 -1.0920
 8869SOL    HW238244   4.729   3.230   4.011  0.8067  1.2368  0.3190
 8870SOL     OW38245   0.558   2.838   2.897 -0.5272  0.2778 -0.3781
 8870SOL    HW138246   0.602   2.916   2.930 -3.8413  1.5292  1.0286
 8870SOL    HW238247   0.496   2.878   2.836 -0.5264 -0.2501 -0.7302
 8871SOL     OW38248   1.105   2.844   9.703  0.0795  0.2151 -0.2595
 8871SOL    HW138249   1.096   2.939   9.693 -0.1935  0.3100  0.8316
 8871SOL    HW238250   1.016   2.810   9.702 -0.1553  0.7410  2.0910
 8872SOL     OW38251   4.171   3.577   8.259 -0.0656  0.6214  0.3682
 8872SOL    HW138252   4.188   3.626   8.179 -1.1688 -1.7794 -1.3244
 8872SOL    HW238253   4.261   3.568   8.291  0.8146  1.5575 -1.8654
 8873SOL     OW38254   2.684   3.819   2.806  0.0609  0.1627 -0.0464
 8873SOL    HW138255   2.601   3.789   2.769  0.2025  2.4664 -2.2705
 8873SOL    HW238256   2.672   3.777   2.891  1.6622 -0.8631 -0.3219
 8874SOL     OW38257   2.575   0.582   3.201 -0.2846 -0.0224 -0.0468
 8874SOL    HW138258   2.526   0.519   3.148 -2.4001  0.9192  0.7907
 8874SOL    HW238259   2.662   0.543   3.203 -0.1977  0.0255 -2.6834
 8875SOL     OW38260   4.436   0.501  10.479  0.2186 -0.0685 -0.1056
 8875SOL    HW138261   4.519   0.536  10.514  1.5443 -0.8583 -2.4707
 8875SOL    HW238262   4.435   0.410  10.509  0.4343 -0.3658 -0.9984
 8876SOL     OW38263   2.624   4.532   5.443 -0.1528  0.1769 -0.1576
 8876SOL    HW138264   2.707   4.564   5.479 -0.2129 -0.9606  0.9549
 8876SOL    HW238265   2.657   4.477   5.372  0.0810  2.1779 -1.6318
 8877SOL     OW38266   3.305   2.202  17.079  0.1989  0.1593 -0.0117
 8877SOL    HW138267   3.397   2.210  17.054  0.3217 -2.5379 -0.3754
 8877SOL    HW238268   3.267   2.205  16.991 -1.9819 -0.2045  0.9429
 8878SOL     OW38269   3.111   1.938   0.643  0.5164 -0.5855 -0.3369
 8878SOL    HW138270   3.176   1.877   0.680  0.0254 -0.2776  1.0174
 8878SOL    HW238271   3.111   1.928   0.548 -0.3257  0.6230 -0.4561
 8879SOL     OW38272   4.061   1.036   6.605  0.5248  0.6444  0.2826
 8879SOL    HW138273   4.111   1.060   6.683 -1.1615  2.8236  0.7029
 8879SOL    HW238274   3.973   1.067   6.625  0.3605  0.3250  0.0426
 8880SOL     OW38275   1.546   3.598  17.216 -0.3673  0.2029 -0.2754
 8880SOL    HW138276   1.620   3.603  17.277 -0.8479  0.8731  0.2459
 8880SOL    HW238277   1.564   3.515  17.173 -0.0185  0.6012 -0.9115
 8881SOL     OW38278   2.534   4.708   8.942  0.1362  0.4751 -0.0211
 8881SOL    HW138279   2.489   4.693   9.026 -1.7389  0.7040 -0.9838
 8881SOL    HW238280   2.624   4.723   8.971  0.1833 -0.7778  0.4634
 8882SOL     OW38281   0.167   1.609   3.609  0.3023  0.0920  0.1537
 8882SOL    HW138282   0.252   1.622   3.651  0.4408  0.3609 -0.2124
 8882SOL    HW238283   0.193   1.592   3.518 -0.2129 -1.4498  0.2965
 8883SOL     OW38284   1.221   0.050   4.915  0.4712 -0.2263 -0.1183
 8883SOL    HW138285   1.167   4.712   4.898  0.3125 -0.0709 -0.3183
 8883SOL    HW238286   1.255   0.065   4.827 -0.5474  1.5107 -0.2106
 8884SOL     OW38287   4.710   2.710   1.599 -0.9793  0.3844  0.2603
 8884SOL    HW138288   0.041   2.722   1.662 -0.7356 -0.8988  0.2236
 8884SOL    HW238289   4.650   2.779   1.628 -1.2053  0.2996 -0.0069
 8885SOL     OW38290   3.718   3.948  17.084 -0.2180 -0.9925 -0.4299
 8885SOL    HW138291   3.791   3.895  17.054  0.8745 -0.4166  1.2066
 8885SOL    HW238292   3.651   3.922  17.020 -0.5459 -1.4539  0.1012
 8886SOL     OW38293   2.695   3.940   6.901  0.5786 -0.1717  0.6107
 8886SOL    HW138294   2.744   3.973   6.826 -1.5935  0.8941 -0.3594
 8886SOL    HW238295   2.753   3.876   6.943  0.3776 -0.5690  0.2805
 8887SOL     OW38296   2.469   3.957  10.140  0.5241  0.1287  0.0601
 8887SOL    HW138297   2.549   3.909  10.120  0.8136 -0.2072  2.0029
 8887SOL    HW238298   2.407   3.925  10.074 -0.8409  1.9786  0.4430
 8888SOL     OW38299   4.556   4.176   7.713  0.0775  0.6474 -0.3434
 8888SOL    HW138300   4.604   4.150   7.634  2.6725  0.9467  1.1553
 8888SOL    HW238301   4.598   4.259   7.733  1.8198  0.0004 -1.2935
 8889SOL     OW38302   2.903   2.838   4.770 -0.1269  0.0486 -0.7625
 8889SOL    HW138303   2.962   2.880   4.709  0.4535 -0.4181 -0.5259
 8889SOL    HW238304   2.964   2.796   4.831  0.9302  0.3022 -1.6620
 8890SOL     OW38305   1.124   3.665   8.657  0.4019  0.1260  0.3975
 8890SOL    HW138306   1.035   3.701   8.652  0.4795 -0.0924 -2.8702
 8890SOL    HW238307   1.169   3.704   8.582 -0.0494 -0.8095 -0.3726
 8891SOL     OW38308   2.383   1.377   8.167 -0.0796  0.4152  0.0701
 8891SOL    HW138309   2.352   1.432   8.095 -0.3736  0.1575  0.0032
 8891SOL    HW238310   2.364   1.292   8.127 -1.0982 -0.2113  1.8663
 8892SOL     OW38311   4.174   3.042   8.959  0.1134 -0.1396  0.0535
 8892SOL    HW138312   4.139   3.031   8.871 -0.0894  0.6148  0.0443
 8892SOL    HW238313   4.253   2.989   8.958  0.0137 -0.3658  4.0325
 8893SOL     OW38314   3.352   0.724   9.265 -0.1806  0.8356  0.0279
 8893SOL    HW138315   3.359   0.653   9.328 -0.2250  0.5238 -0.3190
 8893SOL    HW238316   3.355   0.799   9.324 -1.0664  2.1596 -1.5895
 8894SOL     OW38317   0.509   2.566  16.608  0.0101 -0.4149 -0.3726
 8894SOL    HW138318   0.525   2.635  16.543  0.2927  0.3934  0.5624
 8894SOL    HW238319   0.521   2.616  16.689  1.4866  0.5925 -1.1973
 8895SOL     OW38320   3.622   3.383   2.854 -0.3566  0.2330 -0.4478
 8895SOL    HW138321   3.688   3.328   2.898 -1.4586  1.1918  2.4470
 8895SOL    HW238322   3.657   3.396   2.766 -0.0228 -1.0582 -0.5102
 8896SOL     OW38323   4.064   1.070   8.535 -0.4732  0.2146 -0.3134
 8896SOL    HW138324   3.972   1.065   8.507 -0.5947  2.7561 -0.3722
 8896SOL    HW238325   4.054   1.026   8.620  0.8935  2.4805  1.0234
 8897SOL     OW38326   1.962   4.215   2.437  0.5964  0.1876  0.1152
 8897SOL    HW138327   1.954   4.257   2.523 -1.2486 -1.1626  0.5998
 8897SOL    HW238328   1.875   4.178   2.422  0.4429 -0.0278  1.5713
 8898SOL     OW38329   3.707   0.087   3.774 -0.0941 -0.5827  0.3663
 8898SOL    HW138330   3.718   0.007   3.723 -0.5903 -1.0061  0.9050
 8898SOL    HW238331   3.724   0.042   3.857 -2.2144 -1.4245  0.3496
 8899SOL     OW38332   0.136   1.203   4.317 -0.3729  0.7268 -0.5654
 8899SOL    HW138333   0.202   1.137   4.341 -1.3188 -0.5675 -1.4898
 8899SOL    HW238334   0.191   1.281   4.312 -0.8298  1.2750  3.0616
 8900SOL     OW38335   2.276   2.617   3.896 -0.0041  0.1095 -1.3005
 8900SOL    HW138336   2.262   2.619   3.991  0.5724  0.9853 -1.2366
 8900SOL    HW238337   2.352   2.559   3.898  0.8943  1.2750 -1.5997
 8901SOL     OW38338   3.914   0.890   6.409  0.1366 -0.2727 -0.2256
 8901SOL    HW138339   3.995   0.889   6.358  2.2636  0.8890  3.1448
 8901SOL    HW238340   3.877   0.978   6.395  0.9793 -0.1362 -1.5767
 8902SOL     OW38341   1.519   0.125   7.891  0.0550  0.5625 -0.3954
 8902SOL    HW138342   1.484   0.043   7.855  0.2186  1.1487 -1.8776
 8902SOL    HW238343   1.609   0.115   7.862 -0.1811 -0.7039 -0.7092
 8903SOL     OW38344   0.216   2.491   6.050  0.0409 -0.1565 -0.1583
 8903SOL    HW138345   0.300   2.534   6.066 -0.9572  1.3246  1.0953
 8903SOL    HW238346   0.153   2.529   6.111 -1.4106 -1.9590 -0.5516
 8904SOL     OW38347   3.674   1.439   7.964  1.0856  0.5571 -0.1681
 8904SOL    HW138348   3.706   1.527   7.941  0.7323  1.4688  2.8049
 8904SOL    HW238349   3.586   1.463   7.994  0.1326 -1.7428 -1.1605
 8905SOL     OW38350   1.717   4.192  15.948 -0.0425 -0.7422  0.4477
 8905SOL    HW138351   1.723   4.176  15.854 -0.4636  2.4000 -0.1049
 8905SOL    HW238352   1.640   4.247  15.966  1.1848  0.9558  0.4737
 8906SOL     OW38353   0.875   0.875  14.471  0.2242  0.0932 -0.3409
 8906SOL    HW138354   0.871   0.944  14.536  0.4330  1.5941 -1.9377
 8906SOL    HW238355   0.895   0.797  14.523  0.1346  1.2951  1.4953
 8907SOL     OW38356   2.023   4.449  12.173 -0.2917 -0.0726 -0.4649
 8907SOL    HW138357   2.045   4.535  12.137 -0.1694  0.1704  0.1938
 8907SOL    HW238358   1.996   4.408  12.091 -0.1931 -1.6117  0.2561
 8908SOL     OW38359   0.551   4.463   5.849  0.5508 -0.2031 -0.5960
 8908SOL    HW138360   0.533   4.420   5.765  1.8347 -2.6738  0.3771
 8908SOL    HW238361   0.461   4.494   5.856  0.2010 -1.6801  1.4918
 8909SOL     OW38362   1.125   4.622   1.263 -0.6327 -0.1411  0.1412
 8909SOL    HW138363   1.034   4.599   1.279  0.3172 -1.8300  3.1292
 8909SOL    HW238364   1.163   4.537   1.284 -0.5722 -0.3835 -0.9261
 8910SOL     OW38365   0.957   1.510   9.477 -0.4833 -0.1154  0.0017
 8910SOL    HW138366   1.038   1.549   9.444 -1.1034  0.6662 -0.5901
 8910SOL    HW238367   0.935   1.567   9.551  0.3826  2.1382 -1.4765
 8911SOL     OW38368   2.327   4.692   3.084 -0.6045  0.2664  0.2751
 8911SOL    HW138369   2.335   4.604   3.120  0.4512  2.0283  4.3658
 8911SOL    HW238370   2.415   4.717   3.059 -1.3844  1.2943 -1.4684
 8912SOL     OW38371   2.576   3.053  13.269 -0.5080 -0.1673 -0.3678
 8912SOL    HW138372   2.584   2.959  13.285  0.8814  0.0587  0.3352
 8912SOL    HW238373   2.493   3.055  13.222 -1.7411 -0.9264  1.8433
 8913SOL     OW38374   1.129   1.750   2.844 -0.2306 -0.2889 -0.1036
 8913SOL    HW138375   1.041   1.712   2.847 -0.6102  0.6134  0.1382
 8913SOL    HW238376   1.185   1.678   2.873 -1.0095 -0.2295  1.5676
 8914SOL     OW38377   2.436   2.366   1.105 -0.3370 -0.0880 -0.2447
 8914SOL    HW138378   2.503   2.330   1.163 -1.5207 -1.5435  0.2420
 8914SOL    HW238379   2.417   2.301   1.038 -2.2210 -1.1959  1.3376
 8915SOL     OW38380   4.434   2.332   8.632  0.0255  0.3503 -0.4961
 8915SOL    HW138381   4.511   2.388   8.624 -0.7942  0.8684 -4.7555
 8915SOL    HW238382   4.367   2.399   8.613 -2.0053 -1.2358  1.0905
 8916SOL     OW38383   2.416   4.118   7.674 -0.2506  0.5254 -0.1907
 8916SOL    HW138384   2.427   4.073   7.758 -1.3326  1.7498  0.5930
 8916SOL    HW238385   2.459   4.055   7.615  0.2310  1.3471 -0.7098
 8917SOL     OW38386   0.505   3.241   7.602  0.8012 -0.3104 -0.2551
 8917SOL    HW138387   0.494   3.334   7.582  1.0472 -0.0716  0.7741
 8917SOL    HW238388   0.451   3.196   7.536 -0.6571 -0.6766  1.2021
 8918SOL     OW38389   2.321   0.090   7.118 -0.0345  0.2111 -0.2235
 8918SOL    HW138390   2.368   0.160   7.164  0.2668  0.4082 -0.8432
 8918SOL    HW238391   2.292   0.031   7.188 -0.2629 -1.4529 -1.7327
 8919SOL     OW38392   2.401   3.104   4.067  0.5491  0.3949 -0.2402
 8919SOL    HW138393   2.323   3.066   4.106  1.2065 -1.0990 -0.4073
 8919SOL    HW238394   2.473   3.068   4.118  2.8918  1.9078 -2.4842
 8920SOL     OW38395   3.045   1.186   7.773  0.2231 -1.0229 -0.2271
 8920SOL    HW138396   3.107   1.115   7.789 -0.9343 -2.0087 -0.0377
 8920SOL    HW238397   3.100   1.250   7.728  0.2618 -0.4536  0.6279
 8921SOL     OW38398   2.624   4.616   2.520  0.5852 -0.2060  0.4299
 8921SOL    HW138399   2.537   4.594   2.555 -0.1359  0.1071 -1.1701
 8921SOL    HW238400   2.622   4.559   2.442  2.5540  1.4571 -0.8174
 8922SOL     OW38401   1.745   3.704  13.366  0.1178  0.0495 -0.4145
 8922SOL    HW138402   1.666   3.666  13.406  0.4681 -0.4314 -0.1841
 8922SOL    HW238403   1.814   3.639  13.383 -0.1614 -0.1361  0.0326
 8923SOL     OW38404   2.511   3.218   4.899  0.3603 -0.0639 -0.2895
 8923SOL    HW138405   2.492   3.215   4.993 -0.2750  0.5169 -0.3969
 8923SOL    HW238406   2.602   3.248   4.899 -0.2054  1.6828  0.2454
 8924SOL     OW38407   3.307   3.903   2.386  0.2373 -0.0159 -0.7084
 8924SOL    HW138408   3.359   3.983   2.392  1.8539 -1.0713 -0.4787
 8924SOL    HW238409   3.281   3.882   2.475  1.1178 -0.7968 -0.6292
 8925SOL     OW38410   0.920   2.745   6.533  0.6182 -0.2352  0.6709
 8925SOL    HW138411   0.973   2.729   6.454 -1.4843 -2.4746 -0.2882
 8925SOL    HW238412   0.985   2.734   6.602  2.3888 -0.0796 -0.9747
 8926SOL     OW38413   3.967   0.992  17.016  0.7273  0.1787  0.4686
 8926SOL    HW138414   4.024   1.025  16.947  0.1011  0.9647  0.3336
 8926SOL    HW238415   3.973   0.897  17.004 -0.1804  0.1083  0.6012
 8927SOL     OW38416   1.215   3.237   9.090 -0.2743  0.4304  0.2379
 8927SOL    HW138417   1.261   3.314   9.122  3.9450 -2.0281  0.0184
 8927SOL    HW238418   1.277   3.194   9.030  0.7148 -0.0698  1.6274
 8928SOL     OW38419   1.760   0.066   5.018 -0.6169  0.3572 -0.1595
 8928SOL    HW138420   1.719   0.030   5.097  0.2582  0.8781  0.5298
 8928SOL    HW238421   1.851   0.086   5.041 -0.3590  0.0869 -0.9410
 8929SOL     OW38422   2.895   2.929  13.823  0.4121  0.6629 -0.0744
 8929SOL    HW138423   2.876   2.840  13.855 -0.6085  0.8599 -0.1491
 8929SOL    HW238424   2.814   2.972  13.798 -1.0171 -0.0465  3.3084
 8930SOL     OW38425   1.974   0.963   3.670 -0.3376 -0.5192  0.3672
 8930SOL    HW138426   2.015   1.002   3.747 -2.0608  0.4241  0.8179
 8930SOL    HW238427   2.014   1.015   3.600  0.6362 -0.6192  0.8439
 8931SOL     OW38428   4.584   1.421   6.426  0.1247  0.2717  0.6534
 8931SOL    HW138429   4.668   1.383   6.453 -1.3400 -1.6212  2.5093
 8931SOL    HW238430   4.619   1.499   6.384  2.3938 -0.4758  1.1810
 8932SOL     OW38431   1.853   3.521   5.287  0.1696 -0.0007 -0.4288
 8932SOL    HW138432   1.775   3.553   5.332 -0.0816 -1.4220  0.1162
 8932SOL    HW238433   1.912   3.596   5.301 -2.2090  1.5096  1.5856
 8933SOL     OW38434   1.805   3.442   5.000 -0.3552 -0.5351 -0.4909
 8933SOL    HW138435   1.866   3.369   4.992  1.2940  1.0024 -2.0547
 8933SOL    HW238436   1.780   3.435   5.092  0.2766  0.8658 -0.2116
 8934SOL     OW38437   1.211   1.330   7.398 -0.0180  0.3709 -0.2164
 8934SOL    HW138438   1.267   1.306   7.472  0.3379 -1.5786 -1.1166
 8934SOL    HW238439   1.126   1.316   7.441 -1.7455  2.1871 -3.0734
 8935SOL     OW38440   4.439   4.592   7.467  0.5282  0.0482 -0.1375
 8935SOL    HW138441   4.437   4.678   7.508 -0.6943 -0.0772  0.0801
 8935SOL    HW238442   4.423   4.535   7.543 -2.2413  2.1711  0.8905
 8936SOL     OW38443   4.394   0.785   7.353  0.2585 -0.8657  0.2472
 8936SOL    HW138444   4.404   0.735   7.272 -0.8617 -2.0048  0.8121
 8936SOL    HW238445   4.418   0.718   7.417  1.3412 -0.3944  0.3483
 8937SOL     OW38446   3.882   2.488   7.177 -0.2156 -0.2365 -0.0110
 8937SOL    HW138447   3.958   2.501   7.234 -0.8664 -3.4735  1.5655
 8937SOL    HW238448   3.894   2.557   7.110  1.6817  1.9313  2.5701
 8938SOL     OW38449   0.537   1.889   3.143 -0.0515 -0.0229  0.3593
 8938SOL    HW138450   0.477   1.878   3.069 -1.3635 -0.4567  1.5122
 8938SOL    HW238451   0.518   1.981   3.161  0.0428  0.3027 -1.1530
 8939SOL     OW38452   4.662   0.266   7.563  1.0983 -0.0051 -0.2898
 8939SOL    HW138453   4.599   0.307   7.503  0.4377  0.0482  0.4452
 8939SOL    HW238454   4.733   0.234   7.508  1.2125  0.4997 -0.4338
 8940SOL     OW38455   1.002   1.012   4.417  0.3910 -0.6162  0.3345
 8940SOL    HW138456   1.058   1.086   4.391  2.3793 -1.9392  0.8556
 8940SOL    HW238457   1.025   1.014   4.510  1.7653 -1.2367  0.0157
 8941SOL     OW38458   4.071   1.519  10.775  0.0044 -0.9003  0.0004
 8941SOL    HW138459   4.166   1.529  10.767  0.0765 -2.4465 -0.8739
 8941SOL    HW238460   4.032   1.607  10.776 -1.2583 -1.4633 -0.7315
 8942SOL     OW38461   3.780   4.441   8.913  0.4811  0.3726 -0.3582
 8942SOL    HW138462   3.846   4.429   8.845 -0.5294  2.9811 -1.7952
 8942SOL    HW238463   3.824   4.504   8.971  1.0670  0.5466 -0.9857
 8943SOL     OW38464   0.881   0.312   3.036  1.0352 -0.5652  0.4594
 8943SOL    HW138465   0.851   0.400   3.059  1.8422  0.3353 -1.9827
 8943SOL    HW238466   0.810   0.281   2.981  0.3358  1.6428  0.1097
 8944SOL     OW38467   3.009   2.208   4.976 -0.6122  0.0676 -0.3597
 8944SOL    HW138468   3.016   2.263   5.054  3.6439 -1.9610  0.6479
 8944SOL    HW238469   3.095   2.166   4.973 -0.1896  0.8850  0.2733
 8945SOL     OW38470   2.257   2.046   2.420 -0.3110  0.3222 -0.3954
 8945SOL    HW138471   2.171   2.030   2.461 -0.6041 -0.9434 -1.4736
 8945SOL    HW238472   2.240   2.104   2.345 -0.3930  1.0953  0.2259
 8946SOL     OW38473   2.001   0.986  11.353 -0.6129 -0.2685 -0.0487
 8946SOL    HW138474   1.955   0.908  11.322  0.2732 -0.3102 -1.2774
 8946SOL    HW238475   1.927   1.031  11.393 -0.1249  0.2157  0.3128
 8947SOL     OW38476   2.124   2.109   3.908  0.3463  0.5770 -0.3516
 8947SOL    HW138477   2.187   2.061   3.963  2.3292  0.7752 -2.4563
 8947SOL    HW238478   2.119   2.055   3.829 -0.2352  0.0001  0.0696
 8948SOL     OW38479   1.429   3.240   4.105  0.0266  0.2739  0.6913
 8948SOL    HW138480   1.443   3.329   4.073 -1.5151  0.3604  0.2449
 8948SOL    HW238481   1.490   3.235   4.179  0.7071  0.8090  0.1534
 8949SOL     OW38482   3.048   0.155   6.489 -0.4565  0.0041 -0.5534
 8949SOL    HW138483   3.002   0.189   6.412  0.1512  0.0065 -0.9109
 8949SOL    HW238484   3.123   0.120   6.441 -0.0526 -2.2834  1.7594
 8950SOL     OW38485   1.182   0.800   2.250  0.1564 -0.5208 -0.5654
 8950SOL    HW138486   1.202   0.838   2.335  0.7502 -2.3765  0.1441
 8950SOL    HW238487   1.149   0.876   2.202 -2.4174  0.0596  2.1182
 8951SOL     OW38488   4.439   1.517   5.060 -0.6334 -0.6932  0.2733
 8951SOL    HW138489   4.504   1.484   4.999  0.4433  1.8519  0.0211
 8951SOL    HW238490   4.356   1.481   5.028 -1.5541  1.1647  0.5633
 8952SOL     OW38491   0.276   3.792  11.832 -0.3247  0.0063  0.1116
 8952SOL    HW138492   0.234   3.878  11.833  0.2661  0.2911  0.2438
 8952SOL    HW238493   0.303   3.779  11.923 -2.2102 -2.2882  0.3483
 8953SOL     OW38494   3.649   2.243   4.162  0.0635 -0.2456  0.3057
 8953SOL    HW138495   3.700   2.228   4.083 -1.9493 -2.1964 -0.6173
 8953SOL    HW238496   3.606   2.321   4.126  2.7775  0.7423 -0.8436
 8954SOL     OW38497   0.423   2.430   5.135  0.2170  0.3563  0.2020
 8954SOL    HW138498   0.384   2.479   5.062  0.4009 -1.0343 -0.8295
 8954SOL    HW238499   0.497   2.482   5.166 -0.2651  1.5554 -0.6369
 8955SOL     OW38500   3.607   4.356   1.126 -0.0117  0.3927 -0.1870
 8955SOL    HW138501   3.616   4.428   1.187 -1.5138 -1.4752  2.2509
 8955SOL    HW238502   3.565   4.396   1.049 -1.1339 -0.1864  0.1327
 8956SOL     OW38503   2.025   3.570   6.024  0.3253 -0.0533  0.0969
 8956SOL    HW138504   2.070   3.530   5.950  1.0680 -0.0355  0.5416
 8956SOL    HW238505   2.044   3.507   6.093 -0.2301  0.4248  0.6849
 8957SOL     OW38506   1.036   0.633   7.776  0.0675  0.5220  0.0819
 8957SOL    HW138507   0.953   0.601   7.739 -0.0990 -0.1140  1.0022
 8957SOL    HW238508   1.054   0.692   7.703  0.1949  0.4786  0.0782
 8958SOL     OW38509   3.909   3.791  13.595 -0.2502  0.5725 -0.7607
 8958SOL    HW138510   3.993   3.787  13.550  0.2515  2.3020  0.0043
 8958SOL    HW238511   3.914   3.804  13.690  0.0773  1.1780 -0.8579
 8959SOL     OW38512   3.246   3.447   3.622  0.0116  0.6540 -0.1057
 8959SOL    HW138513   3.285   3.475   3.704  0.4734  0.7744 -0.3667
 8959SOL    HW238514   3.316   3.397   3.581 -0.3853 -0.2911  0.3598
 8960SOL     OW38515   2.918   3.310   6.343  0.6787  0.4058 -0.0441
 8960SOL    HW138516   2.989   3.283   6.401  0.3862 -0.2173  0.0175
 8960SOL    HW238517   2.874   3.372   6.402  1.1620 -1.4502  2.2776
 8961SOL     OW38518   1.910   3.279   8.117  0.1542  0.3852  0.3878
 8961SOL    HW138519   1.870   3.192   8.115  1.7814 -0.2968 -2.5606
 8961SOL    HW238520   1.993   3.261   8.160 -0.8364  0.4399  2.3179
 8962SOL     OW38521   0.797   3.852   6.423  0.2914 -0.0462 -0.9091
 8962SOL    HW138522   0.784   3.833   6.516 -1.1635 -0.7278 -1.2596
 8962SOL    HW238523   0.724   3.812   6.375 -0.2054 -2.2795  1.7335
 8963SOL     OW38524   1.735   2.587   0.109  0.2754 -0.1821 -0.0122
 8963SOL    HW138525   1.808   2.531   0.136 -1.2238 -1.8703  0.5651
 8963SOL    HW238526   1.681   2.597   0.188 -0.7123  1.3201 -0.8699
 8964SOL     OW38527   0.884   3.011   6.656 -0.1977  0.2869 -0.4746
 8964SOL    HW138528   0.897   3.015   6.751 -2.3673  2.6408 -0.2932
 8964SOL    HW238529   0.946   2.942   6.634  0.2144  0.7348 -0.7100
 8965SOL     OW38530   2.369   0.387   5.189  0.3494 -0.1709 -0.4532
 8965SOL    HW138531   2.427   0.322   5.148  0.8815 -0.3766  0.6325
 8965SOL    HW238532   2.424   0.466   5.195  0.3831 -0.2277 -0.0276
 8966SOL     OW38533   1.908   4.317  11.945 -0.5090 -0.7035 -0.4805
 8966SOL    HW138534   1.971   4.255  11.907 -0.0685 -0.5060 -0.0806
 8966SOL    HW238535   1.846   4.257  11.986 -0.1638 -1.5544 -1.1884
 8967SOL     OW38536   1.624   1.353   1.347  0.1637 -0.2069  0.0837
 8967SOL    HW138537   1.694   1.377   1.408 -0.9364  0.5464  1.0789
 8967SOL    HW238538   1.619   1.419   1.277 -0.6371  0.8259  1.1016
 8968SOL     OW38539   2.993   2.472  15.611 -0.0209  0.1987  0.1242
 8968SOL    HW138540   2.946   2.461  15.694  0.8619 -0.8623  0.4824
 8968SOL    HW238541   3.014   2.382  15.588  0.8070  0.0434  1.4501
 8969SOL     OW38542   2.282   4.272  12.035  0.0386 -0.4347 -0.1342
 8969SOL    HW138543   2.376   4.293  12.038  0.3965 -1.9214 -1.2514
 8969SOL    HW238544   2.261   4.310  12.121 -0.2926  1.5399 -1.0950
 8970SOL     OW38545   1.786   0.227   7.775  0.0055  0.2200 -0.2194
 8970SOL    HW138546   1.801   0.312   7.734  1.4802  1.0558  2.0621
 8970SOL    HW238547   1.823   0.239   7.862 -1.8079 -0.9017  0.7134
 8971SOL     OW38548   3.375   4.236  11.485  0.3183 -0.4511  0.3718
 8971SOL    HW138549   3.391   4.173  11.415  0.6714 -2.2760  2.0909
 8971SOL    HW238550   3.437   4.302  11.454  0.7830 -1.5079 -0.9742
 8972SOL     OW38551   1.036   1.360   6.647 -0.0149 -0.2991 -0.2573
 8972SOL    HW138552   0.956   1.410   6.631  1.9466  3.3271  1.3746
 8972SOL    HW238553   0.989   1.277   6.659  0.1849 -0.6566 -1.9982
 8973SOL     OW38554   0.235   2.264  13.920 -0.0877 -0.4147  0.0969
 8973SOL    HW138555   0.276   2.178  13.924  2.0995  0.5635 -1.1861
 8973SOL    HW238556   0.245   2.297  14.009  1.8257 -0.1162 -0.2397
 8974SOL     OW38557   0.949   3.432   3.326 -0.5704  0.0458 -0.3458
 8974SOL    HW138558   0.914   3.431   3.415 -2.1102  0.4825 -0.9321
 8974SOL    HW238559   0.867   3.427   3.276 -0.9686  0.2339  0.2817
 8975SOL     OW38560   2.113   0.523   9.032 -0.1164  0.2670 -0.3746
 8975SOL    HW138561   2.069   0.573   9.101  0.4998  0.5512 -0.1870
 8975SOL    HW238562   2.107   0.435   9.070 -0.5770  0.1464 -0.7384
 8976SOL     OW38563   0.227   3.801   3.757  0.2634 -0.0384  0.1315
 8976SOL    HW138564   0.163   3.730   3.756  1.0131 -0.7127 -0.3732
 8976SOL    HW238565   0.176   3.879   3.738  1.5218  1.0610  1.2510
 8977SOL     OW38566   0.351   1.448  13.567 -0.0033 -0.1555 -0.3042
 8977SOL    HW138567   0.335   1.378  13.630  0.9176 -1.2368 -1.2683
 8977SOL    HW238568   0.433   1.425  13.524  0.3267  0.5027 -0.0206
 8978SOL     OW38569   3.359   0.770   1.875 -0.1223 -0.5578  0.4227
 8978SOL    HW138570   3.265   0.757   1.861  0.4919 -3.2396 -1.2892
 8978SOL    HW238571   3.372   0.849   1.824 -0.0848 -0.3740  0.7159
 8979SOL     OW38572   0.157   4.671   3.169  0.0627 -0.5329 -0.2516
 8979SOL    HW138573   0.173   0.012   3.219 -0.2535 -1.0189  0.6415
 8979SOL    HW238574   0.223   4.676   3.100  0.8043  2.1042  0.6284
 8980SOL     OW38575   1.425   4.497   1.148 -0.2885 -0.2169  0.3075
 8980SOL    HW138576   1.438   4.562   1.217  0.7605  0.5670 -0.6506
 8980SOL    HW238577   1.343   4.464   1.186 -0.3284 -0.9157 -0.3690
 8981SOL     OW38578   2.513   4.160   5.143 -0.2360 -0.3623 -0.3915
 8981SOL    HW138579   2.470   4.239   5.176 -0.5692 -0.2984 -0.9947
 8981SOL    HW238580   2.590   4.161   5.200 -1.8103  0.4035  1.7538
 8982SOL     OW38581   1.566   1.861   7.170 -0.2125 -0.0457  0.5326
 8982SOL    HW138582   1.655   1.879   7.141 -0.3023 -0.7346 -0.1801
 8982SOL    HW238583   1.519   1.930   7.122 -1.1448 -0.7747  0.4044
 8983SOL     OW38584   4.682   1.280   8.473 -0.4731 -0.4182  0.0634
 8983SOL    HW138585   4.688   1.191   8.508 -0.4079 -0.5706 -0.3396
 8983SOL    HW238586   4.663   1.257   8.382 -1.0915  3.8682 -0.8927
 8984SOL     OW38587   4.156   4.724   3.292  0.1373 -0.6056 -0.1300
 8984SOL    HW138588   4.210   4.646   3.283  1.5628  0.3195  0.3540
 8984SOL    HW238589   4.220   0.053   3.312  0.2358 -1.4408  2.3849
 8985SOL     OW38590   0.678   1.525   6.800 -0.5436  0.0763  0.3089
 8985SOL    HW138591   0.694   1.471   6.877  0.3946  0.0089  0.0627
 8985SOL    HW238592   0.654   1.611   6.835 -2.6693 -0.5555  0.3670
 8986SOL     OW38593   3.442   1.546   8.718 -0.3617  0.0678  0.8685
 8986SOL    HW138594   3.538   1.544   8.718 -0.3322  1.7275 -0.3723
 8986SOL    HW238595   3.424   1.612   8.785 -0.6145 -1.4286  2.2835
 8987SOL     OW38596   1.849   1.926   8.183  0.4874 -0.1320  0.1526
 8987SOL    HW138597   1.839   1.994   8.250 -1.2800  0.7565 -1.0363
 8987SOL    HW238598   1.843   1.988   8.111  1.4475  0.6099  0.7129
 8988SOL     OW38599   2.784   4.718  10.582  0.0432 -0.8007 -0.4894
 8988SOL    HW138600   2.753   4.644  10.634  0.2287 -1.0912 -0.7917
 8988SOL    HW238601   2.838   0.015  10.652 -3.1968 -0.3389  1.7371
 8989SOL     OW38602   4.125   4.545   7.590 -0.0441  0.4966  0.6043
 8989SOL    HW138603   4.143   4.627   7.636 -0.5133  0.5953  0.6165
 8989SOL    HW238604   4.030   4.555   7.584  0.0532  0.7676 -0.5870
 8990SOL     OW38605   3.430   0.917   3.903 -0.3389 -0.3506  0.1022
 8990SOL    HW138606   3.462   0.977   3.970  2.5779 -1.8004  0.0304
 8990SOL    HW238607   3.392   0.844   3.951  0.1993 -1.5946 -1.3420
 8991SOL     OW38608   3.139   1.883   0.375 -0.1262  0.6080 -0.1117
 8991SOL    HW138609   3.120   1.794   0.344 -0.1180  0.5522  0.0452
 8991SOL    HW238610   3.218   1.905   0.325 -0.6918  0.9643 -0.8464
 8992SOL     OW38611   1.046   1.151  10.914 -0.2618  0.8148  0.1584
 8992SOL    HW138612   1.063   1.130  11.006 -1.1600  1.8090  0.5566
 8992SOL    HW238613   1.079   1.069  10.878 -0.2096  1.4270 -1.1808
 8993SOL     OW38614   0.341   4.739  17.479 -0.0958 -0.4269  0.7387
 8993SOL    HW138615   0.259   4.690  17.473 -0.2996  0.1823 -1.4923
 8993SOL    HW238616   0.402   4.669  17.505  1.5131  0.2429 -1.1558
 8994SOL     OW38617   0.424   4.460   1.496  0.2704  0.3572  0.1752
 8994SOL    HW138618   0.491   4.401   1.462  1.7082  0.8840  2.1171
 8994SOL    HW238619   0.448   4.539   1.448 -1.0003  0.0554 -0.9754
 8995SOL     OW38620   2.346   3.213   3.055  0.3256 -0.0308 -0.4655
 8995SOL    HW138621   2.349   3.175   2.967  0.1104  0.6896 -0.7857
 8995SOL    HW238622   2.399   3.141   3.090 -0.0350  0.0913  0.3388
 8996SOL     OW38623   4.455   0.473   2.934  0.3441  0.2734  0.0125
 8996SOL    HW138624   4.447   0.415   2.858  0.7071 -0.3112  0.4164
 8996SOL    HW238625   4.379   0.529   2.920  1.2222  0.7169 -2.9178
 8997SOL     OW38626   1.672   4.295  15.493  0.2427  0.1704 -0.8558
 8997SOL    HW138627   1.630   4.333  15.571 -1.4124  1.1245 -2.2274
 8997SOL    HW238628   1.641   4.352  15.423  1.2074  1.1678 -0.4610
 8998SOL     OW38629   1.539   3.258   9.191  0.0489  0.3260  0.3827
 8998SOL    HW138630   1.451   3.222   9.194 -0.2749  0.9320 -1.8779
 8998SOL    HW238631   1.527   3.322   9.121 -1.3986 -1.9556 -1.4607
 8999SOL     OW38632   3.580   2.170   2.785 -0.1983 -0.4735  0.5840
 8999SOL    HW138633   3.534   2.188   2.867 -0.2064 -1.2268  0.7498
 8999SOL    HW238634   3.635   2.096   2.811  0.0318 -0.4538  0.1527
 9000SOL     OW38635   3.202   3.982   6.407  0.8979 -0.4719  0.1340
 9000SOL    HW138636   3.110   3.988   6.432  0.8736  0.8384 -0.2976
 9000SOL    HW238637   3.190   3.922   6.333 -1.4406 -0.7227  0.7205
 9001SOL     OW38638   0.269   4.399   7.273  1.1040 -0.2187 -0.2217
 9001SOL    HW138639   0.364   4.388   7.272  1.5483  3.7508 -0.6850
 9001SOL    HW238640   0.244   4.335   7.340  0.7626 -2.3440 -2.3654
 9002SOL     OW38641   3.523   4.405   1.536  0.8143 -0.2065 -0.1773
 9002SOL    HW138642   3.589   4.414   1.468  2.0563  0.6757  1.1563
 9002SOL    HW238643   3.454   4.363   1.484  2.3624 -0.9019 -1.6828
 9003SOL     OW38644   2.346   1.941  12.478  0.0600  0.1559  0.1458
 9003SOL    HW138645   2.361   2.029  12.445  0.0323  0.1095  0.0060
 9003SOL    HW238646   2.412   1.891  12.430 -0.7288  0.0280 -0.8067
 9004SOL     OW38647   0.835   0.736  14.735  0.0653 -0.2244 -0.0749
 9004SOL    HW138648   0.827   0.671  14.665 -1.3089 -0.5408  0.3629
 9004SOL    HW238649   0.920   0.718  14.775 -0.7697 -1.8893  0.9520
 9005SOL     OW38650   3.095   3.104   3.570  0.6220 -0.7158  0.3292
 9005SOL    HW138651   3.032   3.065   3.509 -1.2896  0.9863  1.2000
 9005SOL    HW238652   3.140   3.170   3.517  1.3821 -0.9579  0.6734
 9006SOL     OW38653   3.668   1.188   5.465 -0.3048 -0.2773 -0.4648
 9006SOL    HW138654   3.575   1.207   5.452 -0.3603  0.0757  0.4702
 9006SOL    HW238655   3.655   1.134   5.542 -1.5884  2.2533  1.0811
 9007SOL     OW38656   0.889   1.436   7.225  0.1534 -0.2412 -0.4811
 9007SOL    HW138657   0.863   1.519   7.186  2.0234  0.6792  0.2504
 9007SOL    HW238658   0.937   1.473   7.299  0.8138 -1.0814 -0.4913
 9008SOL     OW38659   0.244   3.672   8.370 -0.3143  0.1778 -0.1255
 9008SOL    HW138660   0.313   3.735   8.348 -1.6653  1.0977 -1.7604
 9008SOL    HW238661   0.194   3.724   8.432  1.2273  1.7356 -0.1584
 9009SOL     OW38662   0.876   4.521   6.973  0.0868  0.1689 -0.6439
 9009SOL    HW138663   0.854   4.548   6.884 -0.9517  0.5657 -0.2686
 9009SOL    HW238664   0.829   4.592   7.017  0.0251 -0.4996  0.3683
 9010SOL     OW38665   3.636   1.856   8.953 -0.2649 -0.0634  0.1443
 9010SOL    HW138666   3.627   1.950   8.938 -1.0194 -0.1083  0.2941
 9010SOL    HW238667   3.718   1.831   8.912 -0.4451  2.3622 -1.7421
 9011SOL     OW38668   4.069   2.622   5.870  0.3677 -0.0221  0.2668
 9011SOL    HW138669   4.137   2.665   5.818  1.9659 -1.3078  1.2981
 9011SOL    HW238670   4.004   2.584   5.811 -0.9132  1.9240  0.4167
 9012SOL     OW38671   0.725   4.487   5.604  0.6906  0.3602  0.2152
 9012SOL    HW138672   0.758   4.488   5.514  0.7957  0.0819  0.2475
 9012SOL    HW238673   0.638   4.526   5.597 -0.2160 -1.4378  1.2924
 9013SOL     OW38674   2.357   3.585   9.609  0.3897  0.2041  0.2011
 9013SOL    HW138675   2.277   3.623   9.646  0.6354  2.2924 -1.3868
 9013SOL    HW238676   2.417   3.623   9.673  0.1224 -0.9794  1.1517
 9014SOL     OW38677   4.599   3.798   4.525  0.0074 -0.3856 -0.2178
 9014SOL    HW138678   4.559   3.830   4.444  1.1499  0.5914 -0.3873
 9014SOL    HW238679   4.613   3.879   4.573  1.7765 -0.4517 -0.6184
 9015SOL     OW38680   4.518   4.169  13.518  0.1033  0.1561  0.3479
 9015SOL    HW138681   4.457   4.120  13.573 -2.0022  3.8100  1.2617
 9015SOL    HW238682   4.508   4.258  13.551  1.9654  0.4450  0.1538
 9016SOL     OW38683   0.237   1.926   6.340  0.0241  0.0594  0.1218
 9016SOL    HW138684   0.233   1.905   6.433  1.1794  0.3983  0.2503
 9016SOL    HW238685   0.172   1.995   6.323  0.9022  0.1790 -2.6968
 9017SOL     OW38686   3.799   4.169   4.209 -0.0196 -0.4851  0.0006
 9017SOL    HW138687   3.802   4.096   4.148 -2.0598 -0.3550 -0.2591
 9017SOL    HW238688   3.707   4.195   4.211 -0.1578 -1.0430  1.4401
 9018SOL     OW38689   4.161   4.576   1.943 -0.8617 -0.1852  0.0335
 9018SOL    HW138690   4.076   4.591   1.901 -0.8539 -1.0427 -0.2798
 9018SOL    HW238691   4.164   4.481   1.956 -2.8014 -0.3297 -0.6432
 9019SOL     OW38692   3.221   0.324  17.268 -0.4306 -0.1193 -0.2596
 9019SOL    HW138693   3.170   0.368  17.335  0.0039 -0.1763  0.1123
 9019SOL    HW238694   3.197   0.362  17.183 -2.1428  0.1860  0.3806
 9020SOL     OW38695   4.368   3.297   6.436 -0.3054 -0.0751  0.1560
 9020SOL    HW138696   4.281   3.307   6.398 -0.2350  1.5452  0.4174
 9020SOL    HW238697   4.353   3.232   6.505 -2.1435  1.0202  0.7585
 9021SOL     OW38698   4.597   1.781  11.019 -0.3388  0.2207  0.2431
 9021SOL    HW138699   4.583   1.729  11.098  1.4186 -1.1687 -0.3486
 9021SOL    HW238700   4.571   1.720  10.951 -3.0671  0.2626  1.2490
 9022SOL     OW38701   3.817   4.640   5.270  0.5034  0.3553 -0.4732
 9022SOL    HW138702   3.839   4.574   5.203  0.7456  2.9510 -2.9573
 9022SOL    HW238703   3.775   4.591   5.341  0.3740 -0.1550 -0.8950
 9023SOL     OW38704   2.545   3.575  10.409 -0.4202 -0.5428  0.0891
 9023SOL    HW138705   2.571   3.657  10.450  2.0875  0.3774 -3.3380
 9023SOL    HW238706   2.574   3.588  10.319 -0.6995  0.7362  0.1887
 9024SOL     OW38707   1.871   3.183  13.765 -0.2879 -0.9633  0.1076
 9024SOL    HW138708   1.949   3.196  13.710 -0.6320  1.3050  0.1539
 9024SOL    HW238709   1.824   3.117  13.714 -1.5789  0.9414 -1.1944
 9025SOL     OW38710   0.816   0.801  17.641 -0.9941 -0.1604  0.4642
 9025SOL    HW138711   0.822   0.757  17.725  1.5088 -0.0252  0.3656
 9025SOL    HW238712   0.874   0.748  17.585  2.0752  2.8383  0.7649
 9026SOL     OW38713   0.862   2.093  10.087 -0.2524  0.2481  0.0269
 9026SOL    HW138714   0.780   2.044  10.089  1.4570 -2.5876  0.4527
 9026SOL    HW238715   0.920   2.019  10.067 -0.1338  0.2532  0.3468
 9027SOL     OW38716   1.931   3.652  16.462  0.2679  0.2076 -0.0889
 9027SOL    HW138717   1.839   3.638  16.482  0.6072 -0.9985  0.5822
 9027SOL    HW238718   1.921   3.665  16.367 -0.0165  0.3318 -0.0419
 9028SOL     OW38719   1.774   0.055   3.885  0.4026 -0.2093  0.3082
 9028SOL    HW138720   1.858   0.015   3.863 -0.0576 -1.1777  0.2778
 9028SOL    HW238721   1.762   0.134   3.832  1.1703 -0.3793 -0.1244
 9029SOL     OW38722   3.860   2.181   5.700 -0.1522  0.2349  0.1405
 9029SOL    HW138723   3.781   2.160   5.650  0.0502 -0.5950  0.1572
 9029SOL    HW238724   3.930   2.154   5.641  0.3216  2.1774 -0.1850
 9030SOL     OW38725   1.946   0.139  14.253 -0.0952 -0.1693  0.4131
 9030SOL    HW138726   2.027   0.128  14.204 -0.2248  0.1351  0.1306
 9030SOL    HW238727   1.919   0.049  14.272 -0.5808 -0.9184 -3.9032
 9031SOL     OW38728   3.266   2.207   3.154 -0.6634  0.3942  0.2744
 9031SOL    HW138729   3.189   2.157   3.178  0.1015 -1.7020 -1.6598
 9031SOL    HW238730   3.304   2.233   3.238  0.6505 -0.1207 -0.1608
 9032SOL     OW38731   0.468   4.191  11.079 -0.1904 -0.2996 -0.1472
 9032SOL    HW138732   0.518   4.195  10.998  0.6199 -0.1461  0.3629
 9032SOL    HW238733   0.390   4.240  11.052  0.9794  0.7362 -1.6165
 9033SOL     OW38734   2.725   2.222  16.699 -0.4709 -0.5867  0.2344
 9033SOL    HW138735   2.649   2.254  16.748 -1.2902 -0.1002 -1.3432
 9033SOL    HW238736   2.777   2.301  16.685 -0.7277 -0.7663 -1.7292
 9034SOL     OW38737   3.355   2.861   8.118  0.1476  0.4538  0.2625
 9034SOL    HW138738   3.284   2.860   8.054  1.0078  1.2068 -0.6975
 9034SOL    HW238739   3.339   2.929   8.184 -2.2107  1.3877 -1.2589
 9035SOL     OW38740   0.210   3.106   5.305 -0.5402 -0.3299  0.0266
 9035SOL    HW138741   0.268   3.035   5.333 -0.2416 -0.3427 -0.6332
 9035SOL    HW238742   0.261   3.175   5.349  0.4971 -0.0036 -1.6917
 9036SOL     OW38743   1.817   3.148   2.081  0.2690 -0.3009  0.1139
 9036SOL    HW138744   1.773   3.068   2.053 -2.4115  1.3211 -0.2664
 9036SOL    HW238745   1.798   3.148   2.175  2.6927 -1.5146  0.5966
 9037SOL     OW38746   3.760   2.289   7.321  0.0985 -0.3785  0.0135
 9037SOL    HW138747   3.697   2.355   7.350 -0.8651 -1.5697  0.6575
 9037SOL    HW238748   3.806   2.327   7.246  1.6823  0.7730  1.5854
 9038SOL     OW38749   2.646   0.081   7.777  0.1203  0.1746  0.5551
 9038SOL    HW138750   2.696   0.055   7.700 -2.0389  0.6880 -1.0238
 9038SOL    HW238751   2.587   0.151   7.748  1.1401  1.1006  0.7118
 9039SOL     OW38752   1.068   0.355   4.447  0.3856 -0.2198  0.0335
 9039SOL    HW138753   1.033   0.412   4.379  0.0837 -0.1293  0.2661
 9039SOL    HW238754   1.027   0.272   4.425 -0.7634  0.5203 -0.6215
 9040SOL     OW38755   3.589   2.967  17.434 -0.2940 -0.0326 -0.0360
 9040SOL    HW138756   3.685   2.971  17.431 -0.2435 -2.1964 -1.3769
 9040SOL    HW238757   3.574   2.962  17.528 -1.2947 -2.3397 -0.3213
 9041SOL     OW38758   0.153   0.244   6.625  0.0896 -0.0444  0.0125
 9041SOL    HW138759   0.119   0.168   6.672  1.1124 -2.4167 -3.1251
 9041SOL    HW238760   0.161   0.304   6.699  2.2050 -0.3784  0.0568
 9042SOL     OW38761   0.592   0.989   0.851 -0.1007  0.2936  0.3731
 9042SOL    HW138762   0.598   0.955   0.940 -1.0896  1.6035  0.9388
 9042SOL    HW238763   0.683   0.975   0.827  0.0734  1.0132  0.6266
 9043SOL     OW38764   3.977   3.536   4.276 -0.3880 -0.0996 -0.2316
 9043SOL    HW138765   3.924   3.500   4.205 -0.9736  1.5584 -0.6344
 9043SOL    HW238766   3.956   3.466   4.338 -1.5333  0.5157  0.0659
 9044SOL     OW38767   2.361   1.650   0.551  0.5613  0.5183 -0.1133
 9044SOL    HW138768   2.410   1.596   0.489 -0.6552 -0.1571 -0.4749
 9044SOL    HW238769   2.432   1.703   0.587  1.0716  0.3090 -0.8011
 9045SOL     OW38770   3.910   4.139   7.252  0.2638 -0.0956  0.6345
 9045SOL    HW138771   3.992   4.108   7.290  0.7658  0.7092  0.2067
 9045SOL    HW238772   3.934   4.218   7.203 -1.0752 -1.1574 -1.7732
 9046SOL     OW38773   0.092   0.976   4.128  0.3389  0.1914 -0.0882
 9046SOL    HW138774   0.121   1.052   4.179 -1.9085  0.9468  0.0671
 9046SOL    HW238775   0.069   1.005   4.040  1.0957 -1.2395 -0.7555
 9047SOL     OW38776   3.319   1.701  13.514  0.3865  0.2522  0.1299
 9047SOL    HW138777   3.242   1.744  13.477  0.2760  2.1751  2.5860
 9047SOL    HW238778   3.381   1.733  13.448 -1.4253  0.0425 -1.6879
 9048SOL     OW38779   2.830   1.601   7.552  0.6596  0.0363  0.1586
 9048SOL    HW138780   2.762   1.665   7.533  1.2558  0.1009 -1.7367
 9048SOL    HW238781   2.785   1.518   7.539 -2.0006  1.2660  1.5623
 9049SOL     OW38782   4.397   1.931   5.131  0.3458  0.0363 -0.1905
 9049SOL    HW138783   4.308   1.907   5.160  0.2509  0.7019  0.0940
 9049SOL    HW238784   4.366   1.996   5.068 -1.1896 -0.7009 -0.1933
 9050SOL     OW38785   2.896   1.120   1.030  0.0953 -0.2095 -0.1666
 9050SOL    HW138786   2.800   1.116   1.036 -0.0141  2.1401 -0.3621
 9050SOL    HW238787   2.924   1.123   1.121 -1.3392 -1.9960  0.3341
 9051SOL     OW38788   3.156   3.064   7.339  0.5376  0.2912  0.3918
 9051SOL    HW138789   3.241   3.023   7.353 -0.3940 -1.6680  0.3324
 9051SOL    HW238790   3.181   3.155   7.351 -1.4180  0.9635 -0.5245
 9052SOL     OW38791   1.739   4.508  14.442 -0.4549 -0.1446  0.4428
 9052SOL    HW138792   1.701   4.445  14.381 -0.8758  0.0577  0.4934
 9052SOL    HW238793   1.804   4.549  14.386  0.7075 -0.5061  1.5281
 9053SOL     OW38794   1.543   4.266   5.596 -0.2417  0.7885  0.3354
 9053SOL    HW138795   1.608   4.334   5.586 -1.3717  1.7388 -0.6098
 9053SOL    HW238796   1.552   4.212   5.517  0.5764 -0.7936  1.5093
 9054SOL     OW38797   2.381   0.574   2.875 -0.0209  0.2280  0.6525
 9054SOL    HW138798   2.405   0.647   2.931  1.5614  0.5378 -0.4451
 9054SOL    HW238799   2.357   0.509   2.942 -1.0151 -0.3465 -0.2543
 9055SOL     OW38800   1.409   2.768   4.844 -0.0285 -0.1520 -0.3667
 9055SOL    HW138801   1.379   2.834   4.908 -1.9871  1.7050 -3.1909
 9055SOL    HW238802   1.388   2.806   4.759  0.5923  1.5148  0.2216
 9056SOL     OW38803   2.556   3.950   5.430 -0.1371  0.2683 -0.5650
 9056SOL    HW138804   2.548   4.023   5.491 -4.4473 -0.1145 -0.6438
 9056SOL    HW238805   2.632   3.971   5.376 -0.0481 -0.7801 -0.8544
 9057SOL     OW38806   0.780   3.258   5.218  0.2717  0.1238 -0.1253
 9057SOL    HW138807   0.722   3.196   5.261 -1.4659 -0.6975 -3.6843
 9057SOL    HW238808   0.810   3.308   5.295  2.3038  0.6884 -1.2707
 9058SOL     OW38809   1.173   4.337   1.834 -0.7318 -0.2023  0.1332
 9058SOL    HW138810   1.205   4.405   1.775  0.7421 -0.8879  0.1505
 9058SOL    HW238811   1.250   4.294   1.871 -0.2997 -0.6398 -1.2933
 9059SOL     OW38812   4.397   2.834   4.200 -0.3598 -0.2116 -0.4053
 9059SOL    HW138813   4.392   2.894   4.125 -0.7277 -0.5066 -0.6150
 9059SOL    HW238814   4.473   2.781   4.179 -0.6947 -1.6948  2.1274
 9060SOL     OW38815   0.499   2.255   8.581  0.3412 -0.0446  0.0549
 9060SOL    HW138816   0.591   2.239   8.558 -0.3276  0.4109 -2.9453
 9060SOL    HW238817   0.495   2.182   8.643  3.0106  0.5299  0.9337
 9061SOL     OW38818   0.838   2.601   9.447  0.2510 -0.3571  0.2612
 9061SOL    HW138819   0.920   2.585   9.495  1.2880 -0.0169 -1.3881
 9061SOL    HW238820   0.863   2.672   9.388 -3.6455 -0.7993 -1.8980
 9062SOL     OW38821   4.693   3.386  16.063  0.3382  0.0207  0.1079
 9062SOL    HW138822   4.719   3.429  16.145  0.4122  0.8541 -0.3443
 9062SOL    HW238823   4.625   3.443  16.025 -1.8436 -2.3302  0.5156
 9063SOL     OW38824   4.112   0.100  17.206 -0.7541 -0.5340 -0.0373
 9063SOL    HW138825   4.018   0.082  17.219 -0.5866 -1.7227 -0.4992
 9063SOL    HW238826   4.120   0.178  17.260 -0.4586 -2.2983  2.4268
 9064SOL     OW38827   4.487   3.499   9.844 -0.5416  0.0690  0.2228
 9064SOL    HW138828   4.515   3.431   9.905  0.9974  0.9348  0.4960
 9064SOL    HW238829   4.522   3.581   9.880  0.1058  0.6645 -1.7911
 9065SOL     OW38830   0.076   2.913   9.508 -0.0162  0.3585 -0.4926
 9065SOL    HW138831   0.026   2.965   9.445 -0.1771  1.7361  0.7727
 9065SOL    HW238832   0.075   2.962   9.590 -1.1203  0.7394 -0.7352
 9066SOL     OW38833   3.797   0.582  12.438  0.1460 -0.1016  0.7916
 9066SOL    HW138834   3.888   0.572  12.410 -0.0507 -2.1980  0.8866
 9066SOL    HW238835   3.755   0.633  12.369  1.0985 -1.1160 -0.5494
 9067SOL     OW38836   1.428   1.990  13.400 -0.5671 -0.1267  0.2297
 9067SOL    HW138837   1.336   2.011  13.419 -0.6936  0.0256 -0.5613
 9067SOL    HW238838   1.425   1.894  13.401  0.5183 -0.1794 -3.0044
 9068SOL     OW38839   0.203   4.458   9.072 -0.2892  0.5260 -0.2305
 9068SOL    HW138840   0.243   4.466   9.159  1.9721  3.5626 -1.5671
 9068SOL    HW238841   0.110   4.475   9.085 -0.9223 -0.4166 -3.4530
 9069SOL     OW38842   0.470   0.041   8.243  0.1345  0.2393 -0.1792
 9069SOL    HW138843   0.502   0.006   8.160  1.2576 -1.6242  1.0534
 9069SOL    HW238844   0.440   0.129   8.220  0.5093  0.8480  1.6526
 9070SOL     OW38845   2.762   4.338  12.230  0.2044  0.0552  0.1904
 9070SOL    HW138846   2.839   4.391  12.207  1.2957 -1.3596  0.5759
 9070SOL    HW238847   2.801   4.251  12.228 -0.0535 -0.0529 -0.0313
 9071SOL     OW38848   1.357   0.786   6.106 -0.5260 -0.1163  0.0539
 9071SOL    HW138849   1.340   0.867   6.153  1.3342  0.2435  0.1006
 9071SOL    HW238850   1.376   0.724   6.176 -1.2695  1.4642  1.6542
 9072SOL     OW38851   2.687   1.808   8.107  0.3193  0.3194  0.6938
 9072SOL    HW138852   2.767   1.859   8.112 -1.0212  2.5492 -0.5194
 9072SOL    HW238853   2.702   1.754   8.185  0.3830  0.0394  0.4877
 9073SOL     OW38854   0.584   0.230   1.993  0.5425  0.5237 -0.0313
 9073SOL    HW138855   0.565   0.318   2.025  0.8624  1.1740 -1.6381
 9073SOL    HW238856   0.659   0.206   2.047  0.7613 -1.0257 -1.0164
 9074SOL     OW38857   1.231   3.991   9.545 -0.2551  0.3352  0.6400
 9074SOL    HW138858   1.173   4.028   9.478 -0.7347  1.9639  1.9502
 9074SOL    HW238859   1.228   3.901   9.512 -1.4007 -0.0385  1.7959
 9075SOL     OW38860   3.529   0.558   1.845 -0.1540  0.2589  0.3060
 9075SOL    HW138861   3.480   0.637   1.871  1.5075  1.1765  0.6712
 9075SOL    HW238862   3.551   0.535   1.935 -2.7192  1.9197  1.3560
 9076SOL     OW38863   3.681   2.139  15.874 -0.1783  0.0470 -0.4207
 9076SOL    HW138864   3.600   2.184  15.899 -1.2250 -0.5376 -2.8588
 9076SOL    HW238865   3.728   2.111  15.953  0.7811  1.1025 -0.6215
 9077SOL     OW38866   3.930   0.651   0.580  0.2725 -0.0393  0.5883
 9077SOL    HW138867   3.950   0.697   0.661  0.9901  0.6666  0.0064
 9077SOL    HW238868   4.000   0.681   0.522 -2.2159  0.8291 -1.9977
 9078SOL     OW38869   3.560   2.420   0.345  0.3993 -0.7487  0.1043
 9078SOL    HW138870   3.483   2.409   0.290 -0.1734  1.5376  0.4343
 9078SOL    HW238871   3.630   2.395   0.285 -0.3700  1.4320 -1.6942
 9079SOL     OW38872   3.978   2.008   8.600 -0.5960  0.1574  0.1873
 9079SOL    HW138873   4.063   2.048   8.620 -1.6685  2.3283  0.4259
 9079SOL    HW238874   3.913   2.074   8.625 -0.9480  0.2654 -1.0408
 9080SOL     OW38875   0.679   3.038   3.724 -0.5119  0.0196  0.3551
 9080SOL    HW138876   0.746   3.105   3.740  0.6836 -0.8072 -1.1463
 9080SOL    HW238877   0.634   3.044   3.808  1.5072  0.8006  1.3943
 9081SOL     OW38878   1.694   0.351   5.442  0.0689 -0.0327 -0.7372
 9081SOL    HW138879   1.702   0.353   5.347 -1.8400  1.3939 -0.8719
 9081SOL    HW238880   1.722   0.264   5.471  1.0473  0.3328 -0.5972
 9082SOL     OW38881   4.417   3.206  12.017 -0.2699 -0.6076  0.2300
 9082SOL    HW138882   4.487   3.160  12.064  1.7956  1.1160 -1.1416
 9082SOL    HW238883   4.461   3.269  11.959 -1.2358  0.7932  1.0334
 9083SOL     OW38884   4.479   3.035  16.683  0.0968  0.1484  0.1490
 9083SOL    HW138885   4.531   2.955  16.674 -2.1005 -1.2240 -0.3217
 9083SOL    HW238886   4.431   3.025  16.601 -1.1913  0.0195  0.9195
 9084SOL     OW38887   4.731   4.467   1.530  0.1832  0.1155  0.4621
 9084SOL    HW138888   0.005   4.558   1.555  3.0385  0.2145 -1.4177
 9084SOL    HW238889   4.734   4.431   1.619 -0.3647  0.7528  0.7302
 9085SOL     OW38890   2.215   4.676   7.295 -0.3108 -0.5479 -0.2931
 9085SOL    HW138891   2.143   4.653   7.354 -0.3280  1.1578  0.3495
 9085SOL    HW238892   2.239   4.593   7.254  1.0151  0.3579 -1.3578
 9086SOL     OW38893   0.354   0.010  11.263 -0.6507 -0.0456 -0.0550
 9086SOL    HW138894   0.421   0.025  11.329 -0.2255 -2.7934  0.1560
 9086SOL    HW238895   0.288   0.076  11.284 -0.5576  0.8189 -2.4903
 9087SOL     OW38896   1.446   3.976   9.234 -0.0574 -0.0444 -0.0842
 9087SOL    HW138897   1.399   4.059   9.223  0.0642  0.0110 -0.1888
 9087SOL    HW238898   1.448   3.957   9.328 -0.8380 -2.5628 -0.5749
 9088SOL     OW38899   4.253   1.545   4.592 -0.2255  0.7010 -0.3480
 9088SOL    HW138900   4.338   1.501   4.593  0.2388  1.5595 -2.9577
 9088SOL    HW238901   4.224   1.528   4.503 -4.0914 -1.4474  1.3398
 9089SOL     OW38902   1.636   4.532  17.259 -0.3371  0.1844 -0.3466
 9089SOL    HW138903   1.559   4.589  17.265 -0.8376 -0.5433  0.1409
 9089SOL    HW238904   1.654   4.547  17.166 -0.1244  2.9429  0.1527
 9090SOL     OW38905   1.159   3.349   8.448 -0.1142  0.1390 -0.0836
 9090SOL    HW138906   1.254   3.357   8.436 -0.3454  1.8342 -0.7678
 9090SOL    HW238907   1.144   3.395   8.530 -0.2691 -0.4081  0.1930
 9091SOL     OW38908   3.449   1.935   6.140  0.4209 -0.0448  0.0380
 9091SOL    HW138909   3.509   1.914   6.212  0.8029  0.4640 -0.1366
 9091SOL    HW238910   3.377   1.974   6.190  0.7746 -0.2008  0.6605
 9092SOL     OW38911   3.344   4.256   1.398  0.3406 -0.4076  0.4211
 9092SOL    HW138912   3.348   4.170   1.357 -2.8849  0.6382 -2.0541
 9092SOL    HW238913   3.251   4.251   1.420 -0.0888  2.3775 -0.6926
 9093SOL     OW38914   4.038   4.363   5.738  0.4021 -0.2289 -0.0735
 9093SOL    HW138915   4.115   4.311   5.762  0.3378 -0.3809 -0.1923
 9093SOL    HW238916   3.975   4.291   5.731 -0.7758  0.8389 -0.3191
 9094SOL     OW38917   1.538   3.400   6.718 -0.9708 -0.6436  0.1741
 9094SOL    HW138918   1.549   3.436   6.630 -0.5540 -0.7215  0.1918
 9094SOL    HW238919   1.523   3.481   6.766 -2.5113 -0.1088 -1.2312
 9095SOL     OW38920   4.313   1.164   8.468 -0.1825  0.4891 -0.0076
 9095SOL    HW138921   4.220   1.147   8.480 -0.8591  3.2545 -1.2303
 9095SOL    HW238922   4.340   1.076   8.494 -2.4711 -0.5258 -1.1437
 9096SOL     OW38923   1.684   4.035   5.697 -0.3723  0.0691  0.5005
 9096SOL    HW138924   1.696   4.128   5.680  0.1589 -0.2527 -0.8770
 9096SOL    HW238925   1.738   3.997   5.627 -1.0388  0.6500 -0.3297
 9097SOL     OW38926   2.254   0.402   6.469 -0.1866 -0.1598  0.2428
 9097SOL    HW138927   2.250   0.324   6.414 -0.8758  0.0038  0.0649
 9097SOL    HW238928   2.291   0.355   6.544  0.1927 -1.7854 -0.9691
 9098SOL     OW38929   2.160   1.299   5.516  0.5231 -0.2781  0.1221
 9098SOL    HW138930   2.228   1.255   5.566 -1.3563 -0.4832  2.4854
 9098SOL    HW238931   2.078   1.299   5.566 -1.1733 -3.0136 -2.6479
 9099SOL     OW38932   1.345   0.413   5.299 -0.1687 -0.6185  0.0819
 9099SOL    HW138933   1.423   0.454   5.263 -1.0828  1.3162  0.3032
 9099SOL    HW238934   1.315   0.494   5.341 -1.2436 -0.2797 -1.3427
 9100SOL     OW38935   2.952   3.009   9.273  0.0665 -0.1229  0.2638
 9100SOL    HW138936   2.964   3.039   9.183  0.8048  0.3037  0.4928
 9100SOL    HW238937   3.019   3.068   9.309  1.6590  1.2808 -5.0356
 9101SOL     OW38938   1.795   1.979   1.664 -0.7648  0.2481  0.4650
 9101SOL    HW138939   1.835   1.900   1.628 -0.2494  0.4882  0.5137
 9101SOL    HW238940   1.746   2.004   1.585 -0.3235  1.9616  0.7418
 9102SOL     OW38941   3.663   1.024   2.302 -0.2907 -0.1098  0.2588
 9102SOL    HW138942   3.695   0.938   2.275 -3.2100 -1.5911  1.4933
 9102SOL    HW238943   3.717   1.032   2.381  3.6196 -2.1133 -2.2213
 9103SOL     OW38944   2.829   2.400   5.976 -0.0292 -0.0376  0.5081
 9103SOL    HW138945   2.803   2.419   6.066 -1.0976  0.4811  0.1024
 9103SOL    HW238946   2.761   2.436   5.919  1.3956  1.4526 -0.2311
 9104SOL     OW38947   2.054   3.085   2.640  0.3707  0.2675 -0.0297
 9104SOL    HW138948   2.121   3.018   2.638 -1.1730 -1.2900  0.1283
 9104SOL    HW238949   2.059   3.116   2.730 -1.8132 -0.1495  0.2547
 9105SOL     OW38950   2.110   3.454  15.132 -0.3438  0.2502  0.0295
 9105SOL    HW138951   2.133   3.473  15.041 -1.4739  1.0427 -0.0838
 9105SOL    HW238952   2.135   3.539  15.169 -3.7373  2.0132 -1.7809
 9106SOL     OW38953   0.295   4.299  15.960 -0.0188 -0.1360  0.0265
 9106SOL    HW138954   0.347   4.355  16.018  0.1779  2.6906 -2.8692
 9106SOL    HW238955   0.317   4.213  15.994  2.8570  0.6856  0.2596
 9107SOL     OW38956   3.128   2.793   4.105  0.6155  0.5055 -0.1882
 9107SOL    HW138957   3.110   2.748   4.022  0.7403 -0.2726  0.2085
 9107SOL    HW238958   3.045   2.775   4.149 -0.4571  0.4293 -2.2399
 9108SOL     OW38959   3.849   0.710   4.315 -0.1299  0.1099 -0.1747
 9108SOL    HW138960   3.771   0.745   4.272 -0.4959 -1.6605 -0.9301
 9108SOL    HW238961   3.912   0.712   4.243  0.4474  0.0183  0.3201
 9109SOL     OW38962   4.477   4.473  14.522 -0.0686 -0.3547  0.6056
 9109SOL    HW138963   4.526   4.399  14.558  2.0279  0.6361 -0.2291
 9109SOL    HW238964   4.396   4.470  14.572 -0.9234 -2.2171 -0.8856
 9110SOL     OW38965   3.068   4.699  15.452 -0.5255  0.6012 -0.2030
 9110SOL    HW138966   3.072   4.605  15.435 -2.1757  0.0956  2.2279
 9110SOL    HW238967   2.984   4.699  15.498 -0.1121 -0.3288  0.5770
 9111SOL     OW38968   3.778   0.037   5.581  0.1862  0.1830 -0.4205
 9111SOL    HW138969   3.796   0.068   5.670  0.0730 -0.3241 -0.2194
 9111SOL    HW238970   3.764   0.123   5.540 -0.2485 -0.2552 -1.1945
 9112SOL     OW38971   1.430   1.156  10.854  0.3908  0.2006  0.3820
 9112SOL    HW138972   1.484   1.214  10.907 -0.7645  1.3401  0.3085
 9112SOL    HW238973   1.451   1.067  10.881  4.2767  0.5480 -1.4602
 9113SOL     OW38974   2.822   3.424   0.420  0.3009  0.2642 -0.7627
 9113SOL    HW138975   2.755   3.356   0.434  1.0505  0.1486  2.3823
 9113SOL    HW238976   2.858   3.397   0.505  0.1413 -2.3816 -1.5233
 9114SOL     OW38977   2.593   3.912   7.250 -0.1589 -0.1137  0.1502
 9114SOL    HW138978   2.526   3.876   7.192  0.8673 -2.1836  0.2882
 9114SOL    HW238979   2.596   4.004   7.221 -1.3955  0.0624  0.5630
 9115SOL     OW38980   2.210   2.682   5.696 -0.0841  0.1408  0.6633
 9115SOL    HW138981   2.209   2.588   5.676  1.5709 -0.0450  1.4113
 9115SOL    HW238982   2.215   2.716   5.606  0.3734 -0.2024  0.5549
 9116SOL     OW38983   0.331   1.543  17.595 -0.0500 -0.1777  0.1200
 9116SOL    HW138984   0.253   1.567  17.645 -0.1455 -0.5505  0.1506
 9116SOL    HW238985   0.399   1.548  17.662 -0.8045 -0.6549  0.9238
 9117SOL     OW38986   0.844   1.707  10.163 -0.8663 -0.3322 -0.1934
 9117SOL    HW138987   0.805   1.635  10.212 -0.6742  1.6339  2.8185
 9117SOL    HW238988   0.771   1.769  10.156 -0.6704  0.0661  1.4655
 9118SOL     OW38989   2.136   3.145  15.445  0.1668 -0.2200  0.2743
 9118SOL    HW138990   2.114   3.104  15.529  1.0266  0.7932  0.9960
 9118SOL    HW238991   2.164   3.069  15.394  1.3925  0.5350 -0.1866
 9119SOL     OW38992   2.105   0.998   4.457 -0.2725 -0.4901  0.2621
 9119SOL    HW138993   2.151   0.979   4.539  1.5046 -0.1261 -0.6574
 9119SOL    HW238994   2.169   0.992   4.386 -0.0537 -0.4408  0.4523
 9120SOL     OW38995   1.969   0.100  17.281 -0.0775 -0.2653  0.2152
 9120SOL    HW138996   1.942   0.030  17.221  1.3483 -0.4161 -0.2481
 9120SOL    HW238997   1.911   0.078  17.354 -0.7019  0.4778 -0.0621
 9121SOL     OW38998   0.662   2.911   3.479 -0.1327  0.0921 -0.0824
 9121SOL    HW138999   0.621   2.981   3.428 -0.5088  0.5964  0.9143
 9121SOL    HW239000   0.657   2.947   3.567  0.5817  0.9578 -0.3906
 9122SOL     OW39001   3.355   0.298   5.778  0.3738  0.6725 -0.2871
 9122SOL    HW139002   3.388   0.387   5.790 -0.3791  0.9026  0.0809
 9122SOL    HW239003   3.318   0.276   5.863 -0.2614  0.2864 -0.6613
 9123SOL     OW39004   0.459   0.013   9.056  0.0817 -0.3447 -0.5760
 9123SOL    HW139005   0.430   4.684   8.996 -0.1050 -0.1080 -0.7622
 9123SOL    HW239006   0.392   0.081   9.044  1.2535  0.2815 -3.6560
 9124SOL     OW39007   2.020   3.679   3.893 -0.0034 -0.1735  0.6449
 9124SOL    HW139008   2.042   3.665   3.801 -0.4802  0.5334  0.4272
 9124SOL    HW239009   2.090   3.628   3.934 -0.0323  0.3383  1.3262
 9125SOL     OW39010   4.052   1.019   9.952  0.0822  0.4265  0.2513
 9125SOL    HW139011   4.029   1.044  10.042  0.7244 -0.7549  0.7569
 9125SOL    HW239012   4.125   0.959   9.969 -0.4273 -0.1618  0.3849
 9126SOL     OW39013   2.975   0.498  17.718 -0.3741 -0.3230  0.0919
 9126SOL    HW139014   2.924   0.533  17.646 -0.9636  0.3734  0.8456
 9126SOL    HW239015   2.907   0.497   0.027  2.1037  2.5162  2.6736
 9127SOL     OW39016   4.601   1.858   7.715  0.0715  0.8427 -0.3020
 9127SOL    HW139017   4.648   1.790   7.764 -3.2230 -1.7823 -0.8084
 9127SOL    HW239018   4.591   1.923   7.785 -0.6426 -0.9588  1.2572
 9128SOL     OW39019   2.095   2.008   0.444  0.2468  0.2047  0.4174
 9128SOL    HW139020   2.043   1.946   0.495  2.3293 -1.0155  1.0702
 9128SOL    HW239021   2.137   1.947   0.384 -2.5077  0.2165 -1.5115
 9129SOL     OW39022   1.232   4.443   6.116 -0.0788 -0.3057 -0.2278
 9129SOL    HW139023   1.149   4.453   6.069 -0.3896 -0.1151  0.3644
 9129SOL    HW239024   1.259   4.533   6.133 -2.1969  0.3194 -0.0789
 9130SOL     OW39025   2.416   2.399   6.643  0.5711 -0.0683 -0.1220
 9130SOL    HW139026   2.384   2.472   6.695 -0.9226  0.0135 -1.1800
 9130SOL    HW239027   2.384   2.406   6.554 -1.8384 -2.4855  0.5506
 9131SOL     OW39028   3.078   1.744   3.048  0.2949 -0.0121  0.2119
 9131SOL    HW139029   2.998   1.787   3.019  1.8574  1.6530 -1.6676
 9131SOL    HW239030   3.126   1.781   2.974  1.1558 -1.4797  0.0256
 9132SOL     OW39031   2.167   2.226   9.370 -0.0531  0.1940 -0.1626
 9132SOL    HW139032   2.074   2.214   9.388 -0.1729  0.1876 -0.7666
 9132SOL    HW239033   2.161   2.280   9.291  0.1288 -0.4843 -0.6369
 9133SOL     OW39034   2.100   3.078   9.933 -0.5910 -0.1114 -0.0961
 9133SOL    HW139035   2.178   3.044   9.888 -1.5103 -0.0908 -1.7046
 9133SOL    HW239036   2.079   3.151   9.875 -0.4950 -2.0023 -2.5392
 9134SOL     OW39037   2.293   3.212  14.710 -0.2307 -0.1957 -0.0164
 9134SOL    HW139038   2.246   3.129  14.701 -2.1107  0.6538  1.9200
 9134SOL    HW239039   2.372   3.175  14.748  0.2085  1.6564  0.9033
 9135SOL     OW39040   3.217   3.916  12.440  0.5551 -0.6393  0.4956
 9135SOL    HW139041   3.173   4.000  12.448  0.9863 -0.4399  0.7165
 9135SOL    HW239042   3.146   3.856  12.415  0.0744 -0.0356  0.4167
 9136SOL     OW39043   4.171   3.447  13.054  0.0046  0.1264 -0.1244
 9136SOL    HW139044   4.076   3.451  13.068 -0.0792 -1.3223 -0.2276
 9136SOL    HW239045   4.174   3.505  12.978 -3.2853 -0.4304 -0.6886
 9137SOL     OW39046   3.965   0.708   2.664 -0.0637 -0.4283  0.1285
 9137SOL    HW139047   4.015   0.757   2.729 -0.9333  1.0449 -0.3063
 9137SOL    HW239048   3.969   0.621   2.703 -0.4386 -0.8793 -0.8412
 9138SOL     OW39049   0.717   4.711  13.339 -0.7528  0.6245  0.4257
 9138SOL    HW139050   0.674   4.719  13.253 -0.0325  3.5313  0.3456
 9138SOL    HW239051   0.778   0.044  13.344 -0.9273  0.8502 -0.7269
 9139SOL     OW39052   3.978   0.990  16.098 -0.0011 -0.0934 -0.4454
 9139SOL    HW139053   4.059   0.958  16.137 -0.1337  1.3564  1.0054
 9139SOL    HW239054   3.958   1.061  16.159  0.3140 -0.5086  0.1407
 9140SOL     OW39055   3.610   2.998   3.868  0.0845  0.4537  0.1087
 9140SOL    HW139056   3.539   2.964   3.813  1.3850 -0.1811 -1.1622
 9140SOL    HW239057   3.664   2.919   3.865  1.4230  1.2578  2.6177
 9141SOL     OW39058   0.018   2.974   5.168 -0.1405 -0.1093 -0.0507
 9141SOL    HW139059   0.083   3.022   5.218  0.5375 -1.8941  0.7626
 9141SOL    HW239060   0.078   2.944   5.100  0.8555 -0.1485  0.8538
 9142SOL     OW39061   4.460   4.514   5.375 -0.2939 -0.1624  0.2509
 9142SOL    HW139062   4.391   4.448   5.386 -1.3791  0.5250 -2.3326
 9142SOL    HW239063   4.538   4.461   5.388 -0.6923 -0.7258  0.3175
 9143SOL     OW39064   0.409   0.076   4.741  0.2455  0.4386 -0.1690
 9143SOL    HW139065   0.481   0.113   4.793  1.3480  0.4745 -1.7363
 9143SOL    HW239066   0.388   4.735   4.788  0.0394  0.6209  0.0550
 9144SOL     OW39067   4.495   1.020   7.046  0.7157  0.1771  0.5456
 9144SOL    HW139068   4.549   1.003   6.969  1.4340 -0.4647  1.1891
 9144SOL    HW239069   4.434   0.947   7.031 -1.0471  1.9294 -0.7705
 9145SOL     OW39070   0.220   0.097   5.720  0.0347  0.0555 -0.3864
 9145SOL    HW139071   0.146   0.115   5.778  0.4109  1.5167 -0.3661
 9145SOL    HW239072   0.180   0.049   5.648  1.5664 -2.4431  0.4218
 9146SOL     OW39073   1.281   0.412   7.409 -0.0885 -0.3527 -0.2502
 9146SOL    HW139074   1.343   0.430   7.480 -1.2280  0.0428  0.6498
 9146SOL    HW239075   1.210   0.384   7.468  0.2914  0.5010  0.6107
 9147SOL     OW39076   2.723   3.263   8.850  0.4490 -0.0898 -0.3555
 9147SOL    HW139077   2.778   3.278   8.927 -0.3749  0.3634  0.1439
 9147SOL    HW239078   2.652   3.210   8.885  0.7630 -0.4840 -0.3173
 9148SOL     OW39079   2.739   2.012   1.838 -0.2342 -0.1324  0.4153
 9148SOL    HW139080   2.727   1.955   1.762 -0.6909 -1.3689  1.4144
 9148SOL    HW239081   2.651   1.997   1.872 -0.9791  0.9053 -1.0180
 9149SOL     OW39082   4.616   3.760   1.737 -0.7642 -0.0787 -0.0449
 9149SOL    HW139083   4.632   3.680   1.686 -0.6816  0.3899 -0.7641
 9149SOL    HW239084   4.542   3.733   1.792 -0.6643 -0.0656  0.0936
 9150SOL     OW39085   4.071   0.717   6.615  0.1768 -0.3031  0.1385
 9150SOL    HW139086   4.116   0.755   6.690 -1.6045  2.4471 -0.1794
 9150SOL    HW239087   4.020   0.789   6.578 -0.3750  0.1115  1.7298
 9151SOL     OW39088   4.312   2.813   2.547  0.4109  0.1880  0.0065
 9151SOL    HW139089   4.229   2.773   2.521  0.0832  0.6332  0.3748
 9151SOL    HW239090   4.330   2.756   2.622 -1.0350 -1.9113 -1.2504
 9152SOL     OW39091   3.034   2.971   7.629 -0.1281 -0.3715  0.0415
 9152SOL    HW139092   3.117   3.012   7.605 -0.3613 -1.4167 -2.5975
 9152SOL    HW239093   3.012   3.033   7.698 -0.5438 -1.8965  1.2779
 9153SOL     OW39094   2.436   2.201   4.677  0.8142  0.1602 -0.0578
 9153SOL    HW139095   2.458   2.143   4.604  0.0662 -0.1119 -0.0569
 9153SOL    HW239096   2.515   2.186   4.729  0.8096  0.5268  0.0514
 9154SOL     OW39097   0.627   3.242   7.043  0.4106  0.6123 -0.0295
 9154SOL    HW139098   0.611   3.206   6.956  1.0047  1.2530 -0.4047
 9154SOL    HW239099   0.562   3.195   7.096 -1.0865  0.8906 -1.6332
 9155SOL     OW39100   4.535   1.888   5.374 -0.1616  0.2380 -0.2642
 9155SOL    HW139101   4.487   1.930   5.302  0.5298 -2.8168 -2.5228
 9155SOL    HW239102   4.461   1.848   5.419 -0.9270  1.3773 -0.4969
 9156SOL     OW39103   3.877   0.843  15.104  0.1306  0.3871 -0.6807
 9156SOL    HW139104   3.909   0.932  15.120 -1.8209  1.4271 -2.4790
 9156SOL    HW239105   3.867   0.810  15.193 -0.5766  1.0399 -0.5136
 9157SOL     OW39106   2.443   2.362   9.772  0.3756 -0.2461  0.0578
 9157SOL    HW139107   2.383   2.396   9.838  1.9556  1.9726  0.3771
 9157SOL    HW239108   2.460   2.442   9.722  0.4607 -0.6479 -0.5546
 9158SOL     OW39109   3.679   2.660   7.293  0.4697 -0.0941 -0.8625
 9158SOL    HW139110   3.660   2.627   7.380 -2.1368  0.2155 -1.3167
 9158SOL    HW239111   3.688   2.579   7.243  1.4731  0.5321 -1.6878
 9159SOL     OW39112   3.386   3.531   8.740  0.5075  0.0189  0.7692
 9159SOL    HW139113   3.290   3.536   8.745  0.4984  0.7782 -0.2471
 9159SOL    HW239114   3.406   3.599   8.677 -0.6051  0.4923  0.9161
 9160SOL     OW39115   0.200   0.599   3.368  0.0153  0.4612 -0.1140
 9160SOL    HW139116   0.123   0.543   3.374  0.0382  0.5331  0.8441
 9160SOL    HW239117   0.218   0.609   3.462  0.0498 -2.3442  0.1976
 9161SOL     OW39118   3.012   4.641   6.802  0.5109  0.1220 -0.3799
 9161SOL    HW139119   3.064   4.643   6.722 -1.3379 -0.7756 -1.6094
 9161SOL    HW239120   2.929   4.675   6.769 -1.1009 -1.7578  1.8023
 9162SOL     OW39121   0.552   3.388  12.307 -0.4990 -0.3182 -0.3437
 9162SOL    HW139122   0.603   3.311  12.284 -0.3294  0.0262 -1.1256
 9162SOL    HW239123   0.600   3.402  12.388 -0.1734 -4.5836  0.2110
 9163SOL     OW39124   2.760   2.517  12.654  0.1288 -0.7292 -0.6618
 9163SOL    HW139125   2.823   2.469  12.707  0.4496 -1.1331 -1.4043
 9163SOL    HW239126   2.798   2.499  12.568  1.3294  0.2570 -0.3246
 9164SOL     OW39127   2.855   3.922   3.248  0.2718  0.0151 -0.2650
 9164SOL    HW139128   2.817   3.971   3.175 -1.4988 -0.5592  0.2554
 9164SOL    HW239129   2.788   3.934   3.315 -0.6895  0.7378 -1.3465
 9165SOL     OW39130   1.332   3.381   1.961 -0.2369 -0.5160  0.4373
 9165SOL    HW139131   1.348   3.441   2.035  1.0955 -0.5242  0.1606
 9165SOL    HW239132   1.392   3.416   1.895 -1.1876 -0.5825 -0.4629
 9166SOL     OW39133   0.414   3.538   7.251 -0.5217 -0.2335 -0.1412
 9166SOL    HW139134   0.486   3.475   7.255 -1.6129 -1.4194  0.6959
 9166SOL    HW239135   0.410   3.568   7.342  0.4213 -0.7939  0.0816
 9167SOL     OW39136   2.346   0.819   5.149  0.0695 -0.4275  0.0001
 9167SOL    HW139137   2.292   0.890   5.183 -1.1387 -0.7870 -1.1684
 9167SOL    HW239138   2.338   0.748   5.212 -1.1995  1.5788  2.0748
 9168SOL     OW39139   3.318   3.878   5.662  0.1173  0.0021  0.4152
 9168SOL    HW139140   3.366   3.815   5.715  1.1012  1.1862  0.9219
 9168SOL    HW239141   3.284   3.826   5.589 -1.3861 -1.1030  1.8839
 9169SOL     OW39142   2.243   1.462   1.938 -0.2144 -0.2744 -0.5348
 9169SOL    HW139143   2.335   1.477   1.915 -0.0879  1.1484  0.8504
 9169SOL    HW239144   2.197   1.544   1.959 -0.8725 -0.5024 -1.0748
 9170SOL     OW39145   0.525   3.112   4.721 -0.4714 -0.1409 -0.6979
 9170SOL    HW139146   0.597   3.109   4.658 -0.8513 -1.3233 -1.0755
 9170SOL    HW239147   0.469   3.039   4.696 -1.1367  0.4157 -0.8407
 9171SOL     OW39148   3.698   1.011  11.617  0.2225  0.4522 -0.0773
 9171SOL    HW139149   3.721   1.104  11.616 -3.9145  1.4459 -1.2028
 9171SOL    HW239150   3.720   0.984  11.706 -0.7467 -0.8125 -0.2254
 9172SOL     OW39151   3.491   2.268   2.131 -0.1647 -0.0840  0.5717
 9172SOL    HW139152   3.475   2.355   2.168  2.4288 -0.5395  2.7303
 9172SOL    HW239153   3.551   2.278   2.057 -1.3347  1.6720 -0.1275
 9173SOL     OW39154   1.542   0.578   5.237  0.0890 -0.1269 -0.3708
 9173SOL    HW139155   1.566   0.658   5.284  1.0695 -0.6006 -0.0661
 9173SOL    HW239156   1.498   0.619   5.162  0.4928  1.9910  0.5552
 9174SOL     OW39157   2.467   2.221   7.632 -0.8724  0.9172 -0.1543
 9174SOL    HW139158   2.487   2.127   7.639 -1.2447  0.7343 -1.5328
 9174SOL    HW239159   2.552   2.254   7.602 -0.7790  1.0494  0.2537
 9175SOL     OW39160   1.600   2.127   0.525 -0.2006 -0.7263  0.2833
 9175SOL    HW139161   1.645   2.084   0.452  2.2701 -2.2691  2.7232
 9175SOL    HW239162   1.573   2.211   0.486  1.6559  0.2987  1.1756
 9176SOL     OW39163   4.045   0.046   3.045  0.2731 -0.4856 -0.0161
 9176SOL    HW139164   4.074   0.001   3.125  0.1007 -1.1314 -0.3150
 9176SOL    HW239165   4.094   0.006   2.973 -0.0138  0.1118 -0.5453
 9177SOL     OW39166   0.525   3.961   5.300 -0.1330 -0.1291 -0.0972
 9177SOL    HW139167   0.588   3.890   5.292  0.9330  0.9305 -1.0874
 9177SOL    HW239168   0.475   3.954   5.219  0.6155 -2.1557 -0.3798
 9178SOL     OW39169   4.036   3.148   4.186 -0.3091 -0.0672 -0.0533
 9178SOL    HW139170   4.088   3.213   4.137 -1.0163 -0.1307 -0.8764
 9178SOL    HW239171   4.095   3.075   4.203  1.4189  1.3420  0.0504
 9179SOL     OW39172   3.450   0.195   5.325  0.1801  0.5983 -0.2189
 9179SOL    HW139173   3.497   0.264   5.371  0.0469  1.4481 -1.3579
 9179SOL    HW239174   3.516   0.163   5.263  0.0550  0.2943 -0.1965
 9180SOL     OW39175   0.970   1.898   3.767 -0.5864 -0.9108  0.2300
 9180SOL    HW139176   0.973   1.835   3.695 -0.1104 -0.4021 -0.1926
 9180SOL    HW239177   0.889   1.872   3.812  0.0504  0.5206  2.2153
 9181SOL     OW39178   0.273   2.517   4.640 -0.2348  0.3215  0.3690
 9181SOL    HW139179   0.209   2.576   4.600  0.1334  1.2090  1.0805
 9181SOL    HW239180   0.213   2.446   4.663  0.2105 -1.1728 -3.1180
 9182SOL     OW39181   3.700   3.672   3.178  0.4280 -0.0574  0.6184
 9182SOL    HW139182   3.605   3.666   3.168  0.6061 -1.8675 -0.0538
 9182SOL    HW239183   3.724   3.710   3.094  0.0289 -2.1283 -0.4114
 9183SOL     OW39184   1.946   1.544   6.548  0.1285  0.4817  0.0059
 9183SOL    HW139185   1.932   1.540   6.642 -1.8130  1.9345 -0.2202
 9183SOL    HW239186   1.896   1.472   6.510 -1.2855  0.8945  1.1010
 9184SOL     OW39187   1.120   3.941   9.911  0.2908 -0.0962 -0.0791
 9184SOL    HW139188   1.129   3.867   9.852 -1.9951 -0.2897 -0.1957
 9184SOL    HW239189   1.207   3.975   9.891  0.3930 -0.4299 -0.2086
 9185SOL     OW39190   1.892   3.948   4.470 -0.4751 -0.2990  0.5747
 9185SOL    HW139191   1.923   3.940   4.380 -1.6762  1.6414  0.0202
 9185SOL    HW239192   1.936   3.878   4.519 -0.8168  0.7070  2.2970
 9186SOL     OW39193   3.759   1.183   4.843  0.2751  0.0173  0.4450
 9186SOL    HW139194   3.719   1.103   4.878 -0.2274 -0.0722 -0.3235
 9186SOL    HW239195   3.774   1.233   4.923 -1.8858  0.0282  0.8315
 9187SOL     OW39196   1.540   0.741  14.913 -0.1445  0.1655  0.2328
 9187SOL    HW139197   1.624   0.759  14.956 -0.8572 -0.0330  1.7211
 9187SOL    HW239198   1.573   0.689  14.840  1.3967 -0.8260  1.6170
 9188SOL     OW39199   1.039   2.805   7.823 -0.1367  0.1230 -0.3991
 9188SOL    HW139200   1.086   2.863   7.763 -1.8057  0.5165 -1.3394
 9188SOL    HW239201   1.031   2.723   7.775 -1.3362 -1.2038  2.0158
 9189SOL     OW39202   4.376   0.808   6.460  0.2476 -0.4213  0.5101
 9189SOL    HW139203   4.305   0.775   6.406 -1.2332 -0.6041  2.5725
 9189SOL    HW239204   4.324   0.879   6.496 -1.8409 -1.8913  0.3921
 9190SOL     OW39205   0.694   1.542   9.919 -0.3221  0.2489 -0.1492
 9190SOL    HW139206   0.637   1.563   9.846 -1.2315  1.6297  0.9622
 9190SOL    HW239207   0.630   1.501   9.978 -0.8462  1.1140 -0.1236
 9191SOL     OW39208   1.224   1.676   1.231 -0.0051  0.1797  0.0359
 9191SOL    HW139209   1.132   1.665   1.206  0.6138 -0.3845 -2.0420
 9191SOL    HW239210   1.255   1.728   1.157  1.0617 -1.0534 -0.3822
 9192SOL     OW39211   3.526   3.048   7.976  0.2409 -0.1610  0.3216
 9192SOL    HW139212   3.529   3.116   8.043  1.1155  1.4867 -1.4066
 9192SOL    HW239213   3.468   2.977   8.005  0.8660 -1.6765 -2.1203
 9193SOL     OW39214   3.238   0.654  17.538  0.3173  0.4080  0.1973
 9193SOL    HW139215   3.191   0.573  17.521  0.5683  0.2651  0.1973
 9193SOL    HW239216   3.240   0.693  17.451 -0.0526  1.0857  0.4914
 9194SOL     OW39217   1.498   1.952  14.500 -0.0214 -0.4055 -0.2855
 9194SOL    HW139218   1.404   1.935  14.493 -0.0236 -0.9038  0.9477
 9194SOL    HW239219   1.517   1.875  14.554  0.0297  0.9313  1.5862
 9195SOL     OW39220   0.421   4.128   8.696  0.1615  0.1771 -0.1206
 9195SOL    HW139221   0.408   4.158   8.786  0.5110 -1.3108  0.4255
 9195SOL    HW239222   0.469   4.203   8.661 -0.4713 -0.1654 -1.7006
 9196SOL     OW39223   4.220   4.419  17.501  0.3007  0.1255  1.3143
 9196SOL    HW139224   4.227   4.513  17.483  1.5982 -0.1384  0.4555
 9196SOL    HW239225   4.126   4.403  17.496  0.1857  1.2683  0.0194
 9197SOL     OW39226   3.908   3.789   5.474  0.7045  0.0046  0.0568
 9197SOL    HW139227   3.851   3.841   5.417 -0.0623 -0.6197  0.2430
 9197SOL    HW239228   3.989   3.801   5.424 -0.1009 -0.3635 -1.3480
 9198SOL     OW39229   0.362   3.512   2.115  0.2493 -0.0959  0.3625
 9198SOL    HW139230   0.429   3.570   2.151 -1.9792  0.5929  3.4182
 9198SOL    HW239231   0.400   3.485   2.032 -0.0342 -3.0759  1.1981
 9199SOL     OW39232   3.820   1.203   7.932 -0.7555  0.8124 -0.2800
 9199SOL    HW139233   3.795   1.199   7.839 -0.5789 -1.0123 -0.2327
 9199SOL    HW239234   3.791   1.292   7.952  0.4654  0.9412  0.9022
 9200SOL     OW39235   3.563   2.311   3.701  0.2074 -0.3317  0.9104
 9200SOL    HW139236   3.658   2.306   3.714  0.3324 -0.4395 -0.0240
 9200SOL    HW239237   3.532   2.396   3.731  0.1674  1.6982 -4.9870
 9201SOL     OW39238   2.599   2.931   2.322 -0.1392  0.5640  0.2118
 9201SOL    HW139239   2.581   2.842   2.354 -2.2189  0.8518 -0.2021
 9201SOL    HW239240   2.688   2.953   2.348 -0.5129  1.8156  0.3984
 9202SOL     OW39241   1.372   0.148   5.230 -0.5942 -0.4860  0.0061
 9202SOL    HW139242   1.357   0.241   5.243 -2.3361 -0.5625 -1.5535
 9202SOL    HW239243   1.356   0.121   5.321  0.5147  0.2689  0.4204
 9203SOL     OW39244   2.954   4.686   1.789 -0.3335  0.2754  0.2913
 9203SOL    HW139245   2.917   4.658   1.706 -0.4155  0.8797  0.1182
 9203SOL    HW239246   2.879   4.737   1.822  0.2807  0.8286  0.8434
 9204SOL     OW39247   4.530   3.889   7.932 -0.1263  0.6010 -0.0516
 9204SOL    HW139248   4.441   3.906   7.960 -0.9760  1.2242 -3.1150
 9204SOL    HW239249   4.576   3.910   8.013 -2.3092  0.8931  1.1056
 9205SOL     OW39250   4.657   2.964   1.893  0.1625  0.0719  0.1240
 9205SOL    HW139251   4.610   2.926   1.819 -2.3449 -0.6348  2.0812
 9205SOL    HW239252   4.581   2.994   1.942  0.9917  0.3664  1.2274
 9206SOL     OW39253   0.208   0.458   2.098 -0.2663 -0.0170  0.1566
 9206SOL    HW139254   0.231   0.463   2.190  0.2438 -0.3798  0.0483
 9206SOL    HW239255   0.152   0.535   2.097  0.4427  0.4912 -0.6856
 9207SOL     OW39256   3.893   0.003   5.867  0.4086 -0.4966 -0.0494
 9207SOL    HW139257   3.842   4.662   5.861 -1.2983  0.7240 -1.7157
 9207SOL    HW239258   3.976   4.715   5.828  0.9096  0.5617  0.2497
 9208SOL     OW39259   0.617   0.232   0.696 -0.1963 -0.7681 -0.3645
 9208SOL    HW139260   0.685   0.276   0.747 -0.1742 -0.6870 -0.4629
 9208SOL    HW239261   0.538   0.261   0.741 -0.7726 -0.4987 -1.5622
 9209SOL     OW39262   3.661   4.545   1.325 -0.4792  0.0105  0.2870
 9209SOL    HW139263   3.733   4.502   1.372 -0.3729  2.6712  2.5789
 9209SOL    HW239264   3.670   4.635   1.356 -1.6299  0.2019  0.0602
 9210SOL     OW39265   1.523   4.524   7.235 -0.0835  0.3670  0.1445
 9210SOL    HW139266   1.428   4.527   7.222  0.0824 -1.5527 -1.5642
 9210SOL    HW239267   1.556   4.576   7.162  0.9614  0.9030  0.9984
 9211SOL     OW39268   0.126   3.431  13.384 -0.9388 -0.2247  0.0493
 9211SOL    HW139269   0.184   3.395  13.451 -0.0014 -2.2994 -1.8704
 9211SOL    HW239270   0.162   3.375  13.315 -0.5645 -0.8624  0.7576
 9212SOL     OW39271   4.426   4.030  13.289 -0.2141 -0.1520  0.0769
 9212SOL    HW139272   4.512   3.995  13.267  0.6941  0.8749  1.9886
 9212SOL    HW239273   4.449   4.094  13.357 -0.7869 -0.7556  0.8318
 9213SOL     OW39274   1.273   4.685   9.033  0.1856 -0.2137 -0.6818
 9213SOL    HW139275   1.298   4.593   9.038  1.1689  0.1062  0.4981
 9213SOL    HW239276   1.358   4.729   9.027 -0.7196  1.7369  0.5135
 9214SOL     OW39277   0.870   1.065   0.825 -0.5492 -0.0981  0.0793
 9214SOL    HW139278   0.857   1.117   0.904  0.1496  0.4970 -0.1955
 9214SOL    HW239279   0.886   1.135   0.762  0.1053 -1.5303 -1.3793
 9215SOL     OW39280   4.004   4.089  11.370 -0.4084 -0.2251  0.3513
 9215SOL    HW139281   3.997   4.140  11.451  1.0191  2.2454 -1.0958
 9215SOL    HW239282   4.079   4.033  11.387 -0.0914  0.4674  1.2325
 9216SOL     OW39283   2.553   2.293   9.129  0.5653 -0.2908 -0.3412
 9216SOL    HW139284   2.625   2.231   9.128 -1.2602 -2.3863 -1.7276
 9216SOL    HW239285   2.530   2.301   9.222 -0.9384  0.5063 -0.7766
 9217SOL     OW39286   4.264   3.688   8.024  0.4379  0.0709 -0.6528
 9217SOL    HW139287   4.220   3.734   7.953 -1.3663  0.9981  1.0585
 9217SOL    HW239288   4.311   3.762   8.063 -2.0994  0.2129  2.1805
 9218SOL     OW39289   2.450   1.544  13.559 -0.4114  0.1893  0.4309
 9218SOL    HW139290   2.409   1.465  13.592  0.7243 -0.4146  0.4119
 9218SOL    HW239291   2.509   1.498  13.500 -0.5388 -1.0141  1.2321
 9219SOL     OW39292   3.466   2.108   9.525  0.1004  0.3417  0.9060
 9219SOL    HW139293   3.457   2.147   9.438  1.5163  0.9298  1.0188
 9219SOL    HW239294   3.536   2.165   9.558  0.9206 -1.4953  2.3296
 9220SOL     OW39295   2.946   3.756  13.618 -0.1553  0.1741  0.4667
 9220SOL    HW139296   2.952   3.811  13.696  0.2476  0.8280 -0.0264
 9220SOL    HW239297   2.852   3.760  13.599 -0.2115  0.0582  0.7228
 9221SOL     OW39298   2.849   3.069   1.089  0.0681 -0.0352 -0.3682
 9221SOL    HW139299   2.892   3.153   1.074 -3.0861  1.6543 -0.0042
 9221SOL    HW239300   2.762   3.090   1.124 -0.3056 -0.8783 -0.7840
 9222SOL     OW39301   1.733   0.872  17.046 -0.0167  0.0712 -0.0970
 9222SOL    HW139302   1.823   0.840  17.044 -0.0614  0.0708 -2.0557
 9222SOL    HW239303   1.719   0.944  16.984  0.9615  1.5129  1.3714
 9223SOL     OW39304   3.567   1.103   5.884 -0.0212 -0.9238 -0.3239
 9223SOL    HW139305   3.561   1.043   5.958 -0.2806 -0.1954  0.2545
 9223SOL    HW239306   3.516   1.180   5.911  0.7184 -0.6367  0.2614
 9224SOL     OW39307   0.182   2.996   9.008 -0.7042 -0.1723 -0.8299
 9224SOL    HW139308   0.203   3.089   9.005 -2.7315  0.2845 -0.5890
 9224SOL    HW239309   0.256   2.959   9.057 -0.6915 -0.6684 -1.2214
 9225SOL     OW39310   0.337   0.999  15.001 -0.9229 -0.4084  0.0765
 9225SOL    HW139311   0.332   0.993  15.097  0.1241 -1.5878  0.0465
 9225SOL    HW239312   0.256   1.048  14.983 -1.9733 -1.7131  1.2731
 9226SOL     OW39313   2.765   0.439   8.402  0.0142  0.1135 -0.3127
 9226SOL    HW139314   2.771   0.344   8.413 -1.0044  0.3453  2.1972
 9226SOL    HW239315   2.750   0.446   8.308 -0.4314  0.2989 -0.2292
 9227SOL     OW39316   4.205   2.744  13.740 -0.4714  0.4856  0.2172
 9227SOL    HW139317   4.141   2.703  13.798 -0.5013  1.1831  0.6869
 9227SOL    HW239318   4.151   2.822  13.726 -0.9370 -0.2208 -1.8707
 9228SOL     OW39319   4.711   4.645  12.133  0.2813  0.6350 -0.3581
 9228SOL    HW139320   4.631   4.624  12.084 -0.1785 -1.2724  1.1860
 9228SOL    HW239321   4.678   4.725  12.173  0.2177 -0.9297  2.7576
 9229SOL     OW39322   3.438   4.040   4.476 -0.1154  0.9014 -0.6351
 9229SOL    HW139323   3.428   3.954   4.517 -1.7229  2.1916  1.7189
 9229SOL    HW239324   3.405   4.097   4.545 -0.4153  0.1183 -0.1346
 9230SOL     OW39325   1.469   3.454   1.749  0.3139  0.2466  0.2845
 9230SOL    HW139326   1.557   3.449   1.712 -0.6288 -0.1330 -1.8775
 9230SOL    HW239327   1.412   3.397   1.697  0.1940  0.6974 -0.0818
 9231SOL     OW39328   0.570   1.704  10.876 -0.0458 -0.6384 -0.1976
 9231SOL    HW139329   0.559   1.643  10.803 -0.2350 -0.6234 -0.1822
 9231SOL    HW239330   0.486   1.749  10.867  0.9293  1.4413  1.0599
 9232SOL     OW39331   2.068   4.268   8.262  0.6334 -0.5752  0.3708
 9232SOL    HW139332   2.031   4.356   8.251  0.0987 -0.7039  1.0984
 9232SOL    HW239333   2.071   4.252   8.167 -1.2149  0.4292  0.1359
 9233SOL     OW39334   3.060   1.230   4.437 -0.5659 -0.2157  0.5298
 9233SOL    HW139335   3.063   1.139   4.409  0.6007  0.2923 -0.9993
 9233SOL    HW239336   3.060   1.283   4.357 -2.3613 -0.5370  0.3165
 9234SOL     OW39337   3.662   1.551   4.494  0.0218 -0.6308 -0.0898
 9234SOL    HW139338   3.602   1.626   4.491  0.9534  0.2013  1.6160
 9234SOL    HW239339   3.726   1.578   4.560  1.6543  2.2945 -2.8593
 9235SOL     OW39340   1.560   2.645   2.024  0.5215 -0.1961  0.4504
 9235SOL    HW139341   1.619   2.577   2.055 -0.2272 -0.2626  1.7544
 9235SOL    HW239342   1.479   2.602   2.050  1.0720 -1.7149 -0.3483
 9236SOL     OW39343   2.211   2.453   9.169 -0.5971 -0.1293 -0.1126
 9236SOL    HW139344   2.172   2.463   9.083  0.6459 -0.9869 -0.7747
 9236SOL    HW239345   2.292   2.501   9.153  0.4182 -1.7263  0.1578
 9237SOL     OW39346   1.951   0.932   2.054 -0.2943  0.2276 -0.0643
 9237SOL    HW139347   1.954   0.994   2.126 -0.9612  0.7793 -0.5079
 9237SOL    HW239348   1.865   0.952   2.015 -1.4520 -3.0558  0.8367
 9238SOL     OW39349   0.119   0.060   8.007 -0.1816  0.2283 -0.3049
 9238SOL    HW139350   0.127   0.140   7.955  0.3158  0.5800  0.3044
 9238SOL    HW239351   0.187   0.013   7.959 -0.7000 -1.2178  0.3652
 9239SOL     OW39352   1.592   3.192   8.165  0.2949 -0.4267 -0.4778
 9239SOL    HW139353   1.635   3.120   8.211  1.7226  1.6203  1.3604
 9239SOL    HW239354   1.556   3.237   8.241 -1.3623 -0.0923 -1.4470
 9240SOL     OW39355   1.296   1.224  12.083  0.5113 -0.2617  0.0399
 9240SOL    HW139356   1.350   1.189  12.011  2.3330  2.7427 -0.0380
 9240SOL    HW239357   1.220   1.166  12.076  1.2396 -1.4721  2.1833
 9241SOL     OW39358   0.480   1.374  11.828 -0.1497  0.0831  0.4635
 9241SOL    HW139359   0.418   1.431  11.874  2.0893  1.9190  1.2288
 9241SOL    HW239360   0.497   1.432  11.753  1.4389  0.0079  0.7745
 9242SOL     OW39361   1.214   4.501  16.379 -0.4124  0.5431  1.0215
 9242SOL    HW139362   1.129   4.459  16.393 -0.8162  1.3864  1.1352
 9242SOL    HW239363   1.273   4.433  16.411  0.2272  0.2062 -0.9306
 9243SOL     OW39364   4.018   1.444   2.316 -0.6924  0.3361  0.6419
 9243SOL    HW139365   4.006   1.515   2.253  0.4960 -0.5137 -0.5457
 9243SOL    HW239366   4.112   1.428   2.312 -0.2985  2.0671  3.1841
 9244SOL     OW39367   0.466   1.563   3.777 -0.5489  0.2128  0.2457
 9244SOL    HW139368   0.454   1.650   3.737 -1.6893 -0.5115 -1.0002
 9244SOL    HW239369   0.543   1.527   3.732 -2.4256 -2.6628 -0.6713
 9245SOL     OW39370   1.386   3.031  13.075  0.8936  0.3208 -0.8725
 9245SOL    HW139371   1.401   3.105  13.133 -2.5177 -0.4967  1.0295
 9245SOL    HW239372   1.445   2.963  13.108 -0.1640 -0.7379 -1.1776
 9246SOL     OW39373   1.176   3.916   8.882  0.1378  0.2686  0.1455
 9246SOL    HW139374   1.087   3.888   8.905  0.0893  0.4109  0.1341
 9246SOL    HW239375   1.159   4.009   8.869  1.1142  0.7335  2.2578
 9247SOL     OW39376   2.209   4.003   8.779  0.0826  0.3745 -0.3003
 9247SOL    HW139377   2.178   3.935   8.839  0.2706  2.3184  2.0014
 9247SOL    HW239378   2.163   3.983   8.698 -2.0568  0.1281  0.9696
 9248SOL     OW39379   1.193   2.961   7.661  0.6026  0.2271  0.4559
 9248SOL    HW139380   1.235   2.906   7.596 -0.7567 -0.5047  0.1924
 9248SOL    HW239381   1.260   2.991   7.722  2.2790  1.7427 -2.1343
 9249SOL     OW39382   0.045   3.167   9.796  0.4972  0.7749  0.3175
 9249SOL    HW139383   0.025   3.193   9.706 -1.3674 -1.0826  0.1988
 9249SOL    HW239384   0.008   3.079   9.801  0.0644  0.8001 -2.3512
 9250SOL     OW39385   1.542   1.139   3.806  0.0871 -0.2621  0.5310
 9250SOL    HW139386   1.511   1.188   3.883 -1.9732 -0.9491  0.1440
 9250SOL    HW239387   1.459   1.104   3.776  1.8264 -0.4656 -4.0438
 9251SOL     OW39388   2.028   4.646   3.342 -0.4298 -0.3172 -0.3112
 9251SOL    HW139389   2.056   4.736   3.360 -1.9324 -0.2341  1.5743
 9251SOL    HW239390   1.935   4.653   3.321 -0.1374 -2.1081 -2.1874
 9252SOL     OW39391   0.087   2.862   5.704 -0.1029  0.1219 -0.0357
 9252SOL    HW139392   0.061   2.954   5.707  1.8326  0.5823  3.1059
 9252SOL    HW239393   0.098   2.852   5.609  1.4296 -0.1734  0.1634
 9253SOL     OW39394   0.849   3.101  11.706  0.2968  0.0029  0.0359
 9253SOL    HW139395   0.800   3.019  11.712  1.1340 -0.5110 -0.2456
 9253SOL    HW239396   0.777   3.158  11.678  2.9694  2.3831 -2.0354
 9254SOL     OW39397   0.863   2.164   8.773  0.4608  0.3991 -0.1048
 9254SOL    HW139398   0.801   2.115   8.827  0.9404  0.9581  0.9655
 9254SOL    HW239399   0.849   2.252   8.808 -1.1586  0.8719 -1.9414
 9255SOL     OW39400   1.689   2.787   2.968 -0.2959 -0.4351 -0.1190
 9255SOL    HW139401   1.634   2.761   2.894 -1.0397  1.6983 -0.3222
 9255SOL    HW239402   1.649   2.734   3.036  1.9936  0.0834  1.6315
 9256SOL     OW39403   1.271   1.452   4.556 -0.3157 -0.0398 -0.2365
 9256SOL    HW139404   1.195   1.504   4.585  1.8396  1.6121  2.5509
 9256SOL    HW239405   1.320   1.513   4.500 -0.7033  1.2600  0.8135
 9257SOL     OW39406   0.689   1.417  17.450 -0.4304  0.3795 -0.6047
 9257SOL    HW139407   0.672   1.345  17.390 -2.7633 -0.1035  0.6464
 9257SOL    HW239408   0.625   1.485  17.428  1.5627  2.3893 -0.1624
 9258SOL     OW39409   0.622   3.110   9.789  0.0627  0.1262  0.4759
 9258SOL    HW139410   0.697   3.101   9.730  1.3085  1.5793  1.8116
 9258SOL    HW239411   0.541   3.097   9.741  2.0605  0.8493 -3.0534
 9259SOL     OW39412   0.747   3.385   4.186 -0.4279 -0.1224  0.7131
 9259SOL    HW139413   0.818   3.414   4.243  0.7398 -2.1273  0.2918
 9259SOL    HW239414   0.731   3.303   4.232 -2.4965  0.6176  1.2844
 9260SOL     OW39415   1.508   2.370  14.161  0.0503  0.0292 -0.1321
 9260SOL    HW139416   1.551   2.341  14.081  1.7711  0.5847  0.5986
 9260SOL    HW239417   1.523   2.297  14.221 -1.9691 -1.4978 -1.4927
 9261SOL     OW39418   1.956   2.413   0.825  0.7159 -0.6165  0.4983
 9261SOL    HW139419   1.941   2.327   0.863  1.8792 -2.2090 -2.6265
 9261SOL    HW239420   2.033   2.390   0.772 -1.2335 -2.6810 -1.4048
 9262SOL     OW39421   2.308   3.456   6.104  0.2231 -0.1143  0.1981
 9262SOL    HW139422   2.295   3.461   6.198  2.2188 -0.1151  0.4894
 9262SOL    HW239423   2.401   3.434   6.107  0.3756  0.6151  0.7728
 9263SOL     OW39424   1.492   0.095   0.317 -0.1028  0.3664  0.7099
 9263SOL    HW139425   1.436   0.086   0.394 -1.0800 -0.0917 -0.0515
 9263SOL    HW239426   1.547   0.021   0.344  1.4830  0.6777 -1.6663
 9264SOL     OW39427   1.147   1.787   8.338 -0.0296 -0.1631  0.3195
 9264SOL    HW139428   1.206   1.862   8.337  0.6613 -0.6984  0.1074
 9264SOL    HW239429   1.171   1.747   8.254 -1.3814  0.7030 -0.4684
 9265SOL     OW39430   2.694   4.725   2.853 -0.2297  0.6351  0.0772
 9265SOL    HW139431   2.642   4.665   2.799 -0.0036  1.4675 -1.0617
 9265SOL    HW239432   2.783   4.704   2.827 -0.7303 -1.0894 -0.2470
 9266SOL     OW39433   3.187   3.267   3.205 -0.0325 -0.1924  0.2025
 9266SOL    HW139434   3.097   3.267   3.236  0.2587  2.0045  1.0459
 9266SOL    HW239435   3.191   3.362   3.191 -0.1451 -0.3699 -1.0819
 9267SOL     OW39436   4.121   4.592  16.004 -0.1906  0.2132  0.0782
 9267SOL    HW139437   4.164   4.659  16.057  1.4735  1.0864 -2.3524
 9267SOL    HW239438   4.044   4.572  16.057  0.2804 -0.0086  0.6794
 9268SOL     OW39439   2.518   3.992   6.486 -0.4276 -0.3152  0.2426
 9268SOL    HW139440   2.587   3.934   6.520 -0.1462  0.4225  0.9261
 9268SOL    HW239441   2.495   3.957   6.400 -0.6015  0.5761 -0.0736
 9269SOL     OW39442   2.807   3.024   5.758 -0.6130  0.3973 -0.5027
 9269SOL    HW139443   2.831   3.114   5.739 -1.0242  0.2137 -1.9032
 9269SOL    HW239444   2.893   2.986   5.776 -0.0490  0.8864 -2.1673
 9270SOL     OW39445   3.711   2.952   3.125  0.0873 -0.1021 -0.3595
 9270SOL    HW139446   3.714   3.047   3.138 -1.9981  0.1284 -1.4701
 9270SOL    HW239447   3.805   2.935   3.118  0.6866  2.5789  1.1819
 9271SOL     OW39448   0.226   3.046   3.278 -0.5413  0.1460 -0.0560
 9271SOL    HW139449   0.228   2.964   3.229 -1.5374  0.9962 -1.5170
 9271SOL    HW239450   0.313   3.040   3.318 -1.9802  0.4735  3.1397
 9272SOL     OW39451   1.431   4.076   6.890  0.0903 -0.2413 -0.4808
 9272SOL    HW139452   1.388   4.106   6.970 -0.2624 -1.7610 -0.1070
 9272SOL    HW239453   1.512   4.033   6.919 -0.1312 -1.7028 -2.0695
 9273SOL     OW39454   2.622   3.826   2.453  0.2421 -1.1167 -0.2105
 9273SOL    HW139455   2.585   3.905   2.492  0.2683 -1.6372  0.8643
 9273SOL    HW239456   2.591   3.766   2.521 -0.8261 -1.8470 -1.3658
 9274SOL     OW39457   3.145   0.894   8.653  0.8292 -0.2121 -0.1931
 9274SOL    HW139458   3.207   0.836   8.697  2.5197  0.8812 -1.1362
 9274SOL    HW239459   3.069   0.838   8.666  1.2364 -0.4727  1.0887
 9275SOL     OW39460   4.527   3.749   7.525 -0.9389 -0.0856  0.3372
 9275SOL    HW139461   4.501   3.798   7.447 -2.4269 -1.5592 -0.0780
 9275SOL    HW239462   4.528   3.661   7.489 -2.3784  0.5680 -1.3180
 9276SOL     OW39463   4.612   3.812   3.831  0.2180 -0.0828  0.2571
 9276SOL    HW139464   4.567   3.844   3.908  1.8496  1.1486  0.7001
 9276SOL    HW239465   4.678   3.882   3.826 -2.4185  2.3205 -0.7357
 9277SOL     OW39466   3.504   4.317   7.647 -0.0502 -0.3455 -0.2217
 9277SOL    HW139467   3.546   4.359   7.573 -0.4096 -0.3312 -0.4188
 9277SOL    HW239468   3.434   4.381   7.663  0.3567 -0.6503  2.8186
 9278SOL     OW39469   1.231   1.011   5.605  0.2348  0.3872  0.1394
 9278SOL    HW139470   1.273   0.967   5.531  1.2354  0.3759  0.7172
 9278SOL    HW239471   1.175   0.943   5.641  1.1737 -0.9955 -0.9965
 9279SOL     OW39472   0.377   1.861   9.730 -0.3773  0.3499  0.5193
 9279SOL    HW139473   0.328   1.852   9.649 -0.3469  1.5927  0.3712
 9279SOL    HW239474   0.301   1.880   9.786  1.1133 -1.9291  3.3523
 9280SOL     OW39475   0.487   0.914   6.506 -0.9645 -0.1199 -0.2041
 9280SOL    HW139476   0.569   0.938   6.549 -0.7390 -0.2891 -0.5377
 9280SOL    HW239477   0.446   1.000   6.510  0.2600  0.4052  1.1112
 9281SOL     OW39478   0.415   0.811   4.635 -0.2846 -0.3422 -0.0170
 9281SOL    HW139479   0.465   0.737   4.670 -0.7914 -0.5513  0.2651
 9281SOL    HW239480   0.357   0.770   4.572 -1.6641  1.4008  0.1174
 9282SOL     OW39481   4.129   4.005   2.377  0.1755  0.0971 -0.1356
 9282SOL    HW139482   4.213   4.051   2.374  0.0675  0.3138  0.0863
 9282SOL    HW239483   4.084   4.049   2.449  0.1406 -2.8920  1.6698
 9283SOL     OW39484   3.701   4.548   6.545  0.0140 -0.4207 -0.2258
 9283SOL    HW139485   3.740   4.466   6.574 -1.4227 -0.0503  2.7763
 9283SOL    HW239486   3.684   4.531   6.452 -3.0862  0.5927  0.1445
 9284SOL     OW39487   4.315   4.374   2.957  0.1944 -0.4509 -0.0892
 9284SOL    HW139488   4.343   4.294   2.912 -0.4502 -0.0074 -1.2817
 9284SOL    HW239489   4.299   4.332   3.041  0.5249 -0.5138 -0.0573
 9285SOL     OW39490   2.116   0.601   9.472  0.0549  0.5468  0.0709
 9285SOL    HW139491   2.023   0.584   9.457  0.4202 -1.2178 -0.1654
 9285SOL    HW239492   2.124   0.574   9.564  1.4672 -1.1493 -0.5618
 9286SOL     OW39493   0.208   4.509  11.176 -0.0125 -0.6176 -0.2204
 9286SOL    HW139494   0.147   4.522  11.249 -0.6417  0.5654 -0.9509
 9286SOL    HW239495   0.271   4.579  11.193  1.3596 -1.6776 -1.0129
 9287SOL     OW39496   2.696   2.904   0.593 -0.1585  0.4539 -0.2356
 9287SOL    HW139497   2.605   2.880   0.574 -0.3220 -0.6008  1.8689
 9287SOL    HW239498   2.743   2.823   0.610 -0.8008  0.1544  0.0969
 9288SOL     OW39499   2.013   0.441  11.860  0.0490 -0.7690  0.6168
 9288SOL    HW139500   2.001   0.346  11.855  2.2071 -1.1528  2.3642
 9288SOL    HW239501   2.019   0.461  11.766  1.2910 -0.7828  0.6922
 9289SOL     OW39502   3.159   2.531   8.528 -0.0367 -0.3403  0.3377
 9289SOL    HW139503   3.210   2.536   8.447  1.3845 -0.3476  1.2348
 9289SOL    HW239504   3.188   2.447   8.563  0.4757 -0.1986  0.2479
 9290SOL     OW39505   3.004   0.767   7.874  0.4448 -0.0002  0.0850
 9290SOL    HW139506   2.995   0.811   7.958 -2.8855 -1.4438  0.4887
 9290SOL    HW239507   3.097   0.780   7.856  0.2442  1.4016  0.1260
 9291SOL     OW39508   0.940   0.263   5.861  0.6015  0.1692 -0.2894
 9291SOL    HW139509   0.888   0.202   5.914  0.3442  1.9204  1.4843
 9291SOL    HW239510   0.879   0.300   5.797  1.1213 -0.6120 -1.2303
 9292SOL     OW39511   2.310   2.499   8.398  0.1256 -0.0168 -0.0469
 9292SOL    HW139512   2.336   2.420   8.445  0.9377 -0.9404 -2.0512
 9292SOL    HW239513   2.390   2.551   8.387  0.5544 -1.0656 -1.7383
 9293SOL     OW39514   0.728   0.412   6.822  0.2352 -0.1182  0.7084
 9293SOL    HW139515   0.694   0.479   6.881 -0.0882  1.3732 -1.1693
 9293SOL    HW239516   0.728   0.459   6.739  0.1301 -0.0406  0.7519
 9294SOL     OW39517   1.642   1.600   7.159  0.2418 -0.1779  0.2871
 9294SOL    HW139518   1.599   1.554   7.231  0.4935  0.9855  1.1884
 9294SOL    HW239519   1.598   1.685   7.166  1.9899  1.0108 -3.3536
 9295SOL     OW39520   2.683   2.236   4.240  0.3426  0.1138  0.4162
 9295SOL    HW139521   2.693   2.308   4.302 -1.8613 -0.2271  1.1499
 9295SOL    HW239522   2.624   2.276   4.176 -0.5540 -0.5671  0.8247
 9296SOL     OW39523   0.124   3.073  15.978  0.2617 -0.3626  0.3747
 9296SOL    HW139524   0.192   3.115  15.925  0.4940 -0.9074  0.2435
 9296SOL    HW239525   0.171   3.086  16.060  0.3142 -0.2129  0.3208
 9297SOL     OW39526   3.559   2.169   6.679  0.0059  0.5476 -0.0050
 9297SOL    HW139527   3.650   2.165   6.708 -0.5193 -0.9791  1.4451
 9297SOL    HW239528   3.550   2.249   6.626 -0.5016  1.2587  1.1533
 9298SOL     OW39529   0.147   1.766  14.306 -0.5486 -0.2270 -0.1762
 9298SOL    HW139530   0.185   1.746  14.221  0.1393  1.1144 -0.1783
 9298SOL    HW239531   0.178   1.856  14.319  2.3773 -1.2198 -0.3287
 9299SOL     OW39532   1.867   0.747  11.275 -0.2686  0.5086  0.0994
 9299SOL    HW139533   1.831   0.664  11.307 -1.4080  0.3094 -1.7175
 9299SOL    HW239534   1.920   0.717  11.201 -0.6329 -1.3814  0.6217
 9300SOL     OW39535   3.630   4.395   3.717  0.1710  0.0406  0.0438
 9300SOL    HW139536   3.652   4.325   3.779  0.0669 -1.2250 -1.3382
 9300SOL    HW239537   3.636   4.471   3.775 -1.4631  0.1438  0.0781
 9301SOL     OW39538   0.345   1.490  12.039 -0.2613 -0.0592 -0.5875
 9301SOL    HW139539   0.318   1.582  12.040 -1.4661 -0.4583  1.2847
 9301SOL    HW239540   0.283   1.454  12.101 -0.0250  0.6499  0.0606
 9302SOL     OW39541   2.551   4.286  12.072  0.1638 -0.0805 -0.1646
 9302SOL    HW139542   2.599   4.289  12.155 -1.2046 -0.2630  0.6237
 9302SOL    HW239543   2.617   4.312  12.008  0.0284  1.7038  0.4200
 9303SOL     OW39544   0.139   2.919  12.914 -0.1663  0.2221  0.7569
 9303SOL    HW139545   0.117   3.010  12.931  0.5341  0.2156  1.6719
 9303SOL    HW239546   0.090   2.875  12.984 -0.6630 -1.4955 -0.6511
 9304SOL     OW39547   0.435   1.527   5.178 -0.8421 -0.4719 -0.3507
 9304SOL    HW139548   0.440   1.474   5.257 -1.1327  0.8012  0.5249
 9304SOL    HW239549   0.452   1.614   5.215 -1.3396  0.0676 -1.3878
 9305SOL     OW39550   0.817   3.687   3.978 -0.5642  0.4516 -0.5005
 9305SOL    HW139551   0.873   3.730   3.913  1.4712 -0.8385  0.3935
 9305SOL    HW239552   0.867   3.613   4.013 -1.6815 -0.9369 -1.8563
 9306SOL     OW39553   3.111   0.924  10.372 -0.1943  0.4260  0.3648
 9306SOL    HW139554   3.203   0.905  10.355 -1.0000 -1.9657 -1.3150
 9306SOL    HW239555   3.127   0.982  10.446 -0.3566  1.4488 -0.4149
 9307SOL     OW39556   3.497   1.609   9.192 -0.1553 -0.2307  0.2636
 9307SOL    HW139557   3.535   1.574   9.111  0.2775  0.0302  0.3504
 9307SOL    HW239558   3.477   1.530   9.241  4.8015 -1.8475 -0.3408
 9308SOL     OW39559   0.190   1.817   9.547  0.3987  0.8398 -0.7739
 9308SOL    HW139560   0.116   1.870   9.520 -0.7931 -0.0733  0.7099
 9308SOL    HW239561   0.141   1.736   9.563  0.7619  0.3885 -1.9332
 9309SOL     OW39562   0.956   2.989   4.745 -0.7457  0.2510  0.0274
 9309SOL    HW139563   0.890   2.996   4.814 -1.7100 -2.4148 -0.6398
 9309SOL    HW239564   0.990   2.902   4.767 -1.1338 -0.2500 -1.4239
 9310SOL     OW39565   4.209   2.137   7.065 -0.1054  0.3054  0.4084
 9310SOL    HW139566   4.173   2.057   7.026  0.9116 -0.7624  1.6766
 9310SOL    HW239567   4.252   2.113   7.147 -1.7709 -2.1082  0.5524
 9311SOL     OW39568   1.630   2.547   3.406 -0.1896 -0.4597  0.1169
 9311SOL    HW139569   1.682   2.622   3.379 -0.3070  0.0296  1.2364
 9311SOL    HW239570   1.540   2.576   3.423 -1.1229 -0.8575 -4.2039
 9312SOL     OW39571   1.849   4.259   6.061  0.2051  0.3690  0.9484
 9312SOL    HW139572   1.771   4.315   6.060 -0.3487 -0.4036  0.6465
 9312SOL    HW239573   1.804   4.176   6.077  2.4813 -1.5294 -2.4704
 9313SOL     OW39574   4.520   2.795  14.416 -0.5726  0.3111 -0.0046
 9313SOL    HW139575   4.591   2.848  14.379  1.3915 -0.3945  2.7513
 9313SOL    HW239576   4.471   2.760  14.342  1.9135 -2.8989 -0.0964
 9314SOL     OW39577   3.492   3.897   8.801  0.1615 -1.0407 -0.0910
 9314SOL    HW139578   3.441   3.842   8.860 -2.0351  1.0549 -0.0335
 9314SOL    HW239579   3.502   3.980   8.848  0.7903  0.5587 -3.0209
 9315SOL     OW39580   2.807   0.210   5.668 -0.2956 -0.0714 -0.1144
 9315SOL    HW139581   2.777   0.180   5.582 -1.8254  2.4908 -0.4913
 9315SOL    HW239582   2.781   0.142   5.730  2.7607 -1.0731  0.0447
 9316SOL     OW39583   3.850   2.570   4.068 -0.1478  0.8204  0.5199
 9316SOL    HW139584   3.886   2.482   4.078 -1.3191  0.0069 -2.2715
 9316SOL    HW239585   3.905   2.604   3.998 -1.3921 -0.0753 -0.8894
 9317SOL     OW39586   2.671   2.327   8.153 -0.2753  0.0810 -0.0866
 9317SOL    HW139587   2.672   2.361   8.064 -0.9921 -1.5404 -0.7031
 9317SOL    HW239588   2.742   2.381   8.189 -0.8410  0.2944  0.7218
 9318SOL     OW39589   1.294   2.159   7.392  0.1135 -0.6370 -0.3635
 9318SOL    HW139590   1.336   2.210   7.460  0.3818  0.0881 -1.0793
 9318SOL    HW239591   1.335   2.075   7.416 -1.7870 -1.3946  0.2085
 9319SOL     OW39592   1.390   1.829  13.999 -0.2848  0.5429  0.3366
 9319SOL    HW139593   1.385   1.898  14.066  0.1828  0.6561  0.2573
 9319SOL    HW239594   1.310   1.847  13.950 -0.6503 -0.5785  0.5170
 9320SOL     OW39595   4.146   0.461   6.155 -0.0716  0.5784 -0.3344
 9320SOL    HW139596   4.108   0.378   6.125  0.4638  0.1290  0.2321
 9320SOL    HW239597   4.224   0.429   6.199  0.1715 -0.3024 -1.3868
 9321SOL     OW39598   4.247   3.317   8.577  0.3681 -0.5554 -0.4563
 9321SOL    HW139599   4.165   3.315   8.627 -0.4516 -0.7030 -1.8020
 9321SOL    HW239600   4.267   3.411   8.572 -0.0781 -0.5292 -1.6097
 9322SOL     OW39601   1.365   3.553   2.161  0.2644 -0.1079 -0.8130
 9322SOL    HW139602   1.299   3.594   2.217  0.5300  1.2631 -1.4888
 9322SOL    HW239603   1.438   3.611   2.182  1.8567 -2.1084 -0.8605
 9323SOL     OW39604   0.024   2.468   8.320  0.6949  0.1640 -0.0424
 9323SOL    HW139605   0.054   2.458   8.410  0.7130 -0.7280 -0.1458
 9323SOL    HW239606   0.108   2.502   8.288  0.9164 -0.8130 -0.5198
 9324SOL     OW39607   1.142   2.811  12.923 -0.2151 -0.4516  0.4225
 9324SOL    HW139608   1.154   2.731  12.874  0.5926 -0.0263 -0.0725
 9324SOL    HW239609   1.198   2.788  12.998  1.1147  2.6768  0.4009
 9325SOL     OW39610   3.100   4.262   0.665  0.1475  0.1998  0.8136
 9325SOL    HW139611   3.049   4.312   0.600 -0.5448 -3.2585 -1.3502
 9325SOL    HW239612   3.046   4.258   0.743 -0.1789 -0.6797  0.5495
 9326SOL     OW39613   1.486   0.047   7.071  0.3172 -0.1915 -0.2258
 9326SOL    HW139614   1.403   0.048   7.117 -0.4424 -1.2382 -1.5603
 9326SOL    HW239615   1.452   0.085   6.990  0.8341  0.1556 -0.2852
 9327SOL     OW39616   4.282   4.564   5.170  0.0830  0.0713 -0.0714
 9327SOL    HW139617   4.226   4.508   5.116  0.9418  1.5787 -2.5298
 9327SOL    HW239618   4.291   4.511   5.249  2.4056  0.1370 -0.2946
 9328SOL     OW39619   0.355   4.731   6.829 -0.3462  0.0151 -0.3106
 9328SOL    HW139620   0.363   0.065   6.890 -2.1742  0.1173 -0.1914
 9328SOL    HW239621   0.422   4.682   6.876 -1.8590 -2.4002 -0.6747
 9329SOL     OW39622   3.657   2.164  16.740  0.3271 -0.0665 -0.6355
 9329SOL    HW139623   3.652   2.174  16.645  0.2700 -2.1402 -0.8680
 9329SOL    HW239624   3.719   2.090  16.735  0.6757 -0.0167  2.7836
 9330SOL     OW39625   3.623   0.969   4.953 -0.1348  0.3539  0.5400
 9330SOL    HW139626   3.699   0.917   4.928  1.6683  2.4285  1.6603
 9330SOL    HW239627   3.557   0.962   4.885  1.5021 -0.4394 -0.9422
 9331SOL     OW39628   3.338   0.307   1.203 -0.3226 -0.5631  0.4373
 9331SOL    HW139629   3.322   0.249   1.277 -3.4196 -0.8368 -0.4158
 9331SOL    HW239630   3.367   0.241   1.140 -1.0628 -1.7629  1.3590
 9332SOL     OW39631   4.592   0.890   2.983 -0.0544 -0.0260 -0.0988
 9332SOL    HW139632   4.516   0.837   3.005  0.5607 -1.4067 -1.3272
 9332SOL    HW239633   4.546   0.955   2.930 -1.9867  0.5639  2.2841
 9333SOL     OW39634   3.645   1.970   2.183 -0.0940 -0.2618  0.1864
 9333SOL    HW139635   3.668   1.886   2.223 -2.4745 -1.7977 -1.6702
 9333SOL    HW239636   3.555   1.976   2.212 -0.9469 -0.7015 -2.3662
 9334SOL     OW39637   1.912   0.631  17.687 -0.4626  0.2678 -0.7260
 9334SOL    HW139638   1.960   0.549  17.694 -2.8006 -0.7768  3.4567
 9334SOL    HW239639   1.942   0.677  17.609 -2.1518  0.8550 -1.0398
 9335SOL     OW39640   3.775   0.114   2.320  0.2055 -0.4960  0.3095
 9335SOL    HW139641   3.871   0.109   2.328  0.4322 -0.0803 -2.0747
 9335SOL    HW239642   3.770   0.072   2.233  0.9938 -0.4713  0.2438
 9336SOL     OW39643   1.544   2.832   2.626 -0.3925 -0.4736 -0.4948
 9336SOL    HW139644   1.537   2.779   2.547 -0.8242 -1.2436  0.0607
 9336SOL    HW239645   1.545   2.760   2.690  0.5950  1.5635  1.7907
 9337SOL     OW39646   2.112   3.401  15.427 -0.1557  0.1984 -0.2878
 9337SOL    HW139647   2.119   3.306  15.435  1.4843  0.1761 -2.1223
 9337SOL    HW239648   2.099   3.412  15.333 -0.2784 -0.7019 -0.3774
 9338SOL     OW39649   1.228   2.692   6.232 -0.0676  0.4441  0.3399
 9338SOL    HW139650   1.147   2.694   6.181  0.3475  0.3638 -0.3298
 9338SOL    HW239651   1.264   2.612   6.194 -0.0091  0.8152 -0.3884
 9339SOL     OW39652   1.035   1.047   8.004  0.1098  0.0781  0.7840
 9339SOL    HW139653   1.124   1.083   8.005  0.0544  0.2211  0.3443
 9339SOL    HW239654   1.052   0.954   8.022  0.9149 -0.5115 -2.9598
 9340SOL     OW39655   2.382   0.798  15.977  0.7651  0.0543 -0.2320
 9340SOL    HW139656   2.288   0.784  15.980  0.3741  2.5751 -0.5484
 9340SOL    HW239657   2.385   0.858  15.903  1.6970 -0.2875 -0.4742
 9341SOL     OW39658   3.622   0.785   9.591  0.5305 -0.6869  0.7745
 9341SOL    HW139659   3.649   0.725   9.522  2.4256  0.8773  0.1453
 9341SOL    HW239660   3.703   0.831   9.614 -0.5089  1.1082  0.8386
 9342SOL     OW39661   1.129   3.431   9.571 -0.1107 -0.4094 -0.6495
 9342SOL    HW139662   1.071   3.475   9.509  0.9401 -0.1916 -1.4735
 9342SOL    HW239663   1.064   3.411   9.638 -2.6508  2.2826 -2.3333
 9343SOL     OW39664   2.430   3.999   8.429 -0.3283  0.1279 -0.1533
 9343SOL    HW139665   2.413   3.910   8.461  2.1011 -0.7059 -1.2385
 9343SOL    HW239666   2.360   4.008   8.365  1.8332 -0.8917 -2.6339
 9344SOL     OW39667   3.351   3.598   5.563 -0.3467  0.1447  0.0479
 9344SOL    HW139668   3.282   3.560   5.617  1.2703  1.2487  2.8399
 9344SOL    HW239669   3.317   3.571   5.477  0.0966  0.9591 -0.3875
 9345SOL     OW39670   2.403   4.428   9.779  0.0986 -0.2232  0.0030
 9345SOL    HW139671   2.489   4.405   9.745  0.2258 -2.5085  1.8650
 9345SOL    HW239672   2.366   4.481   9.708 -0.3618  0.3787  0.6981
 9346SOL     OW39673   4.165   2.430   8.263  0.1010  0.6056 -0.0003
 9346SOL    HW139674   4.199   2.473   8.342  0.8039 -0.6244  0.3569
 9346SOL    HW239675   4.127   2.349   8.297  0.8806 -0.3739 -1.5229
 9347SOL     OW39676   1.938   4.479   6.782  0.4686  0.1391 -0.1441
 9347SOL    HW139677   2.018   4.490   6.732  2.0704  0.4493  2.4880
 9347SOL    HW239678   1.895   4.411   6.731 -0.1158  0.6910 -0.4042
 9348SOL     OW39679   4.177   3.809  15.960 -0.2671  0.6777 -0.6723
 9348SOL    HW139680   4.201   3.754  15.886 -1.4185 -0.5574 -0.1425
 9348SOL    HW239681   4.240   3.880  15.959 -0.5100  0.9077  0.2923
 9349SOL     OW39682   3.581   0.445  13.102 -0.0752 -0.0971  0.0524
 9349SOL    HW139683   3.506   0.487  13.145 -0.0106  0.9017 -0.8249
 9349SOL    HW239684   3.625   0.401  13.174  0.6677  0.6911  0.0729
 9350SOL     OW39685   3.315   2.526   6.174 -0.0529 -0.4235 -0.3219
 9350SOL    HW139686   3.287   2.438   6.148  1.4518 -0.2554 -2.5127
 9350SOL    HW239687   3.329   2.501   6.265 -0.8455  0.9077  0.1583
 9351SOL     OW39688   1.755   1.467   3.077  0.1532 -0.0768  0.1680
 9351SOL    HW139689   1.783   1.496   2.990 -0.2158 -0.7608 -0.1737
 9351SOL    HW239690   1.831   1.496   3.127  2.3988 -2.8593 -1.6660
 9352SOL     OW39691   2.123   3.505   7.330 -0.6188 -0.8617 -0.1675
 9352SOL    HW139692   2.072   3.586   7.324  0.4284 -0.3727 -2.6318
 9352SOL    HW239693   2.111   3.482   7.238  0.3644 -2.4588  0.1072
 9353SOL     OW39694   1.668   2.909   2.041 -0.2098  0.1629  0.0179
 9353SOL    HW139695   1.653   2.838   1.977  0.9861 -2.0042  2.1372
 9353SOL    HW239696   1.647   2.861   2.121  2.0540  2.3471  1.9036
 9354SOL     OW39697   0.657   4.605   2.450  0.4671 -0.4718  0.3328
 9354SOL    HW139698   0.684   4.685   2.495 -2.3078 -0.2937  1.7261
 9354SOL    HW239699   0.705   4.536   2.496  0.6271 -0.2853  0.4441
 9355SOL     OW39700   1.787   4.531   3.541 -0.6699  0.5747  0.2974
 9355SOL    HW139701   1.745   4.553   3.458 -1.6217 -0.2653  0.5577
 9355SOL    HW239702   1.724   4.569   3.603 -1.3245  0.1699 -0.1262
 9356SOL     OW39703   0.359   1.514  17.086 -0.1875 -0.0172 -0.0109
 9356SOL    HW139704   0.377   1.608  17.091  0.9283 -0.2105 -0.3772
 9356SOL    HW239705   0.297   1.511  17.159  2.3876 -0.8100  2.1453
 9357SOL     OW39706   3.684   3.848  11.265  0.1298  0.1977  0.6035
 9357SOL    HW139707   3.685   3.919  11.330 -0.1238  1.2996 -0.6074
 9357SOL    HW239708   3.608   3.796  11.290  0.6557 -0.1997  1.3678
 9358SOL     OW39709   2.259   4.561   3.767  0.2327  0.7386 -0.1904
 9358SOL    HW139710   2.197   4.528   3.701  3.9279  0.2092 -3.4115
 9358SOL    HW239711   2.203   4.631   3.801  0.2936  0.5796  0.2283
 9359SOL     OW39712   2.376   0.922   7.508 -0.2368 -0.3214 -0.7525
 9359SOL    HW139713   2.349   0.832   7.528  0.1863 -0.2245  0.2468
 9359SOL    HW239714   2.418   0.926   7.422 -1.2265 -1.8635 -1.3250
 9360SOL     OW39715   1.022   3.674   3.715  0.2059  0.1010 -0.0311
 9360SOL    HW139716   0.998   3.755   3.670 -1.5405 -0.5913 -0.3634
 9360SOL    HW239717   0.985   3.610   3.654 -0.0224  0.5228 -0.3336
 9361SOL     OW39718   0.094   1.224  12.005 -0.0950 -0.3518 -0.5417
 9361SOL    HW139719   0.091   1.264  12.092 -1.1605  0.0046 -0.7481
 9361SOL    HW239720   0.036   1.286  11.960 -0.7222  0.0648  0.8502
 9362SOL     OW39721   3.773   1.860   6.795 -0.2679  0.0494  0.0575
 9362SOL    HW139722   3.688   1.823   6.770 -1.6920  3.3193  0.1132
 9362SOL    HW239723   3.767   1.862   6.891  0.4595 -0.8660  0.1248
 9363SOL     OW39724   1.892   0.018   1.754  0.3104 -0.5023 -0.6015
 9363SOL    HW139725   1.906   0.037   1.847  1.0623 -2.1807 -0.3839
 9363SOL    HW239726   1.835   0.089   1.723 -0.8153 -0.9292  0.4550
 9364SOL     OW39727   1.535   2.182  14.368  0.5095 -0.2502 -0.4958
 9364SOL    HW139728   1.610   2.231  14.403 -0.1633 -0.1953  0.8872
 9364SOL    HW239729   1.533   2.108  14.429  0.4680 -1.3349 -1.8218
 9365SOL     OW39730   1.571   3.967  14.382 -0.4005  0.4193  0.2311
 9365SOL    HW139731   1.577   3.966  14.477  1.3100 -0.7635  0.1027
 9365SOL    HW239732   1.547   4.058  14.367 -0.5370  0.1811 -0.9963
 9366SOL     OW39733   4.584   3.355   6.759  0.1318 -0.4425 -0.0115
 9366SOL    HW139734   4.504   3.385   6.803  0.5984 -1.6427  1.6762
 9366SOL    HW239735   4.612   3.445   6.745  1.6680 -1.2662 -2.0899
 9367SOL     OW39736   1.427   4.569   1.434 -0.7950  0.5075 -0.4445
 9367SOL    HW139737   1.382   4.542   1.514 -1.2948 -1.4504 -1.3633
 9367SOL    HW239738   1.484   4.637   1.469  0.4570 -0.0736 -1.3490
 9368SOL     OW39739   1.554   4.093   0.766 -0.9498  0.3221  0.1907
 9368SOL    HW139740   1.527   4.066   0.854  0.8613  0.4109  0.7789
 9368SOL    HW239741   1.630   4.035   0.768 -1.8014 -0.7925 -0.0529
 9369SOL     OW39742   1.937   2.655   2.557  0.2155 -0.6838  0.0048
 9369SOL    HW139743   1.927   2.749   2.549 -0.2266 -0.8735 -1.7247
 9369SOL    HW239744   1.974   2.649   2.645 -0.4447  0.6175  0.3598
 9370SOL     OW39745   4.560   3.352   8.950 -0.0926  0.8535  0.0771
 9370SOL    HW139746   4.519   3.269   8.973  0.4227  0.7998  0.7917
 9370SOL    HW239747   4.651   3.327   8.932 -0.6109 -0.7681 -0.2953
 9371SOL     OW39748   0.012   0.763   1.254 -0.5758 -0.1211 -0.8320
 9371SOL    HW139749   4.717   0.683   1.292 -0.7828  0.2018 -0.3477
 9371SOL    HW239750   0.099   0.739   1.222  0.4792  0.1954  1.7903
 9372SOL     OW39751   0.575   2.431  10.260  0.0339  0.3625  0.1823
 9372SOL    HW139752   0.625   2.513  10.264  2.1455 -0.8793 -0.8666
 9372SOL    HW239753   0.552   2.428  10.353 -0.7572 -1.9695 -0.0868
 9373SOL     OW39754   4.292   2.841   5.038  0.2178 -0.4405  0.3894
 9373SOL    HW139755   4.351   2.783   5.086 -0.0781 -1.3025 -0.2845
 9373SOL    HW239756   4.351   2.916   5.035 -0.5180  0.1893  1.9586
 9374SOL     OW39757   3.373   2.540   6.475  0.2734  0.0567 -0.0394
 9374SOL    HW139758   3.280   2.552   6.498  0.0497  0.0292 -0.9188
 9374SOL    HW239759   3.407   2.599   6.542  2.8552 -1.7999  0.2461
 9375SOL     OW39760   3.034   1.534   7.360  0.1687  0.1171 -0.1799
 9375SOL    HW139761   2.956   1.534   7.415 -0.8948 -0.2664 -1.7004
 9375SOL    HW239762   3.060   1.619   7.396 -1.1973  0.2032  0.5939
 9376SOL     OW39763   0.625   3.299   2.766 -0.1857 -0.0699  0.0149
 9376SOL    HW139764   0.577   3.382   2.777 -1.5184 -0.9034  0.5220
 9376SOL    HW239765   0.588   3.263   2.685 -0.3255 -1.9666  0.9270
 9377SOL     OW39766   1.244   0.636  17.367 -0.1781 -0.7039  0.5798
 9377SOL    HW139767   1.267   0.723  17.335 -1.6415  0.2644  2.1537
 9377SOL    HW239768   1.296   0.635  17.448 -3.7462 -1.1151  2.8704
 9378SOL     OW39769   3.887   4.531  10.261 -0.0891 -0.7119  0.1901
 9378SOL    HW139770   3.892   4.546  10.166 -0.0347  1.1411  0.4960
 9378SOL    HW239771   3.855   4.441  10.258 -0.6234 -0.4951 -0.7882
 9379SOL     OW39772   3.488   1.035   3.656  0.1553  0.0145  0.2932
 9379SOL    HW139773   3.489   0.970   3.726 -3.3378 -0.8344 -0.4457
 9379SOL    HW239774   3.574   1.018   3.617 -0.3442  1.8296 -1.6085
 9380SOL     OW39775   0.891   0.182  13.327  0.0215  0.1327  0.0388
 9380SOL    HW139776   0.959   0.241  13.362 -1.1572  1.6584 -0.2533
 9380SOL    HW239777   0.823   0.242  13.298 -1.8664 -1.1482  1.8340
 9381SOL     OW39778   2.220   0.937   2.017  0.2037 -0.0694 -0.0648
 9381SOL    HW139779   2.124   0.944   2.021  0.0969  1.4128 -5.5041
 9381SOL    HW239780   2.222   0.879   2.093  0.5583 -0.0547 -0.0645
 9382SOL     OW39781   0.117   3.656   4.502 -0.0068  0.5752 -0.7302
 9382SOL    HW139782   0.042   3.709   4.528 -0.0505 -0.2013  0.7076
 9382SOL    HW239783   0.121   3.596   4.576 -1.4431 -0.3221 -1.3646
 9383SOL     OW39784   2.679   3.919   4.031 -0.0312 -0.2318 -0.0410
 9383SOL    HW139785   2.774   3.909   4.030 -0.3067 -2.9967  2.2634
 9383SOL    HW239786   2.663   3.863   3.955  0.5956 -1.2357  0.5580
 9384SOL     OW39787   3.295   2.693   7.608 -0.1914  0.1429  0.4065
 9384SOL    HW139788   3.358   2.749   7.562  0.7748 -1.8148 -0.6487
 9384SOL    HW239789   3.343   2.610   7.605  0.3454  0.4680 -0.0480
 9385SOL     OW39790   4.163   2.876  11.978  0.0004 -0.3885 -0.1620
 9385SOL    HW139791   4.086   2.900  11.927 -0.2805  0.3150  0.6001
 9385SOL    HW239792   4.167   2.960  12.024  1.4630  0.5408 -1.9660
 9386SOL     OW39793   2.741   2.627   7.462  0.3689 -0.2427 -0.3290
 9386SOL    HW139794   2.716   2.707   7.506 -1.3413 -2.0061  1.9006
 9386SOL    HW239795   2.741   2.638   7.367  0.1053 -0.8923 -0.4059
 9387SOL     OW39796   2.364   1.478   3.866  0.7940 -0.2593 -0.4884
 9387SOL    HW139797   2.411   1.425   3.802 -0.9023 -1.4780 -0.7123
 9387SOL    HW239798   2.441   1.526   3.898  1.2885 -0.8543 -0.7925
 9388SOL     OW39799   4.572   1.420   8.052  0.3095 -0.0077  0.3984
 9388SOL    HW139800   4.494   1.475   8.063  0.1216  0.0381 -1.1611
 9388SOL    HW239801   4.549   1.350   8.114  0.0592  0.3224  0.6775
 9389SOL     OW39802   2.913   2.013  16.715 -0.0301 -0.3550 -0.1305
 9389SOL    HW139803   2.853   2.086  16.706 -0.2577 -0.2936  1.9582
 9389SOL    HW239804   2.853   1.939  16.702  0.8643 -0.9387 -1.0128
 9390SOL     OW39805   0.186   4.711  15.228  0.5605 -0.3803  0.2624
 9390SOL    HW139806   0.175   4.638  15.167  0.4131  0.7020 -1.0254
 9390SOL    HW239807   0.265   0.005  15.184  1.2862  1.3327  2.8942
 9391SOL     OW39808   1.805   0.484   7.670  0.4297  0.3201 -0.0044
 9391SOL    HW139809   1.714   0.489   7.699  0.5546 -0.5282  0.5514
 9391SOL    HW239810   1.799   0.540   7.593 -0.8479  0.1964 -0.0049
 9392SOL     OW39811   1.980   1.826  12.325 -0.1687 -0.1855  0.1861
 9392SOL    HW139812   1.910   1.812  12.262 -1.0306 -1.4234  1.3997
 9392SOL    HW239813   1.977   1.921  12.332  0.1502 -0.0108 -2.1291
 9393SOL     OW39814   1.628   4.529   2.022 -0.1873  0.4477  0.0805
 9393SOL    HW139815   1.664   4.447   2.057 -2.9278 -0.8095 -0.0865
 9393SOL    HW239816   1.624   4.579   2.104  0.2105  0.2411  0.2255
 9394SOL     OW39817   0.427   0.499   6.923 -0.3219  0.0794 -0.4795
 9394SOL    HW139818   0.466   0.529   7.005 -0.9398  1.4372 -0.6840
 9394SOL    HW239819   0.439   0.580   6.873 -1.0052 -0.3065 -1.2676
 9395SOL     OW39820   2.607   4.191   1.451  0.1440 -0.6454  0.2385
 9395SOL    HW139821   2.544   4.232   1.392  0.6609 -0.3341 -0.1049
 9395SOL    HW239822   2.552   4.186   1.529  2.4415  1.1407  2.0087
 9396SOL     OW39823   3.141   1.036   4.875 -0.4584 -0.1964 -0.7623
 9396SOL    HW139824   3.161   1.097   4.804  1.6643  0.3749  0.3241
 9396SOL    HW239825   3.093   0.967   4.829  0.0963 -1.5674  0.7232
 9397SOL     OW39826   1.397   1.766  17.446 -0.8940 -0.2015 -0.6978
 9397SOL    HW139827   1.361   1.840  17.397 -2.0743 -0.5146 -0.3037
 9397SOL    HW239828   1.460   1.726  17.387 -0.0405  0.1161  0.0075
 9398SOL     OW39829   3.230   3.363   6.795  0.4247  0.3683  0.1858
 9398SOL    HW139830   3.206   3.445   6.838 -0.4534  1.0138 -1.5080
 9398SOL    HW239831   3.141   3.327   6.797  1.7700 -2.9721 -0.2141
 9399SOL     OW39832   1.721   3.504  12.985 -0.3269  0.1539 -0.0111
 9399SOL    HW139833   1.637   3.497  13.030 -0.4388  0.2448 -0.2071
 9399SOL    HW239834   1.690   3.554  12.909 -2.9079  1.1678  1.7218
 9400SOL     OW39835   0.596   1.003   4.638 -0.1424  0.6365 -0.1423
 9400SOL    HW139836   0.528   0.936   4.646  0.4173 -0.1189 -1.7077
 9400SOL    HW239837   0.654   0.956   4.578 -2.3832 -0.2892 -1.6044
 9401SOL     OW39838   1.976   2.656   2.270 -0.0570 -0.7338 -0.1737
 9401SOL    HW139839   1.973   2.630   2.362  0.4881  0.0335  0.0630
 9401SOL    HW239840   1.918   2.732   2.264 -1.9727 -2.2897 -1.1207
 9402SOL     OW39841   2.431   1.486  17.064 -0.2668 -0.0044 -0.6761
 9402SOL    HW139842   2.437   1.392  17.046  1.7980  0.1618 -0.8308
 9402SOL    HW239843   2.381   1.524  16.992 -1.8761  2.9804  2.0286
 9403SOL     OW39844   2.840   3.183   8.024 -0.2373  0.7389 -0.1439
 9403SOL    HW139845   2.871   3.114   8.082 -0.7477  1.6841  1.2663
 9403SOL    HW239846   2.795   3.241   8.086  0.7933  3.2343 -1.6881
 9404SOL     OW39847   3.836   4.084   6.231  0.0175 -0.6300  0.1207
 9404SOL    HW139848   3.855   4.173   6.202 -3.5531  0.3945  0.8484
 9404SOL    HW239849   3.752   4.104   6.272  0.0957  1.8576 -0.9258
 9405SOL     OW39850   1.561   1.997   7.922 -0.2456  0.6695  0.4060
 9405SOL    HW139851   1.533   2.036   8.005 -2.1939  0.4897 -0.1738
 9405SOL    HW239852   1.488   2.002   7.860 -0.7038  1.2773  0.9849
 9406SOL     OW39853   2.748   4.045   7.446  0.4983 -0.2130  0.0714
 9406SOL    HW139854   2.663   4.086   7.425  0.7869 -0.3537 -1.3592
 9406SOL    HW239855   2.724   3.953   7.455  2.9806 -0.8928 -0.3381
 9407SOL     OW39856   0.204   1.785   9.952  0.1756  0.0782  0.3843
 9407SOL    HW139857   0.134   1.732   9.913 -0.6920  0.3944  1.4881
 9407SOL    HW239858   0.165   1.821  10.032 -0.2554  1.8496 -0.6328
 9408SOL     OW39859   3.525   2.152   1.770  0.2987 -0.5323 -0.8321
 9408SOL    HW139860   3.528   2.057   1.769 -3.9458 -0.6787  0.0746
 9408SOL    HW239861   3.442   2.177   1.810  1.5912  2.0740  0.2117
 9409SOL     OW39862   0.478   0.383  14.594  0.0367  0.1952 -0.1150
 9409SOL    HW139863   0.387   0.353  14.602 -0.1162  1.2886  2.0674
 9409SOL    HW239864   0.519   0.324  14.531  1.3807  1.2639 -0.2428
 9410SOL     OW39865   4.003   2.656   2.082 -0.2996  0.4701  0.0581
 9410SOL    HW139866   4.069   2.673   2.149  0.2989 -1.7582  0.0544
 9410SOL    HW239867   4.012   2.561   2.081 -1.9708  0.3114 -0.1460
 9411SOL     OW39868   2.099   3.070   3.897  0.5839  0.6255  0.0989
 9411SOL    HW139869   2.172   3.013   3.920 -0.0390 -0.0031  0.5197
 9411SOL    HW239870   2.106   3.145   3.957  0.7508  0.8180 -0.1601
 9412SOL     OW39871   0.043   2.053   2.410  0.1301  0.4567 -0.1913
 9412SOL    HW139872   4.713   1.999   2.374  0.3524 -1.7441  2.6689
 9412SOL    HW239873   0.003   2.105   2.481 -0.1302  0.4760 -0.3543
 9413SOL     OW39874   1.738   3.731   6.378 -0.0594  0.6033  0.0012
 9413SOL    HW139875   1.762   3.797   6.314  2.4283 -0.0371  0.2827
 9413SOL    HW239876   1.712   3.651   6.332 -1.2042  0.9416  0.0414
 9414SOL     OW39877   3.432   0.533   2.480  0.1653  0.4236 -0.0981
 9414SOL    HW139878   3.452   0.445   2.512  3.4153  0.8059 -1.0640
 9414SOL    HW239879   3.421   0.527   2.386  1.2837 -0.8432 -0.1492
 9415SOL     OW39880   2.850   0.193   5.193 -0.2651  0.0832 -0.2568
 9415SOL    HW139881   2.911   0.224   5.261  1.4928 -0.1319 -1.7295
 9415SOL    HW239882   2.901   0.203   5.113 -0.9278  1.0214 -0.5644
 9416SOL     OW39883   3.724   0.579   4.819 -0.3235 -0.3875 -0.5970
 9416SOL    HW139884   3.768   0.662   4.797  0.5962 -0.9059 -0.7058
 9416SOL    HW239885   3.643   0.600   4.865  0.6993  0.7084  0.6821
 9417SOL     OW39886   3.964   0.732   4.072 -0.1062 -0.1401 -0.3377
 9417SOL    HW139887   4.053   0.700   4.065  0.0863  0.4248 -0.4654
 9417SOL    HW239888   3.975   0.825   4.050  0.5088 -0.2619 -0.5233
 9418SOL     OW39889   0.418   3.163   5.986  0.0248 -0.1474  0.1784
 9418SOL    HW139890   0.338   3.197   6.027 -1.0240  0.0766 -2.0713
 9418SOL    HW239891   0.473   3.187   6.060  0.8908 -0.9342 -0.2111
 9419SOL     OW39892   1.409   3.050   9.341 -0.4130 -0.6178  0.0263
 9419SOL    HW139893   1.468   3.034   9.415  0.5864  0.8587 -0.4539
 9419SOL    HW239894   1.359   3.125   9.374  0.1687  0.7583 -2.2293
 9420SOL     OW39895   2.295   4.338  14.906 -0.1232 -0.1437 -0.3419
 9420SOL    HW139896   2.370   4.367  14.959 -0.5173 -1.5001  0.9491
 9420SOL    HW239897   2.283   4.250  14.943  0.6781  0.7303  1.9826
 9421SOL     OW39898   1.230   1.616   5.378 -0.1700  0.7043 -0.6971
 9421SOL    HW139899   1.158   1.562   5.344  0.6625 -1.0444  0.2934
 9421SOL    HW239900   1.261   1.685   5.320 -0.9903  1.5899 -0.0655
 9422SOL     OW39901   0.087   3.658  15.923 -0.1371 -0.2290  0.4668
 9422SOL    HW139902   0.001   3.692  15.945 -0.1657 -0.9083  1.4033
 9422SOL    HW239903   0.053   3.600  15.854  0.5518 -1.8829  1.5261
 9423SOL     OW39904   1.500   0.294   5.036  0.5156  0.4223  0.0631
 9423SOL    HW139905   1.446   0.228   5.079  0.9024  0.2521  0.2841
 9423SOL    HW239906   1.427   0.331   4.987 -0.6937  1.6531  2.8188
 9424SOL     OW39907   1.754   0.433   8.174 -0.1057  0.4222  0.6780
 9424SOL    HW139908   1.753   0.510   8.231  1.5757 -0.1596  1.4752
 9424SOL    HW239909   1.662   0.431   8.146 -0.0878 -1.6180  0.7774
 9425SOL     OW39910   3.722   1.777  17.189 -0.2898  0.0181 -0.0237
 9425SOL    HW139911   3.719   1.783  17.094  1.6824 -1.5043 -0.2063
 9425SOL    HW239912   3.811   1.794  17.220 -0.1737 -1.0653  0.2461
 9426SOL     OW39913   0.467   1.659   8.254 -0.6749  0.3807  0.8152
 9426SOL    HW139914   0.491   1.718   8.326  1.2533 -0.0153  0.4870
 9426SOL    HW239915   0.451   1.724   8.185  3.5248  1.2950  0.7048
 9427SOL     OW39916   3.333   4.116   7.903 -0.0170 -0.0239 -0.3791
 9427SOL    HW139917   3.373   4.083   7.823  0.9105 -0.6844  0.3576
 9427SOL    HW239918   3.242   4.131   7.876  0.6960  1.0199 -2.2139
 9428SOL     OW39919   0.766   0.447  16.789 -0.4520 -0.3695  0.1083
 9428SOL    HW139920   0.833   0.514  16.784  1.6876 -2.4467  0.8739
 9428SOL    HW239921   0.791   0.388  16.860  0.2288 -1.0701 -0.6996
 9429SOL     OW39922   2.643   1.831   3.273  0.2717 -0.5485  0.2850
 9429SOL    HW139923   2.623   1.902   3.212 -0.0409 -0.3495  0.6174
 9429SOL    HW239924   2.556   1.797   3.292 -1.2091  3.7321  1.2384
 9430SOL     OW39925   0.963   0.067  17.101  0.1437 -0.3257 -0.3759
 9430SOL    HW139926   0.952   4.714  17.084  1.0728 -0.2947 -1.1475
 9430SOL    HW239927   1.038   0.068  17.161 -0.1382 -0.2480 -0.0207
 9431SOL     OW39928   0.427   4.135  12.754 -0.1434  0.0945  0.4626
 9431SOL    HW139929   0.394   4.067  12.695  1.7233  0.4812 -1.0390
 9431SOL    HW239930   0.350   4.176  12.793 -2.1662 -2.1653 -1.1410
 9432SOL     OW39931   3.140   0.733   6.734  0.7351  0.0401 -0.1882
 9432SOL    HW139932   3.121   0.639   6.728  0.1943  0.0854  0.8477
 9432SOL    HW239933   3.050   0.761   6.750  0.7125  0.3966 -0.9479
 9433SOL     OW39934   2.351   3.277   3.851  0.3985  0.1740 -0.4073
 9433SOL    HW139935   2.419   3.343   3.865  0.2897 -0.1145  1.5328
 9433SOL    HW239936   2.362   3.223   3.929  2.4152 -1.0354 -1.5337
 9434SOL     OW39937   1.832   1.065   3.167 -0.7328 -0.0786  0.3500
 9434SOL    HW139938   1.804   1.130   3.103  3.2781  0.3009 -1.0258
 9434SOL    HW239939   1.857   0.997   3.104  0.5705  0.9469 -0.2368
 9435SOL     OW39940   4.541   1.658   3.738  0.1736  0.2926  0.0745
 9435SOL    HW139941   4.596   1.628   3.810 -1.1487 -1.8302  0.2183
 9435SOL    HW239942   4.610   1.703   3.689 -0.0933  1.2459  0.5806
 9436SOL     OW39943   1.818   3.176   1.142  0.0372  0.0406  0.5153
 9436SOL    HW139944   1.807   3.213   1.229 -0.6589 -0.3984  0.6156
 9436SOL    HW239945   1.911   3.198   1.130 -0.0067  0.8953  1.6907
 9437SOL     OW39946   3.612   2.402   8.919 -0.1752  0.3619 -0.3310
 9437SOL    HW139947   3.696   2.383   8.960 -0.0914  0.3784 -0.4958
 9437SOL    HW239948   3.569   2.317   8.928 -0.4868  0.6087  0.5194
 9438SOL     OW39949   4.380   3.637  16.263  0.4056 -0.5721  0.1801
 9438SOL    HW139950   4.317   3.574  16.300  1.2105 -0.7552  1.2441
 9438SOL    HW239951   4.401   3.699  16.332 -2.1532  0.8761 -0.3430
 9439SOL     OW39952   4.371   4.552   6.656  0.1269  0.0022 -0.5774
 9439SOL    HW139953   4.364   4.634   6.705 -0.0536 -0.7220  0.5833
 9439SOL    HW239954   4.444   4.504   6.695 -0.3815 -1.0984 -0.9786
 9440SOL     OW39955   1.950   0.283   2.581 -0.6599  0.4285 -0.7313
 9440SOL    HW139956   1.957   0.378   2.571  1.0515  0.2811 -0.8978
 9440SOL    HW239957   2.042   0.259   2.591 -0.2960  2.1820  0.1775
 9441SOL     OW39958   1.814   4.407   5.648 -0.0986 -0.2507  0.5043
 9441SOL    HW139959   1.772   4.476   5.597 -0.9966 -0.5980  0.7624
 9441SOL    HW239960   1.763   4.405   5.730  1.3804 -1.7531  1.3917
 9442SOL     OW39961   4.102   0.529   8.494 -0.1969 -0.5187 -0.8012
 9442SOL    HW139962   4.042   0.488   8.432 -2.0760  1.3407 -0.2082
 9442SOL    HW239963   4.053   0.610   8.509 -1.8049 -1.7947  0.9139
 9443SOL     OW39964   1.379   2.513   2.522  0.3355  0.6339 -0.4628
 9443SOL    HW139965   1.434   2.446   2.482 -0.6934  0.4020 -1.4897
 9443SOL    HW239966   1.292   2.478   2.503  0.8749 -1.0307  0.0800
 9444SOL     OW39967   0.045   2.571   3.356 -0.0549 -0.4593  0.3596
 9444SOL    HW139968   4.739   2.535   3.280 -1.2664 -1.0269  1.3610
 9444SOL    HW239969   0.017   2.662   3.349 -0.6115 -0.7532 -1.2187
 9445SOL     OW39970   3.224   2.958   7.892  0.1287  0.0392  0.2125
 9445SOL    HW139971   3.240   2.959   7.797 -1.9981 -0.3255 -0.1554
 9445SOL    HW239972   3.228   3.053   7.907 -1.7628  0.4718 -1.9948
 9446SOL     OW39973   1.686   3.242  12.719  0.5071 -0.3654 -0.2623
 9446SOL    HW139974   1.751   3.308  12.743 -0.9463  0.5097  1.2014
 9446SOL    HW239975   1.671   3.257  12.626  2.5249 -1.6711 -0.7996
 9447SOL     OW39976   2.993   1.012   2.793 -0.6486  0.2681  0.7298
 9447SOL    HW139977   3.072   0.958   2.797 -0.7867  0.0512  0.5670
 9447SOL    HW239978   2.997   1.051   2.880 -0.5713 -3.3312  2.3450
 9448SOL     OW39979   4.595   4.175   4.065  0.0330 -0.0318  0.1353
 9448SOL    HW139980   4.518   4.229   4.048 -0.0831  0.1826  1.3609
 9448SOL    HW239981   4.620   4.202   4.153 -1.5289  2.2036 -0.1202
 9449SOL     OW39982   3.158   4.497   6.616 -0.0139  0.0667 -0.2278
 9449SOL    HW139983   3.084   4.473   6.559  0.1954  1.0197 -0.8933
 9449SOL    HW239984   3.220   4.540   6.557 -0.5947 -1.2622 -1.8066
 9450SOL     OW39985   3.124   3.960   3.368 -0.2753  0.2879  0.3432
 9450SOL    HW139986   3.113   3.900   3.442 -0.9677 -2.2975 -1.8747
 9450SOL    HW239987   3.036   3.944   3.335 -0.8392  0.7684  1.5977
 9451SOL     OW39988   3.923   1.590  11.145  0.2046 -0.0888  0.3946
 9451SOL    HW139989   3.966   1.675  11.151 -0.5527  0.5019 -2.3425
 9451SOL    HW239990   3.868   1.599  11.066  0.6968 -0.0361  0.0600
 9452SOL     OW39991   4.220   3.305   4.380  0.1965 -0.5563  0.2268
 9452SOL    HW139992   4.156   3.261   4.325 -0.0899 -2.3262  1.9750
 9452SOL    HW239993   4.294   3.244   4.384 -0.6833 -1.6271  0.0823
 9453SOL     OW39994   0.912   4.491   1.635 -0.3055  0.0491 -0.1927
 9453SOL    HW139995   0.924   4.401   1.665 -1.1394  0.7150  2.1547
 9453SOL    HW239996   0.926   4.537   1.718  0.4357  0.6791 -0.6615
 9454SOL     OW39997   1.322   2.208   2.600  0.2521  0.0135 -0.1855
 9454SOL    HW139998   1.298   2.134   2.656 -0.0461 -0.4047 -0.8658
 9454SOL    HW239999   1.274   2.276   2.646  0.4221 -0.8760  1.3040
 9455SOL     OW40000   3.724   3.984   7.618  0.3709 -0.1805  0.2124
 9455SOL    HW140001   3.786   3.916   7.591  2.1517  0.7990  1.8258
 9455SOL    HW240002   3.699   4.023   7.534  1.4318 -1.6010 -0.7731
 9456SOL     OW40003   2.599   0.480   3.701  0.1645  0.0576  0.1616
 9456SOL    HW140004   2.597   0.489   3.605 -0.1276  0.4262  0.2035
 9456SOL    HW240005   2.594   0.385   3.709  0.1576 -0.0973 -1.6857
 9457SOL     OW40006   4.351   3.913  10.878 -0.0829  0.3582  0.6313
 9457SOL    HW140007   4.258   3.931  10.869 -0.2685 -0.8761 -0.0244
 9457SOL    HW240008   4.356   3.831  10.928  0.5361 -1.9148 -3.0936
 9458SOL     OW40009   3.325   4.185   5.167  0.2365 -0.1430  0.1098
 9458SOL    HW140010   3.318   4.247   5.239  1.4752 -0.7148  0.7244
 9458SOL    HW240011   3.355   4.245   5.099 -0.2002  0.4395  0.4377
 9459SOL     OW40012   4.214   3.943   9.006 -0.1256 -0.3726  0.0627
 9459SOL    HW140013   4.283   3.930   8.940  1.3580  0.5669  1.4329
 9459SOL    HW240014   4.142   3.951   8.944  0.1850  1.4881 -0.0577
 9460SOL     OW40015   0.321   2.602  14.385  0.1608  0.2890  0.3076
 9460SOL    HW140016   0.385   2.674  14.381  1.6236 -1.0626 -0.7753
 9460SOL    HW240017   0.257   2.647  14.441 -0.0096 -0.3088  0.5916
 9461SOL     OW40018   2.535   0.456   3.981  0.2755  0.3653  0.1816
 9461SOL    HW140019   2.553   0.476   3.890 -2.4490  0.6590 -0.2801
 9461SOL    HW240020   2.482   0.377   3.967  1.8693 -0.7913  0.5704
 9462SOL     OW40021   0.324   1.226   5.111  0.2246  0.1456 -0.2780
 9462SOL    HW140022   0.248   1.251   5.163  0.2857  0.7641 -0.4930
 9462SOL    HW240023   0.393   1.228   5.177  0.0269 -0.9062 -0.0273
 9463SOL     OW40024   1.941   3.592   3.264 -0.6143  0.2046  0.1986
 9463SOL    HW140025   1.950   3.515   3.208 -1.6373 -1.9637  3.0313
 9463SOL    HW240026   1.877   3.567   3.331  0.2270 -0.9177  0.5700
 9464SOL     OW40027   2.947   3.257   7.211  0.1366  0.0690  0.1448
 9464SOL    HW140028   3.015   3.320   7.236 -0.8341  1.6252 -1.1892
 9464SOL    HW240029   2.935   3.205   7.291 -0.9181 -0.4534 -0.3506
 9465SOL     OW40030   0.187   3.824   8.061  0.4200  0.3803 -0.3387
 9465SOL    HW140031   0.157   3.733   8.055  1.5330 -0.1673  2.4536
 9465SOL    HW240032   0.275   3.814   8.097  0.2037 -1.4998 -0.3469
 9466SOL     OW40033   2.557   2.729  11.104 -0.4486  0.2536  0.1880
 9466SOL    HW140034   2.630   2.785  11.075 -0.0701 -0.3384 -0.0031
 9466SOL    HW240035   2.490   2.796  11.093 -0.3030  0.6972  1.9241
 9467SOL     OW40036   3.977   0.083   4.233 -0.7587  0.4890 -0.3384
 9467SOL    HW140037   4.062   0.084   4.275 -1.7031  1.0842  1.5681
 9467SOL    HW240038   3.919   0.051   4.302  1.6014 -0.7255  1.0709
 9468SOL     OW40039   0.322   3.189   9.802 -0.3667  0.2445 -0.1898
 9468SOL    HW140040   0.230   3.165   9.812 -0.7996  1.9832 -0.0144
 9468SOL    HW240041   0.359   3.205   9.889 -0.2170 -0.0996 -0.1902
 9469SOL     OW40042   3.044   3.156   5.196 -0.5233  0.2515  0.1723
 9469SOL    HW140043   3.060   3.149   5.102 -0.8546  3.3947 -0.1273
 9469SOL    HW240044   3.090   3.080   5.232  0.4765  0.9229  0.3155
 9470SOL     OW40045   0.632   1.234   7.460 -0.1329  0.7162 -0.6384
 9470SOL    HW140046   0.569   1.253   7.390 -0.2115 -1.3389 -1.1470
 9470SOL    HW240047   0.633   1.319   7.503 -2.8432  0.5787 -0.2610
 9471SOL     OW40048   1.060   0.107   9.095 -0.2655 -0.4455  0.2892
 9471SOL    HW140049   1.121   0.039   9.066  0.0190 -0.0509 -0.0248
 9471SOL    HW240050   0.977   0.084   9.054  0.3324 -2.4711  0.1821
 9472SOL     OW40051   0.806   2.272   4.703 -0.0412 -0.5187  0.1308
 9472SOL    HW140052   0.742   2.313   4.645  0.1206 -1.3818 -0.6529
 9472SOL    HW240053   0.799   2.324   4.783 -1.1904  1.1037 -1.0095
 9473SOL     OW40054   2.649   4.461   3.196 -0.2867 -0.4429 -0.7207
 9473SOL    HW140055   2.679   4.429   3.281  1.3109 -1.9679 -1.8845
 9473SOL    HW240056   2.699   4.413   3.131 -1.5022 -0.1542 -1.8581
 9474SOL     OW40057   2.447   2.000   0.465 -0.1634  0.6477 -0.1239
 9474SOL    HW140058   2.480   1.918   0.428 -3.2038 -0.3368 -0.7037
 9474SOL    HW240059   2.371   2.014   0.408  0.8227  1.0114 -1.3481
 9475SOL     OW40060   1.363   2.698   8.697 -0.0931  0.5373  0.0900
 9475SOL    HW140061   1.370   2.697   8.792  0.8121 -1.3712 -0.0098
 9475SOL    HW240062   1.449   2.735   8.676  1.3135 -1.1694  2.8401
 9476SOL     OW40063   1.165   4.375  10.145  0.3903 -0.3671 -0.1413
 9476SOL    HW140064   1.258   4.359  10.131  0.5769  0.7715 -0.1972
 9476SOL    HW240065   1.119   4.371  10.061 -3.1234 -0.7014  1.8020
 9477SOL     OW40066   0.472   2.897   6.289 -0.1448 -0.5571  0.6550
 9477SOL    HW140067   0.479   2.988   6.260 -0.4206 -0.4532  0.9192
 9477SOL    HW240068   0.567   2.889   6.299 -0.0477 -0.8658 -0.4834
 9478SOL     OW40069   1.707   0.396  16.494  0.4223  0.1301  0.1864
 9478SOL    HW140070   1.797   0.410  16.522 -0.1864  2.7452  0.8241
 9478SOL    HW240071   1.655   0.441  16.561 -2.5325  0.6726 -2.5046
 9479SOL     OW40072   3.698   1.101   0.023 -0.1848  0.0123 -0.1979
 9479SOL    HW140073   3.672   1.050  17.705  1.9627 -0.9841 -0.2730
 9479SOL    HW240074   3.650   1.039   0.078 -2.2041  0.3459 -1.5875
 9480SOL     OW40075   1.364   3.364  15.561 -0.1805 -0.5245 -0.2037
 9480SOL    HW140076   1.418   3.414  15.500 -0.2388  0.3627  0.4672
 9480SOL    HW240077   1.428   3.357  15.632 -0.4097  1.9738  0.2438
 9481SOL     OW40078   0.187   4.391   3.881  0.5135 -0.3751  0.3278
 9481SOL    HW140079   0.154   4.301   3.884  0.0981 -0.2245  0.2743
 9481SOL    HW240080   0.254   4.399   3.949  0.2559  4.3092  0.0593
 9482SOL     OW40081   1.294   2.003   4.348  0.0483 -0.0943 -0.5012
 9482SOL    HW140082   1.349   1.930   4.377 -0.9830 -1.2164 -1.3789
 9482SOL    HW240083   1.345   2.049   4.281 -0.9977  0.9277 -0.5841
 9483SOL     OW40084   0.158   1.089   6.337  0.3256 -0.2645  0.3854
 9483SOL    HW140085   0.142   1.175   6.299 -1.0847 -0.0838  1.4373
 9483SOL    HW240086   0.075   1.058   6.372  0.6333 -0.6253  0.7933
 9484SOL     OW40087   3.851   4.635   8.361  0.1094  0.1606 -0.3569
 9484SOL    HW140088   3.812   4.549   8.354 -0.7178  0.3725  1.7528
 9484SOL    HW240089   3.911   4.648   8.286  0.9883  3.5845  0.9340
 9485SOL     OW40090   2.833   1.772   4.044 -0.1113  0.2956  0.5508
 9485SOL    HW140091   2.792   1.821   3.972  0.8169  0.0559 -0.1358
 9485SOL    HW240092   2.912   1.820   4.066  1.5012 -1.9250 -0.4278
 9486SOL     OW40093   1.849   1.682   7.794 -0.8972  0.0806 -0.1987
 9486SOL    HW140094   1.825   1.612   7.853  0.0511  0.6821  0.9041
 9486SOL    HW240095   1.929   1.717   7.833 -0.9913  2.1767 -1.8536
 9487SOL     OW40096   4.285   2.543  17.460  0.0568 -0.0901 -0.1546
 9487SOL    HW140097   4.254   2.474  17.402 -0.6829  0.5687 -0.5276
 9487SOL    HW240098   4.326   2.601  17.397  1.8751 -0.6401  0.5127
 9488SOL     OW40099   4.619   2.234   2.075 -0.8015 -0.3767 -0.3529
 9488SOL    HW140100   4.543   2.187   2.108 -2.0415  2.5189  0.8964
 9488SOL    HW240101   4.586   2.287   2.002 -0.3646 -1.6455 -1.4710
 9489SOL     OW40102   3.955   4.357   8.639 -0.3469  0.2872 -0.1401
 9489SOL    HW140103   3.954   4.449   8.611  0.8083  0.4240  0.2621
 9489SOL    HW240104   3.991   4.318   8.559 -1.8566 -1.3748 -0.0027
 9490SOL     OW40105   2.012   0.906   6.852  0.5501 -0.1861  0.1144
 9490SOL    HW140106   2.033   0.847   6.924 -0.9418 -0.4993  0.3012
 9490SOL    HW240107   1.968   0.982   6.891 -1.6715 -1.3340 -0.1989
 9491SOL     OW40108   3.870   4.140   5.238 -0.9102 -0.2240 -0.0908
 9491SOL    HW140109   3.797   4.170   5.291 -1.1705 -1.2129  0.1034
 9491SOL    HW240110   3.848   4.168   5.149  1.2048  3.8794  0.6650
 9492SOL     OW40111   3.457   3.400  10.407 -0.0653  0.0856  0.4359
 9492SOL    HW140112   3.395   3.421  10.477  0.8379 -1.4728  1.7287
 9492SOL    HW240113   3.408   3.333  10.360 -2.5725  1.0094  1.7499
 9493SOL     OW40114   3.358   1.659   8.323  0.3401 -0.4627 -0.1974
 9493SOL    HW140115   3.323   1.748   8.316  0.7042 -0.2372  0.8380
 9493SOL    HW240116   3.440   1.676   8.370  1.2738 -2.3880 -1.1370
 9494SOL     OW40117   3.847   0.013   3.377 -0.3229 -0.4055  0.2127
 9494SOL    HW140118   3.926   4.725   3.330 -1.8159 -1.0082 -1.9664
 9494SOL    HW240119   3.872   4.737   3.468  3.5771 -0.3479 -0.8177
 9495SOL     OW40120   4.327   0.983   5.716 -0.2497 -0.7809  0.1973
 9495SOL    HW140121   4.414   0.961   5.683  0.7917 -1.6612  3.5355
 9495SOL    HW240122   4.364   1.027   5.792 -1.5521  0.1188  0.3191
 9496SOL     OW40123   1.431   0.978   8.970 -0.6541  0.7938 -0.0986
 9496SOL    HW140124   1.393   0.890   8.967  0.0555  0.4799  0.1904
 9496SOL    HW240125   1.474   0.986   8.885 -0.6655 -0.2983 -0.2065
 9497SOL     OW40126   3.483   4.734   2.417 -0.1438  1.2820 -0.1717
 9497SOL    HW140127   3.565   4.686   2.403 -1.2617 -0.9086  0.8571
 9497SOL    HW240128   3.423   4.663   2.397 -1.0134  1.6957  0.9678
 9498SOL     OW40129   2.463   3.713   7.104 -0.5913  0.4237 -0.2338
 9498SOL    HW140130   2.395   3.695   7.039 -0.1332  1.8461 -1.1189
 9498SOL    HW240131   2.524   3.640   7.094 -0.6241  0.0127  2.7053
 9499SOL     OW40132   2.747   3.583   3.943 -0.5671  0.4091  0.4230
 9499SOL    HW140133   2.825   3.531   3.925  0.0516  1.0657  1.2289
 9499SOL    HW240134   2.772   3.640   4.016 -1.5897  1.3483  0.0508
 9500SOL     OW40135   1.676   1.302   9.014 -0.2710  0.2544  0.1362
 9500SOL    HW140136   1.702   1.298   8.922  1.0820 -1.0868  0.5845
 9500SOL    HW240137   1.691   1.214   9.048 -0.6944 -0.4537 -1.5156
 9501SOL     OW40138   1.247   4.239  12.916 -0.0074 -0.2875 -0.7243
 9501SOL    HW140139   1.209   4.315  12.961  0.0241 -0.8331  0.2277
 9501SOL    HW240140   1.182   4.222  12.849  0.0921  2.2015 -1.4347
 9502SOL     OW40141   0.793   3.812   9.468  0.6728  0.3191 -0.0309
 9502SOL    HW140142   0.784   3.777   9.557 -1.5171 -2.8484 -1.5019
 9502SOL    HW240143   0.803   3.905   9.489 -1.8145  0.4442  0.6066
 9503SOL     OW40144   0.641   1.888   1.051  0.0904  0.2799  0.3460
 9503SOL    HW140145   0.679   1.863   1.135 -1.2007 -2.2561  0.1892
 9503SOL    HW240146   0.715   1.931   1.008  0.6245 -2.7294 -1.8136
 9504SOL     OW40147   3.919   0.522   3.906 -0.3041 -0.0504 -0.4404
 9504SOL    HW140148   3.936   0.459   3.976  0.6450 -1.2072 -1.7084
 9504SOL    HW240149   3.918   0.600   3.961  1.3859  0.5533 -1.2606
 9505SOL     OW40150   3.914   1.970   2.012 -0.2700 -0.1678  0.2492
 9505SOL    HW140151   3.830   1.967   2.059 -0.0184 -0.2663  0.6909
 9505SOL    HW240152   3.892   2.016   1.931 -2.1935  0.3235  1.0570
 9506SOL     OW40153   0.146   1.582   4.867  0.5558  0.3110  0.0693
 9506SOL    HW140154   0.236   1.553   4.851  1.4469  2.8333  0.4945
 9506SOL    HW240155   0.106   1.498   4.890  0.7076  0.3045  0.3078
 9507SOL     OW40156   3.310   1.492  12.136  0.0913 -0.0376 -0.5755
 9507SOL    HW140157   3.377   1.468  12.070  3.6166  3.7144  1.6646
 9507SOL    HW240158   3.352   1.568  12.177  2.2872 -0.4873 -1.9369
 9508SOL     OW40159   2.588   1.856  12.268 -0.2610 -0.4553 -0.3639
 9508SOL    HW140160   2.572   1.763  12.279 -1.6467 -0.1029  0.6922
 9508SOL    HW240161   2.682   1.869  12.283 -0.8990  0.8370  2.4883
 9509SOL     OW40162   3.472   4.630   4.051  0.8325  0.5293  0.3190
 9509SOL    HW140163   3.474   4.590   4.138  1.8874  0.6053  0.3411
 9509SOL    HW240164   3.466   4.720   4.084 -3.2226  0.3543 -0.0152
 9510SOL     OW40165   4.268   3.657   9.964  0.2242  0.0141  0.2995
 9510SOL    HW140166   4.250   3.669  10.058 -1.2959  0.6769 -0.0808
 9510SOL    HW240167   4.245   3.566   9.944  0.9976 -0.2069  0.3912
 9511SOL     OW40168   4.162   3.575   6.306  0.0478  0.5033  0.2325
 9511SOL    HW140169   4.094   3.597   6.370 -1.2188  0.6655 -1.1726
 9511SOL    HW240170   4.146   3.635   6.233 -1.8205 -1.2555 -0.7735
 9512SOL     OW40171   1.619   2.780   8.758 -0.2387  0.3327  0.0387
 9512SOL    HW140172   1.674   2.731   8.820 -0.2449  0.8726  0.4759
 9512SOL    HW240173   1.627   2.868   8.797 -0.7477  0.1947  0.4454
 9513SOL     OW40174   2.585   1.705   5.402 -0.4115 -0.3982  0.2274
 9513SOL    HW140175   2.568   1.697   5.496  0.1159  0.5689  0.4063
 9513SOL    HW240176   2.649   1.636   5.382  0.4182  0.4238  0.0378
 9514SOL     OW40177   0.504   0.957   6.157  0.5551 -0.2595 -0.0120
 9514SOL    HW140178   0.430   0.973   6.098  0.2259 -1.6906  0.0387
 9514SOL    HW240179   0.483   0.872   6.195  0.6457  0.3191  1.3258
 9515SOL     OW40180   4.229   1.457   0.360  0.2743 -0.5626  0.0251
 9515SOL    HW140181   4.316   1.443   0.323 -0.1661 -0.5093 -1.0085
 9515SOL    HW240182   4.265   1.498   0.439 -2.6004  0.8273  0.6355
 9516SOL     OW40183   4.003   0.557   7.398  0.0933 -0.3769  0.3755
 9516SOL    HW140184   4.027   0.469   7.428  1.8134 -0.0099  0.0339
 9516SOL    HW240185   3.925   0.538   7.345 -0.4375  0.5866  0.8138
 9517SOL     OW40186   1.613   3.552  15.095 -0.1116  0.4586  0.1178
 9517SOL    HW140187   1.643   3.534  15.006 -2.3781  0.4233 -0.6571
 9517SOL    HW240188   1.520   3.569  15.077 -0.0402 -1.6131 -2.2591
 9518SOL     OW40189   4.190   3.038   3.700 -0.5818  0.6435  0.2864
 9518SOL    HW140190   4.269   2.987   3.716 -2.2025 -2.4188 -1.4928
 9518SOL    HW240191   4.164   3.048   3.791  0.4519  1.3886  0.5025
 9519SOL     OW40192   1.795   3.766   9.098  0.5769 -0.2988  0.2059
 9519SOL    HW140193   1.703   3.781   9.074  0.7972  1.0592  0.2521
 9519SOL    HW240194   1.783   3.698   9.165  0.8359 -0.7154 -0.1693
 9520SOL     OW40195   4.310   0.792   4.978  0.3399 -0.2473 -0.1052
 9520SOL    HW140196   4.348   0.797   5.066  0.8218 -0.1006 -0.3245
 9520SOL    HW240197   4.381   0.790   4.915  0.5726 -1.7537  0.1907
 9521SOL     OW40198   4.358   4.131   2.851 -0.9841 -0.5779  0.1679
 9521SOL    HW140199   4.451   4.118   2.830 -0.8848  0.1471  0.1647
 9521SOL    HW240200   4.330   4.062   2.790 -0.2819  0.2039 -1.0563
 9522SOL     OW40201   2.107   3.474   1.854 -0.9162  0.4743 -1.0352
 9522SOL    HW140202   2.078   3.404   1.912  2.0846 -0.0172 -0.1652
 9522SOL    HW240203   2.141   3.412   1.790 -0.7307  1.8282 -2.2740
 9523SOL     OW40204   2.396   1.909  14.385 -0.5928 -0.0253 -0.4763
 9523SOL    HW140205   2.352   1.963  14.320  0.6893  1.0025 -0.5031
 9523SOL    HW240206   2.489   1.905  14.360 -0.6277 -0.3353 -0.5536
 9524SOL     OW40207   1.269   1.083   6.640  0.0589 -0.0269  0.2588
 9524SOL    HW140208   1.353   1.075   6.684  0.5680 -0.6214 -0.8380
 9524SOL    HW240209   1.277   1.167   6.595  1.1399  0.5721  1.5521
 9525SOL     OW40210   3.364   1.294   8.644  0.0867  0.0197 -0.4816
 9525SOL    HW140211   3.371   1.235   8.720 -0.3916  0.5010 -0.0623
 9525SOL    HW240212   3.396   1.376   8.682  1.9363 -2.5679  3.5747
 9526SOL     OW40213   1.855   4.727  10.554  0.6229  0.5920 -0.1074
 9526SOL    HW140214   1.909   0.040  10.612 -2.1285  3.7240 -0.4169
 9526SOL    HW240215   1.772   4.712  10.601  1.5250  0.4046  1.4218
 9527SOL     OW40216   3.110   0.107   3.428 -0.1131  0.0785  0.2628
 9527SOL    HW140217   3.176   0.040   3.447 -1.0441 -0.2657  2.2238
 9527SOL    HW240218   3.165   0.184   3.408 -0.4260  0.0140 -0.8205
 9528SOL     OW40219   0.882   0.910  13.701  0.0521  0.0164 -0.0472
 9528SOL    HW140220   0.793   0.875  13.691  0.8848 -1.8391 -1.0601
 9528SOL    HW240221   0.887   0.936  13.794  0.8702 -0.5504  0.0718
 9529SOL     OW40222   3.999   0.988   4.120 -0.1507 -0.2759  0.4787
 9529SOL    HW140223   4.081   1.021   4.082  0.1917 -1.9362 -0.2360
 9529SOL    HW240224   4.031   0.988   4.210  3.0144  0.7209 -0.6223
 9530SOL     OW40225   3.627   3.182   2.395  0.0494 -0.3235 -0.0160
 9530SOL    HW140226   3.662   3.126   2.464  1.5019 -0.3820 -0.7909
 9530SOL    HW240227   3.562   3.121   2.361  0.4489 -0.6112 -0.2657
 9531SOL     OW40228   0.479   1.512   4.417  0.4201  0.1610  0.5768
 9531SOL    HW140229   0.541   1.486   4.485  1.2840 -1.6944 -0.8807
 9531SOL    HW240230   0.533   1.497   4.339 -0.2399  2.7491 -0.3693
 9532SOL     OW40231   4.020   3.866   4.061  0.0333  0.3992  0.4933
 9532SOL    HW140232   4.014   3.821   3.977  0.3581 -1.5966  1.5606
 9532SOL    HW240233   4.105   3.837   4.093 -0.1506 -1.3371 -0.5754
 9533SOL     OW40234   2.746   1.100   8.695 -0.4338  0.4274 -0.7187
 9533SOL    HW140235   2.734   1.103   8.600 -0.6398  0.4714 -0.6903
 9533SOL    HW240236   2.727   1.010   8.723 -0.5780  1.1962  1.6505
 9534SOL     OW40237   4.368   1.117   2.863 -0.2647  0.4572  0.1715
 9534SOL    HW140238   4.397   1.205   2.886 -1.7647  1.1113 -0.4329
 9534SOL    HW240239   4.370   1.128   2.768  1.6972 -1.4109 -0.0008
 9535SOL     OW40240   4.506   4.578  17.336  0.2083  0.3073 -0.2304
 9535SOL    HW140241   4.412   4.586  17.349  0.1525  2.2258 -1.8097
 9535SOL    HW240242   4.542   4.615  17.416  2.9412 -1.7703 -0.4781
 9536SOL     OW40243   3.147   0.439   2.193 -0.2866 -0.1014 -0.3390
 9536SOL    HW140244   3.156   0.534   2.203  1.8645 -0.5282  1.7351
 9536SOL    HW240245   3.217   0.414   2.133  0.1725  2.4690 -0.8926
 9537SOL     OW40246   3.556   0.900  17.556 -0.6313  0.0741 -0.0700
 9537SOL    HW140247   3.569   0.819  17.506 -0.5470 -0.2573  0.4797
 9537SOL    HW240248   3.534   0.861  17.641  2.4265 -1.3408  0.0903
 9538SOL     OW40249   0.993   1.235   6.062  0.3001  0.5331 -0.6206
 9538SOL    HW140250   0.997   1.139   6.072 -1.9030  0.7228  2.0642
 9538SOL    HW240251   1.082   1.269   6.067  0.3044  0.5539 -0.8458
 9539SOL     OW40252   1.171   4.340   4.775 -0.4197 -0.1115  0.1982
 9539SOL    HW140253   1.098   4.397   4.800  2.0981  2.0583  2.5918
 9539SOL    HW240254   1.247   4.376   4.821 -0.3415  2.1313 -1.6695
 9540SOL     OW40255   0.211   1.316   5.912  0.1756 -0.3809 -0.7168
 9540SOL    HW140256   0.301   1.350   5.907  0.5713 -0.9893  2.1705
 9540SOL    HW240257   0.198   1.274   5.827  0.0899 -0.8040 -0.4982
 9541SOL     OW40258   1.057   1.084  11.999  0.0045 -0.0082  0.2216
 9541SOL    HW140259   0.978   1.122  11.961  0.8798  0.3411 -1.2407
 9541SOL    HW240260   1.006   1.007  12.025  0.3168 -0.3726 -0.2471
 9542SOL     OW40261   0.607   2.581   5.504 -0.1410 -0.1520  0.1660
 9542SOL    HW140262   0.675   2.601   5.569  0.3187  2.2886 -1.0940
 9542SOL    HW240263   0.535   2.608   5.561 -0.5376 -1.3268  0.2388
 9543SOL     OW40264   2.290   3.477   5.599 -0.1485  0.1140  0.1567
 9543SOL    HW140265   2.340   3.550   5.562 -0.3645  0.0045 -0.3500
 9543SOL    HW240266   2.312   3.499   5.690 -0.0588 -2.3071  0.7062
 9544SOL     OW40267   4.531   0.228   3.850  0.0189 -0.0276  0.8296
 9544SOL    HW140268   4.500   0.223   3.760 -0.5612 -1.2633  1.0942
 9544SOL    HW240269   4.447   0.252   3.889 -1.4500 -1.1196 -1.6609
 9545SOL     OW40270   1.419   1.251   7.895  0.4814  0.1094 -0.0586
 9545SOL    HW140271   1.375   1.308   7.957  0.0738 -1.1532  0.8138
 9545SOL    HW240272   1.432   1.306   7.818  0.6740  1.1097  0.6871
 9546SOL     OW40273   3.438   4.482   4.280 -0.0395  0.2004  0.3130
 9546SOL    HW140274   3.368   4.433   4.324 -0.7559 -1.0456 -2.2200
 9546SOL    HW240275   3.486   4.408   4.240  1.0647  0.6231  0.8529
 9547SOL     OW40276   2.293   2.864   7.327  0.6789 -0.0046 -0.1902
 9547SOL    HW140277   2.292   2.815   7.409 -1.3638 -1.6864 -1.1966
 9547SOL    HW240278   2.354   2.813   7.274  1.6369  1.0658 -0.1169
 9548SOL     OW40279   0.259   3.285   4.520  0.3432  0.4755 -0.2691
 9548SOL    HW140280   0.342   3.326   4.498  0.7024 -1.3415 -2.2970
 9548SOL    HW240281   0.222   3.273   4.432 -0.7770 -1.0307  0.4012
 9549SOL     OW40282   1.237   1.705   1.497 -0.0012  0.5986 -0.0528
 9549SOL    HW140283   1.314   1.649   1.508  2.0737  3.2367 -1.3095
 9549SOL    HW240284   1.218   1.697   1.404  0.4744  0.0906 -0.1103
 9550SOL     OW40285   1.077   1.176   1.332 -0.0056 -0.5630  0.4022
 9550SOL    HW140286   1.091   1.260   1.374  3.2662  0.0018 -1.8197
 9550SOL    HW240287   1.160   1.135   1.304 -0.7617 -2.8086  1.3997
 9551SOL     OW40288   4.017   2.383   2.513  0.1018 -0.3788  0.9366
 9551SOL    HW140289   4.099   2.340   2.491 -0.0038 -0.1049  0.0050
 9551SOL    HW240290   4.020   2.380   2.608  2.5290 -0.8651  0.8239
 9552SOL     OW40291   1.838   0.040  12.347 -0.6114 -0.9272 -0.0071
 9552SOL    HW140292   1.878   0.077  12.269  1.8504 -1.9808  0.7511
 9552SOL    HW240293   1.917   0.056  12.400  0.2303 -3.7081 -0.4065
 9553SOL     OW40294   4.577   1.062  11.558 -0.5368 -0.2036  0.2432
 9553SOL    HW140295   4.595   1.013  11.478 -3.2775  2.6610 -2.1447
 9553SOL    HW240296   4.583   0.992  11.623  1.5042 -0.5047 -0.2787
 9554SOL     OW40297   2.108   4.360   2.883 -0.5477  0.2481 -0.2738
 9554SOL    HW140298   2.188   4.308   2.887  0.1905  1.1835 -2.7799
 9554SOL    HW240299   2.068   4.322   2.961  0.0160 -1.5878 -0.8567
 9555SOL     OW40300   4.399   3.217   3.866  0.7549  0.5693 -0.4677
 9555SOL    HW140301   4.453   3.292   3.891  2.2022 -0.8207  0.5812
 9555SOL    HW240302   4.391   3.235   3.772 -1.6270 -1.5935 -0.6837
 9556SOL     OW40303   4.448   0.878  10.433  0.7903  0.3846 -0.3263
 9556SOL    HW140304   4.506   0.934  10.486  0.4240  0.6888 -0.2438
 9556SOL    HW240305   4.369   0.856  10.483  0.6404 -0.0808 -0.7719
 9557SOL     OW40306   3.690   0.348   5.763  0.1208 -0.1070 -0.0468
 9557SOL    HW140307   3.603   0.352   5.722 -0.3335  2.4234  1.1888
 9557SOL    HW240308   3.744   0.306   5.695 -0.2530 -0.3866 -0.1743
 9558SOL     OW40309   0.907   3.467  13.873 -0.3454 -0.5088  0.3067
 9558SOL    HW140310   0.826   3.441  13.828  1.3362  0.4487 -3.2549
 9558SOL    HW240311   0.878   3.539  13.929 -0.0840  0.6656 -1.0841
 9559SOL     OW40312   2.130   3.760   5.121  0.7515  0.1092 -0.2320
 9559SOL    HW140313   2.099   3.733   5.208 -2.3237 -0.9480 -1.6594
 9559SOL    HW240314   2.201   3.818   5.147  0.3887  0.6561 -0.4501
 9560SOL     OW40315   1.663   3.704   5.463  0.0094 -0.1755  0.3871
 9560SOL    HW140316   1.623   3.779   5.508 -1.0216 -0.4985  0.0154
 9560SOL    HW240317   1.645   3.737   5.374 -0.8389 -1.0784  0.2265
 9561SOL     OW40318   2.867   0.885   8.327 -0.4729  0.2864 -0.1340
 9561SOL    HW140319   2.904   0.804   8.363 -3.0989  0.0451  2.0240
 9561SOL    HW240320   2.933   0.942   8.366 -0.3393  0.6451 -0.9003
 9562SOL     OW40321   4.186   2.168   8.653  0.1630  0.0017  0.6175
 9562SOL    HW140322   4.182   2.153   8.748 -0.1297  0.3273  0.6510
 9562SOL    HW240323   4.281   2.175   8.641  0.1967 -0.6266  0.4768
 9563SOL     OW40324   0.362   3.329  14.876  0.7143  0.1463  0.4870
 9563SOL    HW140325   0.422   3.333  14.950  0.5985 -1.4259  0.6583
 9563SOL    HW240326   0.413   3.381  14.814 -0.7418 -0.9998 -1.6586
 9564SOL     OW40327   3.484   2.238  14.424  0.2151  1.1349  0.4733
 9564SOL    HW140328   3.514   2.246  14.333  0.0009 -2.4134  0.0999
 9564SOL    HW240329   3.535   2.160  14.444 -1.4830 -0.3518 -1.0116
 9565SOL     OW40330   3.835   0.378   3.060  0.4995 -0.0770  0.1468
 9565SOL    HW140331   3.926   0.374   3.030  0.6409  2.4503  0.2345
 9565SOL    HW240332   3.839   0.384   3.155 -1.6996  1.0803  0.1674
 9566SOL     OW40333   3.182   2.642   1.946 -0.3217 -0.2125 -0.2549
 9566SOL    HW140334   3.257   2.637   1.887 -0.3372  0.4537 -0.3354
 9566SOL    HW240335   3.122   2.704   1.903  1.0829  0.1685 -1.6634
 9567SOL     OW40336   4.621   1.893   6.930 -0.7247 -0.2397 -0.5114
 9567SOL    HW140337   4.700   1.875   6.878  0.4964  1.2375  0.8321
 9567SOL    HW240338   4.613   1.805   6.968 -0.7027  1.1440  2.6697
 9568SOL     OW40339   4.560   2.401   2.682 -0.2581  0.0142 -0.0705
 9568SOL    HW140340   4.502   2.451   2.624 -1.8076  0.0187  1.4834
 9568SOL    HW240341   4.606   2.469   2.732 -2.1754  0.9512  0.4137
 9569SOL     OW40342   3.016   0.167   1.420  0.3853 -0.0407 -0.1212
 9569SOL    HW140343   3.007   0.223   1.498  0.0104  0.1927 -0.3328
 9569SOL    HW240344   3.058   0.086   1.448  1.7900  0.6546 -0.1599
   4.74002   4.74002  17.75765
