Membrane in water
40344
    1TMC1    C1    1   4.354   4.431  11.375 -0.1787 -0.0993 -0.5016
    1TMC1    C2    2   4.263   4.404  11.282  0.5813  0.1346  0.3496
    1TMC1    C3    3   4.275   4.452  11.159 -0.5549  0.1332  0.1503
    1TMC1    C4    4   4.451   4.518  11.348  0.7168 -0.3862  0.0524
    1TMC1    C5    5   4.475   4.554  11.221  0.3710 -0.5786 -0.0283
    1TMC1    C6    6   4.385   4.527  11.120  0.3902  0.2953  0.0453
    1TMC1     C    7   4.315   4.430  11.517  0.3562 -0.6020  0.3244
    1TMC1     O    8   4.197   4.452  11.541  0.4157  0.0393 -0.4582
    1TMC1     H    9   4.178   4.345  11.314 -0.4624  1.9845  0.9834
    1TMC1    H1   10   4.499   4.560  11.436  1.5933  1.5952 -1.3477
    1TMC1    H2   11   4.404   4.544  11.014  2.0932 -0.2483  0.2622
    1TMC1    C7   12   4.538   4.687  11.220  0.1652 -0.9063  0.3859
    1TMC1    C8   13   4.194   4.398  11.059 -0.0623 -0.3818  0.8821
    1TMC1    O1   14   4.623   4.726  11.298  0.4124 -0.5721 -0.9459
    1TMC1    O2   15   4.228   4.380  10.942  0.0697  0.3014 -0.4261
    1TMC1    O3   16   4.458   0.035  11.144 -0.4913  0.7852 -0.1176
    1TMC1    H3   17   4.372   4.732  11.116 -1.0365  0.3832  2.0827
    1TMC1    O5   18   4.073   4.376  11.110 -0.4043  0.1389  0.6720
    1TMC1    H5   19   4.068   4.407  11.203 -1.9931  1.0143  0.2894
    2MPD2     C   20   4.408   4.252  11.990  0.1067 -0.4635 -0.5740
    2MPD2    C1   21   4.294   4.310  11.937  0.0343 -0.1455  0.1506
    2MPD2    C2   22   4.304   4.364  11.808  0.3829  0.0750  0.5205
    2MPD2    C3   23   4.420   4.343  11.726  0.8772 -0.8160 -0.0372
    2MPD2    C4   24   4.530   4.276  11.784 -0.2852 -0.7990  0.4709
    2MPD2    C5   25   4.520   4.240  11.915 -0.2065  0.0071  0.7238
    2MPD2     H   26   4.210   4.399  11.766 -0.0343 -1.0888  0.4934
    2MPD2    H1   27   4.630   4.278  11.742 -0.2529  0.0642  0.5928
    2MPD2    H2   28   4.411   4.229  12.096 -0.6488 -1.0734 -0.6862
    2MPD2    H3   29   4.604   4.187  11.957 -0.2856 -0.4287  0.3399
    2MPD2     N   30   4.423   4.385  11.589  0.1672  0.2422 -0.4216
    2MPD2    H5   31   4.513   4.375  11.545  1.0768  1.1699  1.2343
    2MPD2    N1   32   4.173   4.334  12.012 -0.4344 -0.4598 -0.4300
    2MPD2    H7   33   4.105   4.387  11.958 -0.5338  1.3203  1.4517
    3TMC1    C1   34   3.306   1.201  11.007  0.4621 -0.4315  0.2546
    3TMC1    C2   35   3.292   1.077  10.967 -0.4802  0.5087 -0.5377
    3TMC1    C3   36   3.328   1.049  10.835  0.2685  0.4700  0.0946
    3TMC1    C4   37   3.375   1.296  10.929 -0.1407 -0.2065  0.2524
    3TMC1    C5   38   3.420   1.258  10.808  0.3160 -0.5586  0.4247
    3TMC1    C6   39   3.395   1.135  10.759  0.2128  0.6118  0.4491
    3TMC1     C   40   3.279   1.235  11.151 -0.1217  0.3685 -0.2352
    3TMC1     O   41   3.297   1.146  11.234 -0.0643  0.0492 -0.5816
    3TMC1     H   42   3.275   0.998  11.039  1.6182 -1.4441 -2.1977
    3TMC1    H1   43   3.399   1.394  10.969 -0.7341 -0.1351  0.4341
    3TMC1    H2   44   3.408   1.100  10.657 -0.4639  0.5544  0.3814
    3TMC1    C7   45   3.476   1.355  10.718  0.4119 -0.3864  0.3920
    3TMC1    C8   46   3.316   0.916  10.780 -1.1098 -0.4388 -0.7105
    3TMC1    O1   47   3.523   1.335  10.604  0.1604 -0.3944  0.3907
    3TMC1    O2   48   3.384   0.859  10.696  0.9118  0.1446  0.1031
    3TMC1    O3   49   3.398   1.468  10.740 -0.0805 -0.0376 -0.5735
    3TMC1    H3   50   3.360   1.485  10.828  0.6109  0.6063 -0.3981
    3TMC1    O5   51   3.215   0.854  10.841  0.2638  0.5295 -0.4244
    3TMC1    H5   52   3.163   0.918  10.895  1.4998  0.8141  0.4417
    4MPD2     C   53   3.095   1.580  11.487  0.0533 -0.3500  0.3366
    4MPD2    C1   54   3.093   1.636  11.359  0.3320  0.8057 -0.8200
    4MPD2    C2   55   3.153   1.562  11.258 -0.0166 -0.3049  0.3252
    4MPD2    C3   56   3.198   1.437  11.272  0.5082 -0.0790 -0.1973
    4MPD2    C4   57   3.191   1.384  11.392  0.1640  0.4758  0.0278
    4MPD2    C5   58   3.150   1.457  11.498  0.9012  0.4345 -0.4715
    4MPD2     H   59   3.142   1.603  11.158  0.1077 -2.2508 -0.4739
    4MPD2    H1   60   3.234   1.287  11.414  0.3834  1.1190  2.4167
    4MPD2    H2   61   3.065   1.633  11.577  0.8275 -0.1986  0.5143
    4MPD2    H3   62   3.160   1.417  11.598  0.1580  0.8808 -0.2210
    4MPD2     N   63   3.248   1.369  11.158 -0.3499 -0.2663 -0.5620
    4MPD2    H5   64   3.254   1.418  11.069 -2.6436 -1.7378 -1.5563
    4MPD2    N1   65   3.036   1.766  11.320 -0.3213 -0.2012  0.2184
    4MPD2    H7   66   3.045   1.799  11.224  4.2712 -0.6494  0.5192
    5TCq1    O1   67   3.752   2.576  11.674 -0.1523 -0.6284  0.2629
    5TCq1    C1   68   3.856   2.560  11.590  0.3237 -0.3194  0.0058
    5TCq1    O2   69   3.931   2.467  11.607 -0.0658  0.3866  0.0242
    5TCq1    C2   70   3.823   2.626  11.469 -0.4294  1.0072  0.4273
    5TCq1    C3   71   3.750   2.740  11.478 -0.3339 -0.2702 -0.0493
    5TCq1    C4   72   3.712   2.799  11.362 -0.1422  0.7042  0.5314
    5TCq1    C5   73   3.742   2.743  11.240  0.2907  0.0084 -0.3307
    5TCq1    C6   74   3.818   2.632  11.235  0.3946 -0.1843  0.2349
    5TCq1    C7   75   3.859   2.565  11.347  0.4699 -0.7592  0.9701
    5TCq1    C8   76   3.866   2.564  11.114  0.2792 -0.3827 -0.3125
    5TCq1    O4   77   3.939   2.465  11.127  0.0280 -0.3812 -0.4055
    5TCq1    C9   78   3.640   2.925  11.364 -0.0343  0.2089 -0.3203
    5TCq1    O5   79   3.610   2.973  11.248 -0.0270  0.1042  0.1873
    5TCq1    O6   80   3.635   2.987  11.468 -0.2498  0.2562 -0.1771
    5TCq1    H1   81   3.683   2.634  11.634  1.2540  0.4338 -0.6112
    5TCq1    H2   82   3.723   2.795  11.567  1.8492 -1.2657  1.2179
    5TCq1    H3   83   3.709   2.789  11.147  0.5697  1.2910  0.2030
    5TCq1    H4   84   3.918   2.475  11.351  2.5476  0.6472  1.7750
    6MPD2     C   85   3.780   2.659  10.766 -0.8924  0.0097 -0.2465
    6MPD2    C1   86   3.846   2.596  10.863 -0.0599  0.4297  0.3866
    6MPD2    C2   87   3.957   2.516  10.832 -0.2743 -0.0246  0.9682
    6MPD2    C3   88   3.992   2.490  10.705 -0.0522  0.0175  0.2157
    6MPD2    C4   89   3.931   2.559  10.607 -0.5599  0.3299  0.5691
    6MPD2    C5   90   3.830   2.645  10.639  0.2050 -0.2129  0.1484
    6MPD2     H   91   4.000   2.449  10.905  0.1452 -0.6002  0.1912
    6MPD2    H1   92   3.946   2.557  10.500 -1.1068  0.9294  0.4810
    6MPD2    H2   93   3.698   2.726  10.787  0.6121  0.3060  4.6357
    6MPD2    H3   94   3.789   2.702  10.557  0.2793  1.5284  1.3077
    6MPD2     N   95   4.090   2.388  10.675  0.2805  0.5129 -0.0364
    6MPD2    H5   96   4.124   2.341  10.758 -1.4739  0.8229  0.8532
    6MPD2    N1   97   3.818   2.623  10.997  0.5384  0.6049 -0.2960
    6MPD2    H7   98   3.742   2.689  11.000  1.7323  1.9618 -0.1941
    7TCq1    O1   99   1.428   2.495  13.454  0.3066  0.3098 -0.2018
    7TCq1    C1  100   1.490   2.400  13.378  0.8771 -0.8634  0.4664
    7TCq1    O2  101   1.603   2.358  13.397 -0.5329  0.0224  0.4983
    7TCq1    C2  102   1.378   2.327  13.327 -0.1286  0.1675 -0.2433
    7TCq1    C3  103   1.290   2.404  13.254 -0.0995  0.8326 -0.0905
    7TCq1    C4  104   1.221   2.339  13.158  0.1769 -0.5480  0.0433
    7TCq1    C5  105   1.228   2.200  13.138 -0.6383 -0.2422  0.6561
    7TCq1    C6  106   1.305   2.131  13.229 -0.8996  0.0367 -0.1486
    7TCq1    C7  107   1.386   2.185  13.319  0.0416 -0.0327 -0.7454
    7TCq1    C8  108   1.308   1.993  13.221  0.0652 -0.5702 -1.0227
    7TCq1    O4  109   1.361   1.930  13.312 -0.1808  0.5258 -0.3718
    7TCq1    C9  110   1.145   2.418  13.066 -0.4499  0.8998  0.3224
    7TCq1    O5  111   1.132   2.369  12.952 -0.2091  0.1006 -0.0198
    7TCq1    O6  112   1.093   2.521  13.108 -0.1495  0.1872 -0.4994
    7TCq1    H1  113   1.330   2.482  13.458 -0.0418  2.5706 -1.1048
    7TCq1    H2  114   1.301   2.512  13.264 -2.0089  1.0265 -0.0477
    7TCq1    H3  115   1.152   2.162  13.071  0.3065  1.5748 -1.4683
    7TCq1    H4  116   1.458   2.135  13.383 -0.6433  0.6515  0.5779
    8MPD2     C  117   1.401   1.596  12.913  0.0668  0.2355  0.0622
    8MPD2    C1  118   1.384   1.593  13.049 -0.1204  0.1814  0.6128
    8MPD2    C2  119   1.342   1.715  13.115  0.1232 -1.2800  0.2096
    8MPD2    C3  120   1.319   1.826  13.035 -0.6757 -0.0098 -0.6590
    8MPD2    C4  121   1.334   1.820  12.900 -0.0429 -0.0968  0.2839
    8MPD2    C5  122   1.380   1.705  12.841  0.9339  0.7502 -0.1778
    8MPD2     H  123   1.317   1.719  13.221 -2.8781  0.2869 -0.5458
    8MPD2    H1  124   1.322   1.913  12.844  0.6418 -0.4470 -0.4442
    8MPD2    H2  125   1.425   1.504  12.862  2.0352 -1.1698  3.4949
    8MPD2    H3  126   1.375   1.687  12.734 -0.7706 -3.0163  0.5345
    8MPD2     N  127   1.291   1.954  13.089 -0.4408  0.0952 -0.4294
    8MPD2    H5  128   1.285   2.029  13.021  0.0245  0.0765 -0.4910
    8MPD2    N1  129   1.408   1.472  13.120  0.1329 -0.1912 -0.1968
    8MPD2    H7  130   1.443   1.401  13.056  0.7070  0.7846 -0.9521
    9TMC1    C1  131   3.679   0.563  10.796 -0.4049  0.0462  0.5406
    9TMC1    C2  132   3.548   0.582  10.834 -0.6312 -0.4027 -1.0659
    9TMC1    C3  133   3.458   0.519  10.757  0.2135 -1.4382 -0.3051
    9TMC1    C4  134   3.723   0.490  10.683  0.3777  0.4322 -0.1761
    9TMC1    C5  135   3.621   0.425  10.617  0.2100 -0.2549  1.3886
    9TMC1    C6  136   3.489   0.447  10.643 -0.5772 -0.2981 -0.5394
    9TMC1     C  137   3.782   0.637  10.861 -0.1360  0.7731  0.1711
    9TMC1     O  138   3.883   0.662  10.796 -0.3659 -0.4914  0.4291
    9TMC1     H  139   3.504   0.667  10.885 -1.0182 -1.5301  0.4658
    9TMC1    H1  140   3.826   0.490  10.649  0.5286  0.8427  0.2771
    9TMC1    H2  141   3.417   0.383  10.591 -1.6956  1.5248 -1.2271
    9TMC1    C7  142   3.647   0.330  10.511 -0.0050 -0.4405 -0.2353
    9TMC1    C8  143   3.319   0.511  10.793  0.0773 -0.5495 -0.3301
    9TMC1    O1  144   3.564   0.283  10.437  0.3085  0.4646  0.1964
    9TMC1    O2  145   3.240   0.448  10.721  0.4167  0.2567  0.4636
    9TMC1    O3  146   3.753   0.259  10.556  0.5111  0.4429  0.3840
    9TMC1    H3  147   3.810   0.294  10.628  0.5858  0.5132  0.2890
    9TMC1    O5  148   3.303   0.538  10.925  0.1922 -0.1599  0.2118
    9TMC1    H5  149   3.367   0.600  10.967  0.8945  0.7695 -2.2006
   10MPD2     C  150   3.948   0.750  11.089 -0.5338 -0.0023  0.4189
   10MPD2    C1  151   3.821   0.698  11.105 -0.0270  0.1918 -0.5570
   10MPD2    C2  152   3.772   0.687  11.233 -0.5040 -0.0166  0.0583
   10MPD2    C3  153   3.859   0.709  11.339  0.1823  0.5119  0.1946
   10MPD2    C4  154   3.980   0.761  11.321  0.8223  0.6818 -0.2936
   10MPD2    C5  155   4.021   0.784  11.194 -0.0329 -0.1425  1.1994
   10MPD2     H  156   3.671   0.650  11.248 -0.2866 -0.9254 -0.7832
   10MPD2    H1  157   4.039   0.794  11.406  0.6084  0.5985 -0.1143
   10MPD2    H2  158   3.984   0.776  10.990 -1.2256  1.2703  0.5094
   10MPD2    H3  159   4.117   0.835  11.189  0.5587 -1.4668 -1.2817
   10MPD2     N  160   3.815   0.686  11.467 -0.4697  0.9296  1.3614
   10MPD2    H5  161   3.883   0.718  11.535  1.6842 -0.0023 -0.3687
   10MPD2    N1  162   3.747   0.654  10.996 -0.0497  0.3572  0.1116
   10MPD2    H7  163   3.655   0.614  11.011  0.2489 -0.7037 -0.9245
   11TCq1    O1  164   4.633   0.010  13.893  0.0212 -0.0073  0.2719
   11TCq1    C1  165   4.646   0.121  13.814  0.3181  0.3037  0.1306
   11TCq1    O2  166   4.730   0.140  13.729  0.2317  0.1848  0.0350
   11TCq1    C2  167   4.542   0.207  13.870  0.6441  0.3420 -0.0315
   11TCq1    C3  168   4.567   0.333  13.920  0.4026  0.3196  1.1673
   11TCq1    C4  169   4.473   0.389  14.002  0.1195  0.1346 -0.2089
   11TCq1    C5  170   4.354   0.326  14.017  0.2237 -0.4679  0.1526
   11TCq1    C6  171   4.337   0.203  13.969  0.7769  0.6119  0.0498
   11TCq1    C7  172   4.427   0.143  13.892 -0.0994 -0.1055 -0.3025
   11TCq1    C8  173   4.228   0.129  14.033 -0.0079  0.2688  0.0940
   11TCq1    O4  174   4.149   0.181  14.111  0.1177 -0.1426  0.0819
   11TCq1    C9  175   4.507   0.526  14.046  0.3343 -0.4255  0.6617
   11TCq1    O5  176   4.406   0.602  14.059  0.2636  0.0856 -0.3057
   11TCq1    O6  177   4.632   0.551  14.063  0.1351 -0.3524  0.0285
   11TCq1    H1  178   4.559   0.022  13.957 -1.1384  0.7708 -1.2275
   11TCq1    H2  179   4.663   0.381  13.908  1.0653 -1.4266 -0.4712
   11TCq1    H3  180   4.277   0.366  14.082  2.0201  0.5395  1.6506
   11TCq1    H4  181   4.407   0.055  13.831 -0.6776  0.6609 -1.2223
   12MPD2     C  182   4.058   4.646  14.135  0.1043 -0.4838  0.2582
   12MPD2    C1  183   4.144   4.632  14.028 -0.1215  0.2014 -0.4989
   12MPD2    C2  184   4.161   4.519  13.963 -0.2225 -0.5975  0.3184
   12MPD2    C3  185   4.090   4.409  13.998 -0.6407 -0.1815 -0.3325
   12MPD2    C4  186   3.996   4.426  14.098  0.5260 -0.8050 -0.3238
   12MPD2    C5  187   3.981   4.538  14.175  0.1955  0.3039 -0.1346
   12MPD2     H  188   4.247   4.501  13.899  0.6261  1.6761  0.8070
   12MPD2    H1  189   3.934   4.341  14.127 -0.5783 -0.0846 -0.5663
   12MPD2    H2  190   4.052   4.734  14.198 -0.2006  0.1726 -0.6889
   12MPD2    H3  191   3.931   4.554  14.270 -1.1447 -1.4552 -0.5489
   12MPD2     N  192   4.116   4.291  13.927  0.5990 -0.0318  0.1253
   12MPD2    H5  193   4.094   4.201  13.968  1.4840 -0.0210  0.6347
   12MPD2    N1  194   4.231   4.735  13.987 -0.2984  0.4160  0.4642
   12MPD2    H7  195   4.303   4.706  13.921  1.7523 -1.5147  3.5606
   13TCq1    O1  196   4.520   0.359  11.264  0.3025  0.0634 -0.2828
   13TCq1    C1  197   4.404   0.296  11.309  0.6391  0.4347  0.4662
   13TCq1    O2  198   4.382   0.266  11.429  0.0790  0.1785 -0.3203
   13TCq1    C2  199   4.300   0.325  11.213 -0.1170 -0.2619 -0.0350
   13TCq1    C3  200   4.322   0.314  11.078  0.7674 -0.3718  0.2052
   13TCq1    C4  201   4.229   0.348  10.987  0.1413  0.0357 -0.2802
   13TCq1    C5  202   4.106   0.392  11.030  0.5316 -0.8544  0.5793
   13TCq1    C6  203   4.085   0.394  11.166  0.1475 -0.3960  0.5678
   13TCq1    C7  204   4.178   0.369  11.262 -1.0595 -0.3939  0.2627
   13TCq1    C8  205   3.949   0.374  11.207  0.1222  0.1020  0.1718
   13TCq1    O4  206   3.916   0.383  11.325  0.2040  0.2397  0.0184
   13TCq1    C9  207   4.259   0.330  10.851 -0.3073 -0.4658  0.7462
   13TCq1    O5  208   4.183   0.390  10.766 -0.0361  0.1258 -0.0200
   13TCq1    O6  209   4.328   0.228  10.825 -0.2207  0.2734  0.0005
   13TCq1    H1  210   4.492   0.420  11.192 -1.2103  0.0886  0.3283
   13TCq1    H2  211   4.417   0.269  11.052  0.6298 -0.8781  0.5733
   13TCq1    H3  212   4.031   0.409  10.954 -0.1354 -0.8084  1.2536
   13TCq1    H4  213   4.166   0.358  11.369 -2.6005  2.3734  0.3643
   14MPD2     C  214   3.689   0.214  10.984 -0.0064  0.6748  0.3975
   14MPD2    C1  215   3.739   0.289  11.096  0.0769  1.0733  0.3587
   14MPD2    C2  216   3.645   0.343  11.185  0.0568 -0.3115 -0.3392
   14MPD2    C3  217   3.509   0.321  11.180 -0.2899  0.4231 -0.2247
   14MPD2    C4  218   3.464   0.244  11.078  0.9553 -0.2992 -0.2788
   14MPD2    C5  219   3.553   0.194  10.980 -0.6842  0.3245 -0.4693
   14MPD2     H  220   3.677   0.409  11.264  0.0597 -0.7489  0.0293
   14MPD2    H1  221   3.361   0.213  11.069  0.4040  0.5587  2.9449
   14MPD2    H2  222   3.756   0.177  10.906 -2.9829 -1.6282 -1.0768
   14MPD2    H3  223   3.519   0.136  10.896 -1.3628  0.2865 -0.1680
   14MPD2     N  224   3.430   0.381  11.281  0.2242 -0.1230 -0.1142
   14MPD2    H5  225   3.476   0.430  11.357  0.3281 -2.9352  1.6655
   14MPD2    N1  226   3.878   0.315  11.106 -0.4500  0.1958 -0.2785
   14MPD2    H7  227   3.933   0.275  11.031 -0.0558 -1.0896  0.6977
   15TCq1    O1  228   1.427   0.527   2.049 -0.1938 -0.0518 -0.5970
   15TCq1    C1  229   1.337   0.424   2.069  0.4948 -0.1081  0.6326
   15TCq1    O2  230   1.339   0.335   2.153  0.0484 -0.0610 -0.1069
   15TCq1    C2  231   1.220   0.440   1.994  0.4187 -0.7295  0.2523
   15TCq1    C3  232   1.171   0.564   1.956  0.7078 -0.2129  0.7109
   15TCq1    C4  233   1.063   0.564   1.873 -0.3806  0.6405  0.5434
   15TCq1    C5  234   1.003   0.450   1.821 -0.3066  0.6153 -0.3094
   15TCq1    C6  235   1.055   0.335   1.857  0.7731 -0.2769  0.1029
   15TCq1    C7  236   1.158   0.328   1.942 -0.4734 -0.2693  0.1732
   15TCq1    C8  237   1.027   0.206   1.789  0.1478  0.5453 -0.0757
   15TCq1    O4  238   1.064   0.097   1.836 -0.4281  0.0015 -0.0368
   15TCq1    C9  239   0.984   0.686   1.875  0.2880 -0.7294 -0.1152
   15TCq1    O5  240   0.860   0.666   1.849  0.0807 -0.2228 -0.0740
   15TCq1    O6  241   1.031   0.793   1.929  0.3610 -0.4664 -0.2864
   15TCq1    H1  242   1.407   0.571   1.964  0.6675 -0.1207 -0.8325
   15TCq1    H2  243   1.201   0.658   2.002  1.7934  0.1982 -0.8326
   15TCq1    H3  244   0.909   0.460   1.769  1.1831  1.0334 -2.9543
   15TCq1    H4  245   1.195   0.230   1.968  1.0100 -0.4569 -2.6665
   16MPD2     C  246   0.855   0.193   1.465  0.6422  0.3093 -0.8559
   16MPD2    C1  247   0.916   0.142   1.575 -0.1320 -0.3904  0.7923
   16MPD2    C2  248   0.943   0.005   1.575 -0.2175 -0.1262  0.8119
   16MPD2    C3  249   0.903   4.652   1.477  0.5498 -0.9454  0.0936
   16MPD2    C4  250   0.843   4.708   1.365  0.6214 -0.5226 -0.0163
   16MPD2    C5  251   0.816   0.108   1.366  0.9565  0.3537 -0.1460
   16MPD2     H  252   0.990   4.706   1.667  0.4598 -1.6138 -0.0907
   16MPD2    H1  253   0.803   4.645   1.287 -1.0891 -1.8290  1.9138
   16MPD2    H2  254   0.826   0.297   1.451 -0.3985  0.0078 -1.0011
   16MPD2    H3  255   0.765   0.148   1.279  0.2364 -1.0950 -0.3963
   16MPD2     N  256   0.932   4.515   1.497 -0.0799 -0.4700 -0.2689
   16MPD2    H5  257   0.984   4.495   1.582 -1.5022  2.0131  1.1903
   16MPD2    N1  258   0.962   0.233   1.672 -0.3943  0.0261 -0.5191
   16MPD2    H7  259   0.944   0.331   1.648 -2.2225 -0.5913 -1.6624
   17TMC1    C1  260   3.064   0.193  11.880 -0.1483  0.0878  0.1034
   17TMC1    C2  261   3.106   0.324  11.902 -0.2912 -0.1601  0.0517
   17TMC1    C3  262   3.065   0.376  12.022 -0.0915 -0.3644 -0.4905
   17TMC1    C4  263   2.984   0.125  11.966  0.3421  0.4964  0.0271
   17TMC1    C5  264   2.952   0.186  12.088 -0.3854 -0.2354 -0.8913
   17TMC1    C6  265   3.001   0.303  12.125 -0.3722 -0.6037  0.7753
   17TMC1     C  266   3.106   0.129  11.754 -0.1942 -0.0257 -1.2855
   17TMC1     O  267   3.030   0.045  11.708  0.2493 -0.4532  0.2380
   17TMC1     H  268   3.143   0.392  11.827  3.4765 -0.1333  1.9635
   17TMC1    H1  269   2.932   0.037  11.931 -1.6668  1.3031  0.9449
   17TMC1    H2  270   2.964   0.347  12.217  1.4801 -0.2264  1.3385
   17TMC1    C7  271   2.838   0.134  12.165 -0.1083  0.1066  0.0474
   17TMC1    C8  272   3.102   0.517  12.048  0.1123 -0.6628  0.2339
   17TMC1    O1  273   2.773   0.197  12.251 -0.1212 -0.5266  0.0602
   17TMC1    O2  274   3.105   0.597  11.957 -0.0393 -0.8902 -0.9253
   17TMC1    O3  275   2.831   0.001  12.161 -0.3730  0.1669 -0.0745
   17TMC1    H3  276   2.892   4.694  12.097  1.0302 -0.3372  1.5691
   17TMC1    O5  277   3.208   0.501  12.133  0.7734  0.5869 -0.0570
   17TMC1    H5  278   3.193   0.440  12.209 -2.5716 -0.2744 -1.4098
   18MPD2     C  279   3.212   0.080  11.497 -0.4134 -0.6473 -0.9949
   18MPD2    C1  280   3.289   0.134  11.597  0.3792  0.6598  0.6187
   18MPD2    C2  281   3.428   0.153  11.574  0.4294 -0.0638  0.2021
   18MPD2    C3  282   3.494   0.121  11.460 -0.3379 -0.0251 -0.6023
   18MPD2    C4  283   3.412   0.060  11.365 -1.4958 -0.3949 -0.2274
   18MPD2    C5  284   3.275   0.044  11.384 -0.4347 -0.1083  0.1978
   18MPD2     H  285   3.479   0.194  11.660  1.9069 -2.5015  0.4977
   18MPD2    H1  286   3.461   0.032  11.273  0.9919  1.2685  0.5812
   18MPD2    H2  287   3.104   0.079  11.505 -0.6642  1.8867 -4.3090
   18MPD2    H3  288   3.215   0.003  11.304  0.3414 -2.8441  1.0096
   18MPD2     N  289   3.637   0.107  11.449  0.5523 -0.2525  0.3426
   18MPD2    H5  290   3.659   0.043  11.374 -1.7227  0.6198 -1.0534
   18MPD2    N1  291   3.233   0.168  11.718  0.1437 -0.6914  0.2883
   18MPD2    H7  292   3.290   0.226  11.779  2.8659 -1.9898 -0.9808
   19TMC2    C1  293   0.878   0.427  14.155 -0.4504  0.1477 -0.1091
   19TMC2    C2  294   0.867   0.486  14.031 -0.6671 -0.4025  0.5162
   19TMC2    C3  295   0.760   0.441  13.955  0.2796 -0.3023  0.1791
   19TMC2    C4  296   0.794   0.336  14.207 -0.0601 -0.0171 -0.4854
   19TMC2    C5  297   0.690   0.305  14.131 -0.2598  0.1469  1.0326
   19TMC2    C6  298   0.670   0.350  14.010 -0.1266 -0.9207 -1.2460
   19TMC2     C  299   1.009   0.461  14.223 -0.0252  0.4403  0.6887
   19TMC2     O  300   1.067   0.552  14.169  0.5943 -0.4349  0.2842
   19TMC2     H  301   0.943   0.538  13.973 -2.1039  2.5673  1.2745
   19TMC2    H1  302   0.791   0.312  14.312 -0.5451 -1.0564 -0.7382
   19TMC2    H2  303   0.580   0.322  13.956 -1.2829  1.6570 -0.6868
   19TMC2    C7  304   0.593   0.208  14.187 -0.1313 -0.3826 -0.3495
   19TMC2    C8  305   0.795   0.422  13.815  0.3552 -0.1974  0.2081
   19TMC2    O1  306   0.643   0.136  14.274 -0.6113  0.4356  0.5990
   19TMC2    O2  307   0.904   0.379  13.784 -0.8698 -0.1385  0.0695
   19TMC2    O5  308   0.676   0.374  13.768 -0.0985 -0.0907  0.1238
   19TMC2    H5  309   0.601   0.431  13.797  0.1174 -0.1605  0.8322
   20MPD2     C  310   1.263   0.453  14.373  0.3712 -0.5820 -0.1390
   20MPD2    C1  311   1.154   0.376  14.403 -0.2687  0.4314 -0.6037
   20MPD2    C2  312   1.171   0.280  14.508 -0.5135  0.1809 -0.5507
   20MPD2    C3  313   1.277   0.294  14.599 -0.8541 -0.2952 -0.0016
   20MPD2    C4  314   1.379   0.387  14.570  0.1873  0.4277  0.6425
   20MPD2    C5  315   1.374   0.461  14.460 -0.1262 -0.3876 -0.3115
   20MPD2     H  316   1.103   0.197  14.522  0.0717  0.0009  1.3128
   20MPD2    H1  317   1.464   0.405  14.635  2.2131 -1.0022 -1.6080
   20MPD2    H2  318   1.271   0.513  14.283 -0.5514 -0.6099 -0.2391
   20MPD2    H3  319   1.452   0.534  14.441 -0.6952  0.1541 -0.5694
   20MPD2     N  320   1.283   0.231  14.725  0.1586  0.2110 -0.0534
   20MPD2    H5  321   1.364   0.267  14.774 -0.3405  0.3255  0.7031
   20MPD2    N1  322   1.038   0.373  14.327 -0.0904  0.0018 -0.1914
   20MPD2    H7  323   0.978   0.295  14.352  0.5672 -0.3946  0.1674
   21TMC2    C1  324   2.991   0.750  14.369  0.9211  0.1766  0.3555
   21TMC2    C2  325   3.022   0.621  14.410  0.1795  0.5750 -0.4786
   21TMC2    C3  326   2.990   0.589  14.538 -0.0817  0.3348 -0.2351
   21TMC2    C4  327   2.930   0.844  14.449 -0.1116 -0.2991  0.3333
   21TMC2    C5  328   2.916   0.805  14.579 -0.5583 -0.5348  0.6130
   21TMC2    C6  329   2.935   0.679  14.628 -0.3792  0.1028 -0.2484
   21TMC2     C  330   3.103   0.795  14.285  1.0796  0.0448  0.1809
   21TMC2     O  331   3.190   0.709  14.262 -0.0830  0.5591  0.6481
   21TMC2     H  332   3.053   0.545  14.339 -2.0628 -2.0642  1.3567
   21TMC2    H1  333   2.915   0.949  14.427  0.4060 -0.5975 -1.4418
   21TMC2    H2  334   2.902   0.649  14.727  0.3534  0.7573  0.1890
   21TMC2    C7  335   2.886   0.901  14.684 -0.0109 -0.0081  0.1685
   21TMC2    C8  336   3.022   0.458  14.585  0.6518 -0.2712 -0.4447
   21TMC2    O1  337   2.922   0.884  14.800 -0.1427 -0.3189 -0.2687
   21TMC2    O2  338   3.065   0.366  14.516  0.1587 -0.0257 -0.8154
   21TMC2    O5  339   2.993   0.442  14.710 -0.1550 -0.1608 -0.0263
   21TMC2    H5  340   3.018   0.522  14.760  2.0887 -0.0031 -1.3853
   22MPD2     C  341   3.434   1.191  14.212 -0.3019  0.8315  0.1408
   22MPD2    C1  342   3.455   1.059  14.212  0.4517  0.1589  0.3679
   22MPD2    C2  343   3.351   0.970  14.227  0.0737  0.1320  0.0088
   22MPD2    C3  344   3.217   1.011  14.227 -0.1643  0.8222  0.3834
   22MPD2    C4  345   3.195   1.149  14.200 -0.4677  0.4191  0.2059
   22MPD2    C5  346   3.306   1.236  14.191 -0.5264  0.2485  0.2614
   22MPD2     H  347   3.378   0.865  14.230 -0.9005 -0.1143  0.3247
   22MPD2    H1  348   3.092   1.182  14.198 -0.7410 -0.4119  0.5003
   22MPD2    H2  349   3.515   1.263  14.217  0.4357  0.0238 -0.1807
   22MPD2    H3  350   3.292   1.342  14.171 -1.8467  0.2944  1.4069
   22MPD2     N  351   3.103   0.925  14.248 -0.6658  0.2342  0.1553
   22MPD2    H5  352   3.015   0.974  14.262  0.4278  1.9490  1.0960
   22MPD2    N1  353   3.585   0.999  14.215  0.2277 -0.4574  0.3101
   22MPD2    H7  354   3.593   0.899  14.204  2.4843  0.1270 -3.5154
   23TMC2    C1  355   4.443   1.628  14.826  0.4840 -0.0961 -0.5497
   23TMC2    C2  356   4.566   1.573  14.794  0.1541 -0.1645 -0.7390
   23TMC2    C3  357   4.572   1.516  14.676 -0.7933 -0.2234 -0.8633
   23TMC2    C4  358   4.334   1.621  14.738 -0.6376  0.0339 -0.1631
   23TMC2    C5  359   4.351   1.551  14.628  0.5123  0.1690 -0.1593
   23TMC2    C6  360   4.468   1.497  14.591 -0.3177  0.3266  0.3091
   23TMC2     C  361   4.432   1.690  14.956  0.7245 -0.3060  0.0683
   23TMC2     O  362   4.515   1.651  15.034  0.0036  0.3898  0.0711
   23TMC2     H  363   4.651   1.576  14.862 -1.2860 -1.7079  1.1281
   23TMC2    H1  364   4.237   1.650  14.778 -1.0485 -0.8021 -0.5529
   23TMC2    H2  365   4.500   1.453  14.497  0.7791  0.7621  0.4865
   23TMC2    C7  366   4.240   1.500  14.549 -0.9381  0.4684  0.0414
   23TMC2    C8  367   4.705   1.483  14.629 -0.4223 -0.2804 -0.5805
   23TMC2    O1  368   4.264   1.403  14.482  0.0841 -0.5680  0.3895
   23TMC2    O2  369   4.728   1.388  14.552  0.0147 -0.1590 -0.4675
   23TMC2    O5  370   0.056   1.570  14.672 -0.6019  0.3193  0.1028
   23TMC2    H5  371   0.006   1.651  14.697  0.2117 -0.0554  2.9780
   24MPD2     C  372   4.279   2.042  15.286 -0.2936 -0.9996 -0.2274
   24MPD2    C1  373   4.352   1.924  15.306  0.7002 -0.0012  0.7469
   24MPD2    C2  374   4.376   1.839  15.199 -0.3800  0.3177  0.2740
   24MPD2    C3  375   4.322   1.869  15.074  0.4282 -0.3353 -0.0945
   24MPD2    C4  376   4.252   1.990  15.055 -0.6848 -0.4090  0.3133
   24MPD2    C5  377   4.239   2.079  15.159 -0.2598  0.4158  0.0390
   24MPD2     H  378   4.414   1.742  15.225  1.2115  0.8117 -0.2148
   24MPD2    H1  379   4.237   2.024  14.953  0.1433  1.3791  0.7844
   24MPD2    H2  380   4.257   2.105  15.370  1.8261 -0.4284 -0.1020
   24MPD2    H3  381   4.180   2.168  15.143  1.6348  2.1103  2.6167
   24MPD2     N  382   4.339   1.789  14.960  0.2520 -0.1661  0.1976
   24MPD2    H5  383   4.271   1.815  14.890  0.5692  1.8509  0.6118
   24MPD2    N1  384   4.399   1.883  15.435 -0.5218 -0.3427  0.4360
   24MPD2    H7  385   4.445   1.793  15.443  1.4430  0.4044 -2.1624
   25TMC2    C1  386   3.274   4.222  11.891 -0.1396  0.2044 -0.4160
   25TMC2    C2  387   3.383   4.258  11.971 -0.3130  0.9914 -0.6033
   25TMC2    C3  388   3.360   4.277  12.100  0.0413 -0.7130  0.1400
   25TMC2    C4  389   3.149   4.192  11.941 -0.2206 -0.5322 -0.0840
   25TMC2    C5  390   3.138   4.206  12.078  0.5181  0.2199 -0.4294
   25TMC2    C6  391   3.241   4.243  12.157  0.9897 -0.3051  0.6949
   25TMC2     C  392   3.303   4.206  11.750  0.3407  0.4458 -0.2166
   25TMC2     O  393   3.418   4.243  11.721 -0.0917  0.6624  0.6054
   25TMC2     H  394   3.486   4.257  11.936  0.4905  0.6954  1.7582
   25TMC2    H1  395   3.065   4.153  11.883 -1.1307 -1.3872  1.8090
   25TMC2    H2  396   3.235   4.240  12.265  0.4808 -0.5505  0.6627
   25TMC2    C7  397   3.009   4.181  12.147 -0.3114  1.0721 -0.6198
   25TMC2    C8  398   3.474   4.300  12.189 -0.4156 -0.2116 -0.6944
   25TMC2    O1  399   3.003   4.173  12.267 -0.2656  0.6507 -0.3000
   25TMC2    O2  400   3.458   4.272  12.309  0.4242  0.5279 -0.2410
   25TMC2    O5  401   3.553   4.393  12.145  0.3646 -0.3248  0.5980
   25TMC2    H5  402   3.518   4.433  12.063  2.2066  1.1593  0.5382
   26MPD2     C  403   3.297   4.029  11.279 -0.5146 -0.4524 -0.2222
   26MPD2    C1  404   3.192   3.970  11.346  0.6831  0.3417 -1.4344
   26MPD2    C2  405   3.154   4.024  11.471 -0.8360  0.2657 -0.6331
   26MPD2    C3  406   3.240   4.112  11.535  0.0195 -0.0403 -0.5342
   26MPD2    C4  407   3.351   4.156  11.464  0.3343  0.6769 -0.3219
   26MPD2    C5  408   3.373   4.124  11.340 -0.4593 -0.4417  0.1611
   26MPD2     H  409   3.061   3.998  11.520 -0.4677  1.8491  0.8861
   26MPD2    H1  410   3.422   4.223  11.510  1.5237  1.4891 -3.3705
   26MPD2    H2  411   3.311   3.993  11.178  0.7423 -0.4637 -0.0351
   26MPD2    H3  412   3.460   4.166  11.290 -0.5013 -3.3851 -2.3595
   26MPD2     N  413   3.209   4.148  11.669  0.5267  0.1140  1.5284
   26MPD2    H5  414   3.115   4.122  11.699  0.4823  0.4696  1.6984
   26MPD2    N1  415   3.117   3.861  11.285  0.6811 -0.6417 -0.1543
   26MPD2    H7  416   3.142   3.838  11.189  2.1487 -0.5667  0.1987
   27TMC2    C1  417   2.193   1.239  12.067 -0.1021  0.2910  0.0841
   27TMC2    C2  418   2.080   1.261  11.993  0.6475  0.1042  0.2237
   27TMC2    C3  419   2.008   1.376  12.021  0.1614 -0.2411 -0.3964
   27TMC2    C4  420   2.232   1.328  12.158 -0.4801  0.3251  0.5885
   27TMC2    C5  421   2.157   1.437  12.179  0.6851 -0.0675 -0.6932
   27TMC2    C6  422   2.050   1.472  12.101 -0.8134  0.5386  0.4071
   27TMC2     C  423   2.209   1.100  12.117  0.3831  0.3720  0.7982
   27TMC2     O  424   2.302   1.031  12.069 -0.2390 -0.0136  0.1969
   27TMC2     H  425   2.032   1.178  11.942  1.2325 -1.2503  1.8662
   27TMC2    H1  426   2.318   1.308  12.220 -0.2721  0.2866  0.2877
   27TMC2    H2  427   2.001   1.568  12.091  1.4697  1.5633 -0.8561
   27TMC2    C7  428   2.185   1.513  12.302 -0.4658  0.1714  0.0462
   27TMC2    C8  429   1.928   1.423  11.906 -0.3542 -0.4619 -1.1200
   27TMC2    O1  430   2.262   1.462  12.378  0.3274  0.4399  0.0147
   27TMC2    O2  431   1.920   1.347  11.810 -0.9847  0.1390  0.2837
   27TMC2    O5  432   1.837   1.516  11.931  0.5576 -0.1888  0.0423
   27TMC2    H5  433   1.840   1.533  12.027  0.8061  1.6122 -0.2866
   28MPD2     C  434   2.030   0.735  12.417  0.5238  1.0723 -0.2729
   28MPD2    C1  435   1.967   0.851  12.451 -0.3059  0.3365 -0.5146
   28MPD2    C2  436   2.004   0.966  12.377  0.3246  0.1554  0.4891
   28MPD2    C3  437   2.097   0.959  12.280 -0.0984 -0.2463 -0.2666
   28MPD2    C4  438   2.164   0.842  12.252 -0.3709  0.5030  0.8162
   28MPD2    C5  439   2.130   0.730  12.322  0.6365  0.2155 -0.4848
   28MPD2     H  440   1.955   1.062  12.386 -2.3858 -1.1465 -0.5794
   28MPD2    H1  441   2.230   0.830  12.166 -1.6695  0.3864 -0.1663
   28MPD2    H2  442   2.006   0.644  12.471 -1.0258  0.1909 -2.4574
   28MPD2    H3  443   2.186   0.641  12.293 -0.1991 -1.0076  1.6129
   28MPD2     N  444   2.114   1.078  12.213  0.3872 -0.4610 -0.6733
   28MPD2    H5  445   2.042   1.146  12.232 -0.6635 -2.0353  0.9492
   28MPD2    N1  446   1.868   0.850  12.552  0.4286  0.6245 -0.2250
   28MPD2    H7  447   1.822   0.763  12.576  0.3892  0.5476 -0.5960
   29TMC2    C1  448   1.524   3.909  14.854 -0.0940 -0.7443  1.1235
   29TMC2    C2  449   1.543   3.886  14.991 -0.4060  1.4494 -0.2479
   29TMC2    C3  450   1.582   3.987  15.076  0.0169  0.7438  0.3063
   29TMC2    C4  451   1.572   4.029  14.802 -0.3714  0.9772 -0.1520
   29TMC2    C5  452   1.589   4.131  14.895  0.8530 -0.1324 -0.3077
   29TMC2    C6  453   1.598   4.115  15.027 -0.1188 -0.0044 -0.7144
   29TMC2     C  454   1.547   3.789  14.763 -0.5872 -0.0385 -0.3479
   29TMC2     O  455   1.568   3.684  14.825  0.3360 -0.1882 -0.0260
   29TMC2     H  456   1.519   3.789  15.033 -0.7020  1.6968  0.1584
   29TMC2    H1  457   1.572   4.048  14.696  1.8598  1.2286 -0.1086
   29TMC2    H2  458   1.603   4.200  15.093  1.6695 -1.2760  0.7679
   29TMC2    C7  459   1.578   4.272  14.854  0.6320 -0.0416 -0.6308
   29TMC2    C8  460   1.591   3.951  15.220  0.0831  0.2212  0.4520
   29TMC2    O1  461   1.522   4.292  14.746  0.3091 -0.1911 -0.1679
   29TMC2    O2  462   1.549   3.848  15.274  0.2481  0.5798 -0.0666
   29TMC2    O5  463   1.688   4.033  15.274  0.2558 -0.1978 -0.0843
   29TMC2    H5  464   1.721   4.101  15.211  0.0378 -1.0003 -1.0594
   30MPD2     C  465   1.556   3.521  14.328  0.4870 -0.4570  0.0746
   30MPD2    C1  466   1.615   3.486  14.451  0.5224  0.3100 -0.4346
   30MPD2    C2  467   1.606   3.580  14.555 -0.6626 -0.0416 -0.5233
   30MPD2    C3  468   1.559   3.707  14.535  0.6675 -0.5479  0.8024
   30MPD2    C4  469   1.522   3.743  14.405 -0.2661 -0.0599  0.2919
   30MPD2    C5  470   1.519   3.648  14.301  0.6008 -0.0682 -1.1985
   30MPD2     H  471   1.638   3.549  14.654 -1.7345 -0.6182 -0.3514
   30MPD2    H1  472   1.486   3.843  14.387 -0.4841 -0.0006  1.0954
   30MPD2    H2  473   1.549   3.455  14.242  1.2173  0.8880 -1.0125
   30MPD2    H3  474   1.481   3.682  14.205 -1.3159  1.7038  0.1813
   30MPD2     N  475   1.537   3.810  14.632  0.8586  0.0034 -0.3141
   30MPD2    H5  476   1.496   3.896  14.597  0.7398  0.1680  0.2294
   30MPD2    N1  477   1.655   3.355  14.476 -0.3201  0.4444 -0.5950
   30MPD2    H7  478   1.712   3.335  14.557 -0.3069 -2.4634 -1.3433
   31TMC2    C1  479   4.022   2.642  15.745  0.2070  0.0790 -0.2175
   31TMC2    C2  480   3.921   2.728  15.781 -0.0532 -0.0628  0.2464
   31TMC2    C3  481   3.918   2.768  15.916  0.1762 -0.1273 -0.4669
   31TMC2    C4  482   4.125   2.603  15.829 -0.6620 -0.5600  0.3029
   31TMC2    C5  483   4.108   2.641  15.957  0.2110  0.2000 -0.7891
   31TMC2    C6  484   4.014   2.733  16.003  0.0628  0.1361 -0.5070
   31TMC2     C  485   4.042   2.644  15.598  0.6151 -0.6224 -0.1259
   31TMC2     O  486   3.972   2.725  15.540  0.0759 -0.2455 -0.5056
   31TMC2     H  487   3.835   2.738  15.716  0.1472  3.3019  0.5053
   31TMC2    H1  488   4.211   2.550  15.791 -0.7778  0.2497 -1.0754
   31TMC2    H2  489   3.996   2.756  16.107 -0.5563  0.7773 -0.7473
   31TMC2    C7  490   4.210   2.587  16.053 -0.0515  0.6829 -0.8138
   31TMC2    C8  491   3.786   2.778  15.977 -0.0700  0.0456 -0.1765
   31TMC2    O1  492   4.277   2.491  16.014 -0.2450  0.1541 -0.0530
   31TMC2    O2  493   3.734   2.695  16.054  0.5774  0.1411 -0.2666
   31TMC2    O5  494   3.720   2.866  15.899  0.0445 -0.0659 -0.4498
   31TMC2    H5  495   3.780   2.936  15.863 -1.6880  0.6727 -1.8860
   32MPD2     C  496   4.283   2.541  15.146 -0.0749  0.0860 -0.4394
   32MPD2    C1  497   4.204   2.649  15.183 -0.4613 -0.3313 -0.0427
   32MPD2    C2  498   4.145   2.655  15.311 -0.2988 -0.1190 -0.2646
   32MPD2    C3  499   4.171   2.554  15.407  0.5165 -1.3105 -0.1293
   32MPD2    C4  500   4.254   2.455  15.368  0.6534  1.0980  0.2608
   32MPD2    C5  501   4.310   2.446  15.239  0.2000  0.0444  0.5653
   32MPD2     H  502   4.095   2.742  15.352  1.7776  0.4641  1.0623
   32MPD2    H1  503   4.275   2.375  15.438 -1.4995  2.1902  2.1383
   32MPD2    H2  504   4.311   2.520  15.044  0.6182 -0.6247 -0.1005
   32MPD2    H3  505   4.377   2.365  15.213 -0.1827 -0.7209  1.9817
   32MPD2     N  506   4.133   2.555  15.546  0.5096  0.2236  0.3731
   32MPD2    H5  507   4.171   2.476  15.598  1.3299  1.7139  2.0381
   32MPD2    N1  508   4.168   2.750  15.088  0.2086 -0.1126 -0.1776
   32MPD2    H7  509   4.225   2.760  15.005  0.9764 -1.0458  0.2452
   33TMC2    C1  510   4.343   0.055  10.548 -0.0398  0.4653 -0.3659
   33TMC2    C2  511   4.440   0.036  10.644 -0.1336  0.1046  0.2516
   33TMC2    C3  512   4.561   0.096  10.623  0.5832  0.0850 -0.2520
   33TMC2    C4  513   4.367   0.127  10.439 -0.6968 -0.5121  0.2270
   33TMC2    C5  514   4.490   0.191  10.425  0.2660  0.5029 -0.6015
   33TMC2    C6  515   4.593   0.170  10.511 -0.2163 -0.5571  0.7548
   33TMC2     C  516   4.201   0.022  10.573  0.5212  0.4572  0.2416
   33TMC2     O  517   4.122   0.012  10.477 -0.4520 -0.1313 -0.0109
   33TMC2     H  518   4.417   4.721  10.737 -0.4854 -0.2852 -0.0462
   33TMC2    H1  519   4.288   0.145  10.368 -1.1237  1.0208  1.0898
   33TMC2    H2  520   4.687   0.221  10.493  0.5284 -2.5594 -0.9903
   33TMC2    C7  521   4.512   0.296  10.333 -0.4149 -0.4432 -0.1137
   33TMC2    C8  522   4.652   0.114  10.735 -0.9853 -0.0844  0.0359
   33TMC2    O1  523   4.630   0.336  10.320 -0.1436 -0.7238 -0.0536
   33TMC2    O2  524   0.037   0.114  10.719  0.3327 -0.2532  0.2604
   33TMC2    O5  525   4.577   0.139  10.847 -0.2965  0.0493 -0.3690
   33TMC2    H5  526   4.488   0.177  10.830  0.0094  2.0684  2.5853
   34MPD2     C  527   3.856   4.633  10.929  1.3861  0.3951  0.3115
   34MPD2    C1  528   3.967   4.686  10.987 -0.0844 -0.5128  0.3339
   34MPD2    C2  529   4.072   4.727  10.908  0.3504  0.6134 -0.4502
   34MPD2    C3  530   4.067   4.713  10.774 -0.3965  0.5685  0.3358
   34MPD2    C4  531   3.958   4.650  10.714  0.3424 -0.0909  0.1506
   34MPD2    C5  532   3.859   4.614  10.797  0.8938  0.2490  0.1777
   34MPD2     H  533   4.157   0.044  10.952 -0.4125 -0.9736  2.9158
   34MPD2    H1  534   3.957   4.625  10.609  1.4311  0.7149 -0.0620
   34MPD2    H2  535   3.770   4.596  10.984  1.6427 -2.0890 -0.9566
   34MPD2    H3  536   3.775   4.576  10.740 -0.3140  0.2717  1.9609
   34MPD2     N  537   4.173   0.033  10.704  0.2493 -0.5743 -0.6114
   34MPD2    H5  538   4.246   0.084  10.753 -0.9765 -0.0900  0.7228
   34MPD2    N1  539   3.973   4.697  11.127 -0.3228 -0.0153  0.4157
   34MPD2    H7  540   3.888   4.677  11.180 -1.2651  3.1597  0.1114
   35TMC2    C1  541   0.170   1.505  12.022 -0.8475  0.0847  0.2708
   35TMC2    C2  542   0.130   1.606  11.935  0.6275  0.3961 -0.0547
   35TMC2    C3  543   0.059   1.572  11.831  0.4471 -0.0495 -0.7380
   35TMC2    C4  544   0.142   1.379  11.994 -0.0942  0.1520  0.1616
   35TMC2    C5  545   0.069   1.340  11.884 -0.5323 -1.1656 -0.0927
   35TMC2    C6  546   0.021   1.439  11.804 -0.1418 -0.2456  0.4975
   35TMC2     C  547   0.249   1.531  12.141 -0.2188  0.4454  0.2406
   35TMC2     O  548   0.222   1.639  12.199 -0.6278 -0.1651 -0.1443
   35TMC2     H  549   0.164   1.706  11.958 -1.7913  1.2973 -0.4585
   35TMC2    H1  550   0.175   1.308  12.068 -0.4394  1.0562  1.1828
   35TMC2    H2  551   4.715   1.417  11.707  2.2638 -1.1436 -0.3318
   35TMC2    C7  552   0.007   1.208  11.891  0.8355 -0.2936 -0.3145
   35TMC2    C8  553   0.066   1.657  11.711 -0.2137 -0.3371  0.6643
   35TMC2    O1  554   0.077   1.116  11.935  0.0399 -0.2425 -0.0484
   35TMC2    O2  555   0.075   1.611  11.597  0.0221 -0.4831 -0.7127
   35TMC2    O5  556   0.084   1.791  11.752 -0.0251 -0.3875 -0.0850
   35TMC2    H5  557   0.052   1.800  11.844 -2.0571  0.5005 -0.8580
   36MPD2     C  558   0.692   1.495  12.378 -0.2490  0.1074 -0.6603
   36MPD2    C1  559   0.697   1.415  12.264  0.0472  0.0091 -0.2459
   36MPD2    C2  560   0.582   1.396  12.192 -0.9870 -0.1917 -0.3993
   36MPD2    C3  561   0.470   1.470  12.226  0.2663 -0.1802 -0.0896
   36MPD2    C4  562   0.462   1.536  12.342  0.2858  0.1913  0.4922
   36MPD2    C5  563   0.575   1.550  12.419 -0.7377  0.4732 -0.2445
   36MPD2     H  564   0.585   1.353  12.093 -0.4988  0.5125 -0.6936
   36MPD2    H1  565   0.375   1.591  12.374  0.0582 -0.6319  1.2729
   36MPD2    H2  566   0.775   1.518  12.443  0.4233 -1.6612 -0.8936
   36MPD2    H3  567   0.565   1.591  12.519  0.4545 -0.2923  0.1919
   36MPD2     N  568   0.372   1.466  12.125 -0.0308 -0.0088  0.6856
   36MPD2    H5  569   0.393   1.410  12.043 -0.7700 -1.6265  1.5854
   36MPD2    N1  570   0.815   1.351  12.227 -0.2112  0.1908 -0.0530
   36MPD2    H7  571   0.900   1.382  12.274 -0.2019 -0.0827  0.1120
   37TMC2    C1  572   2.589   2.200  12.210 -0.0907 -0.2761 -0.4985
   37TMC2    C2  573   2.464   2.199  12.161 -0.2687 -0.1066 -0.1864
   37TMC2    C3  574   2.439   2.193  12.027 -0.3466  0.7706  0.6408
   37TMC2    C4  575   2.700   2.183  12.139  0.0712 -0.6351  0.5538
   37TMC2    C5  576   2.672   2.187  12.002  0.3602 -0.3678 -0.0903
   37TMC2    C6  577   2.546   2.181  11.944 -0.4334 -0.3226  0.1339
   37TMC2     C  578   2.595   2.182  12.356  0.0291  0.4075 -0.3421
   37TMC2     O  579   2.502   2.232  12.423 -0.5083  0.3670  0.1152
   37TMC2     H  580   2.377   2.201  12.225  0.5959 -0.8579  1.0164
   37TMC2    H1  581   2.799   2.187  12.183 -0.0118 -1.7088  0.8605
   37TMC2    H2  582   2.518   2.170  11.840  2.5507 -0.6457 -0.6357
   37TMC2    C7  583   2.784   2.184  11.910 -0.1504 -0.6056  0.1209
   37TMC2    C8  584   2.319   2.117  11.995 -0.4953 -0.1958 -0.1262
   37TMC2    O1  585   2.887   2.131  11.955 -0.1291  0.7988 -0.0822
   37TMC2    O2  586   2.207   2.147  12.040  0.8091  0.0474  0.0435
   37TMC2    O5  587   2.371   1.993  11.988 -0.4604 -0.1700 -0.0889
   37TMC2    H5  588   2.468   1.978  11.982 -0.3620  1.0422 -1.4710
   38MPD2     C  589   2.808   1.995  12.778 -0.5758  0.1699  0.4127
   38MPD2    C1  590   2.882   1.950  12.668 -0.1975 -0.2539 -0.1209
   38MPD2    C2  591   2.851   1.991  12.540  0.0140 -0.8597 -0.4466
   38MPD2    C3  592   2.740   2.074  12.520  0.5056 -0.0691 -0.3978
   38MPD2    C4  593   2.680   2.126  12.629 -0.2219 -0.0049  0.0290
   38MPD2    C5  594   2.717   2.091  12.755  0.5399  0.9499  0.3020
   38MPD2     H  595   2.906   1.945  12.459  0.1528  1.6739 -1.7617
   38MPD2    H1  596   2.600   2.200  12.627 -0.6520 -0.4317  1.3338
   38MPD2    H2  597   2.826   1.961  12.879  0.5214 -2.6829 -0.7365
   38MPD2    H3  598   2.657   2.132  12.836 -1.4746 -1.7518  0.1663
   38MPD2     N  599   2.700   2.105  12.387  0.0844  0.6340  0.1726
   38MPD2    H5  600   2.760   2.065  12.315  0.6492  0.6586  0.6235
   38MPD2    N1  601   2.989   1.857  12.678  0.6198 -0.4891  0.3797
   38MPD2    H7  602   3.022   1.818  12.591  1.7408  0.8706  0.1901
   39TMC2    C1  603   1.553   3.541   1.983 -0.0958  0.4224 -0.7253
   39TMC2    C2  604   1.521   3.502   2.113 -0.0826 -0.3765 -0.5605
   39TMC2    C3  605   1.619   3.464   2.196  0.4570 -0.1913 -0.2881
   39TMC2    C4  606   1.688   3.560   1.948  0.1070  0.2493 -0.1480
   39TMC2    C5  607   1.783   3.541   2.041  0.8835  0.2093 -0.4112
   39TMC2    C6  608   1.750   3.479   2.160  0.2340 -0.5509 -0.1013
   39TMC2     C  609   1.443   3.586   1.893  0.3445 -0.0332 -0.5594
   39TMC2     O  610   1.332   3.600   1.941  0.2308  0.8249  0.5460
   39TMC2     H  611   1.419   3.496   2.150 -1.5330 -1.5001 -4.7464
   39TMC2    H1  612   1.725   3.587   1.849 -1.4765 -0.1796 -0.8520
   39TMC2    H2  613   1.824   3.480   2.239  1.4428 -1.0042 -1.2426
   39TMC2    C7  614   1.927   3.536   1.992 -0.0141  1.2331 -0.4430
   39TMC2    C8  615   1.579   3.400   2.323 -0.5270  0.3372 -0.1758
   39TMC2    O1  616   1.996   3.438   2.020  0.0126  0.7675  0.0415
   39TMC2    O2  617   1.464   3.411   2.359 -0.2209 -1.1437  0.6408
   39TMC2    O5  618   1.648   3.285   2.320  0.0486  0.3463  0.1624
   39TMC2    H5  619   1.735   3.280   2.275  0.4661 -0.0266  1.0173
   40MPD2     C  620   1.475   3.624   1.529  0.2744 -0.5803 -0.6841
   40MPD2    C1  621   1.411   3.625   1.648  0.6905 -0.6701  0.1379
   40MPD2    C2  622   1.277   3.667   1.659 -0.2653 -0.0249  0.4751
   40MPD2    C3  623   1.210   3.701   1.543  0.9002 -0.5863  0.5201
   40MPD2    C4  624   1.268   3.667   1.427 -0.9129 -0.1889  0.2865
   40MPD2    C5  625   1.403   3.641   1.415 -0.2549  0.1379  0.0150
   40MPD2     H  626   1.233   3.682   1.757 -2.3828 -0.6643 -0.3724
   40MPD2    H1  627   1.215   3.681   1.333 -1.6652  2.5174  1.1322
   40MPD2    H2  628   1.580   3.595   1.532  0.5039 -0.2335 -4.2909
   40MPD2    H3  629   1.446   3.628   1.316  1.1028  0.7576  0.5247
   40MPD2     N  630   1.071   3.746   1.542 -0.0789  0.1027  0.0680
   40MPD2    H5  631   1.038   3.751   1.446 -2.2880  1.7108  0.9170
   40MPD2    N1  632   1.482   3.591   1.766  0.2964  0.3665 -0.2602
   40MPD2    H7  633   1.580   3.571   1.747  0.8742  2.9559 -0.0372
   41TMC2    C1  634   0.841   1.472  13.880 -0.2121 -0.1694  0.0796
   41TMC2    C2  635   0.898   1.596  13.861  0.0122 -0.3492  0.6979
   41TMC2    C3  636   0.881   1.644  13.733 -0.1020  0.7387  0.1633
   41TMC2    C4  637   0.777   1.399  13.781 -0.4806  0.1056 -0.4767
   41TMC2    C5  638   0.765   1.457  13.657  0.1340 -0.0786 -0.2493
   41TMC2    C6  639   0.814   1.575  13.630  0.3129 -0.2868 -0.0272
   41TMC2     C  640   0.849   1.403  14.001 -0.3185  0.3027  0.0638
   41TMC2     O  641   0.843   1.281  14.002  0.2862 -0.4251  0.0860
   41TMC2     H  642   0.944   1.657  13.938  1.6426 -0.7428  0.0457
   41TMC2    H1  643   0.746   1.296  13.798 -1.3285  0.6626  1.4199
   41TMC2    H2  644   0.790   1.632  13.541 -0.0622  0.8022  0.7729
   41TMC2    C7  645   0.648   1.427  13.591  0.2407  0.4016  0.2872
   41TMC2    C8  646   0.939   1.772  13.702 -0.3090 -0.0763 -0.1648
   41TMC2    O1  647   0.549   1.462  13.656 -1.0416 -0.1344 -0.3970
   41TMC2    O2  648   0.922   1.859  13.786 -0.3443 -0.8471  0.4795
   41TMC2    O5  649   0.964   1.786  13.574  0.4981  0.4913  0.0921
   41TMC2    H5  650   0.975   1.705  13.521  0.2220  1.3571 -1.2763
   42MPD2     C  651   0.956   1.334  14.269 -0.4899  0.5218 -0.2642
   42MPD2    C1  652   0.890   1.448  14.248  0.4042 -0.1500  0.6307
   42MPD2    C2  653   0.874   1.533  14.350 -0.2420  0.0391 -0.2338
   42MPD2    C3  654   0.895   1.493  14.483  0.2789  0.2140 -0.4980
   42MPD2    C4  655   0.956   1.372  14.510  0.7407 -0.1385  0.3666
   42MPD2    C5  656   0.993   1.298  14.396  0.2748 -0.4979 -0.1431
   42MPD2     H  657   0.834   1.631  14.325 -0.8640 -0.0492  0.4217
   42MPD2    H1  658   0.976   1.337  14.610  0.4823  1.2862  0.9220
   42MPD2    H2  659   0.988   1.274  14.184  0.5464 -0.1393  0.5883
   42MPD2    H3  660   1.041   1.201  14.405  0.6566 -0.3651 -0.7223
   42MPD2     N  661   0.842   1.571  14.597 -0.0890  0.3351 -0.9093
   42MPD2    H5  662   0.852   1.521  14.684 -0.3229  1.5219 -0.1967
   42MPD2    N1  663   0.864   1.481  14.112 -0.7248  0.4579  0.5311
   42MPD2    H7  664   0.841   1.579  14.096 -0.5501  0.0878 -2.0501
   43TMC2    C1  665   1.446   0.920   0.898 -0.3055 -0.0148 -0.7688
   43TMC2    C2  666   1.349   0.983   0.967 -0.9690 -0.2698 -0.6042
   43TMC2    C3  667   1.376   1.111   1.009 -0.3454 -0.2655  0.9018
   43TMC2    C4  668   1.566   0.981   0.861 -0.6643  0.0664 -0.8750
   43TMC2    C5  669   1.582   1.111   0.911  0.2404 -0.9793  0.2067
   43TMC2    C6  670   1.495   1.172   0.994  0.1142  0.0425 -0.3366
   43TMC2     C  671   1.464   0.777   0.894 -0.0478 -0.1640 -0.3106
   43TMC2     O  672   1.532   0.721   0.809  0.4414  0.4201 -0.4546
   43TMC2     H  673   1.257   0.935   0.998 -1.0975 -0.7711 -1.7657
   43TMC2    H1  674   1.638   0.928   0.801 -0.3428 -0.8110  0.2892
   43TMC2    H2  675   1.507   1.279   1.010  2.4005 -0.1756 -0.6400
   43TMC2    C7  676   1.724   1.137   0.935  0.7529 -0.5509  0.4082
   43TMC2    C8  677   1.288   1.175   1.103  0.0960  1.0028  0.2052
   43TMC2    O1  678   1.807   1.156   0.846  0.0845  0.1788 -0.0774
   43TMC2    O2  679   1.330   1.239   1.196  0.3347  0.2310  0.6655
   43TMC2    O5  680   1.164   1.137   1.077  0.2824 -0.5250 -0.6467
   43TMC2    H5  681   1.152   1.081   0.997 -0.8769 -3.6880  1.7537
   44MPD2     C  682   1.416   0.324   1.129  0.6978  0.6327 -0.5534
   44MPD2    C1  683   1.511   0.368   1.034  0.3739  0.2557 -0.2942
   44MPD2    C2  684   1.493   0.498   0.988  0.1260  0.0081 -0.0723
   44MPD2    C3  685   1.400   0.582   1.031  0.2824 -0.0265  0.5722
   44MPD2    C4  686   1.309   0.540   1.126 -0.1235  0.3268 -0.4950
   44MPD2    C5  687   1.325   0.416   1.175  0.6868 -0.1506  0.4920
   44MPD2     H  688   1.570   0.534   0.922 -0.9170  3.2426  0.4634
   44MPD2    H1  689   1.230   0.595   1.176 -1.4378 -1.2573 -0.8022
   44MPD2    H2  690   1.425   0.224   1.171  0.0939  0.1735 -1.5020
   44MPD2    H3  691   1.255   0.392   1.255  0.8697  0.1056  0.7286
   44MPD2     N  692   1.400   0.716   1.002  0.4388 -0.4456 -0.0781
   44MPD2    H5  693   1.346   0.763   1.074  1.5523 -1.0568  1.1651
   44MPD2    N1  694   1.624   0.297   0.984 -0.0547 -0.2133  0.5003
   44MPD2    H7  695   1.691   0.343   0.923  0.2105 -2.2561 -0.7853
   45TMC2    C1  696   2.375   2.466   9.697 -0.0778 -0.4307 -0.0811
   45TMC2    C2  697   2.268   2.546   9.722  0.1366 -0.1932 -0.2315
   45TMC2    C3  698   2.300   2.672   9.779  0.0562 -0.2508  0.2790
   45TMC2    C4  699   2.505   2.502   9.717  0.4109 -0.2834  0.1518
   45TMC2    C5  700   2.531   2.623   9.774  0.4866  0.3744 -0.6469
   45TMC2    C6  701   2.431   2.708   9.796 -0.2386  0.8638 -0.1450
   45TMC2     C  702   2.358   2.340   9.623  0.4057  0.2166 -0.1637
   45TMC2     O  703   2.459   2.297   9.571 -0.6042 -0.3691 -0.5481
   45TMC2     H  704   2.171   2.526   9.678 -0.2690 -0.7574  0.9104
   45TMC2    H1  705   2.582   2.428   9.697  0.8138 -0.2638  1.6078
   45TMC2    H2  706   2.453   2.801   9.846 -1.8421  1.4761 -0.5589
   45TMC2    C7  707   2.662   2.656   9.841  0.0842  0.3006 -0.1381
   45TMC2    C8  708   2.201   2.782   9.785  0.8263  0.1066 -0.5484
   45TMC2    O1  709   2.677   2.746   9.926 -0.1114  0.3888  0.3664
   45TMC2    O2  710   2.082   2.758   9.787 -0.0914  0.0720 -0.1215
   45TMC2    O5  711   2.253   2.891   9.727 -0.2419 -0.3324 -0.0022
   45TMC2    H5  712   2.348   2.906   9.706 -0.0584 -1.6242 -0.1368
   46MPD2     C  713   2.296   2.048   9.585 -0.1016 -0.3724  0.8523
   46MPD2    C1  714   2.204   2.135   9.629  0.6197 -0.5602 -0.1013
   46MPD2    C2  715   2.083   2.077   9.671  0.2332 -0.1268 -0.2044
   46MPD2    C3  716   2.051   1.943   9.652 -0.8086 -0.3071 -0.0149
   46MPD2    C4  717   2.144   1.854   9.607 -0.1057  0.0369 -0.8809
   46MPD2    C5  718   2.268   1.912   9.578  0.0997 -0.1349 -0.1639
   46MPD2     H  719   2.011   2.142   9.721  1.1316  1.2069 -0.6302
   46MPD2    H1  720   2.124   1.748   9.591 -1.8455  0.1721  0.3825
   46MPD2    H2  721   2.392   2.084   9.552 -1.5288  1.0360 -1.7674
   46MPD2    H3  722   2.352   1.846   9.559  0.6205  0.6119 -0.4539
   46MPD2     N  723   1.927   1.908   9.706 -0.2735 -0.2194  0.4309
   46MPD2    H5  724   1.876   1.986   9.748  1.2604  0.1390  1.6301
   46MPD2    N1  725   2.229   2.277   9.641 -0.3422 -0.2404 -0.2210
   46MPD2    H7  726   2.150   2.327   9.681  2.0324  2.8676  0.5867
   47TMC2    C1  727   4.610   2.733   9.639  0.2966  0.4079 -0.1604
   47TMC2    C2  728   4.552   2.635   9.718  0.0842 -0.8598  0.0380
   47TMC2    C3  729   4.420   2.655   9.743 -0.1425  0.5011 -0.0661
   47TMC2    C4  730   4.544   2.849   9.598  0.3848 -0.1184  0.1778
   47TMC2    C5  731   4.411   2.862   9.629  0.0404 -0.2794 -0.7839
   47TMC2    C6  732   4.350   2.768   9.708 -0.0994  0.7366 -0.1562
   47TMC2     C  733   0.011   2.709   9.586  0.2370 -0.0671  0.3054
   47TMC2     O  734   0.075   2.809   9.555  0.4638  0.0045  0.2960
   47TMC2     H  735   4.609   2.567   9.780  0.5210 -1.4913 -1.0623
   47TMC2    H1  736   4.591   2.917   9.528  1.9140 -1.3149  0.0176
   47TMC2    H2  737   4.246   2.770   9.739 -0.1785 -1.0290 -0.2965
   47TMC2    C7  738   4.363   2.995   9.635  0.0031  0.1952  0.1362
   47TMC2    C8  739   4.347   2.566   9.831  0.2657  0.4013  0.4139
   47TMC2    O1  740   4.439   3.073   9.574  0.4639  0.0322  0.4011
   47TMC2    O2  741   4.255   2.608   9.899  0.0853 -0.1801 -0.0307
   47TMC2    O5  742   4.413   2.449   9.845  0.0017 -0.1464  0.3392
   47TMC2    H5  743   4.462   2.413   9.768 -1.0812  0.0440 -0.4462
   48MPD2     C  744   0.273   2.600   9.492 -0.3227  0.1967  0.0106
   48MPD2    C1  745   0.170   2.523   9.548 -0.4626 -0.4563  0.1605
   48MPD2    C2  746   0.193   2.384   9.555 -0.6199  0.2626  0.8511
   48MPD2    C3  747   0.313   2.328   9.512 -0.1868 -0.2411  0.0356
   48MPD2    C4  748   0.408   2.410   9.460 -0.0570  0.3135 -0.7844
   48MPD2    C5  749   0.392   2.541   9.450 -0.2377 -0.0682  0.3042
   48MPD2     H  750   0.112   2.327   9.598 -1.2422 -0.3814 -1.1822
   48MPD2    H1  751   0.503   2.375   9.422  0.9111 -0.4705  2.3410
   48MPD2    H2  752   0.264   2.708   9.487 -1.4360  0.1536  1.3738
   48MPD2    H3  753   0.456   2.614   9.402 -0.8071 -0.2338 -0.7007
   48MPD2     N  754   0.323   2.188   9.511  0.5379 -0.0627  0.0316
   48MPD2    H5  755   0.233   2.149   9.536  0.3501 -0.6473 -1.5231
   48MPD2    N1  756   0.047   2.578   9.591  0.7337  0.0374  0.4007
   48MPD2    H7  757   4.708   2.518   9.625  0.9094 -0.0828  0.5736
   49TMC2    C1  758   2.440   4.063  10.273  0.0832 -0.0648  0.4135
   49TMC2    C2  759   2.369   4.045  10.163  0.1094 -0.0640 -0.3011
   49TMC2    C3  760   2.308   3.922  10.150  0.0729 -0.1206 -0.0829
   49TMC2    C4  761   2.443   3.969  10.378 -0.3970 -0.2062 -0.0873
   49TMC2    C5  762   2.374   3.855  10.356  0.6386 -0.7394 -0.3972
   49TMC2    C6  763   2.304   3.823  10.241 -1.0465  0.7189  0.2069
   49TMC2     C  764   2.495   4.187  10.305 -0.4556 -0.2208 -0.7664
   49TMC2     O  765   2.568   4.237  10.220 -0.2721 -0.6672 -0.2786
   49TMC2     H  766   2.383   4.122  10.088 -1.5403 -1.3058 -1.8632
   49TMC2    H1  767   2.497   3.982  10.471  1.2119  0.4029 -1.0920
   49TMC2    H2  768   2.259   3.726  10.220 -0.2083  0.6385 -1.1994
   49TMC2    C7  769   2.353   3.760  10.470 -0.3216  0.4282 -0.2403
   49TMC2    C8  770   2.220   3.908  10.038  0.4462  0.1666  0.6539
   49TMC2    O1  771   2.252   3.692  10.459  0.8857  0.2071 -0.3534
   49TMC2    O2  772   2.128   3.833  10.026 -0.2862  0.1933 -0.3204
   49TMC2    O5  773   2.274   3.977   9.936  0.9032 -0.0862  0.4732
   49TMC2    H5  774   2.361   4.023   9.940 -0.0116  1.7449 -0.8335
   50MPD2     C  775   2.619   4.416  10.440  0.5309 -0.4031  0.7791
   50MPD2    C1  776   2.537   4.323  10.507  0.3634 -0.0360 -0.3739
   50MPD2    C2  777   2.505   4.329  10.638 -0.1538  0.2161 -0.1164
   50MPD2    C3  778   2.555   4.434  10.713 -0.1365 -0.3258  0.7526
   50MPD2    C4  779   2.640   4.525  10.646 -0.2393  0.5674  0.2756
   50MPD2    C5  780   2.669   4.522  10.513 -0.8578  0.8925 -0.5291
   50MPD2     H  781   2.461   4.245  10.690  0.3418  0.4320  0.6613
   50MPD2    H1  782   2.662   4.611  10.709 -1.8149  0.6065  0.7832
   50MPD2    H2  783   2.654   4.405  10.338 -2.9552 -0.4103 -0.4040
   50MPD2    H3  784   2.724   4.600  10.461 -1.3395  0.9329 -0.9823
   50MPD2     N  785   2.532   4.453  10.850  0.6242  0.2846  0.5617
   50MPD2    H5  786   2.589   4.526  10.892 -0.7508  0.8879  1.3762
   50MPD2    N1  787   2.471   4.220  10.438  0.5513  0.1132 -0.1678
   50MPD2    H7  788   2.408   4.162  10.493  0.4974 -0.7134 -1.0952
   51TMC2    C1  789   0.364   3.291   2.317 -1.0401  0.5825 -0.3226
   51TMC2    C2  790   0.405   3.263   2.444  0.3599 -0.2435  0.0192
   51TMC2    C3  791   0.386   3.352   2.546  0.3459  0.0110 -0.2033
   51TMC2    C4  792   0.319   3.416   2.280 -0.6758  0.1442 -0.1033
   51TMC2    C5  793   0.300   3.498   2.389  0.2160 -0.5526  0.0831
   51TMC2    C6  794   0.324   3.469   2.518 -0.4450  0.7247 -0.3619
   51TMC2     C  795   0.390   3.191   2.210 -0.6510 -0.6344 -0.9147
   51TMC2     O  796   0.325   3.207   2.108  0.3649  0.3619  0.8102
   51TMC2     H  797   0.460   3.171   2.459 -0.1751 -0.4171  0.8943
   51TMC2    H1  798   0.309   3.439   2.175  0.5436 -0.0170 -0.2564
   51TMC2    H2  799   0.287   3.525   2.604 -0.8466 -0.6516  0.3721
   51TMC2    C7  800   0.236   3.624   2.361 -0.1801 -0.2224 -0.7355
   51TMC2    C8  801   0.411   3.326   2.686  0.8383 -0.2722 -0.6558
   51TMC2    O1  802   0.149   3.630   2.280 -0.4453  0.1255 -0.8138
   51TMC2    O2  803   0.424   3.408   2.776  0.3371  0.4088  0.3838
   51TMC2    O5  804   0.447   3.197   2.697 -0.0489  0.1324 -0.5353
   51TMC2    H5  805   0.395   3.144   2.633  0.6415 -0.3436 -0.7024
   52MPD2     C  806   0.577   2.803   1.956  0.0218 -0.1034  0.1634
   52MPD2    C1  807   0.451   2.860   1.957  0.0216  0.0923  0.2509
   52MPD2    C2  808   0.410   2.950   2.060  0.0870  0.0062 -0.2185
   52MPD2    C3  809   0.507   2.986   2.160  0.8147 -0.2361  0.4749
   52MPD2    C4  810   0.626   2.922   2.159 -0.2158  1.1840  0.7131
   52MPD2    C5  811   0.659   2.824   2.065 -0.6368 -0.9595  0.5911
   52MPD2     H  812   0.313   2.997   2.049 -0.8362 -1.7486  0.4858
   52MPD2    H1  813   0.693   2.938   2.242 -0.6678  0.8130  1.1539
   52MPD2    H2  814   0.608   2.724   1.888  3.0510  0.4670  0.8855
   52MPD2    H3  815   0.753   2.772   2.081  1.8435  3.2444 -0.3846
   52MPD2     N  816   0.477   3.093   2.241  0.2400  0.1291  0.0892
   52MPD2    H5  817   0.534   3.100   2.325 -2.3798  1.3010  1.7801
   52MPD2    N1  818   0.350   2.838   1.862  0.5407 -0.3826  1.3049
   52MPD2    H7  819   0.260   2.876   1.888 -0.6463 -3.2359  1.2657
   53TMC2    C1  820   3.352   2.010  11.531  0.5882  0.5403 -0.1148
   53TMC2    C2  821   3.386   1.907  11.450  0.2358  0.2968  0.3208
   53TMC2    C3  822   3.433   1.799  11.518 -0.3262  0.2049 -0.0452
   53TMC2    C4  823   3.379   2.009  11.670 -0.0506  0.1370 -0.0777
   53TMC2    C5  824   3.417   1.897  11.729  0.2930 -0.2826  0.3354
   53TMC2    C6  825   3.450   1.784  11.655 -0.0251 -0.4281  0.3609
   53TMC2     C  826   3.267   2.108  11.484  0.0661 -0.0981  0.1701
   53TMC2     O  827   3.266   2.142  11.365  0.7179 -0.4888  0.0653
   53TMC2     H  828   3.358   1.907  11.345 -3.9566 -1.8808  1.4106
   53TMC2    H1  829   3.361   2.098  11.729 -1.3394 -1.3515  1.7876
   53TMC2    H2  830   3.457   1.687  11.703 -0.1494 -1.9779 -2.7968
   53TMC2    C7  831   3.363   1.884  11.866 -0.0843  0.2222  0.4303
   53TMC2    C8  832   3.474   1.687  11.435 -0.2727  0.0437  0.2606
   53TMC2    O1  833   3.271   1.961  11.884 -1.6940 -0.4698 -0.5388
   53TMC2    O2  834   3.503   1.580  11.486 -0.0232  0.1951 -0.8272
   53TMC2    O5  835   3.554   1.742  11.348 -0.2874  0.1194 -0.2286
   53TMC2    H5  836   3.516   1.828  11.319 -2.1597 -0.8904 -0.7104
   54MPD2     C  837   3.019   2.293  11.463  0.3297  0.9004 -0.2047
   54MPD2    C1  838   3.047   2.205  11.562 -0.1345  0.9036  0.4964
   54MPD2    C2  839   2.958   2.190  11.674  0.0001 -0.3803 -0.1622
   54MPD2    C3  840   2.831   2.250  11.677 -0.2602 -0.2028 -0.1894
   54MPD2    C4  841   2.804   2.334  11.572  0.2196  1.4283  0.2408
   54MPD2    C5  842   2.895   2.350  11.469  0.1694  0.2878 -0.2956
   54MPD2     H  843   2.995   2.125  11.753  0.9153  0.1388 -0.1637
   54MPD2    H1  844   2.711   2.386  11.553 -0.2681 -0.5730 -2.6939
   54MPD2    H2  845   3.085   2.306  11.378  2.3609 -0.4249  1.1503
   54MPD2    H3  846   2.855   2.418  11.395  1.3886  1.2845 -0.0179
   54MPD2     N  847   2.740   2.236  11.787  0.5837 -0.2943  0.3461
   54MPD2    H5  848   2.646   2.274  11.791  0.5246 -0.2854 -1.0049
   54MPD2    N1  849   3.168   2.128  11.572  0.8663 -0.0569 -0.0053
   54MPD2    H7  850   3.177   2.075  11.658 -1.0317  1.1627  0.9411
   55TMC2    C1  851   0.118   0.160   0.204  0.2487 -0.4078 -0.4544
   55TMC2    C2  852   0.091   0.084   0.092 -0.1496  0.3444  0.2680
   55TMC2    C3  853   0.069   4.685   0.114 -0.0981 -0.0377  0.7903
   55TMC2    C4  854   0.138   0.101   0.327 -0.4019 -0.4652  0.5350
   55TMC2    C5  855   0.117   4.702   0.340  0.3885  0.2105  0.1071
   55TMC2    C6  856   0.092   4.621   0.233  0.3702 -0.6945 -0.8832
   55TMC2     C  857   0.123   0.307   0.201  0.8462 -0.0806 -0.2311
   55TMC2     O  858   0.119   0.369   0.302  0.4127  0.5465 -0.7749
   55TMC2     H  859   0.065   0.129  17.738 -2.0502  0.0821  0.6690
   55TMC2    H1  860   0.169   0.158   0.414  0.7017 -1.2808  0.6736
   55TMC2    H2  861   0.065   4.519   0.257  1.5407 -0.7323  0.2558
   55TMC2    C7  862   0.103   4.647   0.473  0.0774  0.6881  0.2290
   55TMC2    C8  863   0.029   4.593   0.005  0.3752  0.4232 -0.0574
   55TMC2    O1  864   0.101   4.524   0.483  0.7943 -0.4937 -0.6529
   55TMC2    O2  865   0.037   4.473   0.024  0.5487 -0.4687  0.0409
   55TMC2    O5  866   4.676   4.664  17.676  0.2458 -0.0784  0.3793
   55TMC2    H5  867   4.644   0.011  17.718  0.1034  0.1162 -0.1127
   56MPD2     C  868   0.077   0.523  17.651 -0.0702 -0.5440 -0.6502
   56MPD2    C1  869   0.068   0.482   0.037  0.0227  0.2827  0.2354
   56MPD2    C2  870   0.003   0.564   0.126 -0.1716 -0.5823 -0.1301
   56MPD2    C3  871   4.681   0.683   0.088  0.5914  0.1759  0.7577
   56MPD2    C4  872   4.682   0.719  17.698 -0.1268  0.0179 -0.0071
   56MPD2    C5  873   0.011   0.640  17.611  0.6982  0.0559 -0.2141
   56MPD2     H  874   4.720   0.533   0.228  0.0161 -0.8423 -0.1750
   56MPD2    H1  875   4.629   0.810  17.669  1.5569  0.3790 -1.9482
   56MPD2    H2  876   0.127   0.468  17.573 -1.6623 -1.0157 -1.3401
   56MPD2    H3  877   0.018   0.673  17.508  1.6930  0.3452 -0.0557
   56MPD2     N  878   4.607   0.758   0.186 -0.0394 -0.6038 -0.4913
   56MPD2    H5  879   4.594   0.716   0.277 -1.3932  1.9288  0.4722
   56MPD2    N1  880   0.127   0.361   0.073  0.5770 -1.0182 -0.0014
   56MPD2    H7  881   0.164   0.307  17.736 -0.3506 -2.6890  0.7251
   57TMC2    C1  882   3.856   4.735  13.790  0.7861  0.4166  0.4685
   57TMC2    C2  883   3.802   4.611  13.775  0.0972  0.9973 -0.0645
   57TMC2    C3  884   3.884   4.529  13.707  0.6443  0.3829 -0.6032
   57TMC2    C4  885   3.973   0.050  13.734  0.0513  0.7769  0.4478
   57TMC2    C5  886   4.052   4.690  13.680  0.7558 -0.4579  0.3565
   57TMC2    C6  887   4.012   4.561  13.673  0.6636  0.6340 -0.2522
   57TMC2     C  888   3.771   0.100  13.848 -0.4016 -0.5042  0.5729
   57TMC2     O  889   3.820   0.216  13.860 -0.0557  0.0747 -0.1168
   57TMC2     H  890   3.715   4.574  13.828 -0.1496 -0.0969 -1.2525
   57TMC2    H1  891   4.019   0.142  13.768 -2.1103  0.9956  2.7884
   57TMC2    H2  892   4.065   4.492  13.609 -2.8943 -1.1132 -1.3437
   57TMC2    C7  893   4.177   0.002  13.629  0.4014  0.3344 -0.4426
   57TMC2    C8  894   3.828   4.413  13.652  0.0849 -0.4274  0.6586
   57TMC2    O1  895   4.199   0.123  13.630  0.1288 -0.0925  0.1771
   57TMC2    O2  896   3.899   4.319  13.627  0.2411 -0.4002  0.1135
   57TMC2    O5  897   3.701   4.434  13.607  0.1558  0.1769 -0.6678
   57TMC2    H5  898   3.650   4.515  13.630  0.6299  0.2136  0.2446
   58MPD2     C  899   3.309   0.270  14.020  0.3346  0.3861  0.0797
   58MPD2    C1  900   3.422   0.339  13.977 -0.1711  0.1984 -0.9899
   58MPD2    C2  901   3.535   0.267  13.940  0.0623 -0.0259  0.6256
   58MPD2    C3  902   3.534   0.127  13.935  0.9744  0.4139  0.3871
   58MPD2    C4  903   3.418   0.064  13.973 -0.7153  0.1514 -0.0976
   58MPD2    C5  904   3.312   0.135  14.025  0.1253  0.2618 -0.0803
   58MPD2     H  905   3.618   0.328  13.905 -0.1303 -0.8162 -1.2263
   58MPD2    H1  906   3.423   4.692  13.986  1.0805 -0.0530 -2.4440
   58MPD2    H2  907   3.221   0.317  14.062  0.4647 -0.7708  1.6380
   58MPD2    H3  908   3.228   0.081  14.069  0.7693  0.0104  0.8325
   58MPD2     N  909   3.650   0.052  13.893 -0.3918  0.5192 -0.2903
   58MPD2    H5  910   3.644   4.687  13.902 -2.2034  0.7458  1.1008
   58MPD2    N1  911   3.425   0.479  13.965  0.1692 -0.4047  1.2816
   58MPD2    H7  912   3.515   0.523  13.947  0.0458 -0.7745 -0.2064
   59TMC2    C1  913   1.456   0.460  12.945  0.1057  0.5218 -0.3674
   59TMC2    C2  914   1.587   0.489  12.904 -0.1539  0.2192  0.2713
   59TMC2    C3  915   1.604   0.503  12.768  0.2933  0.0282 -0.1211
   59TMC2    C4  916   1.352   0.457  12.853 -0.0620  0.2689 -0.6178
   59TMC2    C5  917   1.377   0.464  12.716 -0.0402  0.1666  0.6764
   59TMC2    C6  918   1.506   0.497  12.674 -1.3315 -0.1773 -0.8259
   59TMC2     C  919   1.423   0.473  13.084  0.0230 -0.1906  0.3202
   59TMC2     O  920   1.321   0.420  13.130  0.1946  0.3651 -0.1364
   59TMC2     H  921   1.664   0.499  12.980  2.6652 -0.5626 -2.5172
   59TMC2    H1  922   1.250   0.461  12.889 -0.5818 -2.5660 -1.8038
   59TMC2    H2  923   1.536   0.513  12.571  1.2120  1.0162  0.0953
   59TMC2    C7  924   1.262   0.458  12.627  0.0517 -0.5504 -0.6291
   59TMC2    C8  925   1.732   0.534  12.717  0.2590  0.4731  0.1871
   59TMC2    O1  926   1.162   0.402  12.665  0.4051  0.0687 -0.1957
   59TMC2    O2  927   1.752   0.568  12.600  0.0840 -0.3418 -0.0070
   59TMC2    O5  928   1.832   0.479  12.796  0.5186 -0.5096 -0.1938
   59TMC2    H5  929   1.794   0.428  12.870  0.2227  0.9562  0.6837
   60MPD2     C  930   1.390   0.556  13.379  0.7223 -0.5866  0.0426
   60MPD2    C1  931   1.489   0.596  13.294  0.7475  0.1250  0.1388
   60MPD2    C2  932   1.594   0.675  13.339  0.4968 -0.2010  0.0868
   60MPD2    C3  933   1.598   0.720  13.469 -0.0556  1.1417 -0.0993
   60MPD2    C4  934   1.498   0.687  13.552  0.2038 -0.1704 -0.5705
   60MPD2    C5  935   1.395   0.601  13.512 -0.0552  0.9099 -0.1218
   60MPD2     H  936   1.674   0.697  13.269  0.1323  0.0458 -0.2516
   60MPD2    H1  937   1.500   0.715  13.657 -0.7390  0.7977 -0.8077
   60MPD2    H2  938   1.308   0.495  13.342  0.1178 -0.1334  0.6235
   60MPD2    H3  939   1.319   0.571  13.584  1.0441 -1.5222  0.0240
   60MPD2     N  940   1.696   0.813  13.516  0.2525  0.8096  0.2942
   60MPD2    H5  941   1.681   0.856  13.606  1.8346 -0.9686  1.4182
   60MPD2    N1  942   1.505   0.563  13.154 -0.5666 -0.3576  0.4879
   60MPD2    H7  943   1.578   0.617  13.109  0.5126  0.3191  3.0861
   61TMC2    C1  944   0.985   1.983  15.124  0.1077  0.3685  0.7130
   61TMC2    C2  945   0.966   1.873  15.205 -0.4663 -0.2163 -0.3975
   61TMC2    C3  946   0.958   1.892  15.344 -0.8451 -0.0643  0.0050
   61TMC2    C4  947   0.976   2.112  15.178 -0.1745 -0.9010 -0.3584
   61TMC2    C5  948   0.971   2.126  15.319 -0.1361 -0.3163  0.3777
   61TMC2    C6  949   0.959   2.020  15.404 -0.1568 -0.1551  0.3389
   61TMC2     C  950   1.010   1.955  14.981  0.5311  0.5826  0.3487
   61TMC2     O  951   1.018   1.836  14.950  0.5582 -0.0195  0.7959
   61TMC2     H  952   0.975   1.770  15.173 -1.7514  0.3116 -2.5193
   61TMC2    H1  953   0.983   2.197  15.111  1.2752 -0.7200  0.0197
   61TMC2    H2  954   0.956   2.034  15.511 -1.7531  1.4472  0.1053
   61TMC2    C7  955   0.962   2.260  15.372  0.7466  0.0132  0.4772
   61TMC2    C8  956   0.971   1.787  15.443 -0.3526  0.2341  0.1866
   61TMC2    O1  957   0.923   2.347  15.300  0.1020  0.0541 -0.2855
   61TMC2    O2  958   1.003   1.808  15.560 -0.3469 -0.6954 -0.0843
   61TMC2    O5  959   0.889   1.682  15.409 -0.4248  0.2472 -0.6915
   61TMC2    H5  960   0.859   1.678  15.315 -1.1862  0.4611 -0.4580
   62MPD2     C  961   1.016   1.962  14.687  0.8887 -0.5508  0.1916
   62MPD2    C1  962   1.031   2.071  14.767 -0.3399  0.1955  0.1267
   62MPD2    C2  963   1.053   2.189  14.706  0.8581  0.4730 -0.7695
   62MPD2    C3  964   1.057   2.206  14.570 -0.6986  0.2239  0.0397
   62MPD2    C4  965   1.038   2.100  14.485 -0.3214 -0.5270 -0.1067
   62MPD2    C5  966   1.021   1.979  14.547 -0.3760 -0.5427  0.3013
   62MPD2     H  967   1.064   2.277  14.769  0.8647 -0.2720  0.2547
   62MPD2    H1  968   1.033   2.104  14.376 -0.3329  2.5718  0.0026
   62MPD2    H2  969   1.015   1.858  14.717 -2.5590 -0.5679  0.0461
   62MPD2    H3  970   1.016   1.888  14.487  1.9785  0.2869 -1.1579
   62MPD2     N  971   1.065   2.337  14.516 -0.5106  0.2802  0.1805
   62MPD2    H5  972   1.070   2.411  14.585 -1.2898  0.2752  0.2417
   62MPD2    N1  973   1.012   2.072  14.908 -0.3030  0.1800 -0.5328
   62MPD2    H7  974   1.018   2.160  14.957 -0.2471 -1.3556  2.2671
   63TMC2    C1  975   0.332   2.165  10.183 -0.7373  0.4394 -0.0887
   63TMC2    C2  976   0.438   2.109  10.248  0.4221 -0.4266 -0.3863
   63TMC2    C3  977   0.547   2.186  10.282  0.2312 -0.4284  0.5963
   63TMC2    C4  978   0.336   2.298  10.150 -0.6717  0.1535 -0.3617
   63TMC2    C5  979   0.442   2.374  10.191  0.0519 -0.2452  0.9285
   63TMC2    C6  980   0.554   2.316  10.254 -0.1006  0.7780 -0.5921
   63TMC2     C  981   0.204   2.098  10.163  0.6773 -0.1958 -0.3544
   63TMC2     O  982   0.117   2.157  10.098  0.5057 -0.9819 -0.2583
   63TMC2     H  983   0.432   2.018  10.306 -0.2363  0.2941  0.6788
   63TMC2    H1  984   0.248   2.348  10.112 -1.2951  1.3609  2.7103
   63TMC2    H2  985   0.653   2.361  10.259 -0.5561  1.5241  1.8745
   63TMC2    C7  986   0.437   2.519  10.170 -0.6419  0.8080  0.0466
   63TMC2    C8  987   0.659   2.126  10.367 -0.0012  0.3283  0.0291
   63TMC2    O1  988   0.363   2.560  10.085 -0.6584  0.2832  0.0991
   63TMC2    O2  989   0.680   2.006  10.378 -0.5211  0.4935 -0.1103
   63TMC2    O5  990   0.690   2.215  10.463 -0.2790 -0.0058 -0.4311
   63TMC2    H5  991   0.647   2.303  10.460  1.3177  0.7532 -1.3299
   64MPD2     C  992   4.660   1.656  10.205  0.3597 -0.3040 -0.8514
   64MPD2    C1  993   0.046   1.651  10.279  0.0523  0.4983 -0.4036
   64MPD2    C2  994   0.126   1.761  10.286 -0.3994 -0.3824  0.1164
   64MPD2    C3  995   0.102   1.873  10.207 -0.0661  0.5685 -0.4451
   64MPD2    C4  996   4.720   1.876  10.138 -0.1287  0.6408  0.7385
   64MPD2    C5  997   4.631   1.775  10.136  0.8273 -0.7734  0.4375
   64MPD2     H  998   0.218   1.757  10.343 -0.3768  0.3993  0.1264
   64MPD2    H1  999   4.684   1.963  10.083 -0.2523 -0.6102 -1.1519
   64MPD2    H2 1000   4.599   1.568  10.189 -0.7422  0.3339 -0.1834
   64MPD2    H3 1001   4.541   1.785  10.077 -0.6128 -0.6277  2.6684
   64MPD2     N 1002   0.200   1.973  10.222  0.1335 -0.2798  0.5153
   64MPD2    H5 1003   0.276   1.956  10.287  0.1692  2.9026  1.3056
   64MPD2    N1 1004   0.100   1.530  10.331 -0.5626 -0.2260  0.1868
   64MPD2    H7 1005   0.192   1.527  10.375 -0.5559 -0.0789  0.1843
   65TMC2    C1 1006   1.826   2.281  15.657 -0.0591 -0.3376  0.4962
   65TMC2    C2 1007   1.794   2.251  15.525  0.2856  0.0818 -0.3793
   65TMC2    C3 1008   1.850   2.337  15.434  0.4396  0.0354 -0.1337
   65TMC2    C4 1009   1.882   2.394  15.706  0.1741  0.2523 -0.0387
   65TMC2    C5 1010   1.932   2.475  15.610  1.2035  0.8533 -0.2087
   65TMC2    C6 1011   1.911   2.453  15.477  0.6551  0.3473  0.5302
   65TMC2     C 1012   1.805   2.184  15.759 -0.3128  0.3080 -0.1224
   65TMC2     O 1013   1.885   2.188  15.852 -0.0545  0.3350  0.4118
   65TMC2     H 1014   1.765   2.148  15.508  1.0553 -0.1859 -0.1033
   65TMC2    H1 1015   1.885   2.397  15.814  0.2121 -0.4086 -0.0261
   65TMC2    H2 1016   1.946   2.532  15.411  1.3360 -1.6103 -1.4732
   65TMC2    C7 1017   1.931   2.620  15.640  0.4388 -0.4891 -0.4147
   65TMC2    C8 1018   1.819   2.312  15.293  0.1946  0.5904  0.5141
   65TMC2    O1 1019   1.997   2.692  15.571  0.7549  0.4113 -0.2603
   65TMC2    O2 1020   1.794   2.199  15.260  0.5514  0.1469  0.1900
   65TMC2    O5 1021   1.788   2.428  15.232  0.3787 -0.2226  0.0228
   65TMC2    H5 1022   1.802   2.505  15.290 -0.5287 -0.3669  0.4283
   66MPD2     C 1023   1.726   1.940  15.903 -0.7071  0.1470 -0.0648
   66MPD2    C1 1024   1.658   1.983  15.794  0.3225  0.0563 -0.2486
   66MPD2    C2 1025   1.548   1.910  15.749  0.5917 -0.2458  0.3582
   66MPD2    C3 1026   1.507   1.791  15.808 -0.1543  0.2421  0.3496
   66MPD2    C4 1027   1.582   1.749  15.910  0.2771 -0.0446 -0.7178
   66MPD2    C5 1028   1.686   1.827  15.961  0.0671 -0.2039  0.1320
   66MPD2     H 1029   1.492   1.943  15.662 -1.7803  1.0968  2.4071
   66MPD2    H1 1030   1.543   1.657  15.952 -0.2065  0.6777  0.4287
   66MPD2    H2 1031   1.796   2.005  15.955 -1.7335  0.4782  0.9217
   66MPD2    H3 1032   1.711   1.799  16.062 -5.2723  0.4797  1.5997
   66MPD2     N 1033   1.410   1.708  15.749  0.0714 -0.8493 -0.3738
   66MPD2    H5 1034   1.396   1.623  15.803  1.3886  0.1027  1.4564
   66MPD2    N1 1035   1.693   2.109  15.733 -0.4652 -0.6873  0.2484
   66MPD2    H7 1036   1.629   2.129  15.657  2.3532  1.3300 -1.5678
   67TMC2    C1 1037   1.786   1.131  14.433  0.0501  0.4204 -0.3594
   67TMC2    C2 1038   1.701   1.244  14.426 -0.7466  0.1270 -0.0759
   67TMC2    C3 1039   1.737   1.357  14.492  0.1565  0.0202  0.5300
   67TMC2    C4 1040   1.899   1.137  14.513 -0.4356  0.9282 -0.2434
   67TMC2    C5 1041   1.929   1.256  14.576  0.1025 -0.6360  0.2844
   67TMC2    C6 1042   1.861   1.367  14.557  0.2876  0.4840  0.1232
   67TMC2     C 1043   1.756   1.004  14.370 -0.2059  0.3030  0.1007
   67TMC2     O 1044   1.832   0.907  14.373  0.0879  0.0402 -1.1814
   67TMC2     H 1045   1.618   1.251  14.357 -0.0464  2.0439 -0.7283
   67TMC2    H1 1046   1.965   1.051  14.521  0.3203  1.4950 -0.3694
   67TMC2    H2 1047   1.892   1.464  14.595 -0.1590  0.7803 -0.2544
   67TMC2    C7 1048   2.033   1.252  14.681  0.0211  0.1209  0.8812
   67TMC2    C8 1049   1.672   1.484  14.462 -0.1241 -0.0520 -0.2705
   67TMC2    O1 1050   2.124   1.180  14.646 -0.0707 -0.0396 -0.1599
   67TMC2    O2 1051   1.629   1.518  14.355 -0.0595 -0.0016 -0.7680
   67TMC2    O5 1052   1.651   1.537  14.585  0.4213 -0.2164  0.0139
   67TMC2    H5 1053   1.699   1.488  14.656 -1.9757 -0.5448  1.4099
   68MPD2     C 1054   1.634   0.791  14.211  0.4625 -0.5067  0.0903
   68MPD2    C1 1055   1.563   0.903  14.258 -0.0520  0.3398 -0.2542
   68MPD2    C2 1056   1.426   0.910  14.251  0.2105 -0.2032  0.1525
   68MPD2    C3 1057   1.357   0.811  14.185 -0.4371  0.9329 -0.7550
   68MPD2    C4 1058   1.424   0.699  14.132 -0.3562  0.2175  0.0234
   68MPD2    C5 1059   1.565   0.692  14.154  0.4582  0.4935  0.6146
   68MPD2     H 1060   1.380   1.002  14.286 -2.8000 -2.7450  2.8454
   68MPD2    H1 1061   1.378   0.626  14.067  0.1955 -0.7774  0.7487
   68MPD2    H2 1062   1.742   0.787  14.221  0.3562 -4.3148 -0.5577
   68MPD2    H3 1063   1.615   0.600  14.126 -0.6939  0.8069 -2.5167
   68MPD2     N 1064   1.221   0.827  14.153 -0.1601  0.5459 -0.6218
   68MPD2    H5 1065   1.172   0.757  14.099 -3.4667  2.1405  0.2876
   68MPD2    N1 1066   1.625   1.010  14.333 -0.0628 -0.2754 -0.1872
   68MPD2    H7 1067   1.564   1.079  14.376 -2.2237 -0.7099 -2.5441
   69TMC2    C1 1068   3.670   2.173  12.434 -0.0123 -0.5391  0.0987
   69TMC2    C2 1069   3.582   2.279  12.437  0.3795 -0.4403 -0.4256
   69TMC2    C3 1070   3.546   2.324  12.314 -0.2754 -0.4812 -0.0842
   69TMC2    C4 1071   3.709   2.115  12.319  0.0293 -0.1022 -0.1988
   69TMC2    C5 1072   3.659   2.150  12.200 -0.5424 -0.4180  0.0968
   69TMC2    C6 1073   3.575   2.256  12.191 -0.8141 -0.0690  0.4251
   69TMC2     C 1074   3.678   2.099  12.557  0.6794  0.5954  0.1388
   69TMC2     O 1075   3.616   2.154  12.649 -0.5964  0.0816 -0.5433
   69TMC2     H 1076   3.553   2.331  12.528 -4.7072 -0.9584 -1.7636
   69TMC2    H1 1077   3.764   2.022  12.323 -2.3026 -1.3945  1.7737
   69TMC2    H2 1078   3.525   2.283  12.098 -0.1361 -2.6879 -0.6979
   69TMC2    C7 1079   3.713   2.077  12.080 -0.4332  0.7540  0.1762
   69TMC2    C8 1080   3.432   2.418  12.317 -0.3301 -0.3023 -0.1511
   69TMC2    O1 1081   3.767   1.969  12.104 -0.3203 -0.6547 -0.2509
   69TMC2    O2 1082   3.344   2.419  12.231 -0.0416  0.3396  0.1758
   69TMC2    O5 1083   3.464   2.525  12.393 -0.1459  0.6837  0.8370
   69TMC2    H5 1084   3.549   2.525  12.440 -0.1470 -1.0687  0.8448
   70MPD2     C 1085   3.933   1.875  12.675 -0.3776  0.3526 -0.1057
   70MPD2    C1 1086   3.813   1.934  12.673  0.9300  0.1092  0.3578
   70MPD2    C2 1087   3.732   1.919  12.779 -0.1479 -0.0330  0.3898
   70MPD2    C3 1088   3.778   1.845  12.888  0.1347  0.4553  0.4216
   70MPD2    C4 1089   3.903   1.800  12.895  0.6520  0.0130  0.2545
   70MPD2    C5 1090   3.976   1.809  12.786 -0.4638  0.0451  0.5995
   70MPD2     H 1091   3.628   1.949  12.778  0.1358  0.9170 -1.1621
   70MPD2    H1 1092   3.940   1.743  12.980  1.6746  2.5889  1.5296
   70MPD2    H2 1093   3.994   1.887  12.586 -0.2837 -1.3183 -0.2819
   70MPD2    H3 1094   4.077   1.772  12.802  0.4527  2.0211 -0.6623
   70MPD2     N 1095   3.696   1.817  13.002  0.0446 -0.5282 -0.0963
   70MPD2    H5 1096   3.737   1.758  13.073 -2.5321 -0.7004  1.2463
   70MPD2    N1 1097   3.780   2.007  12.556  0.4524 -0.0077  0.3876
   70MPD2    H7 1098   3.836   1.996  12.473  0.8976 -0.0491  0.6901
   71TMC2    C1 1099   1.530   3.267   1.528  1.0601 -0.6801  0.4320
   71TMC2    C2 1100   1.666   3.289   1.525 -0.0671 -0.5775 -0.3893
   71TMC2    C3 1101   1.730   3.293   1.645  0.5412 -0.7099  0.2127
   71TMC2    C4 1102   1.458   3.262   1.640 -0.0559  0.0091 -0.7155
   71TMC2    C5 1103   1.522   3.254   1.757 -0.2432  0.4216  0.3386
   71TMC2    C6 1104   1.660   3.280   1.765  0.0505 -0.1327  0.2927
   71TMC2     C 1105   1.460   3.245   1.406 -0.4497 -0.0854 -0.5542
   71TMC2     O 1106   1.348   3.293   1.397 -0.2194  0.4934 -0.8241
   71TMC2     H 1107   1.724   3.288   1.433  0.0298  1.4591 -0.3388
   71TMC2    H1 1108   1.350   3.256   1.628 -0.1075 -0.0234 -0.2315
   71TMC2    H2 1109   1.713   3.275   1.859  1.0543  1.0923 -0.2076
   71TMC2    C7 1110   1.465   3.224   1.884 -0.6885  0.3389  0.5690
   71TMC2    C8 1111   1.876   3.306   1.648  0.3705  0.3114 -0.1565
   71TMC2    O1 1112   1.531   3.210   1.988 -0.3509 -0.4369 -0.0773
   71TMC2    O2 1113   1.937   3.260   1.747  0.6262  0.3199  0.0035
   71TMC2    O5 1114   1.925   3.330   1.525 -0.2503 -0.2226 -0.2430
   71TMC2    H5 1115   2.022   3.318   1.521 -0.2351  0.6126 -1.9612
   72MPD2     C 1116   1.430   3.047   0.934  0.0849 -0.0791 -0.4545
   72MPD2    C1 1117   1.331   3.106   1.011 -0.5133 -1.0965  0.0468
   72MPD2    C2 1118   1.364   3.128   1.144  0.2027  0.0125 -0.1092
   72MPD2    C3 1119   1.494   3.123   1.187  1.0491 -0.4825  0.2543
   72MPD2    C4 1120   1.587   3.059   1.108 -1.0297 -0.2492  0.2375
   72MPD2    C5 1121   1.554   3.020   0.982  0.9732 -0.4070 -0.0817
   72MPD2     H 1122   1.291   3.158   1.218 -0.1466 -2.4812  0.5407
   72MPD2    H1 1123   1.687   3.034   1.139 -1.5067 -0.9152  1.2663
   72MPD2    H2 1124   1.396   3.028   0.833 -1.0703 -0.9214  0.0906
   72MPD2    H3 1125   1.631   2.976   0.920  1.2466  2.0791 -1.5211
   72MPD2     N 1126   1.530   3.164   1.318  0.1519  0.6057 -0.2408
   72MPD2    H5 1127   1.626   3.150   1.348 -0.2251 -0.8814  0.2823
   72MPD2    N1 1128   1.209   3.131   0.947  0.7985 -0.3136 -0.1756
   72MPD2    H7 1129   1.207   3.089   0.854  0.9447 -0.0798 -0.2847
   73TMC2    C1 1130   0.837   4.491  14.434 -0.4281  0.1638 -0.1382
   73TMC2    C2 1131   0.771   4.598  14.490 -0.0736 -0.5312  0.4629
   73TMC2    C3 1132   0.823   4.637  14.608  0.4619  0.0505  0.6776
   73TMC2    C4 1133   0.941   4.421  14.494  0.2600  0.4086  0.5570
   73TMC2    C5 1134   0.994   4.471  14.609 -0.2639 -0.2848 -0.1952
   73TMC2    C6 1135   0.932   4.579  14.671  0.0790  0.3880  0.1611
   73TMC2     C 1136   0.863   4.518  14.298  0.2190  0.0294  0.3557
   73TMC2     O 1137   0.980   4.511  14.268  0.8674  0.7472  0.0958
   73TMC2     H 1138   0.681   4.648  14.455  0.7367  0.2507 -0.5140
   73TMC2    H1 1139   0.994   4.345  14.438  1.5460  2.5953 -1.1943
   73TMC2    H2 1140   0.987   4.636  14.745 -2.1162  2.4669  0.1941
   73TMC2    C7 1141   1.137   4.493  14.595  0.6441 -0.7447 -0.5439
   73TMC2    C8 1142   0.762   0.016  14.670 -0.2820  0.4421  0.0124
   73TMC2    O1 1143   1.198   4.500  14.698  0.3181 -0.2311 -0.5116
   73TMC2    O2 1144   0.644   0.041  14.657 -0.3126 -0.2230 -0.1086
   73TMC2    O5 1145   0.860   0.110  14.687  0.2047  0.1501  0.2161
   73TMC2    H5 1146   0.950   0.069  14.688  0.4373  0.6600 -0.0433
   74MPD2     C 1147   0.724   0.040  13.875  0.2869 -0.1296 -0.2824
   74MPD2    C1 1148   0.844   0.041  13.944  0.0789 -0.3641 -0.8490
   74MPD2    C2 1149   0.856   4.689  14.054  0.8205 -0.3584 -0.7689
   74MPD2    C3 1150   0.749   4.627  14.106  0.5168  0.6963  0.2010
   74MPD2    C4 1151   0.629   4.644  14.047  0.1773  0.1577  1.0509
   74MPD2    C5 1152   0.617   4.713  13.935 -0.3113 -0.4252  0.4777
   74MPD2     H 1153   0.952   4.676  14.104 -0.0118 -0.0237  0.9028
   74MPD2    H1 1154   0.538   4.611  14.096  0.3708  1.5918  2.3637
   74MPD2    H2 1155   0.701   0.103  13.790 -2.4687  0.7248  1.0793
   74MPD2    H3 1156   0.519   4.735  13.893 -0.1289 -2.7434 -1.1657
   74MPD2     N 1157   0.750   4.555  14.225  0.4025  0.1520  1.0827
   74MPD2    H5 1158   0.664   4.532  14.274 -0.8848 -0.1806 -1.3407
   74MPD2    N1 1159   0.945   0.119  13.895  0.1152 -0.6658 -0.0377
   74MPD2    H7 1160   0.926   0.173  13.812  0.2695 -0.7060 -0.0988
   75TMC2    C1 1161   1.004   0.870  14.208 -0.1486  0.2666 -0.3886
   75TMC2    C2 1162   0.925   0.891  14.316  1.1601  0.8339  0.3569
   75TMC2    C3 1163   0.795   0.920  14.301 -0.3885 -0.2241 -0.0319
   75TMC2    C4 1164   0.959   0.873  14.084 -0.3190  0.0559  0.4384
   75TMC2    C5 1165   0.823   0.891  14.076  0.9856  0.0339 -0.2085
   75TMC2    C6 1166   0.744   0.915  14.181  0.3079  0.1615 -0.1819
   75TMC2     C 1167   1.142   0.906  14.233  0.4456 -0.3825 -0.6097
   75TMC2     O 1168   1.162   0.975  14.334  0.3085 -0.1214 -1.1124
   75TMC2     H 1169   0.970   0.887  14.414 -0.7286 -1.1686  1.1660
   75TMC2    H1 1170   1.026   0.876  13.999  0.7872  2.5573  1.4107
   75TMC2    H2 1171   0.642   0.947  14.168  0.6653  1.1312 -0.6312
   75TMC2    C7 1172   0.777   0.938  13.941 -0.6964 -0.3749 -0.5374
   75TMC2    C8 1173   0.718   0.945  14.423  0.1653  0.3519 -0.2730
   75TMC2    O1 1174   0.836   0.908  13.841 -0.0008 -0.7117 -0.4311
   75TMC2    O2 1175   0.771   0.974  14.530 -0.0080  0.0759 -0.5561
   75TMC2    O5 1176   0.588   0.899  14.409 -0.1119 -0.6576 -0.6389
   75TMC2    H5 1177   0.550   0.883  14.320  0.4265  1.0129 -1.1773
   76TMC2    C1 1178   4.338   1.074  12.402  0.0895  0.3392  0.9079
   76TMC2    C2 1179   4.214   1.034  12.446  0.0214 -0.6634  0.3218
   76TMC2    C3 1180   4.211   0.925  12.528  0.2160  0.5094  1.1649
   76TMC2    C4 1181   4.446   0.997  12.414  0.3830  1.3225 -0.6814
   76TMC2    C5 1182   4.437   0.897  12.497  0.1086  0.7829 -0.0550
   76TMC2    C6 1183   4.324   0.855  12.553 -0.4409 -0.5848 -0.2690
   76TMC2     C 1184   4.334   1.160  12.292 -0.2105  0.1306  0.0798
   76TMC2     O 1185   4.229   1.155  12.229  0.3947 -0.2067 -0.7708
   76TMC2     H 1186   4.129   1.101  12.440  0.2448 -0.2900  1.3245
   76TMC2    H1 1187   4.542   1.024  12.371  0.1439  2.5277 -0.4623
   76TMC2    H2 1188   4.330   0.769  12.620  1.3960  0.8387  1.3767
   76TMC2    C7 1189   4.558   0.828  12.520  0.0127  0.2706 -0.2193
   76TMC2    C8 1190   4.084   0.910  12.603  0.3951 -0.1910 -0.2877
   76TMC2    O1 1191   4.548   0.715  12.567 -0.1603 -0.5019 -0.1531
   76TMC2    O2 1192   3.982   0.968  12.569  0.7096  0.1080 -0.5834
   76TMC2    O5 1193   4.084   0.814  12.689  0.3657 -0.1411  0.3395
   76TMC2    H5 1194   4.170   0.776  12.718  0.0449  1.1283  2.9757
   77MPD2     C 1195   4.505   1.569  12.056  0.1212 -0.4676 -0.5297
   77MPD2    C1 1196   4.397   1.489  12.027 -0.1231  0.3097 -0.3946
   77MPD2    C2 1197   4.378   1.372  12.092  0.0783 -0.3516  1.3867
   77MPD2    C3 1198   4.469   1.333  12.193  0.6761  1.1027  0.0821
   77MPD2    C4 1199   4.577   1.415  12.218 -0.2284  0.1255  0.5874
   77MPD2    C5 1200   4.592   1.535  12.149  0.1238  0.0513 -0.5235
   77MPD2     H 1201   4.298   1.307  12.058  1.7165 -1.4398 -0.4618
   77MPD2    H1 1202   4.653   1.392  12.291  2.1509  0.9890 -1.6200
   77MPD2    H2 1203   4.514   1.670  12.020 -1.4675 -0.5432 -1.1127
   77MPD2    H3 1204   4.677   1.602  12.161 -0.0214  0.2670 -0.7117
   77MPD2     N 1205   4.442   1.233  12.290 -0.4052 -0.2760  0.8384
   77MPD2    H5 1206   4.515   1.211  12.356 -1.0298  1.7908  2.2212
   77MPD2    N1 1207   4.325   1.524  11.906  0.8883 -0.6326  0.3968
   77MPD2    H7 1208   4.235   1.482  11.886  1.7300 -2.3461  0.1175
   78TMC2    C1 1209   1.132   2.833   2.023 -0.5621 -0.3205 -0.0194
   78TMC2    C2 1210   1.029   2.814   1.935  0.6751  0.1979 -0.0936
   78TMC2    C3 1211   1.060   2.820   1.799 -0.3438  0.4381  0.8623
   78TMC2    C4 1212   1.254   2.871   1.981 -0.1678 -0.1106 -0.5669
   78TMC2    C5 1213   1.277   2.873   1.848  0.2056 -0.5574 -0.2548
   78TMC2    C6 1214   1.187   2.843   1.749  0.1349  0.1205 -0.3600
   78TMC2     C 1215   1.095   2.855   2.157 -0.2398 -0.7351  0.3748
   78TMC2     O 1216   0.975   2.869   2.169 -0.4172  0.2733 -0.2054
   78TMC2     H 1217   0.923   2.804   1.957  1.0780 -0.3702  1.5696
   78TMC2    H1 1218   1.335   2.915   2.038 -2.3160  1.5334  1.2048
   78TMC2    H2 1219   1.214   2.824   1.646  0.1269  0.2965 -0.3942
   78TMC2    C7 1220   1.415   2.884   1.799 -0.0505 -0.5389  0.4694
   78TMC2    C8 1221   0.957   2.770   1.707 -0.2008 -0.2546  0.3169
   78TMC2    O1 1222   1.433   2.910   1.680 -0.2688 -0.1389 -0.1073
   78TMC2    O2 1223   0.879   2.681   1.741 -0.5020 -0.9866  0.2463
   78TMC2    O5 1224   0.959   2.846   1.605  0.4038 -0.4700  0.4194
   78TMC2    H5 1225   1.024   2.918   1.617 -1.8236  1.7015 -0.3638
   79MPD1     C 1226   1.171   2.958   2.649  0.2770 -0.0991 -0.2715
   79MPD1    C1 1227   1.060   2.971   2.574 -0.3542  0.3389 -0.1230
   79MPD1    C2 1228   1.079   2.943   2.435  0.2590  0.0884  0.1226
   79MPD1    C3 1229   1.191   2.889   2.381 -0.5733  0.5872 -0.3324
   79MPD1    C4 1230   1.302   2.877   2.463  0.0992  0.3956 -0.3345
   79MPD1    C5 1231   1.292   2.924   2.592 -0.1655  0.1822  0.1630
   79MPD1     H 1232   0.987   2.943   2.379 -0.8318  2.2123  1.9236
   79MPD1    H1 1233   1.398   2.847   2.424  1.7478  0.7618  3.4600
   79MPD1    H2 1234   1.176   2.989   2.753  1.5969  2.6697 -1.1533
   79MPD1    H3 1235   1.385   2.923   2.647  0.3660  0.5589 -0.7340
   79MPD1     N 1236   1.202   2.848   2.246  0.8335  0.1178  0.0371
   79MPD1    H5 1237   1.285   2.812   2.200  1.3382 -0.1133  1.1222
   79MPD1    N1 1238   0.940   3.026   2.622 -0.3970  0.3071  0.4674
   79MPD1    H6 1239   0.851   3.010   2.576  0.0718 -0.7305 -0.0840
   79MPD1    H7 1240   0.923   3.014   2.721 -1.3195  0.7896  0.3681
   80TMC2    C1 1241   3.220   1.067  11.994 -0.1409  0.1303  0.1413
   80TMC2    C2 1242   3.204   1.040  11.860 -0.5051  0.4747 -0.3381
   80TMC2    C3 1243   3.091   0.966  11.828 -0.6280 -0.0785 -0.2955
   80TMC2    C4 1244   3.125   1.026  12.094 -0.2979 -0.2919  0.3123
   80TMC2    C5 1245   3.025   0.944  12.050  0.1555  0.2763 -0.4028
   80TMC2    C6 1246   2.998   0.919  11.917 -0.2114 -0.1537 -0.8271
   80TMC2     C 1247   3.346   1.125  12.042  0.6050  0.2392 -0.6307
   80TMC2     O 1248   3.454   1.094  11.990 -0.4893 -0.5790  0.2491
   80TMC2     H 1249   3.290   1.051  11.796 -0.7347 -4.2159 -1.4748
   80TMC2    H1 1250   3.136   1.044  12.200  0.5599  0.6961  0.0627
   80TMC2    H2 1251   2.917   0.856  11.883 -1.2447  1.3412 -1.1465
   80TMC2    C7 1252   2.961   0.854  12.147 -0.2116  0.2384  0.1367
   80TMC2    C8 1253   3.077   0.930  11.690 -0.2015  0.0231 -0.0936
   80TMC2    O1 1254   2.855   0.804  12.103 -0.2248 -0.3149  0.0500
   80TMC2    O2 1255   2.976   0.873  11.648  0.2733  0.2169  0.3797
   80TMC2    O5 1256   3.159   0.999  11.604 -0.3975  0.0999 -0.2411
   80TMC2    H5 1257   3.221   1.069  11.632 -2.7204  1.4071  1.6267
   81MPD2     C 1258   3.572   1.221  12.230 -0.0558  0.6235  0.2173
   81MPD2    C1 1259   3.433   1.254  12.238  0.3938 -0.3995  0.2738
   81MPD2    C2 1260   3.398   1.354  12.326  0.0357 -0.0977 -0.3510
   81MPD2    C3 1261   3.494   1.423  12.400 -0.0995  0.0435  0.0170
   81MPD2    C4 1262   3.623   1.376  12.399  0.1904 -0.6052 -0.4641
   81MPD2    C5 1263   3.661   1.283  12.310  0.0626  0.7115 -0.3061
   81MPD2     H 1264   3.293   1.380  12.330  0.3052  0.7273  1.4312
   81MPD2    H1 1265   3.689   1.404  12.480 -1.6885  0.2343  0.7676
   81MPD2    H2 1266   3.615   1.156  12.155  1.1543  0.3458  1.1670
   81MPD2    H3 1267   3.764   1.251  12.310 -0.4643 -0.9574  1.4907
   81MPD2     N 1268   3.472   1.514  12.509 -0.0695 -0.7348  0.9670
   81MPD2    H5 1269   3.559   1.552  12.547 -0.5704  1.0802  0.3132
   81MPD2    N1 1270   3.323   1.207  12.150  0.5221 -0.4862  0.3400
   81MPD2    H7 1271   3.228   1.235  12.172  0.8679  0.0052  1.1838
   82TMC2    C1 1272   1.940   0.322  11.636 -0.5067 -0.0734 -0.1868
   82TMC2    C2 1273   2.049   0.324  11.716  0.7226 -0.5300 -0.3951
   82TMC2    C3 1274   2.089   0.201  11.765  0.5379  0.3976  0.1799
   82TMC2    C4 1275   1.876   0.207  11.600 -0.1143 -0.0988 -0.6632
   82TMC2    C5 1276   1.920   0.089  11.653 -0.2800  0.0303  0.4997
   82TMC2    C6 1277   2.028   0.085  11.733  0.4261  0.4942 -0.1636
   82TMC2     C 1278   1.890   0.443  11.571  0.5009  0.1546 -0.6167
   82TMC2     O 1279   1.775   0.452  11.533  0.5218  0.0434  0.1388
   82TMC2     H 1280   2.088   0.416  11.759 -0.5665 -1.0388  1.8522
   82TMC2    H1 1281   1.786   0.217  11.542 -0.5765  0.4614  0.1492
   82TMC2    H2 1282   2.061   4.724  11.770 -0.3077  0.3560  0.1389
   82TMC2    C7 1283   1.816   4.719  11.667 -0.1209  0.4553 -0.3287
   82TMC2    C8 1284   2.181   0.179  11.867 -0.6065 -0.6078 -0.4627
   82TMC2    O1 1285   1.849   4.631  11.750  0.4403 -0.2493  0.0270
   82TMC2    O2 1286   2.191   0.080  11.939 -0.7671 -0.5476 -0.3977
   82TMC2    O5 1287   2.257   0.291  11.880 -0.0819  0.1581  0.2992
   82TMC2    H5 1288   2.244   0.369  11.821 -2.2556 -1.6292 -1.5919
   83MPD2     C 1289   1.982   0.892  11.349 -0.2386 -0.1272 -0.3162
   83MPD2    C1 1290   1.862   0.825  11.361  0.1632 -0.1112 -0.0523
   83MPD2    C2 1291   1.855   0.710  11.441  0.0564 -0.4870  1.3984
   83MPD2    C3 1292   1.971   0.666  11.508 -0.1979 -0.3350 -0.9770
   83MPD2    C4 1293   2.085   0.736  11.495  0.0551  0.0471  0.1008
   83MPD2    C5 1294   2.091   0.843  11.413 -0.2837  0.0295 -0.7703
   83MPD2     H 1295   1.766   0.648  11.434 -0.0241 -0.0761 -1.0504
   83MPD2    H1 1296   2.178   0.689  11.526  0.5789  0.6104 -0.5920
   83MPD2    H2 1297   1.981   0.990  11.303  2.9077  0.2569  0.4184
   83MPD2    H3 1298   2.184   0.897  11.400 -0.1872  0.1370  0.4400
   83MPD2     N 1299   1.986   0.534  11.561  0.1659  0.4234 -0.6423
   83MPD2    H5 1300   2.083   0.512  11.582 -1.5863 -1.9434  4.9339
   83MPD2    N1 1301   1.755   0.875  11.289  0.4140 -0.5875  0.7293
   83MPD2    H7 1302   1.781   0.966  11.251  1.0190 -1.1446 -0.1963
   84TMC2    C1 1303   2.454   4.603  11.229  0.2452 -0.1930  0.4030
   84TMC2    C2 1304   2.400   4.524  11.325 -1.0199 -0.1972  0.9198
   84TMC2    C3 1305   2.369   4.394  11.294  0.4910  0.3781 -0.4227
   84TMC2    C4 1306   2.467   4.563  11.095  0.1637  0.7391  0.0513
   84TMC2    C5 1307   2.433   4.428  11.073  0.1278 -0.3340 -0.4858
   84TMC2    C6 1308   2.389   4.348  11.170 -0.2681 -0.6054  0.4950
   84TMC2     C 1309   2.492   0.004  11.279 -0.1629 -0.1522 -0.9466
   84TMC2     O 1310   2.450   0.050  11.385  0.4370  0.3486 -0.0568
   84TMC2     H 1311   2.385   4.558  11.427 -2.1052  1.9022  0.0706
   84TMC2    H1 1312   2.490   4.639  11.021 -1.7029  0.7259 -0.5246
   84TMC2    H2 1313   2.366   4.244  11.149 -0.7602 -0.4714  0.3625
   84TMC2    C7 1314   2.465   4.371  10.938  0.1445  1.0984  0.1210
   84TMC2    C8 1315   2.308   4.298  11.385  0.0692  0.7949  0.1806
   84TMC2    O1 1316   2.426   4.258  10.917 -0.9069  0.6698  0.2173
   84TMC2    O2 1317   2.220   4.210  11.361  0.0625  0.1205 -0.5638
   84TMC2    O5 1318   2.400   4.292  11.477 -0.3656 -0.0054  0.2812
   84TMC2    H5 1319   2.485   4.331  11.448 -0.3668 -0.6959 -0.6167
   85TMC2    C1 1320   4.002   3.191  16.119 -0.0359  0.4575  0.5890
   85TMC2    C2 1321   3.936   3.290  16.186 -0.2126 -1.0855 -0.0053
   85TMC2    C3 1322   3.942   3.413  16.132  0.1931 -0.3002 -0.3535
   85TMC2    C4 1323   4.087   3.221  16.016  0.1287  0.1648 -0.6651
   85TMC2    C5 1324   4.095   3.352  15.976 -0.0067  0.2110  0.1873
   85TMC2    C6 1325   4.008   3.451  16.021 -0.3015 -0.6219 -0.4176
   85TMC2     C 1326   4.021   3.055  16.166 -0.1518  0.2315 -0.2312
   85TMC2     O 1327   4.132   3.004  16.160  0.6866 -0.0453  0.6328
   85TMC2     H 1328   3.894   3.271  16.284 -1.2615 -1.4767 -0.5320
   85TMC2    H1 1329   4.150   3.144  15.973  1.1185 -0.6862  2.3632
   85TMC2    H2 1330   4.027   3.556  16.002 -2.7317 -0.1102  0.0768
   85TMC2    C7 1331   4.143   3.362  15.838  0.7405 -0.0163  0.5770
   85TMC2    C8 1332   3.896   3.516  16.224 -0.0336 -0.2641 -0.2462
   85TMC2    O1 1333   4.230   3.285  15.798  0.3509  0.0088  0.3826
   85TMC2    O2 1334   3.868   3.501  16.342 -0.6870  0.4259 -0.5740
   85TMC2    O5 1335   3.820   3.589  16.135 -0.2087 -0.9042  0.0121
   85TMC2    H5 1336   3.862   3.603  16.048  0.5090  1.3892  0.7289
   86MPD2     C 1337   3.859   2.697  16.509 -0.2672  0.4917 -0.3763
   86MPD2    C1 1338   3.761   2.730  16.416  0.6889  0.2994  0.8980
   86MPD2    C2 1339   3.782   2.834  16.328  0.4129  0.2479 -0.2513
   86MPD2    C3 1340   3.902   2.902  16.315  0.2777 -0.5880 -0.4818
   86MPD2    C4 1341   4.004   2.864  16.397 -0.4218  0.2727  0.2367
   86MPD2    C5 1342   3.989   2.757  16.485 -0.1406 -0.1738  0.1292
   86MPD2     H 1343   3.699   2.862  16.264  0.7830 -0.3275 -0.9860
   86MPD2    H1 1344   4.096   2.921  16.404  1.4025 -2.7772  1.2142
   86MPD2    H2 1345   3.849   2.614  16.578  0.2732 -0.5231 -1.5088
   86MPD2    H3 1346   4.074   2.743  16.550  0.6479 -1.2885 -1.1538
   86MPD2     N 1347   3.904   3.005  16.219  0.4185  0.2339  0.6551
   86MPD2    H5 1348   3.822   3.063  16.202 -0.1655 -0.6069  0.6277
   86MPD2    N1 1349   3.630   2.668  16.407 -0.7586  0.0856  0.7589
   86MPD2    H7 1350   3.565   2.701  16.336 -0.1118  4.3325  2.1247
   87TMC2    C1 1351   0.881   1.289   0.744  0.1564 -0.3600 -0.7670
   87TMC2    C2 1352   0.754   1.300   0.688  0.2235 -0.4152  0.5452
   87TMC2    C3 1353   0.655   1.334   0.781 -0.2245 -0.0493  0.2036
   87TMC2    C4 1354   0.902   1.318   0.875 -0.2858 -1.0694  0.5311
   87TMC2    C5 1355   0.802   1.354   0.956  0.0029 -0.0360  0.0315
   87TMC2    C6 1356   0.671   1.365   0.913 -0.6087 -0.1050  0.0835
   87TMC2     C 1357   0.987   1.267   0.647 -0.0363 -0.2590 -0.1320
   87TMC2     O 1358   0.958   1.198   0.548  0.1482 -0.2251 -0.5980
   87TMC2     H 1359   0.732   1.266   0.587  0.2194  1.7606 -0.2000
   87TMC2    H1 1360   1.001   1.318   0.919  0.4094  0.8917 -1.0736
   87TMC2    H2 1361   0.598   1.400   0.985  0.1213 -1.4744  1.4887
   87TMC2    C7 1362   0.842   1.430   1.074 -0.2646  0.0394 -0.0798
   87TMC2    C8 1363   0.528   1.365   0.732 -0.0711 -0.0245  0.2313
   87TMC2    O1 1364   0.918   1.378   1.153  0.7472 -0.0328  0.6781
   87TMC2    O2 1365   0.500   1.387   0.617  0.0906  0.0558  0.2327
   87TMC2    O5 1366   0.450   1.299   0.825  0.5098  0.3493  0.0462
   87TMC2    H5 1367   0.494   1.248   0.896 -2.7265 -0.2972  1.6012
   88MPD2     C 1368   0.844   1.638   1.310 -0.2705  0.7776 -0.6041
   88MPD2    C1 1369   0.798   1.663   1.183  0.1635  0.5087 -0.2357
   88MPD2    C2 1370   0.761   1.790   1.151  0.0500  0.9427 -0.3545
   88MPD2    C3 1371   0.789   1.899   1.232 -1.0957 -0.0354 -0.3370
   88MPD2    C4 1372   0.856   1.881   1.354 -0.1093 -0.1681  0.1887
   88MPD2    C5 1373   0.875   1.752   1.393  0.8786 -0.3130  0.5287
   88MPD2     H 1374   0.735   1.815   1.049 -1.2480  0.6049 -0.1027
   88MPD2    H1 1375   0.887   1.967   1.412  0.5124 -1.7080  2.1306
   88MPD2    H2 1376   0.879   1.539   1.339 -3.0455 -0.0987 -0.2824
   88MPD2    H3 1377   0.920   1.732   1.490 -2.4521 -2.7855  1.5822
   88MPD2     N 1378   0.757   2.027   1.169  0.1733 -1.0367 -0.1068
   88MPD2    H5 1379   0.712   2.032   1.078  0.6166  1.3094 -0.1915
   88MPD2    N1 1380   0.783   1.561   1.082  0.0442  0.4297  0.0587
   88MPD2    H7 1381   0.723   1.587   1.005  1.8314 -1.3103 -1.9068
   89TMC2    C1 1382   2.303   4.081   1.485 -0.0175 -0.1489  0.7411
   89TMC2    C2 1383   2.263   4.178   1.570 -0.9234 -0.4049 -0.5143
   89TMC2    C3 1384   2.239   4.304   1.525 -0.1635 -1.0614 -0.1091
   89TMC2    C4 1385   2.325   4.108   1.348  0.1215  0.3702  0.0542
   89TMC2    C5 1386   2.294   4.236   1.308 -0.2336 -0.5154 -0.5931
   89TMC2    C6 1387   2.250   4.332   1.394  0.2011 -0.2047  0.1310
   89TMC2     C 1388   2.312   3.940   1.527  0.2636  0.3105  0.6053
   89TMC2     O 1389   2.373   3.868   1.446  0.2350  0.2119  0.9758
   89TMC2     H 1390   2.255   4.153   1.675 -3.0860 -0.2573 -0.6545
   89TMC2    H1 1391   2.361   4.028   1.285  2.4503  0.3002  1.4425
   89TMC2    H2 1392   2.226   4.434   1.368 -1.6846 -0.4965  0.7232
   89TMC2    C7 1393   2.279   4.241   1.167 -0.6441  0.0619  0.8141
   89TMC2    C8 1394   2.182   4.408   1.613  0.4050 -0.7672  0.2062
   89TMC2    O1 1395   2.314   4.150   1.095 -0.2060 -0.2661  0.4335
   89TMC2    O2 1396   2.191   4.527   1.576  0.1653  0.1428 -0.6064
   89TMC2    O5 1397   2.131   4.348   1.721 -0.3369  0.1049  0.0861
   89TMC2    H5 1398   2.105   4.257   1.699 -0.7190  0.7343 -2.0342
   90MPD2     C 1399   2.178   3.562   1.835 -0.3922  0.3457  0.2237
   90MPD2    C1 1400   2.083   3.659   1.845  0.0752 -0.1538 -0.3751
   90MPD2    C2 1401   2.102   3.775   1.779  0.3669 -0.5086 -0.3653
   90MPD2    C3 1402   2.209   3.796   1.693 -0.1567  0.0884  0.5937
   90MPD2    C4 1403   2.297   3.692   1.679  0.1137  0.4598 -0.4153
   90MPD2    C5 1404   2.287   3.574   1.748 -0.4740  0.2633 -0.3475
   90MPD2     H 1405   2.031   3.855   1.791  1.2067  0.5216 -2.2229
   90MPD2    H1 1406   2.385   3.704   1.618  1.9141 -0.9761  1.9240
   90MPD2    H2 1407   2.162   3.460   1.869 -2.1161 -0.0770 -1.8357
   90MPD2    H3 1408   2.353   3.492   1.722  0.9298  1.1312  0.4689
   90MPD2     N 1409   2.220   3.922   1.628 -0.6746 -0.1272 -0.5065
   90MPD2    H5 1410   2.156   3.999   1.642  0.2379  0.5133  0.1014
   90MPD2    N1 1411   1.969   3.648   1.921  0.2151 -0.5515 -0.2577
   90MPD2    H7 1412   1.906   3.727   1.923 -1.5837 -2.0269  0.4974
   91TMC2    C1 1413   3.576   4.111  16.459  0.6949 -0.2474 -0.4501
   91TMC2    C2 1414   3.632   4.120  16.586 -0.3492 -0.0507 -0.0648
   91TMC2    C3 1415   3.561   4.073  16.694  0.2178  0.6108 -0.2647
   91TMC2    C4 1416   3.457   4.045  16.442  0.0427 -0.1161  0.2309
   91TMC2    C5 1417   3.396   3.985  16.552 -0.0210 -0.5046 -1.0111
   91TMC2    C6 1418   3.448   3.990  16.680 -0.0492 -0.3507  0.1350
   91TMC2     C 1419   3.664   4.122  16.348  0.8078 -1.0011 -0.3736
   91TMC2     O 1420   3.611   4.115  16.237 -0.3687  0.3007  0.5107
   91TMC2     H 1421   3.729   4.168  16.596 -1.1099  1.1531  1.5021
   91TMC2    H1 1422   3.425   4.031  16.339  0.4590  1.6879 -0.1434
   91TMC2    H2 1423   3.393   3.937  16.757 -1.0780 -0.6027 -0.7721
   91TMC2    C7 1424   3.309   3.871  16.529  0.2120 -0.5864  0.3528
   91TMC2    C8 1425   3.637   4.060  16.823  0.3106  0.2456 -0.6005
   91TMC2    O1 1426   3.291   3.800  16.627 -0.3153 -0.1226 -0.1902
   91TMC2    O2 1427   3.755   4.081  16.832 -0.4484  0.0049  0.4579
   91TMC2    O5 1428   3.551   4.047  16.928  0.2285  0.3526 -0.1184
   91TMC2    H5 1429   3.456   4.048  16.904  0.4338 -1.8098 -0.9822
   92MPD2     C 1430   3.891   4.087  16.144  0.2943  0.0060 -0.1473
   92MPD2    C1 1431   3.908   4.088  16.282  0.4705 -0.9076  0.0982
   92MPD2    C2 1432   4.037   4.074  16.329  0.4981  0.8372  0.1696
   92MPD2    C3 1433   4.145   4.052  16.245 -0.6369 -0.4732  0.2747
   92MPD2    C4 1434   4.118   4.032  16.108  0.4470  0.9412  0.2619
   92MPD2    C5 1435   3.993   4.057  16.058 -0.2137 -0.0831  0.1354
   92MPD2     H 1436   4.047   4.098  16.434  0.1085  2.2212 -0.1127
   92MPD2    H1 1437   4.197   4.013  16.036  0.9814 -0.3593  1.2107
   92MPD2    H2 1438   3.795   4.112  16.100 -0.2739 -0.9181  0.5380
   92MPD2    H3 1439   3.973   4.055  15.951  0.8763 -2.7209 -0.0286
   92MPD2     N 1440   4.284   4.057  16.295 -0.1667 -0.4806  0.0295
   92MPD2    H5 1441   4.307   4.080  16.391  3.7948 -3.4731 -0.2075
   92MPD2    N1 1442   3.801   4.107  16.379  0.0410  0.1771 -0.1608
   92MPD2    H7 1443   3.836   4.096  16.474  1.5945 -1.0966 -0.8839
   93TMC2    C1 1444   0.893   3.812  14.031  0.0478 -0.4113 -0.4479
   93TMC2    C2 1445   0.807   3.920  14.055  0.6226 -0.4157 -0.1916
   93TMC2    C3 1446   0.865   4.029  14.105  0.2009  0.0486  0.6262
   93TMC2    C4 1447   1.035   3.821  14.042 -0.0636  0.0089 -0.5896
   93TMC2    C5 1448   1.088   3.947  14.074 -0.6694 -0.8112  1.0098
   93TMC2    C6 1449   1.004   4.045  14.113  0.0980 -0.0792  0.3841
   93TMC2     C 1450   0.840   3.695  13.969  0.6982 -0.6418  0.6850
   93TMC2     O 1451   0.922   3.618  13.926  0.6878 -0.0519  0.0799
   93TMC2     H 1452   0.701   3.909  14.037  1.0390 -1.4991 -1.9772
   93TMC2    H1 1453   1.097   3.735  14.018  0.6752  0.0019  1.3386
   93TMC2    H2 1454   1.035   4.149  14.125  0.9578 -0.0480 -2.1250
   93TMC2    C7 1455   1.228   3.952  14.108 -0.1141 -0.7827 -0.8044
   93TMC2    C8 1456   0.793   4.146  14.123  0.3472  0.2866 -0.3230
   93TMC2    O1 1457   1.287   3.850  14.082 -0.3834 -0.2478  0.1933
   93TMC2    O2 1458   0.705   4.158  14.044  0.3650  0.0401  0.2330
   93TMC2    O5 1459   0.792   4.162  14.256 -0.1877  0.1901 -0.4347
   93TMC2    H5 1460   0.858   4.099  14.293 -1.8487 -1.6594 -0.6771
   94MPD2     C 1461   0.677   3.457  13.900  0.7307 -0.7530 -0.0356
   94MPD2    C1 1462   0.631   3.562  13.976 -0.3927 -0.4858 -0.0933
   94MPD2    C2 1463   0.505   3.558  14.019  0.4417  0.2397 -0.6086
   94MPD2    C3 1464   0.415   3.464  13.985  0.2877 -0.6066 -0.1259
   94MPD2    C4 1465   0.455   3.357  13.906 -0.4179  0.3768 -0.0827
   94MPD2    C5 1466   0.587   3.359  13.868 -0.4380 -0.0507  0.5056
   94MPD2     H 1467   0.475   3.642  14.080  0.7393 -0.8946  1.0955
   94MPD2    H1 1468   0.388   3.281  13.867 -0.4100 -0.5576  1.7534
   94MPD2    H2 1469   0.776   3.450  13.858  1.4265 -0.5179  1.5854
   94MPD2    H3 1470   0.616   3.280  13.799  0.9652 -0.6702  1.8133
   94MPD2     N 1471   0.278   3.464  14.020 -0.8900  0.1169  0.0704
   94MPD2    H5 1472   0.227   3.385  13.981  0.0888  0.3064 -1.5609
   94MPD2    N1 1473   0.713   3.668  14.007 -0.0925  0.0067  0.0847
   94MPD2    H7 1474   0.682   3.744  14.067  2.7722 -0.0139  1.5976
   95TMC2    C1 1475   0.826   1.063  16.307 -0.0809  0.3375  0.2755
   95TMC2    C2 1476   0.805   0.938  16.346 -0.8380 -0.1120 -0.0000
   95TMC2    C3 1477   0.783   0.910  16.477 -0.3278 -0.4140 -0.0648
   95TMC2    C4 1478   0.839   1.166  16.400 -0.0528  0.0805  0.4474
   95TMC2    C5 1479   0.802   1.143  16.532 -0.0549  0.1351  0.4583
   95TMC2    C6 1480   0.762   1.015  16.570  0.3697  0.0258  0.2819
   95TMC2     C 1481   0.859   1.093  16.170  0.4239 -0.1301  0.3207
   95TMC2     O 1482   0.913   1.202  16.157 -0.1568 -0.2821 -0.3830
   95TMC2     H 1483   0.803   0.851  16.282 -1.2723  1.0205 -1.5106
   95TMC2    H1 1484   0.858   1.267  16.363  0.7168 -0.1954  0.0910
   95TMC2    H2 1485   0.730   0.990  16.670 -1.1482  1.7380  0.2360
   95TMC2    C7 1486   0.805   1.239  16.645  0.1905 -0.6168  0.4695
   95TMC2    C8 1487   0.741   0.780  16.515  0.3194 -0.1632  0.5126
   95TMC2    O1 1488   0.798   1.190  16.756 -0.1681  0.2783  0.5113
   95TMC2    O2 1489   0.669   0.715  16.439 -0.3944 -0.2000  0.7711
   95TMC2    O5 1490   0.743   0.768  16.645  0.6889 -0.6648  0.3140
   95TMC2    H5 1491   0.802   0.828  16.695  0.7076 -2.3475  2.3082
   96MPD2     C 1492   0.853   1.055  15.666 -0.4514 -0.4713 -0.4684
   96MPD2    C1 1493   0.919   1.143  15.742  0.1502 -0.0249 -0.1173
   96MPD2    C2 1494   0.904   1.136  15.880  0.2507 -0.2953  0.8074
   96MPD2    C3 1495   0.831   1.030  15.940 -0.2186 -0.2148  0.0928
   96MPD2    C4 1496   0.771   0.945  15.857 -0.1411  0.3842 -0.3031
   96MPD2    C5 1497   0.778   0.962  15.723 -0.7016 -0.4250  0.2584
   96MPD2     H 1498   0.951   1.213  15.939  3.0176 -2.1385  0.9690
   96MPD2    H1 1499   0.708   0.863  15.891 -0.8396 -0.0339 -2.6162
   96MPD2    H2 1500   0.861   1.056  15.558  0.6407  1.1348 -0.3757
   96MPD2    H3 1501   0.735   0.888  15.657 -0.1542  0.3413 -0.9626
   96MPD2     N 1502   0.819   1.003  16.078  0.2501  0.0370  0.6032
   96MPD2    H5 1503   0.761   0.923  16.101 -1.0259  0.7535 -0.1256
   96MPD2    N1 1504   1.008   1.230  15.677  0.2591 -0.0874 -0.2051
   96MPD2    H7 1505   1.026   1.218  15.578 -1.7473  0.1508 -0.6002
   97TMC2    C1 1506   3.173   3.978   0.488  0.1230  0.1173 -0.5773
   97TMC2    C2 1507   3.120   3.896   0.390 -0.2091 -0.3171 -0.8726
   97TMC2    C3 1508   3.153   3.914   0.260 -0.0349  0.5673 -0.0441
   97TMC2    C4 1509   3.247   4.083   0.452  0.2826  0.3600 -0.1221
   97TMC2    C5 1510   3.279   4.101   0.320  0.0274 -0.6198 -0.2435
   97TMC2    C6 1511   3.227   4.021   0.220 -0.7129 -0.1408  0.0429
   97TMC2     C 1512   3.163   3.951   0.629 -0.4771 -0.3141 -0.2704
   97TMC2     O 1513   3.216   4.031   0.703  0.6604 -0.2645  0.4813
   97TMC2     H 1514   3.045   3.818   0.402 -2.7171  1.9822 -1.7642
   97TMC2    H1 1515   3.295   4.136   0.534 -0.7395  1.5409 -0.2939
   97TMC2    H2 1516   3.242   4.030   0.113  1.4350  0.2071  0.3826
   97TMC2    C7 1517   3.339   4.227   0.296  0.6886  0.4483  0.7232
   97TMC2    C8 1518   3.146   3.798   0.169 -0.6072  0.3477  0.2913
   97TMC2    O1 1519   3.394   4.280   0.394  0.9400  0.3717  0.0221
   97TMC2    O2 1520   3.109   3.802   0.054  0.8443  0.7871  0.3623
   97TMC2    O5 1521   3.241   3.714   0.211  0.5044 -0.2428  0.2717
   97TMC2    H5 1522   3.257   3.720   0.307 -0.3321  1.2352  0.3143
   98MPD2     C 1523   2.952   3.710   1.036  0.4558 -0.6162  0.2983
   98MPD2    C1 1524   2.962   3.619   0.932 -0.1236  0.1719 -0.2915
   98MPD2    C2 1525   3.012   3.663   0.812 -1.0414 -0.2060  1.0200
   98MPD2    C3 1526   3.057   3.794   0.792  0.0595 -0.2171 -0.1456
   98MPD2    C4 1527   3.058   3.878   0.900 -0.1617  1.1804  0.2370
   98MPD2    C5 1528   3.005   3.834   1.024  0.0471 -0.3704 -0.4113
   98MPD2     H 1529   3.007   3.604   0.721  1.4398  0.6994  0.3099
   98MPD2    H1 1530   3.090   3.981   0.886 -2.0598  1.5228 -1.4735
   98MPD2    H2 1531   2.910   3.682   1.132  0.0038  1.1618  0.6171
   98MPD2    H3 1532   3.006   3.899   1.111  0.8645  1.2421 -1.6305
   98MPD2     N 1533   3.089   3.839   0.660  0.0230 -0.1791  0.8517
   98MPD2    H5 1534   3.080   3.782   0.577  2.8977  0.9643 -0.2166
   98MPD2    N1 1535   2.887   3.502   0.949  0.3911  0.2333 -0.5060
   98MPD2    H7 1536   2.847   3.493   1.042 -1.1996 -0.3451 -1.2358
   99TMC2    C1 1537   2.055   1.354   1.683  0.0114 -0.5469  0.0536
   99TMC2    C2 1538   2.156   1.392   1.763  0.5676 -0.4319  0.4387
   99TMC2    C3 1539   2.125   1.447   1.884  0.6942 -0.5305  0.0129
   99TMC2    C4 1540   1.926   1.369   1.723  0.5727 -0.5633 -0.3366
   99TMC2    C5 1541   1.897   1.414   1.849 -0.1363  0.5035 -0.2328
   99TMC2    C6 1542   1.999   1.458   1.925 -1.0994 -0.2267 -0.1484
   99TMC2     C 1543   2.086   1.319   1.544  0.4156  0.4851  0.3831
   99TMC2     O 1544   2.210   1.309   1.515  0.4203 -0.1722  0.2413
   99TMC2     H 1545   2.260   1.400   1.734  0.1427  0.9868 -0.6617
   99TMC2    H1 1546   1.841   1.350   1.658 -0.4581 -0.7797  1.0536
   99TMC2    H2 1547   1.983   1.496   2.025 -1.0436  1.7650 -0.8953
   99TMC2    C7 1548   1.760   1.419   1.899 -0.1767 -0.0060  0.3659
   99TMC2    C8 1549   2.233   1.515   1.956 -0.1473 -0.2843  0.2899
   99TMC2    O1 1550   1.738   1.501   1.989  0.0470 -0.7134  0.4473
   99TMC2    O2 1551   2.352   1.492   1.939 -0.7040 -0.6969  0.4624
   99TMC2    O5 1552   2.189   1.643   1.986 -0.4757 -0.2256  0.1336
   99TMC2    H5 1553   2.093   1.659   1.988 -0.3951  0.1380  0.8668
  100MPD2     C 1554   2.102   1.236   1.269 -0.3249 -0.0154  0.4379
  100MPD2    C1 1555   1.978   1.253   1.334 -0.1135 -0.4811 -0.1436
  100MPD2    C2 1556   1.860   1.214   1.273  0.4498  0.4209  0.0263
  100MPD2    C3 1557   1.862   1.164   1.145 -0.1753  0.3038 -0.4379
  100MPD2    C4 1558   1.982   1.132   1.091  0.0763  0.2239  0.3473
  100MPD2    C5 1559   2.098   1.169   1.153  0.6157 -0.6545  0.1824
  100MPD2     H 1560   1.767   1.233   1.325 -0.0140 -0.3886 -0.4941
  100MPD2    H1 1561   1.982   1.095   0.989  2.0432  1.8065 -0.2357
  100MPD2    H2 1562   2.201   1.266   1.302  0.6385 -0.9000 -1.6714
  100MPD2    H3 1563   2.186   1.144   1.095 -0.7089  1.4037 -2.7082
  100MPD2     N 1564   1.739   1.144   1.079  0.5927  0.2274  0.2058
  100MPD2    H5 1565   1.657   1.143   1.138 -0.5018 -1.9594 -1.3648
  100MPD2    N1 1566   1.974   1.291   1.469  0.0181 -0.6660  1.0472
  100MPD2    H7 1567   1.889   1.273   1.522 -1.5494  0.0989 -1.2025
  101TMC2    C1 1568   2.321   1.875  13.207 -0.1114  0.0486  0.7240
  101TMC2    C2 1569   2.208   1.940  13.154 -0.6887  0.2091 -0.3671
  101TMC2    C3 1570   2.229   2.066  13.105  0.8620 -0.1441  0.6051
  101TMC2    C4 1571   2.447   1.940  13.213 -0.7995 -0.4988 -0.1084
  101TMC2    C5 1572   2.446   2.071  13.180  0.0876  0.1220 -0.2570
  101TMC2    C6 1573   2.344   2.134  13.118  0.2106  0.2094  0.0457
  101TMC2     C 1574   2.307   1.738  13.247  0.4737  0.3271  0.7851
  101TMC2     O 1575   2.209   1.712  13.311  0.2090 -0.2656 -0.3369
  101TMC2     H 1576   2.110   1.894  13.164 -1.5978  2.3126  0.4987
  101TMC2    H1 1577   2.532   1.889  13.257  0.2785  1.9617  0.6134
  101TMC2    H2 1578   2.351   2.230  13.069  1.7709 -0.3050 -0.7199
  101TMC2    C7 1579   2.583   2.131  13.150 -0.1246  0.3447  0.2550
  101TMC2    C8 1580   2.122   2.143  13.046  0.3514 -0.2507 -0.0104
  101TMC2    O1 1581   2.587   2.217  13.065 -0.2115  0.0669 -0.0052
  101TMC2    O2 1582   2.116   2.262  13.035  0.0357 -0.2010  0.0982
  101TMC2    O5 1583   2.058   2.052  12.972  0.5166  0.4520  0.4834
  101TMC2    H5 1584   2.084   1.961  12.995  2.0206  0.8943  0.5716
  102MPD2     C 1585   2.460   1.444  13.074 -0.4237 -0.2764  0.7251
  102MPD2    C1 1586   2.380   1.513  13.167 -0.2345  0.1577  0.3523
  102MPD2    C2 1587   2.300   1.443  13.258 -0.0737 -0.4507 -0.2634
  102MPD2    C3 1588   2.303   1.303  13.265  0.2895 -0.5802 -0.3982
  102MPD2    C4 1589   2.370   1.231  13.167 -0.3966 -0.5606 -0.6947
  102MPD2    C5 1590   2.451   1.306  13.079 -0.5561  0.4198  0.0645
  102MPD2     H 1591   2.242   1.497  13.332  0.2191  0.7696 -0.9172
  102MPD2    H1 1592   2.378   1.123  13.154 -0.1271 -0.4903 -1.1503
  102MPD2    H2 1593   2.533   1.485  13.005 -0.9784 -0.8114 -0.1815
  102MPD2    H3 1594   2.526   1.257  13.019 -0.7934 -0.2619  0.3327
  102MPD2     N 1595   2.217   1.246  13.358  0.3578  0.3661  0.0627
  102MPD2    H5 1596   2.186   1.305  13.434 -1.5007  0.5193 -0.8159
  102MPD2    N1 1597   2.381   1.658  13.167 -0.3908  0.2302 -0.2207
  102MPD2    H7 1598   2.454   1.697  13.108  0.9284 -0.3225  1.0401
  103TMC2    C1 1599   0.525   1.226  12.616  0.7894  0.6060 -0.4951
  103TMC2    C2 1600   0.638   1.171  12.556 -0.6079  0.1388  0.1362
  103TMC2    C3 1601   0.758   1.167  12.620  0.3373 -0.7484 -0.5874
  103TMC2    C4 1602   0.532   1.278  12.737 -0.2285 -0.4313  0.2331
  103TMC2    C5 1603   0.659   1.270  12.797 -0.4529  0.0162 -1.1986
  103TMC2    C6 1604   0.771   1.213  12.743  0.5087  0.0002 -0.2707
  103TMC2     C 1605   0.391   1.164  12.594  0.6196 -0.2716 -0.3427
  103TMC2     O 1606   0.292   1.230  12.616 -0.2962 -0.3288  0.1825
  103TMC2     H 1607   0.632   1.131  12.455 -3.0142 -1.5645  0.9555
  103TMC2    H1 1608   0.453   1.344  12.773 -0.1496 -0.6708  0.8549
  103TMC2    H2 1609   0.862   1.198  12.800 -0.5630 -0.4889  1.3114
  103TMC2    C7 1610   0.653   1.285  12.944  0.6677  0.5739  0.4141
  103TMC2    C8 1611   0.875   1.134  12.541 -0.4309  0.2658 -0.6671
  103TMC2    O1 1612   0.762   1.280  13.002 -0.6885  0.1132 -0.3059
  103TMC2    O2 1613   0.978   1.196  12.547  0.0028 -0.2100 -0.0506
  103TMC2    O5 1614   0.846   1.056  12.434  0.6887 -0.2233  0.6383
  103TMC2    H5 1615   0.772   0.991  12.436  0.8764 -0.3873  2.2505
  104MPD2     C 1616   0.326   0.812  12.505 -0.0445 -0.5695  0.5016
  104MPD2    C1 1617   0.296   0.944  12.538 -0.3515 -0.6025 -0.6105
  104MPD2    C2 1618   0.162   0.984  12.545 -0.4735  0.1309  0.6398
  104MPD2    C3 1619   0.067   0.880  12.531  0.1557  0.0972 -0.0611
  104MPD2    C4 1620   0.106   0.750  12.507  0.3901 -0.5832  0.1117
  104MPD2    C5 1621   0.231   0.711  12.505  0.0268 -0.1149  0.4811
  104MPD2     H 1622   0.127   1.083  12.570  0.1435  0.4040  0.4222
  104MPD2    H1 1623   0.040   0.665  12.498 -0.4733 -0.0676  1.7151
  104MPD2    H2 1624   0.431   0.789  12.492  0.0995 -0.5147  1.5773
  104MPD2    H3 1625   0.254   0.606  12.488 -1.0967 -0.1838 -0.6461
  104MPD2     N 1626   4.666   0.916  12.523 -0.1473 -0.1133  0.2203
  104MPD2    H5 1627   4.648   1.015  12.515  2.4839  0.2035 -1.7833
  104MPD2    N1 1628   0.405   1.033  12.553  0.1397 -0.2257 -0.2557
  104MPD2    H7 1629   0.496   0.997  12.527 -0.0434 -1.1271  0.3475
  105TMC2    C1 1630   1.400   0.701   0.133  0.3843 -1.0432 -0.2623
  105TMC2    C2 1631   1.341   0.600   0.202 -0.3413 -0.3333 -1.0197
  105TMC2    C3 1632   1.312   0.609   0.334 -0.2610 -0.0399 -0.1364
  105TMC2    C4 1633   1.477   0.792   0.200 -0.7844  0.4135  0.5018
  105TMC2    C5 1634   1.451   0.797   0.332 -0.7647 -0.7220 -0.8200
  105TMC2    C6 1635   1.358   0.716   0.398  0.0981  0.7572 -0.4446
  105TMC2     C 1636   1.459   0.650   0.011  0.3488  0.5245 -0.2833
  105TMC2     O 1637   1.426   0.537  17.712  0.0831  0.1733 -0.1725
  105TMC2     H 1638   1.315   0.502   0.162 -0.7843 -0.8793  0.5842
  105TMC2    H1 1639   1.547   0.861   0.155  0.5385 -1.2350 -0.0007
  105TMC2    H2 1640   1.341   0.727   0.504  0.3008  0.4610 -0.3817
  105TMC2    C7 1641   1.480   0.924   0.398  0.0340 -0.5092 -0.0986
  105TMC2    C8 1642   1.204   0.539   0.404  0.0373  0.3667  0.4986
  105TMC2    O1 1643   1.585   0.977   0.364 -0.3883  0.0870  0.2947
  105TMC2    O2 1644   1.182   0.549   0.521  0.3043 -0.0427 -0.7161
  105TMC2    O5 1645   1.109   0.562   0.311  0.1466 -0.2007 -0.2217
  105TMC2    H5 1646   1.132   0.590   0.220 -0.6947  0.4116 -0.2488
  106MPD2     C 1647   1.744   0.667  17.336  0.1401 -0.3815 -0.1162
  106MPD2    C1 1648   1.730   0.802  17.375  0.0641 -0.2942  0.0231
  106MPD2    C2 1649   1.657   0.830  17.491 -0.2663 -0.4603 -0.0465
  106MPD2    C3 1650   1.605   0.721  17.569  0.2063  0.2832 -0.4202
  106MPD2    C4 1651   1.618   0.594  17.521 -0.6431  0.1263  0.1597
  106MPD2    C5 1652   1.683   0.567  17.407 -0.0513  0.2674  0.0084
  106MPD2     H 1653   1.632   0.929  17.529  0.1324  0.9645 -3.4970
  106MPD2    H1 1654   1.586   0.506  17.574  2.1816 -0.9928  0.0393
  106MPD2    H2 1655   1.785   0.646  17.237 -0.0243  0.8331 -0.4431
  106MPD2    H3 1656   1.696   0.467  17.368  1.6606 -0.0719  1.4269
  106MPD2     N 1657   1.518   0.750  17.682 -0.0776 -0.5640  0.2290
  106MPD2    H5 1658   1.499   0.847  17.704  0.8188 -0.0952 -1.1566
  106MPD2    N1 1659   1.781   0.912  17.301  0.2712 -0.1312  0.6711
  106MPD2    H7 1660   1.766   1.007  17.334 -0.4028 -0.7387  2.1141
  107TMC2    C1 1661   2.435   0.688  11.728  0.0108 -0.3135 -0.3147
  107TMC2    C2 1662   2.479   0.810  11.779 -0.3918 -0.1828 -0.5524
  107TMC2    C3 1663   2.581   0.860  11.713 -0.0260 -0.9807  0.1102
  107TMC2    C4 1664   2.490   0.624  11.618  0.5516  0.4944 -0.3237
  107TMC2    C5 1665   2.603   0.682  11.561  0.0290 -0.2363 -0.2405
  107TMC2    C6 1666   2.648   0.800  11.612 -0.6662  0.3073 -0.2154
  107TMC2     C 1667   2.305   0.642  11.775 -0.1564  0.2951  0.0154
  107TMC2     O 1668   2.272   0.528  11.759 -0.2290  0.1641 -0.0101
  107TMC2     H 1669   2.432   0.853  11.867 -0.7081 -0.4095 -0.6090
  107TMC2    H1 1670   2.447   0.532  11.578 -2.3685  1.0095  1.5831
  107TMC2    H2 1671   2.737   0.841  11.565  0.3795 -3.1235 -1.1753
  107TMC2    C7 1672   2.680   0.616  11.461 -0.0326 -0.3122  0.1340
  107TMC2    C8 1673   2.639   0.974  11.767  0.6488 -0.3874  0.1157
  107TMC2    O1 1674   2.777   0.681  11.415  0.5969 -0.4241  0.6954
  107TMC2    O2 1675   2.679   0.961  11.883 -0.0387  0.2280 -0.3291
  107TMC2    O5 1676   2.709   1.035  11.671 -1.0664 -0.3038  0.2950
  107TMC2    H5 1677   2.689   1.009  11.579  0.8790 -0.1558 -0.1878
  108MPD2     C 1678   2.017   0.826  11.894 -0.1820 -0.2033  0.0150
  108MPD2    C1 1679   2.107   0.728  11.889  0.4957  0.1829  0.2970
  108MPD2    C2 1680   2.077   0.612  11.973  0.2299  0.5255  0.2449
  108MPD2    C3 1681   1.951   0.606  12.044  0.5100  0.4148  0.3837
  108MPD2    C4 1682   1.859   0.707  12.026  0.0489  0.5409 -0.0756
  108MPD2    C5 1683   1.893   0.812  11.949  0.3412 -0.2532 -0.0138
  108MPD2     H 1684   2.152   0.536  11.990 -0.5114 -0.1320  0.5518
  108MPD2    H1 1685   1.762   0.702  12.073 -0.3246  1.6773 -0.7491
  108MPD2    H2 1686   2.039   0.914  11.835  2.7454 -0.7975  0.2243
  108MPD2    H3 1687   1.805   0.872  11.927 -1.0296 -1.6264  1.7134
  108MPD2     N 1688   1.914   0.500  12.122 -0.0662  0.5655 -0.0181
  108MPD2    H5 1689   1.823   0.510  12.166  0.0430 -1.3876  0.6614
  108MPD2    N1 1690   2.228   0.746  11.818  0.2506 -0.0501  0.0235
  108MPD2    H7 1691   2.249   0.842  11.795  0.8262 -0.3985 -0.9158
  109TMC2    C1 1692   2.129   2.396   0.463 -0.4548 -0.4392 -0.2878
  109TMC2    C2 1693   2.132   2.358   0.332 -0.0488 -0.4089  0.5425
  109TMC2    C3 1694   2.245   2.393   0.258 -0.3393 -0.1311  0.3467
  109TMC2    C4 1695   2.242   2.440   0.531  0.7933  0.5499 -0.6822
  109TMC2    C5 1696   2.356   2.461   0.456  0.3252 -0.4125  0.2971
  109TMC2    C6 1697   2.349   2.443   0.322 -0.0805  0.5763 -0.5600
  109TMC2     C 1698   1.999   2.402   0.531  0.6400  0.7298  0.5264
  109TMC2     O 1699   1.895   2.364   0.475  0.4169 -0.3705 -0.2331
  109TMC2     H 1700   2.047   2.314   0.282  0.3301 -1.7485  1.0865
  109TMC2    H1 1701   2.254   2.445   0.639 -1.9287 -0.6923 -0.3325
  109TMC2    H2 1702   2.441   2.460   0.266 -1.1282  2.2859 -1.7470
  109TMC2    C7 1703   2.444   2.564   0.507  0.1783 -0.0963 -0.2500
  109TMC2    C8 1704   2.282   2.304   0.147  0.6479  0.3904  0.2267
  109TMC2    O1 1705   2.395   2.641   0.582  0.2191  0.0901  0.4859
  109TMC2    O2 1706   2.398   2.271   0.129 -0.5632 -0.1358  0.5980
  109TMC2    O5 1707   2.179   2.224   0.123  0.1704 -0.2759  0.3967
  109TMC2    H5 1708   2.104   2.286   0.108 -0.0667 -0.3105  1.4134
  110MPD2     C 1709   1.723   2.568   0.939  0.1720  0.5046  0.0557
  110MPD2    C1 1710   1.834   2.643   0.928  0.4767 -0.2122 -0.6345
  110MPD2    C2 1711   1.930   2.614   0.827  0.7349 -0.4803  0.4390
  110MPD2    C3 1712   1.906   2.517   0.731 -0.0653  0.2410 -0.3404
  110MPD2    C4 1713   1.781   2.446   0.740 -0.7595  0.1430 -0.1654
  110MPD2    C5 1714   1.692   2.471   0.846 -0.4453 -0.3482  0.0866
  110MPD2     H 1715   2.010   2.680   0.795 -1.0729  1.6954  0.3954
  110MPD2    H1 1716   1.771   2.365   0.669  0.7323 -0.7983  0.7039
  110MPD2    H2 1717   1.670   2.579   1.033 -0.4087 -1.0892 -0.0987
  110MPD2    H3 1718   1.607   2.407   0.864 -0.3819 -0.6242 -0.6025
  110MPD2     N 1719   2.009   2.491   0.637  0.1629 -0.1930 -0.5645
  110MPD2    H5 1720   2.098   2.537   0.648  0.7314 -1.0115 -1.6875
  110MPD2    N1 1721   1.859   2.737   1.031  0.4794  0.3182  0.4217
  110MPD2    H7 1722   1.795   2.746   1.109 -0.1364 -1.7114  0.1458
  111TMC2    C1 1723   2.250   2.527  12.026 -0.4212  0.1329  0.3274
  111TMC2    C2 1724   2.167   2.522  12.138  0.0069  0.3934 -0.1032
  111TMC2    C3 1725   2.223   2.544  12.265  0.4087  0.0244  0.8501
  111TMC2    C4 1726   2.380   2.537  12.040  0.4411 -0.5330 -0.4062
  111TMC2    C5 1727   2.426   2.571  12.167 -0.5134  1.3872  0.4177
  111TMC2    C6 1728   2.350   2.579  12.281  0.7259 -0.2521  0.1472
  111TMC2     C 1729   2.190   2.510  11.890  0.1960  0.3234  0.2121
  111TMC2     O 1730   2.262   2.489  11.796  0.2724 -0.3357 -0.3366
  111TMC2     H 1731   2.061   2.503  12.127 -0.1144  1.1788 -0.3359
  111TMC2    H1 1732   2.448   2.531  11.956 -0.8711 -2.2457 -1.3436
  111TMC2    H2 1733   2.402   2.601  12.374 -0.7639 -1.2209  1.2033
  111TMC2    C7 1734   2.575   2.569  12.193 -0.1016  0.0737 -0.6268
  111TMC2    C8 1735   2.130   2.571  12.369  0.4504 -0.2544  0.0774
  111TMC2    O1 1736   2.609   2.533  12.305  0.1816 -0.1460 -0.6040
  111TMC2    O2 1737   2.013   2.598  12.341 -0.0287 -0.3097 -0.0210
  111TMC2    O5 1738   2.184   2.553  12.490  0.1474 -0.4113 -0.2713
  111TMC2    H5 1739   2.274   2.514  12.498  0.6933  0.6170 -1.5909
  112MPD2     C 1740   1.813   2.630  11.581 -0.2912  0.6485  0.3203
  112MPD2    C1 1741   1.943   2.594  11.551  0.6223  0.1320  0.6178
  112MPD2    C2 1742   2.016   2.543  11.654  0.0961  0.1867 -0.0842
  112MPD2    C3 1743   1.976   2.557  11.786  0.4697 -0.2595  0.9870
  112MPD2    C4 1744   1.849   2.607  11.811  0.3056  0.1554  0.5322
  112MPD2    C5 1745   1.766   2.629  11.712 -0.1999  0.1394 -0.2715
  112MPD2     H 1746   2.112   2.499  11.627  0.6284  1.8418 -0.8631
  112MPD2    H1 1747   1.811   2.621  11.912 -0.3948  0.7460  0.1825
  112MPD2    H2 1748   1.755   2.676  11.502 -1.4892  0.1132  0.8835
  112MPD2    H3 1749   1.673   2.680  11.737 -1.3044 -1.9274 -0.1536
  112MPD2     N 1750   2.059   2.540  11.900 -0.0326  0.4148  0.1212
  112MPD2    H5 1751   2.024   2.571  11.991  0.8656 -1.0958  0.9808
  112MPD2    N1 1752   2.009   2.616  11.427 -0.2343 -0.2078 -0.5591
  112MPD2    H7 1753   2.106   2.590  11.421  0.6213  2.7590  0.5213
  113TMC2    C1 1754   0.417   0.928   0.826 -0.3685 -0.0564  0.4189
  113TMC2    C2 1755   0.304   1.004   0.851 -0.0569  0.4039 -0.4208
  113TMC2    C3 1756   0.187   0.958   0.795  0.1523  0.2738  0.1575
  113TMC2    C4 1757   0.418   0.803   0.764 -0.2695 -0.0399  0.6337
  113TMC2    C5 1758   0.301   0.773   0.708  0.2252 -0.3218  0.6225
  113TMC2    C6 1759   0.186   0.851   0.709 -1.0510 -0.0937 -0.0509
  113TMC2     C 1760   0.541   0.981   0.887 -0.1671  0.1912 -0.4700
  113TMC2     O 1761   0.515   1.085   0.950  0.6451  0.0084 -0.6441
  113TMC2     H 1762   0.302   1.090   0.918  1.5354  0.1481 -0.0280
  113TMC2    H1 1763   0.501   0.732   0.760  0.5165  0.9506 -0.9139
  113TMC2    H2 1764   0.091   0.813   0.674 -0.8818  0.7677 -1.4321
  113TMC2    C7 1765   0.287   0.629   0.699  0.2641 -0.2890 -0.4312
  113TMC2    C8 1766   0.066   1.020   0.854  0.2150  0.7112  0.2141
  113TMC2    O1 1767   0.200   0.584   0.628  0.6711  0.4891  0.5192
  113TMC2    O2 1768   0.090   1.114   0.928  0.3465 -0.3876 -0.1554
  113TMC2    O5 1769   4.695   0.934   0.863 -0.6083 -0.1826 -0.6321
  113TMC2    H5 1770   4.716   0.849   0.819  0.4640 -0.2197 -0.0537
  114MPD2     C 1771   0.960   0.866   1.151  0.7289 -0.6727  0.6836
  114MPD2    C1 1772   0.888   0.987   1.160 -0.8111  0.2654  0.1998
  114MPD2    C2 1773   0.782   0.995   1.072  0.2918  0.0606 -0.0392
  114MPD2    C3 1774   0.746   0.891   0.984  0.1428 -0.2180  0.2452
  114MPD2    C4 1775   0.817   0.784   0.984 -0.0820 -0.5022 -0.5373
  114MPD2    C5 1776   0.932   0.769   1.060 -0.2302 -0.5083  0.3341
  114MPD2     H 1777   0.726   1.088   1.080  0.8146  0.5529 -1.9020
  114MPD2    H1 1778   0.787   0.707   0.913 -1.8073 -1.3565  1.1180
  114MPD2    H2 1779   1.026   0.843   1.234 -0.3565 -0.3785  1.6375
  114MPD2    H3 1780   0.991   0.678   1.052 -0.3184 -0.6220  1.0007
  114MPD2     N 1781   0.633   0.892   0.895  0.0815  0.1724  0.3056
  114MPD2    H5 1782   0.624   0.805   0.843 -1.2424 -0.6798  1.9500
  114MPD2    N1 1783   0.910   1.085   1.258  0.6008 -0.2430  0.5076
  114MPD2    H7 1784   0.846   1.163   1.251  1.9603  0.9258  1.3360
  115TMC2    C1 1785   1.322   3.008  17.567  0.2860  0.3286 -0.1915
  115TMC2    C2 1786   1.460   3.001  17.590  0.1279 -0.8504 -0.9303
  115TMC2    C3 1787   1.527   3.124  17.597  0.5891 -0.2693  0.0545
  115TMC2    C4 1788   1.255   3.126  17.544  0.1960  0.2874  0.3277
  115TMC2    C5 1789   1.327   3.237  17.547  0.7870  0.2043  0.2651
  115TMC2    C6 1790   1.463   3.239  17.571  0.1545 -0.2648  0.4680
  115TMC2     C 1791   1.250   2.881  17.583 -0.1081  0.0417  0.3569
  115TMC2     O 1792   1.303   2.771  17.598 -0.0006  0.2762  0.5654
  115TMC2     H 1793   1.503   2.913  17.634  0.7476 -0.2714 -0.3798
  115TMC2    H1 1794   1.153   3.113  17.509  0.4610 -0.9345  0.0157
  115TMC2    H2 1795   1.524   3.328  17.582 -1.2214  0.4526  2.2491
  115TMC2    C7 1796   1.248   3.356  17.557  0.3717 -0.3007 -0.9466
  115TMC2    C8 1797   1.657   3.133  17.660  0.5744  0.4664  0.2184
  115TMC2    O1 1798   1.126   3.333  17.550  0.0389 -0.4329  0.3522
  115TMC2    O2 1799   1.697   3.244  17.680  0.0240 -0.2517 -0.4994
  115TMC2    O5 1800   1.731   3.020  17.635  0.2841  0.2128 -0.1928
  115TMC2    H5 1801   1.683   2.946  17.592  0.0911  0.2118  0.0231
  116MPD2     C 1802   0.777   2.656  17.609 -0.2592 -0.5627 -0.2882
  116MPD2    C1 1803   0.888   2.621  17.530 -0.2453 -0.4437 -0.7875
  116MPD2    C2 1804   1.009   2.695  17.548  0.1763  0.2335  0.2977
  116MPD2    C3 1805   1.016   2.815  17.620  0.3529 -0.2978  0.0611
  116MPD2    C4 1806   0.901   2.848  17.681  0.1177 -0.0478  0.1840
  116MPD2    C5 1807   0.786   2.772  17.683 -0.1769 -0.3229  0.3213
  116MPD2     H 1808   1.096   2.660  17.494  0.2005 -0.2978  0.6823
  116MPD2    H1 1809   0.895   2.940  17.739  2.6558  0.0068  0.3656
  116MPD2    H2 1810   0.680   2.608  17.610 -0.2981 -0.4763  0.6011
  116MPD2    H3 1811   0.700   2.813  17.734 -0.9139 -3.2583  1.4448
  116MPD2     N 1812   1.122   2.907  17.629 -0.9428 -0.2810  0.4061
  116MPD2    H5 1813   1.097   2.998  17.667 -0.0343 -0.3545  1.1751
  116MPD2    N1 1814   0.877   2.514  17.442 -0.2394  0.4868 -0.6062
  116MPD2    H7 1815   0.785   2.473  17.433 -0.2141  0.3777 -0.3714
  117TMC2    C1 1816   0.319   4.130  14.467 -0.2001 -0.5374 -0.6538
  117TMC2    C2 1817   0.420   4.107  14.555 -1.2731 -0.4019  0.9569
  117TMC2    C3 1818   0.509   4.206  14.571  0.5905  0.0002 -0.2295
  117TMC2    C4 1819   0.293   4.250  14.413 -0.0381  0.0073  0.1898
  117TMC2    C5 1820   0.386   4.347  14.433  0.4687 -0.1746  0.5520
  117TMC2    C6 1821   0.496   4.326  14.514 -0.6220 -0.5299  0.6259
  117TMC2     C 1822   0.224   4.015  14.443  0.4658  0.2266 -0.6505
  117TMC2     O 1823   0.230   3.929  14.533 -0.4575  0.2320 -0.0918
  117TMC2     H 1824   0.443   4.008  14.594 -0.9601 -1.1449 -1.1543
  117TMC2    H1 1825   0.220   4.270  14.336 -0.2193  2.1432  0.9024
  117TMC2    H2 1826   0.581   4.393  14.506 -0.3988 -1.2077 -2.8021
  117TMC2    C7 1827   0.397   4.468  14.348 -0.8378 -0.5477  0.2796
  117TMC2    C8 1828   0.616   4.179  14.658 -0.2237 -0.2774 -0.8972
  117TMC2    O1 1829   0.513   4.503  14.317 -0.2876 -0.3289 -0.3554
  117TMC2    O2 1830   0.657   4.069  14.696  0.4047 -0.2091  0.0969
  117TMC2    O5 1831   0.651   4.296  14.711 -0.5152 -0.4746 -0.1629
  117TMC2    H5 1832   0.579   4.363  14.708  1.4596  1.7256  1.8263
  118MPD2     C 1833   0.138   4.681  14.206  0.4624 -0.3403 -0.3503
  118MPD2    C1 1834   0.263   4.645  14.240  0.1046 -0.2196 -0.7159
  118MPD2    C2 1835   0.372   0.005  14.218 -0.6852  1.0730  0.4483
  118MPD2    C3 1836   0.357   0.128  14.157 -0.0619 -0.0908 -0.5348
  118MPD2    C4 1837   0.226   0.153  14.118 -0.3460 -0.0604 -1.0384
  118MPD2    C5 1838   0.124   0.060  14.138  1.0050 -0.2379  0.8647
  118MPD2     H 1839   0.475   4.717  14.241 -0.6988 -0.3756 -0.9716
  118MPD2    H1 1840   0.200   0.245  14.068 -0.6255 -0.0336 -0.8437
  118MPD2    H2 1841   0.058   4.618  14.243  1.5277 -1.8875 -0.6704
  118MPD2    H3 1842   0.027   0.095  14.105  2.3319  1.8224 -0.8718
  118MPD2     N 1843   0.462   0.226  14.145  0.1388 -0.4660 -0.1778
  118MPD2    H5 1844   0.435   0.307  14.091 -1.7591 -0.3695  0.9177
  118MPD2    N1 1845   0.280   4.522  14.306 -0.1580 -0.2995 -0.4823
  118MPD2    H7 1846   0.199   4.476  14.346 -0.8857  0.6124 -0.9110
  119TMC2    C1 1847   3.383   0.442  13.422  0.2495  0.0984 -0.4232
  119TMC2    C2 1848   3.445   0.324  13.380  0.7616  0.1652 -0.7435
  119TMC2    C3 1849   3.371   0.224  13.334 -0.9284  0.5182 -0.0539
  119TMC2    C4 1850   3.244   0.464  13.412 -0.2629  0.5337 -0.2623
  119TMC2    C5 1851   3.177   0.356  13.372 -0.2643  0.7657 -0.3227
  119TMC2    C6 1852   3.233   0.237  13.335 -0.1233  0.0355  0.8744
  119TMC2     C 1853   3.459   0.546  13.498 -0.5124 -0.3268  0.3581
  119TMC2     O 1854   3.401   0.643  13.552 -0.0216 -0.1018  0.9989
  119TMC2     H 1855   3.552   0.310  13.388  0.8239  0.4766 -1.0067
  119TMC2    H1 1856   3.190   0.554  13.442  0.4419  1.4152 -1.6018
  119TMC2    H2 1857   3.163   0.162  13.299 -0.0935  0.4364 -0.0280
  119TMC2    C7 1858   3.037   0.372  13.363 -0.7599 -0.3594 -0.1184
  119TMC2    C8 1859   3.432   0.096  13.353 -0.3273 -0.3976  0.0048
  119TMC2    O1 1860   2.981   0.355  13.251 -0.0628  0.0667 -0.6928
  119TMC2    O2 1861   3.537   0.083  13.416 -0.3444  1.0010 -0.2562
  119TMC2    O5 1862   3.370   0.010  13.271  0.0091  0.1968  0.2426
  119TMC2    H5 1863   3.311   0.051  13.205 -0.0204  0.4146  0.4043
  120MPD2     C 1864   3.875   0.692  13.753 -0.0897  0.0718  0.4357
  120MPD2    C1 1865   3.754   0.755  13.742  0.0140  0.3918  0.7182
  120MPD2    C2 1866   3.659   0.693  13.664  0.0906 -0.6083  0.1849
  120MPD2    C3 1867   3.683   0.578  13.584  0.1913 -0.0567  0.5989
  120MPD2    C4 1868   3.807   0.525  13.599 -0.2021  0.5564 -0.3297
  120MPD2    C5 1869   3.902   0.577  13.684  0.1254 -0.2275 -0.2384
  120MPD2     H 1870   3.568   0.751  13.653 -0.0273 -1.1585 -1.7823
  120MPD2    H1 1871   3.845   0.443  13.539  1.4022  0.2022  1.1622
  120MPD2    H2 1872   3.958   0.732  13.810 -0.7296  0.6793  0.9337
  120MPD2    H3 1873   4.002   0.534  13.681 -0.1831 -0.8951 -0.8786
  120MPD2     N 1874   3.593   0.510  13.506  0.0820 -0.0368 -0.5010
  120MPD2    H5 1875   3.629   0.439  13.444 -1.8417 -0.9372 -0.5927
  120MPD2    N1 1876   3.734   0.859  13.829  0.2629 -0.3768  0.2344
  120MPD2    H7 1877   3.822   0.891  13.868  1.0218 -0.7659 -1.1557
  121TMC2    C1 1878   4.159   1.794  13.981 -0.0099  0.4470  0.5440
  121TMC2    C2 1879   4.190   1.704  13.880 -0.5836  0.5249  0.1875
  121TMC2    C3 1880   4.087   1.631  13.830 -1.0519  0.6420 -0.1435
  121TMC2    C4 1881   4.039   1.792  14.052 -0.1416 -0.3162  0.6363
  121TMC2    C5 1882   3.946   1.710  14.001 -0.7568 -0.3402  0.3550
  121TMC2    C6 1883   3.971   1.630  13.890  0.2690  0.1975 -0.1109
  121TMC2     C 1884   4.261   1.888  14.036 -0.5356  0.3755  0.3571
  121TMC2     O 1885   4.241   1.935  14.149 -0.3242  0.0956  0.0676
  121TMC2     H 1886   4.293   1.695  13.851 -0.4106 -1.9765  1.6164
  121TMC2    H1 1887   4.024   1.842  14.147 -0.2063  0.7965  0.0385
  121TMC2    H2 1888   3.890   1.588  13.831  0.3316 -0.3777  0.2166
  121TMC2    C7 1889   3.803   1.739  14.036  0.1544  0.0032  0.9184
  121TMC2    C8 1890   4.101   1.552  13.711  0.2806 -1.1430 -0.8111
  121TMC2    O1 1891   3.714   1.680  13.974  0.3956 -0.3435  0.3362
  121TMC2    O2 1892   4.026   1.457  13.691 -0.3220  0.0393  0.0303
  121TMC2    O5 1893   4.197   1.604  13.630 -0.6525  0.5082  0.4672
  121TMC2    H5 1894   4.237   1.687  13.663  2.2962 -1.2029  1.1848
  122MPD2     C 1895   4.474   2.109  14.054 -0.3585  0.2236  0.2020
  122MPD2    C1 1896   4.445   2.033  13.942 -0.2594  0.3567  0.0448
  122MPD2    C2 1897   4.515   2.074  13.826  0.5195 -0.2601  0.1080
  122MPD2    C3 1898   4.592   2.192  13.822 -0.5097  0.6088  0.5806
  122MPD2    C4 1899   4.630   2.251  13.942  0.5256 -0.5254 -0.7539
  122MPD2    C5 1900   4.566   2.211  14.056 -0.6243  0.5784  0.2366
  122MPD2     H 1901   4.509   2.026  13.728  1.3787 -1.7252  0.7838
  122MPD2    H1 1902   4.693   2.339  13.952  0.9187 -0.8106 -0.7431
  122MPD2    H2 1903   4.433   2.078  14.149 -0.5226  1.3415  0.4954
  122MPD2    H3 1904   4.590   2.263  14.148  0.8184 -2.5265  1.6427
  122MPD2     N 1905   4.644   2.251  13.708  0.5040 -0.4687 -0.7364
  122MPD2    H5 1906   4.705   2.329  13.727 -0.6475 -0.4177  2.6817
  122MPD2    N1 1907   4.352   1.928  13.938  0.0451 -0.2373 -0.2391
  122MPD2    H7 1908   4.348   1.881  13.848  0.3928 -0.0012 -0.3765
  123TMC2    C1 1909   2.719   1.150  11.267 -0.2258 -0.1233 -0.0165
  123TMC2    C2 1910   2.727   1.253  11.358  0.2341  0.3283  0.1817
  123TMC2    C3 1911   2.814   1.361  11.336  0.1139  0.1058  0.4438
  123TMC2    C4 1912   2.791   1.156  11.149  0.7223 -0.5327  0.1637
  123TMC2    C5 1913   2.860   1.269  11.125  0.0686 -0.5716  0.6029
  123TMC2    C6 1914   2.865   1.373  11.215 -0.1503  0.5525  0.3747
  123TMC2     C 1915   2.642   1.036  11.305 -0.9569 -0.1938  0.0577
  123TMC2     O 1916   2.623   1.009  11.426  0.0857  0.3027  0.0131
  123TMC2     H 1917   2.680   1.238  11.455  2.9322  1.0731  1.5970
  123TMC2    H1 1918   2.801   1.071  11.083  1.2120  0.0926 -0.5690
  123TMC2    H2 1919   2.919   1.466  11.203  0.5356  0.2519  1.0889
  123TMC2    C7 1920   2.916   1.309  10.996 -0.6604  0.0837  0.3418
  123TMC2    C8 1921   2.780   1.487  11.394 -0.4622 -0.4379 -0.0510
  123TMC2    O1 1922   2.951   1.421  10.977  0.2344  0.1057  0.9646
  123TMC2    O2 1923   2.743   1.586  11.333  0.4210  0.1586  0.2893
  123TMC2    O5 1924   2.731   1.458  11.516  0.2691 -0.3465 -0.0788
  123TMC2    H5 1925   2.779   1.382  11.555 -0.3131 -0.4031  0.5504
  124MPD2     C 1926   2.367   0.615  11.177  0.3306 -0.5670 -0.0885
  124MPD2    C1 1927   2.446   0.656  11.068 -0.0344 -0.1014 -0.4161
  124MPD2    C2 1928   2.511   0.782  11.081 -0.1020 -0.0176 -0.6727
  124MPD2    C3 1929   2.515   0.847  11.201 -0.5138 -0.9661 -0.9403
  124MPD2    C4 1930   2.441   0.801  11.311 -0.2769 -0.4454 -0.1719
  124MPD2    C5 1931   2.371   0.685  11.296 -0.1995 -0.1927 -0.2700
  124MPD2     H 1932   2.558   0.828  10.994  0.3396 -1.6620 -1.3100
  124MPD2    H1 1933   2.428   0.859  11.401 -0.2206  0.5611 -0.8236
  124MPD2    H2 1934   2.305   0.527  11.180 -1.0805  0.4966  1.6801
  124MPD2    H3 1935   2.297   0.653  11.369 -0.3092  1.2860  0.2586
  124MPD2     N 1936   2.601   0.960  11.194  0.2153 -0.4017  0.6150
  124MPD2    H5 1937   2.624   0.982  11.098 -1.9698  0.1346  0.2096
  124MPD2    N1 1938   2.459   0.568  10.959  0.0344 -0.5487 -0.6281
  124MPD2    H7 1939   2.413   0.478  10.972  1.6639 -1.1245  1.1626
  125TMC2    C1 1940   4.367   3.877   9.571  0.0002  0.2098  0.3239
  125TMC2    C2 1941   4.384   3.971   9.675  0.6403 -0.2677 -0.4749
  125TMC2    C3 1942   4.324   3.951   9.797  0.3264 -0.3537  0.1677
  125TMC2    C4 1943   4.298   3.761   9.596 -0.1088 -0.2545 -0.4186
  125TMC2    C5 1944   4.239   3.748   9.717  0.2040 -0.1705  0.0507
  125TMC2    C6 1945   4.254   3.836   9.819 -0.0438 -0.2633 -0.2148
  125TMC2     C 1946   4.436   3.898   9.448 -0.0892 -0.7416  0.6251
  125TMC2     O 1947   4.370   3.858   9.354 -0.6399  0.7695 -0.6624
  125TMC2     H 1948   4.422   4.067   9.642 -0.0212  0.8646  2.0176
  125TMC2    H1 1949   4.267   3.706   9.508 -0.3476 -0.5400 -0.1541
  125TMC2    H2 1950   4.207   3.812   9.913  1.5481 -1.9019  0.1617
  125TMC2    C7 1951   4.165   3.631   9.745  0.1150 -0.4870 -0.1109
  125TMC2    C8 1952   4.305   4.065   9.877  0.3969  0.1016  0.3774
  125TMC2    O1 1953   4.059   3.651   9.795  0.4044  0.4271 -0.4789
  125TMC2    O2 1954   4.401   4.113   9.936 -0.2004 -0.3294  0.5731
  125TMC2    O5 1955   4.221   4.139   9.804 -0.4061  0.2189 -0.1407
  125TMC2    H5 1956   4.165   4.093   9.738 -1.1558 -0.8708  1.2459
  126MPD1     C 1957   0.108   4.030   9.149  0.6172  0.9698  0.8654
  126MPD1    C1 1958   0.137   4.072   9.282 -0.4418 -0.2821 -0.4332
  126MPD1    C2 1959   0.040   4.043   9.378 -0.3447 -0.2714 -0.0214
  126MPD1    C3 1960   4.651   3.982   9.347  1.1223  0.7132  0.1742
  126MPD1    C4 1961   4.624   3.958   9.217  0.0202  0.2746 -0.0297
  126MPD1    C5 1962   4.716   3.983   9.119 -1.1399  0.3897  0.1052
  126MPD1     H 1963   0.073   4.067   9.478  0.4761 -1.9653  0.1237
  126MPD1    H1 1964   4.530   3.918   9.181  0.0355  1.4860 -1.4123
  126MPD1    H2 1965   0.176   4.037   9.065  2.1544  3.0236  2.2818
  126MPD1    H3 1966   4.684   3.966   9.017 -1.3711 -0.4784  0.3229
  126MPD1     N 1967   4.561   3.949   9.463  0.5170  0.3215 -0.5646
  126MPD1    H5 1968   4.595   3.970   9.556  1.0162 -0.2529 -0.6197
  126MPD1    N1 1969   0.270   4.093   9.312 -0.4170 -0.5813  0.5726
  126MPD1    H6 1970   0.273   4.150   9.396 -0.7066  0.5076 -0.1580
  126MPD1    H7 1971   0.321   4.133   9.234 -0.3914 -4.4092 -1.3543
  127TMC2    C1 1972   0.153   0.972   9.783  0.1955  0.4736  0.4789
  127TMC2    C2 1973   0.260   0.907   9.830  0.2021  0.6904 -0.1656
  127TMC2    C3 1974   0.244   0.803   9.916  0.4946 -0.4476 -0.4280
  127TMC2    C4 1975   0.020   0.942   9.819  0.3183  0.5508 -0.5155
  127TMC2    C5 1976   0.012   0.837   9.907  0.3126  0.1054 -0.2402
  127TMC2    C6 1977   0.119   0.758   9.947 -0.3164  0.8095  0.0671
  127TMC2     C 1978   0.172   1.088   9.698 -0.3012 -0.8017 -0.0094
  127TMC2     O 1979   0.278   1.147   9.706  0.0092  0.4688 -0.2981
  127TMC2     H 1980   0.358   0.951   9.815  0.8321 -0.6043  0.1021
  127TMC2    H1 1981   4.668   1.001   9.794 -0.3722  0.7571  2.3611
  127TMC2    H2 1982   0.112   0.676  10.018  0.4046  0.1306 -0.6516
  127TMC2    C7 1983   4.609   0.792   9.930  0.1920 -0.4116 -0.4912
  127TMC2    C8 1984   0.363   0.717   9.920 -0.2147 -0.5624 -0.5787
  127TMC2    O1 1985   4.520   0.855   9.868  0.1100 -0.1741 -0.1020
  127TMC2    O2 1986   0.469   0.777   9.923  0.4931  0.2953 -0.2197
  127TMC2    O5 1987   0.335   0.649   9.806  0.1193 -0.8159 -0.7085
  127TMC2    H5 1988   0.244   0.610   9.803 -0.0846 -0.3897 -0.0763
  128MPD2     C 1989   4.645   1.265   9.503 -0.4556  0.4264  0.2859
  128MPD2    C1 1990   0.035   1.246   9.565 -0.4498  0.1035 -0.4152
  128MPD2    C2 1991   0.133   1.341   9.544 -0.1233 -0.0590  0.0479
  128MPD2    C3 1992   0.098   1.462   9.489 -0.7970  0.2675  0.9201
  128MPD2    C4 1993   4.710   1.480   9.440 -0.4471  0.2281 -0.3859
  128MPD2    C5 1994   4.620   1.379   9.435 -0.0771  0.3112  0.1509
  128MPD2     H 1995   0.236   1.318   9.569  0.0434  1.0389  0.3708
  128MPD2    H1 1996   4.682   1.578   9.402 -2.4687 -0.3059 -0.2366
  128MPD2    H2 1997   4.565   1.193   9.516 -0.5626  0.3137 -0.9664
  128MPD2    H3 1998   4.519   1.413   9.418 -0.1025 -0.9962 -2.2460
  128MPD2     N 1999   0.200   1.555   9.476  0.2826 -0.0717  0.1042
  128MPD2    H5 2000   0.292   1.532   9.512  0.3822 -1.2941 -0.9457
  128MPD2    N1 2001   0.053   1.131   9.646 -0.1801  0.5683  0.2964
  128MPD2    H7 2002   4.705   1.079   9.671  1.6567 -2.8121 -0.5537
  129TMC2    C1 2003   4.009   2.258   1.266 -0.3899  0.5066 -1.1320
  129TMC2    C2 2004   3.992   2.387   1.211  0.1778  0.7067 -0.2397
  129TMC2    C3 2005   3.867   2.415   1.170 -0.9096  0.5252  0.0381
  129TMC2    C4 2006   3.905   2.168   1.269  0.1502  0.2520 -0.5056
  129TMC2    C5 2007   3.798   2.202   1.190  0.5452 -0.5223 -0.3936
  129TMC2    C6 2008   3.772   2.327   1.149  0.2620  0.2915  0.4021
  129TMC2     C 2009   4.141   2.205   1.278 -0.0860  0.3401 -0.8747
  129TMC2     O 2010   4.154   2.084   1.279 -0.0416  0.2476  0.1073
  129TMC2     H 2011   4.063   2.468   1.212  2.2747 -1.1074 -0.6664
  129TMC2    H1 2012   3.923   2.071   1.313 -2.0094  0.3288  0.5497
  129TMC2    H2 2013   3.682   2.348   1.092  1.4179  0.3228 -1.3993
  129TMC2    C7 2014   3.711   2.094   1.149  0.4657 -0.3474  0.9071
  129TMC2    C8 2015   3.828   2.554   1.156 -0.3130  0.2412  0.4080
  129TMC2    O1 2016   3.599   2.128   1.115  0.4290 -0.7446  0.2719
  129TMC2    O2 2017   3.912   2.640   1.134  0.1888 -0.1319  0.0497
  129TMC2    O5 2018   3.701   2.574   1.201  0.1889  0.2017  0.0688
  129TMC2    H5 2019   3.677   2.492   1.248  2.2623  2.2803  4.7141
  130MPD2     C 2020   4.432   2.164   1.309  0.4137 -0.5031 -0.5357
  130MPD2    C1 2021   4.370   2.287   1.335 -0.1128  0.1260  0.4826
  130MPD2    C2 2022   4.443   2.389   1.390  0.3675  0.8797  0.3458
  130MPD2    C3 2023   4.577   2.373   1.417 -0.6022  0.0078 -0.5014
  130MPD2    C4 2024   4.642   2.252   1.398  0.1924  0.0447  0.6778
  130MPD2    C5 2025   4.568   2.153   1.338 -0.2182  0.4959 -0.0057
  130MPD2     H 2026   4.392   2.482   1.416 -0.1726  0.6955 -0.0568
  130MPD2    H1 2027   0.006   2.221   1.426  0.9245  2.5276  0.8183
  130MPD2    H2 2028   4.384   2.069   1.293 -0.6901  0.0140 -0.3325
  130MPD2    H3 2029   4.612   2.054   1.333 -0.4730  0.4310 -1.0949
  130MPD2     N 2030   4.642   2.490   1.468  0.3090 -0.0940  0.5860
  130MPD2    H5 2031   4.591   2.578   1.470 -0.4369 -0.4995 -0.5767
  130MPD2    N1 2032   4.228   2.304   1.326 -0.6333  0.3075  0.4739
  130MPD2    H7 2033   4.180   2.392   1.346  0.1394  1.0439 -0.8841
  131TMC2    C1 2034   2.875   1.301  10.293  0.4648 -0.2552  0.0577
  131TMC2    C2 2035   2.865   1.383  10.404 -0.3689 -0.5918  0.2016
  131TMC2    C3 2036   2.903   1.516  10.388  0.7834  0.5143  0.3458
  131TMC2    C4 2037   2.895   1.360  10.167  0.4585 -0.8586 -0.8332
  131TMC2    C5 2038   2.923   1.493  10.159 -0.5132  0.8026  0.5079
  131TMC2    C6 2039   2.936   1.576  10.269 -0.7951  0.3060 -0.4759
  131TMC2     C 2040   2.824   1.165  10.306 -0.4108  0.1405 -0.0104
  131TMC2     O 2041   2.726   1.154  10.381 -0.3019  0.4643 -0.1616
  131TMC2     H 2042   2.850   1.345  10.504 -2.3107 -2.9235 -0.9915
  131TMC2    H1 2043   2.881   1.290  10.085  0.6415 -0.4987 -1.1674
  131TMC2    H2 2044   2.958   1.682  10.269  0.0089  0.1404 -2.0179
  131TMC2    C7 2045   2.933   1.543  10.029  0.2837 -0.0550 -0.2424
  131TMC2    C8 2046   2.947   1.584  10.509  0.5425  0.1326  0.4772
  131TMC2    O1 2047   2.892   1.476   9.939 -0.0942 -0.0267 -0.2862
  131TMC2    O2 2048   2.897   1.573  10.621  0.7546  0.1171  0.2823
  131TMC2    O5 2049   3.079   1.617  10.490 -0.5016 -0.5372 -0.2474
  131TMC2    H5 2050   3.102   1.613  10.395  1.7184  0.1150  0.2705
  132MPD2     C 2051   2.909   0.855  10.135  0.9539 -0.1495  0.3289
  132MPD2    C1 2052   2.853   0.932  10.232  0.0584 -0.1022 -0.0856
  132MPD2    C2 2053   2.763   0.870  10.311 -0.1755  0.5775  0.2753
  132MPD2    C3 2054   2.726   0.735  10.292 -0.2016 -0.5180 -0.5759
  132MPD2    C4 2055   2.765   0.670  10.180  0.1916 -1.1337  0.0574
  132MPD2    C5 2056   2.864   0.731  10.105  0.2880 -0.0478 -0.3462
  132MPD2     H 2057   2.721   0.924  10.395 -0.1369  1.5160 -0.3032
  132MPD2    H1 2058   2.759   0.563  10.168  2.2343 -0.7703 -4.2525
  132MPD2    H2 2059   2.983   0.891  10.064  2.3390  0.9810  2.3685
  132MPD2    H3 2060   2.909   0.673  10.026  0.3202 -0.4505 -0.0343
  132MPD2     N 2061   2.635   0.672  10.387  0.2204  0.3265  0.2316
  132MPD2    H5 2062   2.628   0.724  10.474 -3.1663 -1.9152  1.2535
  132MPD2    N1 2063   2.887   1.067  10.233  0.5683  0.1621 -1.0204
  132MPD2    H7 2064   2.966   1.088  10.172  0.6909  0.0454 -0.9020
  133TMC2    C1 2065   0.832   1.306   9.725  0.5957 -0.0774  0.0109
  133TMC2    C2 2066   0.737   1.270   9.817 -0.2499 -0.0216  0.0252
  133TMC2    C3 2067   0.611   1.248   9.767 -0.3941  0.6654 -0.1165
  133TMC2    C4 2068   0.797   1.325   9.594 -0.1424 -0.6167  0.4718
  133TMC2    C5 2069   0.666   1.305   9.553  0.2036 -0.2289  0.9852
  133TMC2    C6 2070   0.574   1.271   9.643 -0.3681 -0.4972  0.4774
  133TMC2     C 2071   0.972   1.328   9.767  0.0474  0.4490 -0.1859
  133TMC2     O 2072   1.040   1.391   9.686 -0.2030 -0.0546  0.4458
  133TMC2     H 2073   0.758   1.244   9.920  1.5862  1.9686  0.1594
  133TMC2    H1 2074   0.873   1.360   9.526 -2.0044 -1.1394 -1.8888
  133TMC2    H2 2075   0.471   1.263   9.609 -0.1104 -0.0481 -0.3985
  133TMC2    C7 2076   0.608   1.400   9.458 -0.2231  0.4204  0.1510
  133TMC2    C8 2077   0.509   1.265   9.871 -0.2169  0.2006  0.4787
  133TMC2    O1 2078   0.487   1.415   9.454  0.9899 -0.8170  0.2269
  133TMC2    O2 2079   0.498   1.195   9.973  0.3643 -0.2291  0.4119
  133TMC2    O5 2080   0.488   1.398   9.864 -0.3713 -0.0123 -0.2894
  133TMC2    H5 2081   0.526   1.449   9.789 -0.2563  0.5599  0.1526
  134MPD2     C 2082   1.153   1.224  10.077 -0.6454 -0.5499  0.0168
  134MPD2    C1 2083   1.127   1.296   9.959 -0.3958  0.0162  0.1432
  134MPD2    C2 2084   1.225   1.386   9.913 -0.3483  0.4093  0.5190
  134MPD2    C3 2085   1.327   1.427   9.997  0.4353  0.3415 -0.1038
  134MPD2    C4 2086   1.341   1.372  10.126 -0.6777 -0.0593  0.3521
  134MPD2    C5 2087   1.263   1.266  10.161 -0.2189  0.4995 -0.9312
  134MPD2     H 2088   1.206   1.448   9.826  0.6595 -2.0909 -1.4668
  134MPD2    H1 2089   1.418   1.406  10.195 -1.4157  1.7835  0.2527
  134MPD2    H2 2090   1.085   1.146  10.108 -1.4267 -0.6646 -1.9816
  134MPD2    H3 2091   1.271   1.219  10.258 -0.0438  0.9600 -0.7257
  134MPD2     N 2092   1.420   1.527   9.962 -0.0433  0.7287 -0.1274
  134MPD2    H5 2093   1.494   1.554  10.026 -0.8385 -0.7510  1.4017
  134MPD2    N1 2094   1.005   1.272   9.885 -0.4283 -0.0673 -0.4284
  134MPD2    H7 2095   0.942   1.201   9.922  0.8017 -0.6388  0.5702
  135TMC2    C1 2096   4.491   4.096  10.288  0.1434 -0.4690 -0.1247
  135TMC2    C2 2097   4.488   4.112  10.427 -0.3356  0.3563 -0.2492
  135TMC2    C3 2098   4.381   4.055  10.499 -0.1374 -0.1688  0.0655
  135TMC2    C4 2099   4.397   4.018  10.221 -0.0078 -0.6160  0.6591
  135TMC2    C5 2100   4.299   3.961  10.290  0.8663  0.0393  0.3223
  135TMC2    C6 2101   4.285   3.989  10.427  0.3091 -0.6469  0.0320
  135TMC2     C 2102   4.629   4.107  10.238 -0.1183 -0.2310 -0.5631
  135TMC2     O 2103   4.716   4.127  10.321  0.4275 -0.2840 -0.2169
  135TMC2     H 2104   4.556   4.170  10.488 -0.3632  0.3724 -0.2335
  135TMC2    H1 2105   4.415   3.979  10.121 -0.4320  3.1151 -0.8585
  135TMC2    H2 2106   4.194   3.965  10.481  0.3616 -1.3327 -0.1777
  135TMC2    C7 2107   4.188   3.902  10.215  0.4829 -0.0087 -0.0409
  135TMC2    C8 2108   4.385   4.051  10.643  0.1686 -0.8931  0.0795
  135TMC2    O1 2109   4.181   3.942  10.099 -0.8457  0.3009  0.2747
  135TMC2    O2 2110   4.485   4.091  10.703  0.0669 -0.2670 -0.3706
  135TMC2    O5 2111   4.328   3.933  10.681  0.7246 -1.0936 -0.6461
  135TMC2    H5 2112   4.279   3.888  10.610 -2.0752  1.0315 -0.0592
  136MPD2     C 2113   0.145   4.117  10.099  0.8013 -0.3140  0.8659
  136MPD2    C1 2114   0.026   4.076  10.040  0.9051  0.2400 -0.5666
  136MPD2    C2 2115   0.038   4.014   9.913 -0.0628  0.5105 -0.1298
  136MPD2    C3 2116   0.159   3.992   9.856  0.9427 -0.0405 -0.5259
  136MPD2    C4 2117   0.270   4.046   9.912 -0.2176  0.5238  0.8863
  136MPD2    C5 2118   0.262   4.113  10.033  0.0163  0.2567 -0.3880
  136MPD2     H 2119   4.683   3.975   9.867  1.5911 -0.7618 -2.3178
  136MPD2    H1 2120   0.368   4.036   9.867  0.1892 -0.1557  1.9325
  136MPD2    H2 2121   0.149   4.181  10.187  1.4633 -0.7126  1.1312
  136MPD2    H3 2122   0.350   4.142  10.090  1.4853 -1.4617 -1.8102
  136MPD2     N 2123   0.187   3.911   9.740  0.0753  0.3773 -0.2663
  136MPD2    H5 2124   0.281   3.906   9.702 -0.0882 -1.6751 -0.4409
  136MPD2    N1 2125   4.638   4.098  10.098  0.3077 -0.8901  0.1975
  136MPD2    H7 2126   4.550   4.098  10.049 -1.3522 -0.9923  3.1958
  137TMC2    C1 2127   4.341   2.068   9.440 -0.5421 -0.1464  0.4380
  137TMC2    C2 2128   4.426   2.035   9.337 -0.4838  0.0369  0.7005
  137TMC2    C3 2129   4.372   2.046   9.213 -0.1642 -0.3440  0.3409
  137TMC2    C4 2130   4.210   2.112   9.425  0.3817 -0.9267  0.6783
  137TMC2    C5 2131   4.164   2.107   9.298 -0.0715 -0.0715 -0.0684
  137TMC2    C6 2132   4.240   2.077   9.187 -0.2144 -0.0298 -1.1250
  137TMC2     C 2133   4.392   2.043   9.575  0.9829 -0.4451 -0.2479
  137TMC2     O 2134   4.504   2.083   9.599 -0.6012  0.5395 -0.2091
  137TMC2     H 2135   4.529   2.009   9.356 -1.9153 -6.1789  0.1394
  137TMC2    H1 2136   4.147   2.133   9.510  0.4480  1.6275  0.0984
  137TMC2    H2 2137   4.205   2.086   9.084 -0.4830 -0.3262 -1.0580
  137TMC2    C7 2138   4.019   2.105   9.273  0.0434  1.1161 -0.2394
  137TMC2    C8 2139   4.463   2.088   9.109 -0.4217 -0.4747  0.8859
  137TMC2    O1 2140   3.987   2.053   9.165 -0.0050 -0.0678  0.0800
  137TMC2    O2 2141   4.566   2.153   9.131  0.4423  0.1703  0.2234
  137TMC2    O5 2142   4.430   2.027   8.994  0.7573 -0.0765 -0.0994
  137TMC2    H5 2143   4.354   1.966   9.003  1.6673 -1.0145  1.2132
  138MPD2     C 2144   4.239   1.901   9.870  0.3069 -0.0659  0.0219
  138MPD2    C1 2145   4.321   1.990   9.802 -0.4075  0.8407  1.1828
  138MPD2    C2 2146   4.409   2.076   9.880 -0.2986 -0.4782 -0.2912
  138MPD2    C3 2147   4.402   2.065  10.019 -0.4116 -0.0619  0.0967
  138MPD2    C4 2148   4.313   1.977  10.081  0.7794  0.3451 -0.2115
  138MPD2    C5 2149   4.229   1.901  10.006  0.7071 -1.1044  1.3779
  138MPD2     H 2150   4.490   2.133   9.835 -0.7560 -0.1962 -0.7532
  138MPD2    H1 2151   4.315   1.974  10.189 -1.3314 -4.3254 -0.3101
  138MPD2    H2 2152   4.178   1.828   9.817 -1.4627  0.0831  1.8443
  138MPD2    H3 2153   4.163   1.834  10.060 -1.3875 -0.6283 -0.5603
  138MPD2     N 2154   4.484   2.157  10.081  0.3111 -0.2424 -0.7704
  138MPD2    H5 2155   4.529   2.226  10.021 -0.2003  0.6850 -0.0939
  138MPD2    N1 2156   4.297   1.997   9.658 -0.0189  0.1682 -0.1325
  138MPD2    H7 2157   4.207   1.969   9.621  0.2851 -0.2897 -0.5379
  139TMC2    C1 2158   0.355   0.228  13.587  0.2403 -0.2231 -0.6731
  139TMC2    C2 2159   0.453   0.278  13.503 -0.2345  0.0194  0.4008
  139TMC2    C3 2160   0.433   0.406  13.464 -0.2538  0.1491 -0.0215
  139TMC2    C4 2161   0.237   0.294  13.614 -0.2913 -0.1150 -0.4471
  139TMC2    C5 2162   0.232   0.425  13.576 -0.5632  0.3889 -0.0748
  139TMC2    C6 2163   0.325   0.479  13.495 -0.4989 -0.0276  0.3505
  139TMC2     C 2164   0.373   0.086  13.592 -0.4097 -0.1977 -0.2768
  139TMC2     O 2165   0.471   0.035  13.542 -0.2444 -0.2399 -0.1063
  139TMC2     H 2166   0.532   0.218  13.459 -1.2779 -0.5602 -0.6595
  139TMC2    H1 2167   0.192   0.263  13.708  1.3084 -0.2318  0.2834
  139TMC2    H2 2168   0.318   0.585  13.472  0.7090 -0.5451 -2.3944
  139TMC2    C7 2169   0.116   0.499  13.608  0.4949 -0.0964 -0.5238
  139TMC2    C8 2170   0.517   0.453  13.348  0.5992  0.0250 -0.0988
  139TMC2    O1 2171   0.111   0.620  13.587  0.5182 -0.2413 -0.0795
  139TMC2    O2 2172   0.510   0.387  13.244  0.0170  0.2301 -0.1604
  139TMC2    O5 2173   0.510   0.592  13.350  0.2036 -0.0591  0.1787
  139TMC2    H5 2174   0.509   0.628  13.442  0.1711 -0.2007  0.2355
  140MPD2     C 2175   0.164   4.578  13.761 -0.4516  0.2883  0.9943
  140MPD2    C1 2176   0.281   4.625  13.699  0.1952 -0.2699  0.5961
  140MPD2    C2 2177   0.396   4.542  13.696  0.7138 -0.7754 -0.1329
  140MPD2    C3 2178   0.391   4.419  13.766  0.2534 -0.1465 -0.0080
  140MPD2    C4 2179   0.280   4.374  13.834 -0.0534  0.0986  0.5512
  140MPD2    C5 2180   0.169   4.458  13.828 -0.3784 -0.0452  0.3095
  140MPD2     H 2181   0.491   4.569  13.650  0.8570 -1.4395 -0.2362
  140MPD2    H1 2182   0.274   4.285  13.896 -0.9970  0.3007  0.7535
  140MPD2    H2 2183   0.075   4.638  13.775 -0.5468 -0.4693  3.5090
  140MPD2    H3 2184   0.077   4.441  13.884 -1.2713  0.0970 -1.1070
  140MPD2     N 2185   0.509   4.334  13.768  0.2125  0.2658  0.3702
  140MPD2    H5 2186   0.599   4.374  13.743 -0.8916  2.4002 -0.2116
  140MPD2    N1 2187   0.271   0.020  13.657  0.4381 -0.1688  0.0715
  140MPD2    H7 2188   0.184   0.065  13.686  0.2977  1.2527 -2.5326
  141TMC2    C1 2189   0.732   1.729  14.726  0.1136  0.2352 -0.1232
  141TMC2    C2 2190   0.744   1.639  14.828  0.3000  0.2246 -0.7612
  141TMC2    C3 2191   0.697   1.679  14.953  0.0235  0.3763 -0.4901
  141TMC2    C4 2192   0.678   1.851  14.747 -0.7418 -0.1728  0.0113
  141TMC2    C5 2193   0.635   1.890  14.868  0.1116 -0.9002  0.0331
  141TMC2    C6 2194   0.647   1.804  14.976 -0.2136 -0.5486 -0.2560
  141TMC2     C 2195   0.768   1.683  14.588  0.2125 -0.0421 -0.2880
  141TMC2     O 2196   0.744   1.752  14.490  0.4099  0.7106  0.6149
  141TMC2     H 2197   0.783   1.538  14.824  0.4332  0.2746 -0.7314
  141TMC2    H1 2198   0.653   1.907  14.658  0.1105 -1.4490 -1.0437
  141TMC2    H2 2199   0.623   1.826  15.080  0.9496  0.1674 -0.1435
  141TMC2    C7 2200   0.605   2.027  14.908 -0.3858  0.0941 -0.0302
  141TMC2    C8 2201   0.750   1.603  15.067 -0.2666  0.1923 -0.2964
  141TMC2    O1 2202   0.563   2.063  15.015 -0.5936  0.3043 -0.3140
  141TMC2    O2 2203   0.773   1.664  15.174  0.1260 -0.6194  0.3277
  141TMC2    O5 2204   0.728   1.471  15.056 -0.2469  0.0276 -0.0660
  141TMC2    H5 2205   0.681   1.447  14.974  0.6356 -0.9918 -0.2847
  142TMC2    C1 2206   3.025   0.506  10.413 -0.0723 -0.7358 -0.1355
  142TMC2    C2 2207   3.144   0.506  10.343 -0.0341  0.0356  0.9501
  142TMC2    C3 2208   3.231   0.613  10.360 -0.4155 -0.2626 -0.1818
  142TMC2    C4 2209   2.983   0.615  10.488 -0.0009  0.4714  0.8652
  142TMC2    C5 2210   3.072   0.719  10.506 -0.2391  0.2952  0.2045
  142TMC2    C6 2211   3.195   0.719  10.442 -0.6269  0.0233  0.1392
  142TMC2     C 2212   2.956   0.383  10.436  0.4808 -0.4089 -0.3923
  142TMC2     O 2213   2.948   0.310  10.336  0.4145 -0.3765 -0.3918
  142TMC2     H 2214   3.169   0.421  10.282  0.4394  0.5302  0.4532
  142TMC2    H1 2215   2.892   0.609  10.547  0.6796 -1.4327  1.7179
  142TMC2    H2 2216   3.274   0.792  10.458  0.0361 -1.2745  2.8850
  142TMC2    C7 2217   3.027   0.833  10.575  0.1883  0.2535  0.7532
  142TMC2    C8 2218   3.374   0.603  10.339 -0.0468 -1.0377 -0.5408
  142TMC2    O1 2219   2.953   0.815  10.668  0.3827 -0.1317 -0.0281
  142TMC2    O2 2220   3.453   0.654  10.416 -0.0433 -0.0319 -0.1283
  142TMC2    O5 2221   3.406   0.535  10.229  0.0003  0.7463  0.0479
  142TMC2    H5 2222   3.326   0.512  10.177  0.7380 -0.1545 -0.7022
  143MPD2     C 2223   2.584   0.143  10.698  0.4456  0.1769 -0.0049
  143MPD2    C1 2224   2.597   0.156  10.563  0.8288  0.4220 -0.0887
  143MPD2    C2 2225   2.711   0.223  10.523  0.3932  0.1334 -0.4305
  143MPD2    C3 2226   2.801   0.288  10.606  0.3818 -1.0078  0.4073
  143MPD2    C4 2227   2.770   0.288  10.738 -0.3798  0.1563  0.3087
  143MPD2    C5 2228   2.663   0.217  10.783 -0.1798  0.6094  0.1663
  143MPD2     H 2229   2.730   0.229  10.417 -1.7802 -1.4221 -0.9097
  143MPD2    H1 2230   2.829   0.346  10.809 -1.0239  0.1523  0.8458
  143MPD2    H2 2231   2.491   0.102  10.736 -1.1288  3.8606  0.0982
  143MPD2    H3 2232   2.629   0.224  10.886 -1.1077  1.1497 -0.1687
  143MPD2     N 2233   2.905   0.368  10.561  0.1115 -0.4025  0.0112
  143MPD2    H5 2234   2.943   0.433  10.629  0.7533  0.1952 -0.9119
  143MPD2    N1 2235   2.511   0.083  10.479  0.2683 -0.1778  0.5760
  143MPD2    H7 2236   2.441   0.023  10.521  0.0111  0.5143  1.1472
  144TMC2    C1 2237   1.149   4.440   1.179 -0.4173  0.3501 -0.1300
  144TMC2    C2 2238   1.210   4.318   1.176 -0.2932 -0.8647 -0.6806
  144TMC2    C3 2239   1.331   4.312   1.227 -0.6478  0.1284  0.3799
  144TMC2    C4 2240   1.201   4.551   1.241  0.0688 -0.4794 -0.3211
  144TMC2    C5 2241   1.327   4.542   1.289  0.1091  0.3298  0.5872
  144TMC2    C6 2242   1.391   4.420   1.290  0.1239  0.1175  0.4878
  144TMC2     C 2243   1.027   4.442   1.095  0.4222 -0.3744 -0.2320
  144TMC2     O 2244   0.970   4.338   1.068  0.1598 -0.1784 -0.0507
  144TMC2     H 2245   1.153   4.227   1.157  0.4711 -1.4024 -0.3947
  144TMC2    H1 2246   1.145   4.644   1.242  1.0117  0.0971 -1.3983
  144TMC2    H2 2247   1.491   4.407   1.331 -0.6181  1.3719  2.6994
  144TMC2    C7 2248   1.366   4.632   1.394  0.0647  0.2530 -0.5974
  144TMC2    C8 2249   1.384   4.171   1.250 -0.1623  0.5709  0.1205
  144TMC2    O1 2250   1.453   4.588   1.468  0.4391 -0.4562 -0.4119
  144TMC2    O2 2251   1.324   4.063   1.244 -0.2862  0.1778  0.4374
  144TMC2    O5 2252   1.515   4.179   1.280 -0.2005  0.2773 -0.4630
  144TMC2    H5 2253   1.562   4.259   1.247 -1.7636  1.6371  0.6102
  145MPD2     C 2254   0.646   4.691   0.846 -0.3346  0.9279  0.1704
  145MPD2    C1 2255   0.701   4.567   0.828  0.3167 -0.5143 -0.4017
  145MPD2    C2 2256   0.810   4.524   0.900  1.1304  0.2110  0.5650
  145MPD2    C3 2257   0.872   4.604   0.992  0.2287  0.4881 -0.7938
  145MPD2    C4 2258   0.828   4.734   0.996 -0.3695 -0.6703  0.1090
  145MPD2    C5 2259   0.711   0.037   0.935  0.2693  0.0651  0.8485
  145MPD2     H 2260   0.853   4.427   0.874 -1.1544 -0.3484 -1.1174
  145MPD2    H1 2261   0.880   0.079   1.046 -0.3732  0.0966 -1.1255
  145MPD2    H2 2262   0.559   4.728   0.792 -0.2742 -0.9879 -1.2479
  145MPD2    H3 2263   0.691   0.143   0.943 -0.0882 -0.0283  1.2041
  145MPD2     N 2264   0.988   4.574   1.066 -0.0223  0.1260 -0.7909
  145MPD2    H5 2265   1.025   4.656   1.113 -3.1424  0.7667  0.5647
  145MPD2    N1 2266   0.660   4.475   0.728 -0.4900 -0.1768  0.1030
  145MPD2    H7 2267   0.712   4.387   0.731  3.4963  2.1316 -1.6434
  146TMC2    C1 2268   2.800   2.822  12.446  0.6238  0.9890  0.2480
  146TMC2    C2 2269   2.800   2.823  12.311 -0.1996 -0.2086 -0.3875
  146TMC2    C3 2270   2.925   2.825  12.255 -0.4521 -1.0889  0.0379
  146TMC2    C4 2271   2.909   2.815  12.531 -0.4332  0.2227 -0.1405
  146TMC2    C5 2272   3.024   2.821  12.464  0.1884  0.3998 -0.4316
  146TMC2    C6 2273   3.040   2.823  12.327 -0.0518 -0.2651 -0.2855
  146TMC2     C 2274   2.669   2.833  12.510 -0.2798  0.0948 -0.6335
  146TMC2     O 2275   2.576   2.867  12.438  0.1320  1.0968 -0.0321
  146TMC2     H 2276   2.711   2.826  12.250 -0.9680 -0.3990  0.7168
  146TMC2    H1 2277   2.907   2.844  12.636 -0.4680  0.0352 -0.0890
  146TMC2    H2 2278   3.140   2.836  12.287 -0.1519  2.3925  0.3300
  146TMC2    C7 2279   3.145   2.829  12.546  0.0446 -0.2318  0.0419
  146TMC2    C8 2280   2.927   2.848  12.109 -0.2600  0.6953 -0.0744
  146TMC2    O1 2281   3.240   2.887  12.498 -0.4410  0.3112  0.4091
  146TMC2    O2 2282   2.836   2.907  12.053 -0.4959  0.0476  0.5074
  146TMC2    O5 2283   3.055   2.838  12.057  0.1292 -0.1272 -0.4969
  146TMC2    H5 2284   3.111   2.780  12.112 -1.9937 -0.6143  1.1368
  147MPD2     C 2285   3.365   2.823  13.008 -0.6058 -0.1536 -0.1128
  147MPD2    C1 2286   3.273   2.716  12.997  0.1738 -0.0584  0.2481
  147MPD2    C2 2287   3.199   2.696  12.878  0.5296 -0.5950  0.6623
  147MPD2    C3 2288   3.215   2.784  12.774 -0.5825 -1.1888  0.0240
  147MPD2    C4 2289   3.309   2.887  12.790 -1.1034  0.2526  0.3104
  147MPD2    C5 2290   3.387   2.904  12.901  0.0430 -0.8245  0.3409
  147MPD2     H 2291   3.132   2.611  12.866 -2.0639  1.7338 -1.4167
  147MPD2    H1 2292   3.318   2.963  12.713 -0.7288 -1.0129 -0.8909
  147MPD2    H2 2293   3.418   2.836  13.102  1.7898 -1.3932 -1.2842
  147MPD2    H3 2294   3.460   2.984  12.907  1.6407 -2.2832  0.3854
  147MPD2     N 2295   3.132   2.765  12.662  0.1543 -0.9184  0.0120
  147MPD2    H5 2296   3.049   2.708  12.674  0.1531 -0.5299  1.8680
  147MPD2    N1 2297   3.257   2.627  13.112 -0.0372 -0.0022  0.6150
  147MPD2    H7 2298   3.316   2.622  13.195  1.5294 -2.0019 -0.6312
  148TMC2    C1 2299   2.525   1.718  10.657  0.5715  0.4312 -0.0354
  148TMC2    C2 2300   2.570   1.815  10.745 -0.3652 -0.2089 -0.4596
  148TMC2    C3 2301   2.660   1.782  10.841  0.2181 -0.4896 -0.7058
  148TMC2    C4 2302   2.567   1.591  10.673  0.0346 -1.0071 -0.7758
  148TMC2    C5 2303   2.640   1.561  10.784 -0.0788  0.3592 -0.1209
  148TMC2    C6 2304   2.688   1.653  10.868 -0.6442 -0.0373  0.1929
  148TMC2     C 2305   2.405   1.761  10.584 -0.1593 -0.0027 -0.7643
  148TMC2     O 2306   2.380   1.880  10.576 -0.4962 -0.0948 -0.8456
  148TMC2     H 2307   2.553   1.921  10.729 -0.1623 -0.0226  0.5358
  148TMC2    H1 2308   2.545   1.509  10.605 -0.1091 -1.0121 -0.7223
  148TMC2    H2 2309   2.767   1.631  10.940 -0.9870 -0.6178  0.3953
  148TMC2    C7 2310   2.613   1.428  10.833  0.7046  0.7575  0.1183
  148TMC2    C8 2311   2.705   1.886  10.925  0.2078 -0.3587 -0.0386
  148TMC2    O1 2312   2.604   1.343  10.743 -0.3511 -0.3688  0.2576
  148TMC2    O2 2313   2.720   2.004  10.895 -0.3679  0.0277  0.9577
  148TMC2    O5 2314   2.736   1.837  11.046 -0.2213 -0.0102 -0.3646
  148TMC2    H5 2315   2.688   1.755  11.069 -1.5490  0.6036 -0.9812
  149MPD2     C 2316   2.161   1.755  10.420  0.0956 -0.0214  0.4669
  149MPD2    C1 2317   2.220   1.644  10.464  0.3128  0.3572  0.1707
  149MPD2    C2 2318   2.152   1.527  10.435  0.0539  0.0361  0.1314
  149MPD2    C3 2319   2.037   1.520  10.363  0.3765  0.3464  0.6468
  149MPD2    C4 2320   1.977   1.635  10.311 -0.8722 -0.4303 -0.2093
  149MPD2    C5 2321   2.040   1.750  10.347  0.4695 -0.0259 -0.1046
  149MPD2     H 2322   2.191   1.435  10.479  0.3476  0.6405  1.1382
  149MPD2    H1 2323   1.883   1.632  10.257 -0.6199  0.2649 -0.6911
  149MPD2    H2 2324   2.202   1.854  10.432  0.1582  0.0774 -0.5219
  149MPD2    H3 2325   2.000   1.847  10.321 -0.6263 -0.8403 -1.4682
  149MPD2     N 2326   1.955   1.399  10.355  0.5569 -0.2406 -0.2722
  149MPD2    H5 2327   1.872   1.419  10.299 -0.5315  1.1585  1.8347
  149MPD2    N1 2328   2.341   1.650  10.539 -0.5922 -0.2369  0.2291
  149MPD2    H7 2329   2.391   1.562  10.554 -0.6288 -0.0352  1.5862
  150TMC2    C1 2330   4.342   0.439  12.481 -0.0674  0.1615 -1.1088
  150TMC2    C2 2331   4.407   0.469  12.362  0.1325  0.2498 -0.1310
  150TMC2    C3 2332   4.541   0.463  12.361 -0.9350 -0.0978  0.3504
  150TMC2    C4 2333   4.412   0.418  12.597 -0.3072 -0.1521  0.9749
  150TMC2    C5 2334   4.546   0.428  12.587  0.4712  0.3470  0.4660
  150TMC2    C6 2335   4.610   0.449  12.472 -0.0236  0.6815 -0.5908
  150TMC2     C 2336   4.207   0.497  12.498  0.3208 -1.3438  0.3092
  150TMC2     O 2337   4.172   0.517  12.612  0.6715 -0.4759  0.0952
  150TMC2     H 2338   4.354   0.476  12.267  0.9261  0.9460 -0.5183
  150TMC2    H1 2339   4.371   0.402  12.696 -1.6226  1.7563  0.7293
  150TMC2    H2 2340   4.717   0.463  12.481  0.0553 -1.7957  2.3990
  150TMC2    C7 2341   4.631   0.409  12.705 -0.8370  0.7226  0.4170
  150TMC2    C8 2342   4.602   0.499  12.239  0.4246 -0.2996 -0.9810
  150TMC2    O1 2343   4.604   0.311  12.773 -0.0253  0.2069 -0.5869
  150TMC2    O2 2344   4.722   0.478  12.218  0.4882 -0.0703 -0.5220
  150TMC2    O5 2345   4.546   0.620  12.223  0.1856  0.2680  0.3930
  150TMC2    H5 2346   4.449   0.618  12.230  0.2541  1.6787  1.9850
  151MPD2     C 2347   3.776   0.725  12.310 -0.9609  0.3224 -0.3196
  151MPD2    C1 2348   3.858   0.687  12.209 -0.1836  0.8618 -0.0320
  151MPD2    C2 2349   3.977   0.621  12.230 -0.4017 -0.5297  0.3939
  151MPD2    C3 2350   4.022   0.598  12.357  0.3192 -0.1841  0.6586
  151MPD2    C4 2351   3.942   0.644  12.462 -0.3797 -0.8439  0.0738
  151MPD2    C5 2352   3.824   0.712  12.437 -0.1506  0.7830  0.8037
  151MPD2     H 2353   4.044   0.608  12.146 -1.0111 -2.3193  0.1955
  151MPD2    H1 2354   3.968   0.612  12.562  3.3730 -0.6629 -0.8664
  151MPD2    H2 2355   3.677   0.768  12.299 -0.4861  1.2078 -1.1285
  151MPD2    H3 2356   3.758   0.740  12.519  1.1322  0.9037  1.8006
  151MPD2     N 2357   4.144   0.529  12.377 -0.0316 -0.5103  0.6207
  151MPD2    H5 2358   4.190   0.494  12.293 -0.1206  1.8894 -0.4225
  151MPD2    N1 2359   3.797   0.699  12.083 -0.7795 -0.3212  0.2132
  151MPD2    H7 2360   3.706   0.746  12.080 -0.3078  0.6860  1.4066
  152TMC2    C1 2361   4.151   0.399  13.004 -0.3252  0.2105  0.3301
  152TMC2    C2 2362   4.219   0.333  13.096 -0.1468 -0.2778  0.5574
  152TMC2    C3 2363   4.349   0.353  13.110 -0.1068 -0.2437  0.2823
  152TMC2    C4 2364   4.208   0.493  12.926 -0.3285  0.4206  0.3202
  152TMC2    C5 2365   4.341   0.516  12.946 -0.2958 -0.1153 -0.4205
  152TMC2    C6 2366   4.423   0.443  13.035 -0.4623  0.1639 -0.3384
  152TMC2     C 2367   4.005   0.393  12.995 -0.0771 -1.0195 -0.0216
  152TMC2     O 2368   3.953   0.489  12.940  0.1509 -0.1978  0.4696
  152TMC2     H 2369   4.170   0.266  13.165  0.7365 -1.8894 -0.4004
  152TMC2    H1 2370   4.156   0.546  12.847 -1.0673  0.7028  0.9986
  152TMC2    H2 2371   4.529   0.450  13.053 -0.1056  0.6716 -2.6000
  152TMC2    C7 2372   4.378   0.657  12.917  0.2620  0.1958  0.2708
  152TMC2    C8 2373   4.429   0.269  13.201  0.3149 -0.1345 -0.2015
  152TMC2    O1 2374   4.300   0.726  12.854  0.6216  0.1497 -0.1758
  152TMC2    O2 2375   4.520   0.307  13.271 -0.0245  0.7476  0.4149
  152TMC2    O5 2376   4.398   0.144  13.177 -0.4863 -0.0940  0.2815
  152TMC2    H5 2377   4.343   0.127  13.098 -1.4594  0.5156  0.8323
  153MPD2     C 2378   3.790   0.103  13.057 -0.1136  0.4929  0.0667
  153MPD2    C1 2379   3.823   0.232  13.020  0.4377  0.0008  0.3043
  153MPD2    C2 2380   3.725   0.321  12.990 -0.0764  0.1509 -0.2852
  153MPD2    C3 2381   3.592   0.281  12.982  0.6541  0.4546 -0.2273
  153MPD2    C4 2382   3.562   0.151  13.009 -0.1071  0.4001 -0.1168
  153MPD2    C5 2383   3.660   0.062  13.037  0.0768 -0.4097  0.3874
  153MPD2     H 2384   3.750   0.423  12.962  2.0613 -0.5845 -0.9557
  153MPD2    H1 2385   3.462   0.109  13.007 -0.3581  1.0560 -1.7185
  153MPD2    H2 2386   3.862   0.024  13.076 -0.6758  0.3205  1.5342
  153MPD2    H3 2387   3.636   4.693  13.050 -0.6450 -0.4985 -1.6533
  153MPD2     N 2388   3.493   0.386  12.974 -0.3138  0.1000 -0.1704
  153MPD2    H5 2389   3.532   0.476  12.952  1.3825 -1.1795 -2.4116
  153MPD2    N1 2390   3.956   0.266  13.022  0.3481 -0.1244 -0.1577
  153MPD2    H7 2391   4.013   0.194  13.064 -0.3152 -0.8600 -0.5379
  154TMC2    C1 2392   0.650   0.960   0.397  0.6344  0.9424  0.4596
  154TMC2    C2 2393   0.750   0.938   0.483 -0.7198  0.4889  0.2800
  154TMC2    C3 2394   0.860   0.883   0.427  0.2701 -0.4622 -0.2891
  154TMC2    C4 2395   0.639   0.923   0.264 -1.1905  0.5368 -0.2364
  154TMC2    C5 2396   0.752   0.858   0.222 -0.7697  0.3765  0.5518
  154TMC2    C6 2397   0.863   0.846   0.301 -0.3893  0.2521  0.4289
  154TMC2     C 2398   0.539   1.033   0.460 -0.2468 -0.2288  0.7958
  154TMC2     O 2399   0.577   1.094   0.560 -0.1433 -0.0626 -0.8650
  154TMC2     H 2400   0.757   0.968   0.587 -0.7327  1.1384  0.0955
  154TMC2    H1 2401   0.551   0.935   0.202  0.0411  2.3369 -1.6054
  154TMC2    H2 2402   0.942   0.786   0.256 -0.4795  0.5724 -0.1572
  154TMC2    C7 2403   0.745   0.775   0.107 -0.1230  0.1281  0.5754
  154TMC2    C8 2404   0.970   0.839   0.515 -0.1209 -0.0300 -0.0633
  154TMC2    O1 2405   0.804   0.668   0.122  0.4918 -0.2992 -0.3712
  154TMC2    O2 2406   0.954   0.841   0.637 -0.1470  0.3368  0.2386
  154TMC2    O5 2407   1.074   0.886   0.445  0.3921 -0.0331 -0.7516
  154TMC2    H5 2408   1.050   0.896   0.351 -1.0844 -0.8336 -0.4659
  155MPD2     C 2409   0.179   1.043   0.382 -0.7031 -0.0221  0.4276
  155MPD2    C1 2410   0.292   1.068   0.451  0.2708 -0.4502 -0.5740
  155MPD2    C2 2411   0.286   1.151   0.562 -0.1142  0.1477  0.4501
  155MPD2    C3 2412   0.173   1.225   0.597 -0.0015 -0.4003 -0.4237
  155MPD2    C4 2413   0.058   1.203   0.520  0.2683  0.9003  0.5303
  155MPD2    C5 2414   0.067   1.115   0.411  0.1658 -0.1605  0.0712
  155MPD2     H 2415   0.373   1.172   0.623 -0.4917  0.6359  0.8240
  155MPD2    H1 2416   4.699   1.242   0.556 -0.5508  0.1982 -0.8848
  155MPD2    H2 2417   0.162   0.965   0.309  0.8509 -2.1515  2.3376
  155MPD2    H3 2418   4.707   1.101   0.362  0.2706  1.9306 -0.7538
  155MPD2     N 2419   0.182   1.325   0.702  0.3188  1.1800 -0.2414
  155MPD2    H5 2420   0.254   1.306   0.772 -1.7226 -2.2833  0.9442
  155MPD2    N1 2421   0.412   1.014   0.404 -0.3510 -0.2960 -0.4883
  155MPD2    H7 2422   0.394   0.959   0.321  1.9437 -3.3335  1.0445
  156TMC2    C1 2423   4.043   3.005  11.255 -0.3289 -0.1522 -0.3203
  156TMC2    C2 2424   3.974   2.961  11.147  0.0404  1.2145 -0.6752
  156TMC2    C3 2425   3.869   3.049  11.117  0.4276 -0.3737 -0.6574
  156TMC2    C4 2426   4.027   3.130  11.314  0.4908  0.6159  0.0447
  156TMC2    C5 2427   3.915   3.204  11.281  0.1567  0.5013  0.5438
  156TMC2    C6 2428   3.838   3.170  11.174  0.3412 -0.0208 -0.1281
  156TMC2     C 2429   4.091   2.898  11.340  0.5267  0.4029 -0.2251
  156TMC2     O 2430   4.134   2.795  11.290 -0.1120 -0.3208 -0.0116
  156TMC2     H 2431   3.969   2.863  11.101  0.7504  1.3764 -1.0959
  156TMC2    H1 2432   4.093   3.165  11.393 -0.1826 -0.5096  1.1088
  156TMC2    H2 2433   3.772   3.238  11.121 -0.4093  1.3320  2.5212
  156TMC2    C7 2434   3.914   3.349  11.310  0.4180 -0.5973  0.3932
  156TMC2    C8 2435   3.802   3.024  10.994 -0.2272 -0.2950  0.5552
  156TMC2    O1 2436   4.009   3.394  11.368  0.4427 -0.4669  0.0221
  156TMC2    O2 2437   3.860   2.970  10.904 -0.0416  0.3591  0.3172
  156TMC2    O5 2438   3.672   3.019  11.012 -0.4487  0.0902 -0.7670
  156TMC2    H5 2439   3.653   3.018  11.108  1.3600  1.0121 -0.3928
  157MPD2     C 2440   4.169   2.719  11.571  0.4030  0.5131 -0.5709
  157MPD2    C1 2441   4.098   2.839  11.580  0.1252 -0.1884 -0.4405
  157MPD2    C2 2442   4.049   2.870  11.706 -0.3674  0.0327  0.3945
  157MPD2    C3 2443   4.077   2.786  11.813 -0.8123  0.5711  0.1460
  157MPD2    C4 2444   4.150   2.669  11.797 -0.6094  0.5462 -0.2435
  157MPD2    C5 2445   4.182   2.631  11.672  0.5095 -0.2559  0.7269
  157MPD2     H 2446   3.994   2.963  11.720  1.7360  1.3430 -0.0312
  157MPD2    H1 2447   4.171   2.587  11.865 -0.6491  0.2882 -0.5405
  157MPD2    H2 2448   4.208   2.677  11.479 -0.5575 -2.3581  0.3265
  157MPD2    H3 2449   4.249   2.549  11.651  0.9132  0.7197 -1.8348
  157MPD2     N 2450   4.053   2.833  11.947 -0.2981 -0.5679 -0.2617
  157MPD2    H5 2451   4.029   2.930  11.963  0.3150 -0.2986 -1.0013
  157MPD2    N1 2452   4.069   2.926  11.472  0.2859  0.2063  0.4752
  157MPD2    H7 2453   4.020   3.013  11.487 -0.3019 -0.2988  1.4949
  158TMC2    C1 2454   0.524   1.745  13.841  0.2200  0.7018 -1.3600
  158TMC2    C2 2455   0.606   1.845  13.797 -0.3270  0.4944  0.0675
  158TMC2    C3 2456   0.574   1.906  13.679  0.3077  0.8706 -0.5158
  158TMC2    C4 2457   0.419   1.702  13.765 -0.5658  0.1268 -0.3311
  158TMC2    C5 2458   0.384   1.771  13.651 -0.2261  0.5181 -0.2151
  158TMC2    C6 2459   0.465   1.866  13.600  0.2775 -0.7062 -0.0775
  158TMC2     C 2460   0.563   1.691  13.970  0.9324 -0.0628  0.7361
  158TMC2     O 2461   0.671   1.735  14.021 -0.2049 -0.0933 -0.1118
  158TMC2     H 2462   0.672   1.893  13.868  0.9695 -1.5951  0.2496
  158TMC2    H1 2463   0.344   1.633  13.804  0.9512 -0.2289  1.9446
  158TMC2    H2 2464   0.445   1.915  13.505  1.5218  1.3842  0.7286
  158TMC2    C7 2465   0.267   1.737  13.567  0.9795 -0.4374 -0.3077
  158TMC2    C8 2466   0.620   2.039  13.660 -0.3497  0.3153 -0.2951
  158TMC2    O1 2467   0.258   1.792  13.459 -0.2231 -0.1791  0.3247
  158TMC2    O2 2468   0.653   2.119  13.750  0.1743  0.1415  0.4449
  158TMC2    O5 2469   0.681   2.031  13.538  0.2915 -0.7281 -0.6849
  158TMC2    H5 2470   0.658   1.957  13.477 -2.2122 -2.0000  1.8220
  159MPD2     C 2471   0.434   1.389  14.376 -0.5377  0.9884 -0.5108
  159MPD2    C1 2472   0.364   1.352  14.264 -0.1836 -0.4027 -0.7656
  159MPD2    C2 2473   0.377   1.416  14.137 -0.2231 -0.2806  0.3906
  159MPD2    C3 2474   0.476   1.516  14.126  0.0668  0.4068 -0.4013
  159MPD2    C4 2475   0.554   1.545  14.235 -0.2292  0.6317 -0.0160
  159MPD2    C5 2476   0.526   1.489  14.361  0.1900  0.6532 -0.0930
  159MPD2     H 2477   0.317   1.394  14.049 -0.0414 -1.5711  0.5880
  159MPD2    H1 2478   0.625   1.626  14.237  1.7539 -1.1059  0.5197
  159MPD2    H2 2479   0.420   1.350  14.475 -0.9559  2.2048 -0.0850
  159MPD2    H3 2480   0.585   1.532  14.441 -1.3437  1.2350  0.7225
  159MPD2     N 2481   0.477   1.589  14.005 -0.2466 -1.0217 -0.3803
  159MPD2    H5 2482   0.400   1.568  13.941 -2.2210  0.5990  1.4774
  159MPD2    N1 2483   0.259   1.259  14.285  0.5086 -0.0255 -0.8982
  159MPD2    H7 2484   0.251   1.229  14.381  0.5023 -0.8994 -1.1759
  160TMC2    C1 2485   4.292   0.122   1.648 -0.1076  0.2314 -0.5619
  160TMC2    C2 2486   4.331   0.074   1.767 -0.0492  0.9333  0.4268
  160TMC2    C3 2487   4.463   0.083   1.807  0.5067 -0.7251  0.1897
  160TMC2    C4 2488   4.371   0.182   1.558  0.6199  0.0616 -0.3744
  160TMC2    C5 2489   4.497   0.198   1.602 -0.2331 -0.1752  0.5195
  160TMC2    C6 2490   4.546   0.145   1.716 -0.7388 -0.1855 -0.1489
  160TMC2     C 2491   4.158   0.091   1.617  0.1464 -0.2768  0.3624
  160TMC2     O 2492   4.103   4.733   1.679 -0.1965  0.0454 -0.8111
  160TMC2     H 2493   4.254   0.044   1.838 -0.7136 -1.5305 -1.3458
  160TMC2    H1 2494   4.345   0.218   1.459  0.2319  3.5024  0.9828
  160TMC2    H2 2495   4.653   0.158   1.729 -0.6867  0.0390 -0.8188
  160TMC2    C7 2496   4.593   0.224   1.498 -0.0383 -0.5365  0.4603
  160TMC2    C8 2497   4.500   0.050   1.942  0.2749  0.2184  0.4550
  160TMC2    O1 2498   4.691   0.152   1.493 -0.2917  0.1752  0.2951
  160TMC2    O2 2499   4.415   0.011   2.019  0.1749 -0.2715  0.3419
  160TMC2    O5 2500   4.634   0.047   1.955 -0.5518  0.6413  0.0065
  160TMC2    H5 2501   4.694   0.061   1.878 -0.9580 -0.0890 -0.4415
  161MPD2     C 2502   3.888   0.099   1.480 -0.3938  0.0166 -0.3581
  161MPD2    C1 2503   3.981   0.200   1.470 -0.4232  0.1346  0.4708
  161MPD2    C2 2504   3.955   0.320   1.405 -0.1275  0.2519  0.8447
  161MPD2    C3 2505   3.830   0.331   1.340  0.5769  0.2137  0.1080
  161MPD2    C4 2506   3.739   0.230   1.350 -0.2721 -0.0757 -0.0546
  161MPD2    C5 2507   3.764   0.118   1.423  0.1605 -0.1092  0.4970
  161MPD2     H 2508   4.035   0.392   1.399 -1.2788  1.4509  0.0481
  161MPD2    H1 2509   3.653   0.236   1.284  0.0604  1.7671 -0.3089
  161MPD2    H2 2510   3.904   0.012   1.543  2.5391  0.4754 -0.4779
  161MPD2    H3 2511   3.683   0.046   1.433  2.0583 -2.1076  1.5126
  161MPD2     N 2512   3.799   0.443   1.255 -0.1810  0.9811 -0.3920
  161MPD2    H5 2513   3.714   0.429   1.199 -1.7844  2.0867  1.7806
  161MPD2    N1 2514   4.114   0.186   1.525 -0.7600  0.8373 -0.4597
  161MPD2    H7 2515   4.185   0.257   1.509 -0.3353  0.5151 -0.0086
  162TMC2    C1 2516   2.242   2.352   0.951  1.0059 -0.8678  0.3119
  162TMC2    C2 2517   2.149   2.418   1.018 -0.7546 -0.7801 -0.5939
  162TMC2    C3 2518   2.180   2.494   1.125  0.1824 -1.2909 -0.1237
  162TMC2    C4 2519   2.372   2.362   0.986 -0.7859 -0.2111  0.3333
  162TMC2    C5 2520   2.409   2.438   1.093 -0.0731 -0.1199 -0.5789
  162TMC2    C6 2521   2.314   2.500   1.166  0.5174  0.0980 -0.0600
  162TMC2     C 2522   2.203   2.262   0.844 -0.1475  0.5867  0.1960
  162TMC2     O 2523   2.294   2.238   0.765  0.3443  0.9777  0.1184
  162TMC2     H 2524   2.050   2.436   0.978 -1.5745 -1.3296  1.2074
  162TMC2    H1 2525   2.446   2.327   0.914 -0.8860  0.2503  0.0050
  162TMC2    H2 2526   2.355   2.556   1.249  1.0087 -0.5712  0.1501
  162TMC2    C7 2527   2.544   2.434   1.144 -0.2305 -0.6252 -0.6359
  162TMC2    C8 2528   2.082   2.545   1.212 -0.1487  0.5460 -0.2435
  162TMC2    O1 2529   2.583   2.525   1.220 -0.3732  0.0889  0.6882
  162TMC2    O2 2530   2.095   2.636   1.293  0.8508  0.4103 -0.4536
  162TMC2    O5 2531   1.992   2.445   1.235  0.0100 -0.0150  0.0223
  162TMC2    H5 2532   1.981   2.372   1.170  0.7142 -1.3619  1.4166
  163MPD2     C 2533   1.868   1.977   0.578  0.3510  0.1754  0.0462
  163MPD2    C1 2534   1.997   2.018   0.548 -0.2787 -0.3577 -0.9037
  163MPD2    C2 2535   2.070   2.085   0.646 -0.4317  0.5806 -0.3796
  163MPD2    C3 2536   2.006   2.133   0.762  0.2683  0.0348  0.0608
  163MPD2    C4 2537   1.871   2.106   0.781 -0.3089  0.0431 -0.2039
  163MPD2    C5 2538   1.805   2.019   0.698  0.7808 -0.5024  0.5805
  163MPD2     H 2539   2.168   2.126   0.625 -0.0804  0.0691  0.2750
  163MPD2    H1 2540   1.812   2.119   0.871 -0.4362 -0.2969 -0.2359
  163MPD2    H2 2541   1.816   1.909   0.512  0.7081  1.5300 -1.6507
  163MPD2    H3 2542   1.705   1.983   0.717  0.3171  2.0943  2.9820
  163MPD2     N 2543   2.068   2.223   0.850  0.1866 -0.2959 -0.0378
  163MPD2    H5 2544   2.013   2.248   0.932 -1.5528 -0.4225 -1.1611
  163MPD2    N1 2545   2.053   1.968   0.425 -0.2183  0.0865 -0.3893
  163MPD2    H7 2546   1.980   1.932   0.364 -0.0249  0.9953 -1.1441
  164TMC2    C1 2547   2.925   1.969  11.350 -0.1642 -0.6328 -0.3006
  164TMC2    C2 2548   2.972   2.019  11.233  0.1947  0.0350 -0.2403
  164TMC2    C3 2549   2.898   2.106  11.154  0.2175 -0.1501 -0.1555
  164TMC2    C4 2550   2.802   2.015  11.394 -0.2175 -0.5453 -0.1913
  164TMC2    C5 2551   2.729   2.092  11.308  0.0102  0.7214  0.4140
  164TMC2    C6 2552   2.771   2.129  11.183  0.7297 -0.1478 -0.5563
  164TMC2     C 2553   2.968   1.845  11.410  0.5925 -0.2600 -0.1910
  164TMC2     O 2554   2.939   1.822  11.527 -0.4031 -0.1949 -0.4440
  164TMC2     H 2555   3.078   1.999  11.221  0.3659  0.4957  0.4844
  164TMC2    H1 2556   2.770   1.984  11.493 -4.5042  1.8616 -0.8726
  164TMC2    H2 2557   2.707   2.188  11.118 -2.5667 -3.0478  0.0739
  164TMC2    C7 2558   2.599   2.145  11.350 -0.6544  0.0600  0.8120
  164TMC2    C8 2559   2.973   2.180  11.062  0.2682  0.8714  0.1316
  164TMC2    O1 2560   2.553   2.235  11.279  0.0152  0.2267  0.3814
  164TMC2    O2 2561   3.072   2.245  11.089  0.5791  0.0984  0.1612
  164TMC2    O5 2562   2.904   2.183  10.946 -0.7556 -0.5216  0.2040
  164TMC2    H5 2563   2.833   2.116  10.937 -1.7589  0.6520 -0.4970
  165TMC2    C1 2564   4.544   4.138   2.187  0.2156  0.3708 -0.0284
  165TMC2    C2 2565   4.408   4.118   2.196 -0.0123  0.1061 -0.0543
  165TMC2    C3 2566   4.322   4.206   2.129 -0.1798  0.3519 -0.2233
  165TMC2    C4 2567   4.596   4.236   2.106 -0.0265  0.1940  0.3958
  165TMC2    C5 2568   4.509   4.320   2.041 -0.4385  0.5450  0.0907
  165TMC2    C6 2569   4.374   4.304   2.053 -0.5792  0.2063 -0.2731
  165TMC2     C 2570   4.644   4.061   2.253  0.3642  0.6812  0.2851
  165TMC2     O 2571   4.621   3.945   2.271 -0.0085  0.4508 -0.4200
  165TMC2     H 2572   4.361   4.031   2.241  0.2269  0.5392  1.0163
  165TMC2    H1 2573   4.700   4.266   2.102  0.1400 -0.4031  0.3318
  165TMC2    H2 2574   4.312   4.385   2.016 -1.9602 -0.3057  0.9043
  165TMC2    C7 2575   4.565   4.418   1.947 -0.7409  0.3666  0.9702
  165TMC2    C8 2576   4.184   4.197   2.165  0.3032 -0.7882 -0.5315
  165TMC2    O1 2577   4.686   4.433   1.953 -0.5240 -0.6878 -0.6270
  165TMC2    O2 2578   4.140   4.132   2.263 -0.8269  0.7587  0.8251
  165TMC2    O5 2579   4.112   4.238   2.057 -0.0367 -0.1711 -0.3678
  165TMC2    H5 2580   4.163   4.271   1.980 -0.3354 -0.8179 -0.8555
  166MPD2     C 2581   0.363   3.959   2.458 -0.1280  0.9193  0.2246
  166MPD2    C1 2582   0.270   3.866   2.410 -0.2200  0.4533  0.5484
  166MPD2    C2 2583   0.166   3.928   2.342  0.1388 -0.7168 -0.9100
  166MPD2    C3 2584   0.146   4.068   2.342 -0.6758  0.8200 -0.7460
  166MPD2    C4 2585   0.236   4.149   2.392  0.4872 -0.7349 -0.2642
  166MPD2    C5 2586   0.348   4.092   2.443  0.4383 -0.4805  0.1873
  166MPD2     H 2587   0.098   3.858   2.295 -3.5312  3.4459 -1.8573
  166MPD2    H1 2588   0.229   4.257   2.393 -0.3989 -0.7865 -0.7623
  166MPD2    H2 2589   0.458   3.924   2.498 -1.5056  0.0407  2.7659
  166MPD2    H3 2590   0.436   4.147   2.476  0.2427  0.5890 -1.0990
  166MPD2     N 2591   0.025   4.129   2.297  0.0189  0.2358  0.3254
  166MPD2    H5 2592   0.018   4.230   2.293  3.4220  0.5949  3.5949
  166MPD2    N1 2593   0.306   3.730   2.415  0.1135  0.0188 -1.4730
  166MPD2    H7 2594   0.397   3.713   2.457  1.7791  2.0283 -4.2697
  167TMC2    C1 2595   1.991   1.564  13.022 -0.1599 -0.5469 -0.4348
  167TMC2    C2 2596   1.968   1.602  13.152 -0.0710  0.2971 -0.6477
  167TMC2    C3 2597   1.947   1.499  13.251  0.5970  0.7630  0.1624
  167TMC2    C4 2598   2.002   1.430  12.990  0.4022 -0.2682 -0.6047
  167TMC2    C5 2599   1.984   1.340  13.092  0.4644 -0.6387  0.2579
  167TMC2    C6 2600   1.954   1.368  13.219  0.0072  0.3580 -0.2822
  167TMC2     C 2601   2.040   1.663  12.931 -0.1637  0.8990 -0.1887
  167TMC2     O 2602   2.030   1.776  12.972  0.4500 -0.0300 -0.4039
  167TMC2     H 2603   1.956   1.706  13.181  1.3225  0.5274 -0.9132
  167TMC2    H1 2604   1.991   1.398  12.887 -1.3209 -0.7690 -0.2684
  167TMC2    H2 2605   1.942   1.292  13.295 -3.1334 -0.5212 -1.6508
  167TMC2    C7 2606   2.000   1.197  13.070 -0.0403  0.2942 -0.6620
  167TMC2    C8 2607   1.899   1.527  13.387  0.3233  0.4422  0.6477
  167TMC2    O1 2608   1.935   1.126  13.144 -0.2474  0.0258  0.4107
  167TMC2    O2 2609   1.836   1.443  13.451  0.2770 -0.0454  0.3614
  167TMC2    O5 2610   1.987   1.614  13.442  0.2910 -0.2693 -0.1008
  167TMC2    H5 2611   2.041   1.663  13.376 -1.7992  4.5248  1.8079
  168MPD2     C 2612   2.051   1.825  12.678  0.4335 -0.0067 -1.1107
  168MPD2    C1 2613   2.079   1.692  12.689 -0.7897  0.1526 -0.1083
  168MPD2    C2 2614   2.108   1.620  12.569 -0.2522  0.3498  0.5421
  168MPD2    C3 2615   2.099   1.690  12.442  0.8362  0.1695  0.0586
  168MPD2    C4 2616   2.072   1.827  12.443  0.2367  0.3391 -0.1512
  168MPD2    C5 2617   2.039   1.890  12.560  0.3504 -0.8119 -0.8772
  168MPD2     H 2618   2.123   1.513  12.576 -1.5162  0.0200 -1.3903
  168MPD2    H1 2619   2.051   1.890  12.357  1.1625  0.3953 -0.3360
  168MPD2    H2 2620   2.023   1.890  12.761  1.4352 -2.6070  1.2632
  168MPD2    H3 2621   2.013   1.996  12.560  2.8150 -0.2136  2.1424
  168MPD2     N 2622   2.112   1.632  12.318  0.1133 -0.3279 -0.0263
  168MPD2    H5 2623   2.090   1.689  12.237 -2.9209 -1.3552  0.0651
  168MPD2    N1 2624   2.072   1.615  12.808 -0.2222 -0.5883  0.3083
  168MPD2    H7 2625   2.097   1.517  12.807 -0.5505 -0.6539 -1.1962
  169MPD1     C 2626   0.269   1.851   8.913 -0.1087 -0.6533 -0.2597
  169MPD1    C1 2627   0.183   1.811   9.011 -0.3446  0.2632  0.4493
  169MPD1    C2 2628   0.201   1.689   9.072 -0.0164  0.3796  0.2224
  169MPD1    C3 2629   0.304   1.600   9.036  0.3380  0.0516  0.7862
  169MPD1    C4 2630   0.388   1.639   8.933 -0.6109 -0.0019 -0.1117
  169MPD1    C5 2631   0.362   1.758   8.872  0.5657  0.5127 -0.4400
  169MPD1     H 2632   0.127   1.677   9.151 -0.5500  1.3609 -0.1204
  169MPD1    H1 2633   0.475   1.581   8.904 -2.0762 -2.4601  0.3783
  169MPD1    H2 2634   0.270   1.947   8.863 -0.3915 -2.0791 -3.0064
  169MPD1    H3 2635   0.440   1.800   8.809  2.3663 -0.5201  1.1120
  169MPD1     N 2636   0.316   1.473   9.107  0.1434 -0.6349 -0.0578
  169MPD1    H5 2637   0.242   1.457   9.175 -0.1786 -2.4521 -0.8343
  169MPD1    N1 2638   0.092   1.912   9.057  0.4664  0.2259  0.7503
  169MPD1    H6 2639   0.055   1.976   8.987  1.5914 -1.3358 -1.2880
  169MPD1    H7 2640   0.011   1.885   9.111  1.5706 -1.3351  1.6093
  170MPD1     C 2641   3.514   3.720  12.941 -0.6486 -0.5367 -0.6622
  170MPD1    C1 2642   3.394   3.785  12.946  0.1394 -0.9345 -0.3551
  170MPD1    C2 2643   3.306   3.763  13.052 -0.2437 -0.1812  0.1415
  170MPD1    C3 2644   3.346   3.672  13.154 -0.5202  0.7387 -0.7365
  170MPD1    C4 2645   3.466   3.609  13.149  0.1801  0.2966 -0.0469
  170MPD1    C5 2646   3.544   3.628  13.035  0.2623 -0.2263  0.3831
  170MPD1     H 2647   3.214   3.819  13.060  0.1350  0.4941 -0.1885
  170MPD1    H1 2648   3.495   3.540  13.228 -1.9156 -1.8102 -1.1193
  170MPD1    H2 2649   3.576   3.724  12.852 -0.4111  1.4782 -0.4016
  170MPD1    H3 2650   3.630   3.565  13.012  0.2456 -0.4317  0.8762
  170MPD1     N 2651   3.244   3.653  13.261  0.7251  0.2773  0.2860
  170MPD1    H5 2652   3.159   3.705  13.244  1.2223  0.8084 -0.6081
  170MPD1    N1 2653   3.361   3.889  12.859  0.0798  0.0014  0.1919
  170MPD1    H6 2654   3.386   3.874  12.761  4.3161  1.9153  0.9905
  170MPD1    H7 2655   3.268   3.929  12.866  0.4905  0.7665  1.2499
  171MPD1     C 2656   1.653   0.077  15.373 -0.2298 -0.0130 -0.4434
  171MPD1    C1 2657   1.708   4.686  15.353  0.6592  0.3491  0.3509
  171MPD1    C2 2658   1.790   4.628  15.445 -0.0676  0.0700 -0.0198
  171MPD1    C3 2659   1.829   4.703  15.561  0.1170 -0.2298  0.0498
  171MPD1    C4 2660   1.786   0.100  15.564  0.3859  0.2404  0.3511
  171MPD1    C5 2661   1.690   0.154  15.486 -0.9279 -0.1280 -0.0521
  171MPD1     H 2662   1.829   4.527  15.436  0.3171  0.0971  1.3040
  171MPD1    H1 2663   1.804   0.157  15.655 -0.8148  0.5249  0.4139
  171MPD1    H2 2664   1.582   0.130  15.309  1.2621  2.3981 -0.0763
  171MPD1    H3 2665   1.655   0.256  15.499 -0.9181 -0.1758  0.3498
  171MPD1     N 2666   1.901   4.652  15.669  0.0520 -0.4614  0.3048
  171MPD1    H5 2667   1.927   4.723  15.737 -0.9082  0.9481 -0.7955
  171MPD1    N1 2668   1.662   4.606  15.247 -0.1940 -0.4287 -0.3864
  171MPD1    H6 2669   1.714   4.519  15.234 -2.3784 -2.0021  1.2398
  171MPD1    H7 2670   1.673   4.649  15.156 -2.3164 -0.2626 -0.5665
  172MPD1     C 2671   1.395   4.126   0.912 -0.2242 -0.0127 -0.1850
  172MPD1    C1 2672   1.508   4.203   0.903 -0.0633 -0.4025  0.0155
  172MPD1    C2 2673   1.498   4.338   0.872 -0.6973 -0.3734  0.4127
  172MPD1    C3 2674   1.380   4.397   0.851 -0.9014  0.1717 -0.2407
  172MPD1    C4 2675   1.269   4.316   0.848 -0.3082  0.2062  0.1963
  172MPD1    C5 2676   1.273   4.185   0.875  0.7392  0.2244  0.6317
  172MPD1     H 2677   1.589   4.397   0.866 -1.4489  0.7690  0.3364
  172MPD1    H1 2678   1.179   4.348   0.796 -1.1899 -4.2241 -1.0196
  172MPD1    H2 2679   1.396   4.021   0.937 -0.5062 -0.0861 -0.4735
  172MPD1    H3 2680   1.182   4.126   0.875  0.7434  0.2235  0.0340
  172MPD1     N 2681   1.365   4.538   0.824  0.3543  0.4639 -0.4049
  172MPD1    H5 2682   1.275   4.570   0.790 -0.5514 -3.4882 -1.8062
  172MPD1    N1 2683   1.623   4.146   0.948 -0.3521  0.1611 -0.1758
  172MPD1    H6 2684   1.611   4.046   0.934  0.4962  0.0903 -0.3909
  172MPD1    H7 2685   1.702   4.178   0.893  0.4020  2.8509  2.4951
  173MPD1     C 2686   1.893   0.365  14.572  0.0697 -0.0601 -0.7122
  173MPD1    C1 2687   2.026   0.338  14.555 -0.0865 -0.3640  0.2053
  173MPD1    C2 2688   2.070   0.209  14.559 -0.2083  0.3637 -0.5003
  173MPD1    C3 2689   1.986   0.100  14.561 -0.5082 -0.4187  0.0513
  173MPD1    C4 2690   1.856   0.136  14.576 -0.6811  0.2657  0.2881
  173MPD1    C5 2691   1.809   0.260  14.593  0.3324 -0.1851  0.0946
  173MPD1     H 2692   2.178   0.203  14.560 -0.1826  1.2036  1.7533
  173MPD1    H1 2693   1.775   0.065  14.586  0.2572 -0.8476 -0.0120
  173MPD1    H2 2694   1.856   0.467  14.578  1.3087  0.4229 -1.3612
  173MPD1    H3 2695   1.708   0.296  14.608 -0.4677 -2.6488  0.5689
  173MPD1     N 2696   2.029   4.700  14.561 -0.1622  0.1677 -0.0571
  173MPD1    H5 2697   2.130   4.699  14.569 -0.4612  1.6699  4.1244
  173MPD1    N1 2698   2.124   0.440  14.538 -0.4621 -0.0152  0.0467
  173MPD1    H6 2699   2.087   0.532  14.514 -1.8327 -0.7391 -0.5974
  173MPD1    H7 2700   2.191   0.420  14.464 -1.1867  0.3233 -0.6995
  174MPD1     C 2701   2.504   4.284  13.989  0.5166 -0.0488  0.5276
  174MPD1    C1 2702   2.552   4.251  14.116 -0.1050  0.3095  0.2871
  174MPD1    C2 2703   2.459   4.243  14.220 -0.5993  0.8385 -0.7298
  174MPD1    C3 2704   2.323   4.270  14.202  0.1839  0.6121 -0.1361
  174MPD1    C4 2705   2.284   4.310  14.081  0.6451 -0.5061 -0.1559
  174MPD1    C5 2706   2.371   4.316  13.981  0.5389  0.2209  0.0158
  174MPD1     H 2707   2.493   4.219  14.320 -1.2742 -0.3487 -0.7910
  174MPD1    H1 2708   2.187   4.354  14.063 -1.0415 -2.9929  2.9142
  174MPD1    H2 2709   2.568   4.282  13.902  1.4312 -0.4507  1.2200
  174MPD1    H3 2710   2.338   4.360  13.888 -1.9299 -1.7752 -0.0775
  174MPD1     N 2711   2.235   4.292  14.314 -0.4499 -0.4102  0.1154
  174MPD1    H5 2712   2.153   4.349  14.295 -1.0636 -1.4115 -0.2797
  174MPD1    N1 2713   2.686   4.262  14.143 -0.0468  0.2714 -0.2456
  174MPD1    H6 2714   2.743   4.247  14.060 -0.2697  1.8541 -0.6835
  174MPD1    H7 2715   2.714   4.192  14.212  0.5939  1.2465  0.4774
  175MPD1     C 2716   0.634   0.166  15.695 -0.4394 -0.8515  0.3901
  175MPD1    C1 2717   0.512   0.155  15.746  1.0576 -0.3031 -0.5770
  175MPD1    C2 2718   0.501   0.135  15.881  0.0850 -0.3491 -0.0602
  175MPD1    C3 2719   0.618   0.123  15.957 -0.1319  0.3787 -0.1897
  175MPD1    C4 2720   0.742   0.141  15.894 -0.9301  0.5791  0.1307
  175MPD1    C5 2721   0.747   0.149  15.761 -0.0616  0.4416 -0.2757
  175MPD1     H 2722   0.401   0.120  15.920  0.6852 -2.9312  0.4795
  175MPD1    H1 2723   0.832   0.162  15.951 -1.4129  2.9637  0.0332
  175MPD1    H2 2724   0.630   0.187  15.588  0.5961  3.0335  1.1101
  175MPD1    H3 2725   0.837   0.163  15.702  1.4364 -1.7740  1.5398
  175MPD1     N 2726   0.617   0.116  16.095  0.2058  0.0493  0.0427
  175MPD1    H5 2727   0.709   0.107  16.138 -0.9498  0.0372  2.5106
  175MPD1    N1 2728   0.408   0.199  15.661 -0.0600  0.8787  0.0554
  175MPD1    H6 2729   0.429   0.210  15.562  1.6202  0.5011  0.3825
  175MPD1    H7 2730   0.325   0.144  15.682 -0.0846  0.8853 -0.0253
  176MPD1     C 2731   2.261   2.065  17.361 -0.0340 -0.1105  0.1160
  176MPD1    C1 2732   2.239   2.118  17.487  0.1582 -0.1621  0.2661
  176MPD1    C2 2733   2.310   2.228  17.523 -0.2268  0.2391  0.4361
  176MPD1    C3 2734   2.409   2.283  17.437 -0.0527 -0.4554  0.9532
  176MPD1    C4 2735   2.444   2.211  17.326  0.0948 -0.3195 -0.2926
  176MPD1    C5 2736   2.361   2.107  17.282 -0.4999 -0.4600 -0.0350
  176MPD1     H 2737   2.284   2.269  17.620  0.9450 -0.4970  1.0618
  176MPD1    H1 2738   2.531   2.244  17.269 -0.3160  0.1600 -0.6423
  176MPD1    H2 2739   2.195   1.992  17.315 -0.3178  1.1036 -1.3747
  176MPD1    H3 2740   2.377   2.069  17.182 -0.7871  0.3933 -0.4041
  176MPD1     N 2741   2.472   2.402  17.484  0.4448 -0.3265  0.1922
  176MPD1    H5 2742   2.450   2.430  17.579  0.1220  0.7226 -0.1843
  176MPD1    N1 2743   2.122   2.081  17.557 -0.0669 -0.0562  0.0042
  176MPD1    H6 2744   2.088   1.987  17.539  0.4291 -0.0077 -1.1860
  176MPD1    H7 2745   2.122   2.102  17.657  0.9213  3.5117 -0.7367
  177MPD1     C 2746   1.090   1.700   9.902 -0.5350 -0.4574 -0.3031
  177MPD1    C1 2747   1.080   1.814   9.822  0.3127  0.3095  0.4650
  177MPD1    C2 2748   0.960   1.832   9.757  0.0657  0.1609 -0.4506
  177MPD1    C3 2749   0.845   1.759   9.778  0.4186  0.0196  0.5391
  177MPD1    C4 2750   0.854   1.651   9.863  0.5833  0.0029 -0.2154
  177MPD1    C5 2751   0.974   1.620   9.916 -0.5673 -0.4961 -0.2203
  177MPD1     H 2752   0.959   1.915   9.687  0.1121  2.1359  1.9090
  177MPD1    H1 2753   0.780   1.573   9.878 -1.6523  1.4752 -3.6528
  177MPD1    H2 2754   1.184   1.664   9.942 -0.0551  0.2469 -0.7843
  177MPD1    H3 2755   0.976   1.534   9.982 -3.5295 -0.9077 -0.6693
  177MPD1     N 2756   0.729   1.787   9.701  0.0213  0.0226  0.8048
  177MPD1    H5 2757   0.739   1.864   9.636 -0.4236 -1.3480 -0.8638
  177MPD1    N1 2758   1.196   1.885   9.780 -0.3774 -0.6902  0.1084
  177MPD1    H6 2759   1.273   1.881   9.847 -1.6001 -0.8672  1.4961
  177MPD1    H7 2760   1.180   1.984   9.766  1.7319 -0.5798 -1.5003
  178MPD1     C 2761   3.066   3.027   0.046  0.1957  0.2075 -0.7547
  178MPD1    C1 2762   3.007   2.921  17.718 -0.0688  0.5338  0.3857
  178MPD1    C2 2763   3.039   2.903  17.591 -0.4040  0.2138  0.9869
  178MPD1    C3 2764   3.139   2.972  17.527  0.1393  0.2108 -0.0625
  178MPD1    C4 2765   3.211   3.071  17.598 -0.3638 -0.1537 -0.6544
  178MPD1    C5 2766   3.166   3.102  17.727  0.7352 -0.7482  0.0706
  178MPD1     H 2767   2.976   2.837  17.533  1.0094  1.0517 -1.5180
  178MPD1    H1 2768   3.307   3.108  17.563 -0.5747  0.4996 -0.5476
  178MPD1    H2 2769   3.045   3.042   0.151  1.1295  0.5459 -0.6223
  178MPD1    H3 2770   3.212   3.178   0.049  1.7758  0.5747 -2.2703
  178MPD1     N 2771   3.194   2.933  17.400 -0.5511  0.2900 -0.2511
  178MPD1    H5 2772   3.280   2.979  17.372 -1.0942  0.3708 -1.8067
  178MPD1    N1 2773   2.887   2.868   0.022  0.2960 -0.4490 -0.9808
  178MPD1    H6 2774   2.868   2.775  17.727 -0.9953 -0.9123  0.8869
  178MPD1    H7 2775   2.868   2.887   0.120 -1.9550  2.9320 -2.0530
  179MPD1     C 2776   2.859   1.763  15.478 -0.4735  0.0674 -0.3751
  179MPD1    C1 2777   2.953   1.726  15.571  0.5129 -0.0148 -0.3812
  179MPD1    C2 2778   2.898   1.663  15.683 -0.3026  0.4470  0.2543
  179MPD1    C3 2779   2.763   1.624  15.685  0.4699  0.1982  0.1587
  179MPD1    C4 2780   2.679   1.654  15.583 -0.0553  0.3198  0.0441
  179MPD1    C5 2781   2.730   1.735  15.488 -0.6876  0.1303  0.0227
  179MPD1     H 2782   2.956   1.640  15.772 -0.2253  1.8081  0.5494
  179MPD1    H1 2783   2.571   1.646  15.576 -0.0090 -1.2442  1.1665
  179MPD1    H2 2784   2.884   1.828  15.395  0.2323  2.1099  1.4446
  179MPD1    H3 2785   2.657   1.770  15.415  1.8688  2.6425 -1.2887
  179MPD1     N 2786   2.705   1.551  15.790 -0.2760 -0.2197 -0.1859
  179MPD1    H5 2787   2.606   1.538  15.775 -0.3665  2.3512 -1.8753
  179MPD1    N1 2788   3.089   1.762  15.567 -0.0389  0.6204 -0.1330
  179MPD1    H6 2789   3.137   1.688  15.616 -0.4488  0.5708  0.1944
  179MPD1    H7 2790   3.126   1.783  15.475 -0.0162  2.3419  0.2744
  180MPD1     C 2791   2.327   2.867  14.042  0.3979 -0.2579  0.8999
  180MPD1    C1 2792   2.248   2.797  14.134  0.2897 -0.3640  0.0443
  180MPD1    C2 2793   2.306   2.780  14.261  0.3045 -0.3752  0.3896
  180MPD1    C3 2794   2.423   2.843  14.293 -1.0153 -0.7665  0.0763
  180MPD1    C4 2795   2.492   2.926  14.200  0.5896 -0.4669  0.3191
  180MPD1    C5 2796   2.439   2.936  14.079  0.1735  0.1109 -0.2032
  180MPD1     H 2797   2.236   2.727  14.325 -1.2237 -0.2340 -1.1543
  180MPD1    H1 2798   2.577   2.993  14.216 -1.2576  1.8729  0.3521
  180MPD1    H2 2799   2.296   2.863  13.938  3.1039  1.6252  0.0239
  180MPD1    H3 2800   2.482   3.007  14.010  0.3556  1.2571  1.1045
  180MPD1     N 2801   2.473   2.826  14.424 -0.1863 -0.1552  0.1722
  180MPD1    H5 2802   2.408   2.786  14.491 -1.5540  2.1043  0.2154
  180MPD1    N1 2803   2.145   2.713  14.091  0.2127  0.1721  0.2784
  180MPD1    H6 2804   2.082   2.754  14.023 -0.2777 -0.5281  0.3165
  180MPD1    H7 2805   2.094   2.675  14.170  0.6238 -3.2741 -1.1198
  181MPD1     C 2806   4.545   4.331   9.490  0.3612  0.1835 -0.2480
  181MPD1    C1 2807   4.447   4.370   9.577 -0.4093 -0.5008 -0.0267
  181MPD1    C2 2808   4.489   4.394   9.709  0.6300 -0.4856  0.2441
  181MPD1    C3 2809   4.627   4.379   9.743 -0.3846  0.0100  0.4722
  181MPD1    C4 2810   4.728   4.358   9.652 -0.9074  0.2130 -0.4255
  181MPD1    C5 2811   4.683   4.330   9.525 -0.5270 -0.1998 -0.3200
  181MPD1     H 2812   4.423   4.442   9.780 -0.2817  1.7449 -2.1240
  181MPD1    H1 2813   0.095   4.352   9.686 -1.0644  0.9570  0.1614
  181MPD1    H2 2814   4.526   4.313   9.385 -0.1030 -1.1018  0.0569
  181MPD1    H3 2815   0.016   4.306   9.444  0.3366 -0.9044  0.6261
  181MPD1     N 2816   4.675   4.403   9.878 -0.1939  0.7507  0.3068
  181MPD1    H5 2817   0.041   4.394   9.885 -0.0612  1.4784 -0.6488
  181MPD1    N1 2818   4.310   4.354   9.546 -0.5701  0.7761 -0.1500
  181MPD1    H6 2819   4.294   4.370   9.447  3.8536 -1.2873 -1.2236
  181MPD1    H7 2820   4.247   4.405   9.607  0.3651 -0.3134  1.7465
  182MPD1     C 2821   1.000   3.482   1.849  0.0899 -0.0541 -0.7163
  182MPD1    C1 2822   1.001   3.440   1.717 -0.5734  0.5081 -0.0968
  182MPD1    C2 2823   0.881   3.440   1.662 -0.3333  0.3532  0.3288
  182MPD1    C3 2824   0.767   3.484   1.715 -0.1271 -0.7802 -0.1127
  182MPD1    C4 2825   0.770   3.534   1.842  0.3200 -0.2430 -0.0145
  182MPD1    C5 2826   0.883   3.525   1.910  0.2744 -0.5597 -0.1019
  182MPD1     H 2827   0.875   3.405   1.559  0.4815  0.2369  0.3185
  182MPD1    H1 2828   0.682   3.582   1.885  0.4156  1.0061 -1.2171
  182MPD1    H2 2829   1.090   3.469   1.907  0.3580  0.3774 -1.0288
  182MPD1    H3 2830   0.892   3.567   2.010  0.0796  0.3912 -0.4809
  182MPD1     N 2831   0.639   3.488   1.646  0.0812  0.3376 -0.2138
  182MPD1    H5 2832   0.562   3.534   1.694 -0.6003  0.1020 -1.0634
  182MPD1    N1 2833   1.118   3.379   1.667  0.2769 -0.3412 -0.0348
  182MPD1    H6 2834   1.204   3.408   1.711  0.0160 -2.3740  1.8190
  182MPD1    H7 2835   1.133   3.398   1.568  3.8234  0.8133  0.7313
  183MPD1     C 2836   1.774   0.682  10.150  0.3313  0.4971  0.3002
  183MPD1    C1 2837   1.763   0.568  10.226  1.1424  0.5118  0.4100
  183MPD1    C2 2838   1.721   0.452  10.162  0.1634  1.2311 -1.1133
  183MPD1    C3 2839   1.685   0.450  10.027 -0.0712  0.2531 -0.2099
  183MPD1    C4 2840   1.696   0.565   9.952 -0.3894  0.8318 -0.5310
  183MPD1    C5 2841   1.741   0.674  10.015 -0.9261 -0.6719 -0.3447
  183MPD1     H 2842   1.698   0.371  10.230  2.1941  2.7767  1.3957
  183MPD1    H1 2843   1.686   0.577   9.845  0.6946  2.6941 -0.4240
  183MPD1    H2 2844   1.808   0.778  10.186  1.0996  1.7786 -3.8827
  183MPD1    H3 2845   1.753   0.767   9.961 -0.5771 -0.1747  0.5702
  183MPD1     N 2846   1.648   0.329   9.971  0.0914 -0.1670 -0.0784
  183MPD1    H5 2847   1.665   0.245  10.025  1.7229  0.0274 -0.2791
  183MPD1    N1 2848   1.773   0.579  10.363  0.5087  0.7292 -0.0168
  183MPD1    H6 2849   1.841   0.648  10.391  1.6520  0.4525 -2.1535
  183MPD1    H7 2850   1.801   0.488  10.399  1.8038  0.8601 -0.7247
  184MPD1     C 2851   0.088   1.024  10.198 -0.6951  0.2596  0.6622
  184MPD1    C1 2852   4.693   1.059  10.189 -0.4659 -0.3305 -0.6310
  184MPD1    C2 2853   4.668   1.175  10.116 -0.3843  0.0091 -0.3291
  184MPD1    C3 2854   0.035   1.254  10.051 -0.5057 -0.2831 -0.1429
  184MPD1    C4 2855   0.167   1.211  10.063  0.8155  1.0925 -0.2656
  184MPD1    C5 2856   0.188   1.091  10.135  0.9213  0.2533  0.3778
  184MPD1     H 2857   4.565   1.209  10.107  0.2164  1.7252 -0.7306
  184MPD1    H1 2858   0.251   1.267  10.025  2.0530 -0.0752  0.7213
  184MPD1    H2 2859   0.113   0.933  10.251 -1.9614  1.3035  3.0400
  184MPD1    H3 2860   0.292   1.062  10.140  0.8280  0.1331  1.7850
  184MPD1     N 2861   0.012   1.367   9.972 -0.0574 -0.2788  0.2838
  184MPD1    H5 2862   0.100   1.410   9.946 -1.2007  1.4652 -0.6343
  184MPD1    N1 2863   4.596   0.993  10.264  1.0538 -0.1206 -0.9009
  184MPD1    H6 2864   4.608   0.892  10.265  2.0914  0.0194  0.1818
  184MPD1    H7 2865   4.506   1.013  10.220  1.0733  0.2572 -0.7658
  185MPD1     C 2866   4.016   1.535   9.310 -0.3504  0.0757  0.0665
  185MPD1    C1 2867   4.112   1.630   9.282  0.0869  0.3908  0.3457
  185MPD1    C2 2868   4.211   1.654   9.376  0.5120  0.8763 -0.0641
  185MPD1    C3 2869   4.213   1.581   9.492 -0.3148 -0.1501  0.4219
  185MPD1    C4 2870   4.109   1.497   9.523 -0.0658 -0.7746 -0.2815
  185MPD1    C5 2871   4.006   1.476   9.436  0.2505  0.0691 -0.4358
  185MPD1     H 2872   4.283   1.732   9.356  1.9228 -0.5979 -0.7474
  185MPD1    H1 2873   4.102   1.446   9.619 -0.8827 -0.4144 -0.1506
  185MPD1    H2 2874   3.941   1.517   9.234 -1.2234  0.2019  0.8941
  185MPD1    H3 2875   3.924   1.412   9.462 -0.0039 -0.4232 -2.4029
  185MPD1     N 2876   4.311   1.605   9.589 -0.1161 -0.5004 -0.2605
  185MPD1    H5 2877   4.304   1.556   9.678  2.2045 -2.5084 -1.1730
  185MPD1    N1 2878   4.096   1.717   9.172 -0.9186  0.0157  0.5771
  185MPD1    H6 2879   4.057   1.669   9.091  0.0483  2.3231 -1.2729
  185MPD1    H7 2880   4.188   1.752   9.146 -0.4101 -2.0864 -0.4483
  186MPD1     C 2881   3.381   0.850  15.696  0.3445 -0.2281 -0.0325
  186MPD1    C1 2882   3.488   0.933  15.725 -0.1784  0.5734 -0.5405
  186MPD1    C2 2883   3.468   1.029  15.820 -0.2382 -0.2610  0.3489
  186MPD1    C3 2884   3.343   1.080  15.847 -0.1848 -0.8299 -0.1010
  186MPD1    C4 2885   3.239   1.015  15.789 -0.2196 -1.1954  0.0722
  186MPD1    C5 2886   3.258   0.899  15.727 -0.1669  0.4252 -0.1920
  186MPD1     H 2887   3.549   1.093  15.852  1.5351 -2.4855  0.2953
  186MPD1    H1 2888   3.133   1.034  15.804 -0.4507 -2.7224  0.2967
  186MPD1    H2 2889   3.397   0.762  15.635 -0.1098 -0.3648  0.0447
  186MPD1    H3 2890   3.169   0.846  15.697 -0.5574  2.4093 -2.5353
  186MPD1     N 2891   3.313   1.200  15.919  0.1611 -0.0891 -0.0160
  186MPD1    H5 2892   3.216   1.229  15.913  0.2327  0.1661  0.0541
  186MPD1    N1 2893   3.619   0.892  15.686  0.3326  0.4764  0.0158
  186MPD1    H6 2894   3.622   0.833  15.604  0.9076  0.7798 -0.1818
  186MPD1    H7 2895   3.687   0.968  15.683  2.1116 -1.1698 -0.9597
  187MPD1     C 2896   2.805   3.653   0.002 -0.1204  0.9532  0.5072
  187MPD1    C1 2897   2.719   3.544  17.734 -0.5862  0.2555 -0.3389
  187MPD1    C2 2898   2.591   3.564  17.683  0.4300  0.3370  0.4544
  187MPD1    C3 2899   2.565   3.679  17.610 -0.2297  0.0350 -0.2793
  187MPD1    C4 2900   2.655   3.780  17.616  0.1620  0.2101  0.4745
  187MPD1    C5 2901   2.772   3.776  17.685  0.2484 -0.3256 -0.7030
  187MPD1     H 2902   2.519   3.484  17.685 -0.8500  1.5076  1.7007
  187MPD1    H1 2903   2.633   3.872  17.563  0.3385  0.5591  0.9975
  187MPD1    H2 2904   2.909   3.647   0.030  0.2432  0.8906 -0.8849
  187MPD1    H3 2905   2.845   3.856  17.686  1.4049 -1.3597 -1.4263
  187MPD1     N 2906   2.452   3.698  17.534 -0.4041  0.6841 -0.1513
  187MPD1    H5 2907   2.437   3.791  17.494 -0.3409  0.1770 -1.3559
  187MPD1    N1 2908   2.743   3.428   0.064 -0.2781 -0.4679 -0.4725
  187MPD1    H6 2909   2.693   3.354   0.016 -1.8921  0.1154  0.3020
  187MPD1    H7 2910   2.840   3.396   0.059 -0.4192 -1.0421  0.5710
  188MPD1     C 2911   2.457   3.255  10.670  0.2231  0.3243  0.0197
  188MPD1    C1 2912   2.587   3.222  10.688  0.8161  0.4551 -0.0132
  188MPD1    C2 2913   2.630   3.106  10.626  0.4642  0.4351 -0.2380
  188MPD1    C3 2914   2.543   3.044  10.533 -0.5415  0.0194  0.3066
  188MPD1    C4 2915   2.423   3.100  10.495  0.0762  0.2917  0.0324
  188MPD1    C5 2916   2.373   3.200  10.575  0.2211  0.3698  0.2205
  188MPD1     H 2917   2.731   3.070  10.647 -0.0989 -1.9395 -1.5726
  188MPD1    H1 2918   2.357   3.034  10.439 -0.6997  0.3329  0.8950
  188MPD1    H2 2919   2.410   3.321  10.742 -0.4661 -1.2002  0.9621
  188MPD1    H3 2920   2.269   3.229  10.561  1.0240  2.7949 -0.5654
  188MPD1     N 2921   2.577   2.925  10.458  0.2339 -0.4964 -0.5793
  188MPD1    H5 2922   2.508   2.896  10.388 -1.1457  1.7604 -0.1507
  188MPD1    N1 2923   2.652   3.272  10.799 -0.6569 -0.0737 -0.1097
  188MPD1    H6 2924   2.753   3.268  10.786 -0.6833 -0.9090 -0.0192
  188MPD1    H7 2925   2.629   3.371  10.807  1.2999  0.3194  0.5887
  189MPD1     C 2926   4.210   4.484   1.032 -0.3778  0.2220  0.0210
  189MPD1    C1 2927   4.099   4.415   0.970  0.6934  0.1148  0.2315
  189MPD1    C2 2928   4.031   4.485   0.872 -0.6084  0.6534 -0.1225
  189MPD1    C3 2929   4.078   4.601   0.819 -0.3525 -0.5168  0.1755
  189MPD1    C4 2930   4.201   4.653   0.861  0.3337  0.4499 -0.4097
  189MPD1    C5 2931   4.268   4.589   0.962  0.3592 -0.0773  0.1115
  189MPD1     H 2932   3.937   4.447   0.834 -1.6069 -0.3925  3.4522
  189MPD1    H1 2933   4.238   0.005   0.809  0.3551  0.2880 -0.6674
  189MPD1    H2 2934   4.265   4.442   1.115  0.1521 -0.2036 -0.5487
  189MPD1    H3 2935   4.360   4.633   0.999 -0.7760  1.7135  0.8160
  189MPD1     N 2936   4.002   4.649   0.708  0.1120  0.0985  0.4836
  189MPD1    H5 2937   3.927   4.590   0.675  0.6002 -0.7261  0.8518
  189MPD1    N1 2938   4.045   4.296   1.023  0.0339 -0.1746  0.2597
  189MPD1    H6 2939   4.002   4.242   0.949 -1.1153 -0.2291  0.9641
  189MPD1    H7 2940   4.127   4.250   1.064 -0.4109 -0.1788  1.1602
  190MPD1     C 2941   2.428   2.967  15.967  0.6951 -0.2721  0.2427
  190MPD1    C1 2942   2.494   2.918  15.857  0.3293  0.0557  0.3386
  190MPD1    C2 2943   2.617   2.859  15.871  0.6811 -0.5690 -1.3533
  190MPD1    C3 2944   2.665   2.828  15.997 -0.9227  0.5259  0.6840
  190MPD1    C4 2945   2.586   2.855  16.107 -0.0143 -0.6750  0.1087
  190MPD1    C5 2946   2.469   2.931  16.096  1.0335 -0.1683 -0.1228
  190MPD1     H 2947   2.675   2.835  15.782  2.0444 -0.4917 -0.4928
  190MPD1    H1 2948   2.619   2.839  16.209 -0.0789  1.3394  0.4485
  190MPD1    H2 2949   2.343   3.033  15.950 -0.4808 -2.4481 -2.3949
  190MPD1    H3 2950   2.414   2.965  16.183  0.4258  2.3895 -1.4627
  190MPD1     N 2951   2.791   2.771  16.002  0.0952 -0.0921  0.3849
  190MPD1    H5 2952   2.839   2.750  15.915 -1.0359  0.2637 -0.3382
  190MPD1    N1 2953   2.441   2.944  15.733  0.3000  0.0770 -0.2303
  190MPD1    H6 2954   2.485   2.895  15.655 -1.0868 -1.7882  0.1500
  190MPD1    H7 2955   2.340   2.937  15.723  0.1908  1.9215 -0.3959
  191MPD1     C 2956   1.937   3.802  12.792  0.1333  0.0462  0.5057
  191MPD1    C1 2957   2.006   3.780  12.673  0.5771  0.3904 -0.2312
  191MPD1    C2 2958   2.006   3.879  12.577  0.4169  0.0406  0.1845
  191MPD1    C3 2959   1.940   4.000  12.603  0.5925  0.7071 -0.2370
  191MPD1    C4 2960   1.881   4.023  12.727  0.7460  0.0978 -0.4490
  191MPD1    C5 2961   1.874   3.920  12.820  0.3815  0.5024 -0.1813
  191MPD1     H 2962   2.053   3.857  12.482 -1.0192  0.0988 -0.5345
  191MPD1    H1 2963   1.823   4.112  12.747  0.6236 -0.6511  2.4624
  191MPD1    H2 2964   1.936   3.733  12.875  1.1212 -2.0701 -1.2719
  191MPD1    H3 2965   1.829   3.936  12.917  0.8747  0.4925  0.0482
  191MPD1     N 2966   1.935   4.088  12.491 -0.1857  0.0132 -0.1303
  191MPD1    H5 2967   1.990   4.054  12.413  1.3235  1.2458  0.4049
  191MPD1    N1 2968   2.091   3.670  12.653  0.2396 -0.1062  0.0899
  191MPD1    H6 2969   2.072   3.603  12.727  0.8946  0.1828  0.5143
  191MPD1    H7 2970   2.073   3.613  12.571  0.9717  2.4963 -1.8848
  192MPD1     C 2971   1.588   0.261  11.982  0.2745 -0.0450  0.1596
  192MPD1    C1 2972   1.535   0.162  12.064 -0.3737 -0.1564 -0.3638
  192MPD1    C2 2973   1.613   0.051  12.087  0.6231 -0.6987 -0.2028
  192MPD1    C3 2974   1.746   0.050  12.061 -0.1460 -0.8722  0.2923
  192MPD1    C4 2975   1.799   0.153  11.987 -0.0065 -0.2684 -0.0525
  192MPD1    C5 2976   1.723   0.265  11.955  0.7110 -0.1270  0.2729
  192MPD1     H 2977   1.567   4.703  12.139 -0.8753  0.0182 -0.3891
  192MPD1    H1 2978   1.906   0.165  11.970 -0.1264 -0.4357 -0.9287
  192MPD1    H2 2979   1.527   0.341  11.941 -2.9173 -2.9056 -0.6618
  192MPD1    H3 2980   1.773   0.351  11.912 -0.1390  1.0358  1.6075
  192MPD1     N 2981   1.829   4.684  12.116 -0.2953 -0.2495  0.2585
  192MPD1    H5 2982   1.912   4.662  12.062 -0.5096 -0.4989  0.0246
  192MPD1    N1 2983   1.399   0.162  12.090  0.4471  0.2736 -0.0783
  192MPD1    H6 2984   1.378   0.119  12.179  1.5689 -2.4133 -1.1111
  192MPD1    H7 2985   1.355   0.253  12.087 -2.4840 -1.1425  0.3242
  193MPD1     C 2986   1.607   4.561  16.101  0.3062 -0.6341 -0.0508
  193MPD1    C1 2987   1.529   4.673  16.118 -0.1613  0.6192 -0.1822
  193MPD1    C2 2988   1.584   0.040  16.192  0.0777 -0.1311 -0.7063
  193MPD1    C3 2989   1.707   0.033  16.251 -0.1472  0.2508  0.0798
  193MPD1    C4 2990   1.786   4.659  16.238 -0.1436 -0.0151 -0.1246
  193MPD1    C5 2991   1.731   4.557  16.165  0.2320  0.5101  0.2003
  193MPD1     H 2992   1.520   0.128  16.199  2.5869  1.6699 -0.3006
  193MPD1    H1 2993   1.886   4.662  16.280 -0.3433 -2.3704  0.5399
  193MPD1    H2 2994   1.580   4.474  16.042  4.3506 -0.6687 -1.9008
  193MPD1    H3 2995   1.795   4.470  16.167  2.3714  2.0971  2.8639
  193MPD1     N 2996   1.766   0.141  16.315  0.6132 -0.0817  0.4707
  193MPD1    H5 2997   1.856   0.135  16.361  1.7349 -1.8803 -1.9807
  193MPD1    N1 2998   1.413   4.699  16.049  0.2211  0.8790  0.2439
  193MPD1    H6 2999   1.352   4.623  16.019 -0.6390  2.1336 -1.2059
  193MPD1    H7 3000   1.359   0.043  16.081  2.8202  3.0885 -0.9107
  194MPD1     C 3001   3.992   2.437  16.826  0.3532 -0.5951  0.5510
  194MPD1    C1 3002   4.113   2.428  16.759 -0.3785  0.4760 -0.5704
  194MPD1    C2 3003   4.203   2.349  16.825 -0.8157 -0.2391  0.0233
  194MPD1    C3 3004   4.175   2.267  16.937 -0.0132 -1.0183 -0.3754
  194MPD1    C4 3005   4.052   2.278  16.999 -0.0868 -0.5630  0.5939
  194MPD1    C5 3006   3.962   2.365  16.943 -0.1992  1.0272  0.9763
  194MPD1     H 3007   4.305   2.346  16.787 -0.3972  1.4921  1.0012
  194MPD1    H1 3008   4.023   2.228  17.091 -0.4702  1.2073  1.4233
  194MPD1    H2 3009   3.904   2.489  16.791  0.7666 -0.5276 -0.4226
  194MPD1    H3 3010   3.863   2.372  16.986  0.0652  0.3623  1.6690
  194MPD1     N 3011   4.272   2.186  17.001  0.3551  0.0904  0.8297
  194MPD1    H5 3012   4.246   2.131  17.082  1.5233  1.3801  2.0931
  194MPD1    N1 3013   4.149   2.513  16.655 -0.6312 -0.2265 -0.3270
  194MPD1    H6 3014   4.236   2.489  16.607 -1.3097 -0.9362 -1.1940
  194MPD1    H7 3015   4.079   2.523  16.582 -1.6705  0.7164  0.8089
  195MPD1     C 3016   2.413   4.158   0.053 -0.0572 -0.3946  0.8550
  195MPD1    C1 3017   2.274   4.152   0.032  0.6154  0.2170  0.1287
  195MPD1    C2 3018   2.209   4.033   0.047  0.4643  0.7029  0.2498
  195MPD1    C3 3019   2.275   3.913   0.061  0.2113 -0.5786 -0.2323
  195MPD1    C4 3020   2.409   3.918   0.067 -0.1852 -0.2457  0.0702
  195MPD1    C5 3021   2.484   4.032   0.059 -0.2105  0.5871  0.5416
  195MPD1     H 3022   2.101   4.030   0.045  0.5471 -1.8430 -0.1656
  195MPD1    H1 3023   2.454   3.821   0.084  0.7886  0.0462 -0.8641
  195MPD1    H2 3024   2.466   4.252   0.050  0.5756 -0.7407  1.2416
  195MPD1    H3 3025   2.591   4.032   0.075  0.1005 -0.3718 -1.5972
  195MPD1     N 3026   2.218   3.786   0.065  0.5165 -0.6752  0.3269
  195MPD1    H5 3027   2.287   3.715   0.087  1.2834 -0.5431 -1.7139
  195MPD1    N1 3028   2.194   4.269   0.011 -0.1706 -0.8631  0.4042
  195MPD1    H6 3029   2.112   4.252  17.694 -0.2758  0.6384  0.1113
  195MPD1    H7 3030   2.253   4.328  17.693 -2.0496 -2.4657 -3.0559
  196MPD1     C 3031   0.612   2.619   0.500  0.1652  0.0575 -0.8006
  196MPD1    C1 3032   0.629   2.734   0.429  0.4795  0.2060  0.5545
  196MPD1    C2 3033   0.671   2.849   0.500  0.3475  0.0835 -0.0990
  196MPD1    C3 3034   0.678   2.848   0.638  0.1222 -0.5160  0.0064
  196MPD1    C4 3035   0.645   2.733   0.704  0.0730  0.2969  0.7312
  196MPD1    C5 3036   0.626   2.624   0.634  0.4276 -0.3834 -0.5040
  196MPD1     H 3037   0.724   2.928   0.448 -0.4817  0.9371  0.3577
  196MPD1    H1 3038   0.640   2.734   0.813  0.2109 -0.1756  0.7450
  196MPD1    H2 3039   0.588   2.527   0.450 -2.4617 -1.0887  2.5528
  196MPD1    H3 3040   0.610   2.530   0.686  1.2533  0.0146  0.4569
  196MPD1     N 3041   0.737   2.951   0.708 -0.7155 -0.8594 -0.1900
  196MPD1    H5 3042   0.753   2.937   0.808 -0.7337 -1.6003 -0.2930
  196MPD1    N1 3043   0.628   2.740   0.287  0.1053  0.0579 -0.2233
  196MPD1    H6 3044   0.595   2.827   0.246  1.1959  0.6102  0.0458
  196MPD1    H7 3045   0.557   2.674   0.258 -1.2693 -0.7661  5.0231
  197MPD1     C 3046   0.152   0.393  17.162  0.2874  0.0998 -0.3007
  197MPD1    C1 3047   0.270   0.413  17.230  0.2522  0.0990 -1.1264
  197MPD1    C2 3048   0.386   0.356  17.192  1.0327  0.3163  0.2501
  197MPD1    C3 3049   0.394   0.272  17.086  0.0351 -0.4254 -0.0747
  197MPD1    C4 3050   0.276   0.253  17.019 -0.3304 -0.2799  0.4461
  197MPD1    C5 3051   0.162   0.319  17.051  0.1533  0.3422 -0.3987
  197MPD1     H 3052   0.471   0.377  17.256  0.7285 -0.3843  0.8766
  197MPD1    H1 3053   0.277   0.192  16.929 -0.1609  1.1027 -0.4932
  197MPD1    H2 3054   0.056   0.432  17.192  0.0047 -0.9376  0.1354
  197MPD1    H3 3055   0.069   0.309  16.996 -1.5913  2.3534  2.1714
  197MPD1     N 3056   0.513   0.245  17.020  0.7174  0.1952 -0.7191
  197MPD1    H5 3057   0.505   0.207  16.927  1.9148  0.4998 -0.9463
  197MPD1    N1 3058   0.259   0.479  17.351 -0.0983 -0.3360  0.2868
  197MPD1    H6 3059   0.330   0.550  17.372  0.3976 -1.1980  1.5208
  197MPD1    H7 3060   0.178   0.537  17.330  0.0851 -0.8136 -1.6390
  198MPD1     C 3061   2.713   3.002  15.345  0.0746 -0.4648  0.5232
  198MPD1    C1 3062   2.817   3.000  15.436  0.5865  0.1692 -0.1549
  198MPD1    C2 3063   2.826   3.108  15.522  0.8883  0.5899 -0.2354
  198MPD1    C3 3064   2.751   3.225  15.512  0.0566  0.1893  0.2126
  198MPD1    C4 3065   2.656   3.220  15.416 -0.4420 -0.0569  0.7336
  198MPD1    C5 3066   2.634   3.114  15.339  0.6495  0.3947 -0.4321
  198MPD1     H 3067   2.912   3.122  15.587  0.1616  1.5214  0.5392
  198MPD1    H1 3068   2.592   3.307  15.411  0.2504  0.5411  2.3994
  198MPD1    H2 3069   2.697   2.920  15.276  0.7009  0.4142 -0.6679
  198MPD1    H3 3070   2.553   3.109  15.266 -0.7538  1.5026  1.0488
  198MPD1     N 3071   2.778   3.336  15.603 -0.2330 -0.0598 -0.3271
  198MPD1    H5 3072   2.859   3.323  15.663 -0.4387  0.4733  0.0730
  198MPD1    N1 3073   2.898   2.887  15.443 -0.4431  0.5425  0.0788
  198MPD1    H6 3074   2.913   2.831  15.359 -1.1826  2.2683 -1.1815
  198MPD1    H7 3075   2.992   2.915  15.473  0.1121 -0.5757 -0.6049
  199MPD1     C 3076   0.619   4.678   9.687 -0.3391 -0.7635 -0.1632
  199MPD1    C1 3077   0.522   4.628   9.766 -0.2742  0.4577 -0.1571
  199MPD1    C2 3078   0.396   4.684   9.752  0.1003  0.1537 -0.5334
  199MPD1    C3 3079   0.371   0.063   9.679 -0.2807  0.1542  0.7561
  199MPD1    C4 3080   0.473   0.113   9.606 -0.0641  0.1231 -0.1930
  199MPD1    C5 3081   0.594   0.056   9.617 -0.9506 -0.3449  0.3757
  199MPD1     H 3082   0.312   4.631   9.795  0.4843  1.0908  1.3523
  199MPD1    H1 3083   0.459   0.205   9.550 -0.2731  0.7245  0.8388
  199MPD1    H2 3084   0.721   4.645   9.705 -0.0934  0.0240 -0.0964
  199MPD1    H3 3085   0.674   0.104   9.562 -0.9400  0.3322  0.9792
  199MPD1     N 3086   0.242   0.123   9.671 -0.5629 -0.1848 -0.8623
  199MPD1    H5 3087   0.226   0.211   9.624  1.8581  0.2130 -0.9273
  199MPD1    N1 3088   0.535   4.500   9.825  0.0290 -0.3966  0.1055
  199MPD1    H6 3089   0.495   4.498   9.918  0.6906  1.1574  0.4307
  199MPD1    H7 3090   0.631   4.478   9.849  0.1182 -1.0204 -0.8216
  200MPD1     C 3091   3.419   0.421  15.116  0.3385 -0.7352  1.1798
  200MPD1    C1 3092   3.402   0.342  15.004  0.4900  0.6899 -0.8933
  200MPD1    C2 3093   3.514   0.270  14.954 -0.4962 -0.4013 -0.1920
  200MPD1    C3 3094   3.635   0.270  15.028  0.3169 -0.3758  0.1907
  200MPD1    C4 3095   3.643   0.342  15.147  0.0337  0.4347  0.0454
  200MPD1    C5 3096   3.537   0.424  15.179 -0.2485  0.2939  0.0913
  200MPD1     H 3097   3.503   0.207  14.867  3.6101  0.2651 -1.1622
  200MPD1    H1 3098   3.736   0.343  15.203  0.2474 -0.1121 -0.2992
  200MPD1    H2 3099   3.335   0.484  15.144  1.7687  1.3322  0.8484
  200MPD1    H3 3100   3.549   0.476  15.273 -0.3135  0.7395 -0.1465
  200MPD1     N 3101   3.745   0.214  14.963 -0.0228  0.1537  0.1556
  200MPD1    H5 3102   3.734   0.175  14.870 -2.4881 -2.4318  1.5042
  200MPD1    N1 3103   3.281   0.346  14.941 -0.4856 -0.0244 -0.8881
  200MPD1    H6 3104   3.272   0.281  14.863 -1.0448 -1.0969  0.0695
  200MPD1    H7 3105   3.247   0.437  14.911 -2.4079 -0.2458  0.6378
  201MPD1     C 3106   2.166   3.880  13.290 -0.1767 -0.2152  0.0853
  201MPD1    C1 3107   2.095   3.842  13.403 -0.5252 -0.4363 -0.1013
  201MPD1    C2 3108   2.036   3.716  13.408 -0.1787  0.6520 -0.0101
  201MPD1    C3 3109   2.032   3.640  13.301 -0.5013 -0.3826  0.7149
  201MPD1    C4 3110   2.105   3.677  13.187 -0.1203 -0.0127 -0.0806
  201MPD1    C5 3111   2.174   3.791  13.184 -0.2775 -0.7618  0.1053
  201MPD1     H 3112   1.977   3.690  13.495 -1.6429  0.5995 -1.0085
  201MPD1    H1 3113   2.098   3.616  13.097 -1.5554  0.1063 -0.0494
  201MPD1    H2 3114   2.216   3.976  13.281 -3.1999  1.3110 -0.2099
  201MPD1    H3 3115   2.222   3.832  13.095 -2.7820  0.6810 -0.5936
  201MPD1     N 3116   1.962   3.517  13.318 -0.9400  0.2477 -0.8421
  201MPD1    H5 3117   1.947   3.489  13.414  0.7179  0.2047 -0.5912
  201MPD1    N1 3118   2.097   3.925  13.517 -0.7542  0.2944  0.1080
  201MPD1    H6 3119   2.015   3.909  13.574 -1.0677 -0.7006 -0.6329
  201MPD1    H7 3120   2.103   4.024  13.494 -0.1770  0.0803 -0.6561
  202MPD1     C 3121   1.014   3.448   9.441 -0.1267  0.0707 -0.5353
  202MPD1    C1 3122   1.041   3.580   9.465 -0.1530  0.4167 -0.3868
  202MPD1    C2 3123   1.154   3.592   9.551 -0.4371 -0.3328 -0.2276
  202MPD1    C3 3124   1.250   3.491   9.574 -0.5134  0.6541  0.5423
  202MPD1    C4 3125   1.217   3.369   9.537  0.1114  0.1053 -0.2154
  202MPD1    C5 3126   1.098   3.346   9.478  0.1741  0.2965 -0.1022
  202MPD1     H 3127   1.172   3.692   9.588 -2.9325  0.4356 -1.0789
  202MPD1    H1 3128   1.278   3.284   9.566  0.5783  0.4617 -0.1491
  202MPD1    H2 3129   0.913   3.421   9.412 -1.4605  4.7563 -0.1680
  202MPD1    H3 3130   1.068   3.242   9.467  1.9692 -0.4468  2.2659
  202MPD1     N 3131   1.374   3.518   9.632  0.0479 -0.4161  0.1646
  202MPD1    H5 3132   1.435   3.443   9.661 -0.9934 -1.1054  0.5726
  202MPD1    N1 3133   0.945   3.681   9.476 -0.1548 -0.1472 -0.0839
  202MPD1    H6 3134   0.874   3.671   9.404  0.4072 -0.2050 -0.6319
  202MPD1    H7 3135   0.983   3.774   9.489 -0.6936  0.0186  0.3091
  203MPD1     C 3136   0.084   3.914  12.652 -0.1967 -0.2447  0.0863
  203MPD1    C1 3137   0.199   3.896  12.582 -0.0058 -0.0134  0.9568
  203MPD1    C2 3138   0.246   3.764  12.573  0.3464 -0.2340  0.2658
  203MPD1    C3 3139   0.188   3.662  12.662  0.8372  0.6516  0.2249
  203MPD1    C4 3140   0.080   3.694  12.742  0.0214  0.1461 -0.2112
  203MPD1    C5 3141   0.034   3.819  12.735 -0.6909 -0.5747  0.0570
  203MPD1     H 3142   0.330   3.737  12.511 -1.4249 -1.0580 -1.7956
  203MPD1    H1 3143   0.049   3.624  12.818  1.0975  2.3729  2.2954
  203MPD1    H2 3144   0.029   4.008  12.648 -1.5813 -1.2123 -3.9521
  203MPD1    H3 3145   4.680   3.851  12.787 -0.3640  0.7199 -0.1887
  203MPD1     N 3146   0.253   3.537  12.675 -0.1294 -0.1933  0.0222
  203MPD1    H5 3147   0.345   3.529  12.634 -0.7140 -0.6117 -1.1963
  203MPD1    N1 3148   0.254   4.006  12.506  0.2171  0.3288  0.1143
  203MPD1    H6 3149   0.355   3.997  12.495  0.2145  1.3978 -0.7993
  203MPD1    H7 3150   0.236   4.096  12.550 -3.5034 -0.2791 -0.1692
  204MPD1     C 3151   3.884   0.975  17.618 -0.2552  0.6430 -0.2059
  204MPD1    C1 3152   3.874   0.883  17.519  0.4660 -0.0515 -1.1664
  204MPD1    C2 3153   3.973   0.792  17.517  0.2242 -0.0796  0.0045
  204MPD1    C3 3154   4.059   0.768  17.630  0.4298  0.6566 -0.0540
  204MPD1    C4 3155   4.050   0.856  17.736  0.1088 -0.3365 -0.3536
  204MPD1    C5 3156   3.963   0.958  17.721  0.4240  1.0241  0.5967
  204MPD1     H 3157   3.976   0.729  17.428  0.7203  0.1331 -0.1346
  204MPD1    H1 3158   4.113   0.851   0.083  2.1355 -0.2048 -1.7961
  204MPD1    H2 3159   3.820   1.062  17.620 -0.3693  0.5459  0.3532
  204MPD1    H3 3160   3.961   1.036   0.056 -0.7740 -0.9312  2.5723
  204MPD1     N 3161   4.160   0.666  17.631 -0.0073  0.4001 -0.2588
  204MPD1    H5 3162   4.180   0.620  17.544  1.1860  0.2212  0.1174
  204MPD1    N1 3163   3.796   0.903  17.402  0.1920 -0.0261  0.3153
  204MPD1    H6 3164   3.709   0.955  17.413 -0.2163 -0.5185 -0.6464
  204MPD1    H7 3165   3.767   0.817  17.355 -0.5459  1.5582 -2.1114
  205MPD1     C 3166   0.479   4.131   0.838 -1.2695 -0.3398  0.3714
  205MPD1    C1 3167   0.368   4.190   0.896 -0.4426  0.0495  0.0012
  205MPD1    C2 3168   0.252   4.191   0.823  0.0884 -0.3216  0.2749
  205MPD1    C3 3169   0.232   4.123   0.705  0.9854 -0.3373  0.0039
  205MPD1    C4 3170   0.346   4.062   0.656  0.2752 -0.0774 -0.1963
  205MPD1    C5 3171   0.462   4.064   0.722  0.2896  0.2041  0.3672
  205MPD1     H 3172   0.175   4.248   0.873  1.4301  1.8002 -0.0973
  205MPD1    H1 3173   0.353   4.004   0.566  1.4223 -2.4828  1.4502
  205MPD1    H2 3174   0.577   4.150   0.881 -1.0892  1.9308 -1.0375
  205MPD1    H3 3175   0.548   4.016   0.677 -1.0266 -0.7379 -1.1810
  205MPD1     N 3176   0.109   4.126   0.630  0.4814  0.1219  0.5490
  205MPD1    H5 3177   0.111   4.075   0.542 -4.2866  0.1276  0.4076
  205MPD1    N1 3178   0.378   4.275   1.006 -0.3146 -0.3555  0.1978
  205MPD1    H6 3179   0.296   4.279   1.066 -1.0845  0.1121 -0.8792
  205MPD1    H7 3180   0.456   4.253   1.068  1.2373 -0.1208 -1.6435
  206MPD1     C 3181   0.158   1.926  17.268 -0.2081 -0.4246 -0.2831
  206MPD1    C1 3182   0.172   1.828  17.167  0.1788 -0.3505 -0.2333
  206MPD1    C2 3183   0.145   1.862  17.039  0.3493 -0.1981  0.3903
  206MPD1    C3 3184   0.086   1.989  17.011 -0.6277 -0.0420  0.3585
  206MPD1    C4 3185   0.071   2.081  17.110 -0.8624  0.5652  0.2303
  206MPD1    C5 3186   0.118   2.052  17.234  0.1616 -0.6734 -0.4728
  206MPD1     H 3187   0.166   1.791  16.960 -2.7460 -2.5250  1.6678
  206MPD1    H1 3188   0.033   2.182  17.100 -0.3436  0.5386 -1.9421
  206MPD1    H2 3189   0.179   1.910  17.373 -1.7236 -2.4943 -0.3004
  206MPD1    H3 3190   0.109   2.121  17.317 -1.6249 -2.4707  0.8453
  206MPD1     N 3191   0.036   2.028  16.887  0.0228  0.1759 -0.4663
  206MPD1    H5 3192   0.000   2.122  16.876  2.7297  1.3036  0.4544
  206MPD1    N1 3193   0.228   1.703  17.211  0.0497  0.2935 -0.4038
  206MPD1    H6 3194   0.183   1.620  17.171  2.2612 -1.2891  0.4222
  206MPD1    H7 3195   0.202   1.705  17.309  1.0738 -0.0554 -0.1293
  207MPD1     C 3196   1.875   0.084   9.604  0.3750  0.6581 -0.4219
  207MPD1    C1 3197   1.984   0.163   9.637  0.4355 -0.0491 -0.5415
  207MPD1    C2 3198   2.063   0.127   9.742 -0.4293 -0.0062  0.3685
  207MPD1    C3 3199   2.039   0.014   9.817  0.5046  0.3964  0.0120
  207MPD1    C4 3200   1.936   4.668   9.777 -0.2981 -0.5773 -0.6171
  207MPD1    C5 3201   1.855   4.708   9.683  1.1610  0.0237 -0.4211
  207MPD1     H 3202   2.131   0.207   9.771  1.0120 -1.7976  1.8900
  207MPD1    H1 3203   1.906   4.574   9.822  1.2120 -0.0815  1.3834
  207MPD1    H2 3204   1.802   0.099   9.525  1.3912  1.1998 -1.2605
  207MPD1    H3 3205   1.773   4.642   9.656  0.9666  0.1437 -0.1303
  207MPD1     N 3206   2.107   4.717   9.937  0.4751 -0.5919  0.0298
  207MPD1    H5 3207   2.085   4.629   9.983  0.6603  1.1134  3.3465
  207MPD1    N1 3208   2.007   0.283   9.577  0.8602  0.1695 -0.1957
  207MPD1    H6 3209   2.104   0.307   9.558  0.5965  1.6045  0.2332
  207MPD1    H7 3210   1.955   0.282   9.490  3.3545 -1.6546 -1.6581
  208MPD1     C 3211   0.175   2.369   0.396  0.0281 -0.6881  0.1125
  208MPD1    C1 3212   0.244   2.444   0.492  0.4640 -0.1627 -0.3837
  208MPD1    C2 3213   0.206   2.580   0.499  0.4718 -0.1017  0.7221
  208MPD1    C3 3214   0.100   2.626   0.427  0.4567  0.0498 -0.2046
  208MPD1    C4 3215   0.017   2.540   0.356  0.2182  0.0077 -0.1099
  208MPD1    C5 3216   0.059   2.411   0.343 -0.2910  0.5079 -0.6379
  208MPD1     H 3217   0.258   2.653   0.560 -0.9340  1.7463 -0.2968
  208MPD1    H1 3218   4.675   2.580   0.291  1.5259  0.0828 -1.6456
  208MPD1    H2 3219   0.198   2.264   0.381 -0.2388 -0.7308 -0.0014
  208MPD1    H3 3220   0.005   2.343   0.278  0.7801 -0.0099 -0.9975
  208MPD1     N 3221   0.066   2.766   0.448 -0.2033 -0.0276 -0.2737
  208MPD1    H5 3222   0.134   2.820   0.502  0.4522 -1.9338  0.7893
  208MPD1    N1 3223   0.365   2.398   0.553  0.6344 -0.0636 -0.6900
  208MPD1    H6 3224   0.352   2.299   0.573 -0.9058  0.2862  0.0287
  208MPD1    H7 3225   0.388   2.452   0.636  1.7925 -1.2412 -0.2337
  209MPD1     C 3226   1.503   3.471  10.911  0.2164  0.5840  0.4100
  209MPD1    C1 3227   1.487   3.595  10.854 -0.6178  0.1626 -0.3773
  209MPD1    C2 3228   1.601   3.676  10.835  0.0489  0.0725 -0.1331
  209MPD1    C3 3229   1.720   3.640  10.884  0.6946  0.3391  0.2497
  209MPD1    C4 3230   1.734   3.510  10.939 -0.0686  0.5023 -0.5604
  209MPD1    C5 3231   1.628   3.429  10.952  0.9240  0.1519  0.3263
  209MPD1     H 3232   1.596   3.778  10.801  0.7830  0.3299  0.5311
  209MPD1    H1 3233   1.827   3.464  10.972  0.8585  2.2923 -0.6690
  209MPD1    H2 3234   1.415   3.409  10.926  2.4594 -2.3088  1.5127
  209MPD1    H3 3235   1.635   3.337  11.008 -1.6245 -2.3839 -3.4942
  209MPD1     N 3236   1.830   3.727  10.877 -0.8042 -0.6011  0.3148
  209MPD1    H5 3237   1.813   3.807  10.817  0.9294 -2.5741 -2.7904
  209MPD1    N1 3238   1.366   3.633  10.796  0.6468  0.4213  0.5542
  209MPD1    H6 3239   1.353   3.734  10.796  0.3866  0.3892  0.2634
  209MPD1    H7 3240   1.286   3.585  10.836  0.8577  2.0030  2.8641
  210MPD1     C 3241   2.779   4.045  11.317 -0.0107 -0.0294 -0.5188
  210MPD1    C1 3242   2.672   3.985  11.368  0.2615 -0.0238 -0.5328
  210MPD1    C2 3243   2.582   3.934  11.285  0.7563  0.4138  0.0225
  210MPD1    C3 3244   2.591   3.941  11.143  0.1104 -0.5766 -0.4947
  210MPD1    C4 3245   2.701   4.003  11.090 -0.3139 -0.4316  0.4099
  210MPD1    C5 3246   2.793   4.056  11.179 -0.6697 -0.2528 -0.2325
  210MPD1     H 3247   2.491   3.889  11.323  0.7188 -0.6754 -1.3885
  210MPD1    H1 3248   2.713   4.013  10.983 -0.6883  0.4171  0.4491
  210MPD1    H2 3249   2.863   4.076  11.378  0.6199 -0.1117 -1.3385
  210MPD1    H3 3250   2.881   4.108  11.143 -0.4368 -0.7969 -0.4439
  210MPD1     N 3251   2.481   3.922  11.059 -0.2007 -0.6142  0.0541
  210MPD1    H5 3252   2.505   3.951  10.964  1.4558 -0.2795  0.5814
  210MPD1    N1 3253   2.670   3.963  11.507 -0.1291 -0.6083 -0.1433
  210MPD1    H6 3254   2.709   4.036  11.566  0.8153 -0.0696 -1.4533
  210MPD1    H7 3255   2.578   3.940  11.546  0.4683 -3.4037 -0.4037
  211MPD1     C 3256   0.374   4.216  15.755 -0.0759  0.3191 -0.4629
  211MPD1    C1 3257   0.238   4.215  15.724 -0.2429  0.6731 -0.9684
  211MPD1    C2 3258   0.140   4.213  15.826  0.1060  0.7655 -0.3830
  211MPD1    C3 3259   0.185   4.211  15.954  0.4577 -0.6812  0.2075
  211MPD1    C4 3260   0.326   4.199  15.984  0.6116 -0.4705  0.0454
  211MPD1    C5 3261   0.417   4.210  15.881 -0.0060  0.0645  0.0137
  211MPD1     H 3262   0.034   4.215  15.803  0.2576 -0.4661 -1.2133
  211MPD1    H1 3263   0.362   4.195  16.086 -0.6835  0.4911  0.5432
  211MPD1    H2 3264   0.456   4.230  15.687 -0.0560 -1.3720 -0.7847
  211MPD1    H3 3265   0.524   4.212  15.896  0.1106 -0.3801 -0.7535
  211MPD1     N 3266   0.091   4.213  16.055 -0.5287  0.4115 -0.0534
  211MPD1    H5 3267   4.730   4.216  16.024 -0.2168 -3.4496 -1.3472
  211MPD1    N1 3268   0.195   4.230  15.596  0.0465 -0.1560 -0.8187
  211MPD1    H6 3269   0.100   4.195  15.581 -1.0282  2.3008  0.0858
  211MPD1    H7 3270   0.265   4.182  15.540  0.5609 -0.2187 -0.1059
  212MPD1     C 3271   4.114   2.286  16.270 -0.8096 -0.1802 -0.0650
  212MPD1    C1 3272   4.023   2.357  16.349 -0.0003 -0.0721 -0.7362
  212MPD1    C2 3273   3.962   2.293  16.453  0.2662  0.1106  0.4685
  212MPD1    C3 3274   3.998   2.161  16.485  0.0363 -0.1209  0.0471
  212MPD1    C4 3275   4.102   2.097  16.422 -0.3926  0.5517 -0.3985
  212MPD1    C5 3276   4.163   2.164  16.313 -0.0989 -0.0840 -0.4330
  212MPD1     H 3277   3.879   2.342  16.502 -2.5201 -2.9716 -1.1619
  212MPD1    H1 3278   4.137   2.002  16.460  1.6058  0.2015 -3.1050
  212MPD1    H2 3279   4.158   2.321  16.178 -2.0934 -1.9513 -1.3428
  212MPD1    H3 3280   4.241   2.118  16.254  0.1463 -1.7958  1.2224
  212MPD1     N 3281   3.930   2.088  16.581  0.4283  0.6130  0.4243
  212MPD1    H5 3282   3.966   1.996  16.604  0.7612  0.9354  1.1853
  212MPD1    N1 3283   3.965   2.474  16.305 -0.0937 -0.1510  0.3826
  212MPD1    H6 3284   3.919   2.524  16.381 -0.2184  0.9289 -0.4025
  212MPD1    H7 3285   4.041   2.534  16.273  0.5006 -1.0477  0.1199
  213MPD1     C 3286   2.543   2.651  15.630  0.0958 -1.0731 -0.4799
  213MPD1    C1 3287   2.424   2.595  15.660  0.2458 -0.5092 -0.3987
  213MPD1    C2 3288   2.325   2.631  15.569 -0.1902 -0.0791 -0.3202
  213MPD1    C3 3289   2.343   2.728  15.471 -0.0606  0.3581 -0.0778
  213MPD1    C4 3290   2.464   2.779  15.447 -0.1537 -0.3276  0.0378
  213MPD1    C5 3291   2.571   2.732  15.525  0.1629 -0.3464  0.6155
  213MPD1     H 3292   2.226   2.589  15.578 -0.2217 -0.2741 -1.5350
  213MPD1    H1 3293   2.484   2.827  15.352  1.5132 -0.7849  0.1623
  213MPD1    H2 3294   2.633   2.607  15.673 -0.6851 -2.2872 -0.0966
  213MPD1    H3 3295   2.675   2.753  15.504  0.1622 -1.4112 -0.4418
  213MPD1     N 3296   2.226   2.769  15.405 -0.2425 -0.1692  0.0270
  213MPD1    H5 3297   2.136   2.730  15.431  0.2459 -0.9531  0.5530
  213MPD1    N1 3298   2.413   2.471  15.727 -0.3506 -0.0782  0.8404
  213MPD1    H6 3299   2.469   2.456  15.811 -1.0059 -1.9056  0.9533
  213MPD1    H7 3300   2.317   2.449  15.751  0.0146 -1.4033  1.0876
  214MPD1     C 3301   1.340   2.633  14.990 -0.5416 -0.1817 -0.1611
  214MPD1    C1 3302   1.391   2.587  15.105 -0.3026 -0.3248  0.2144
  214MPD1    C2 3303   1.501   2.653  15.169  0.5225 -0.4067  0.5157
  214MPD1    C3 3304   1.564   2.754  15.099  0.2385 -0.1450  0.6068
  214MPD1    C4 3305   1.508   2.797  14.975  0.1288 -0.8912 -0.1791
  214MPD1    C5 3306   1.397   2.742  14.928 -1.0223  0.4329  0.0516
  214MPD1     H 3307   1.531   2.619  15.267 -0.1439 -0.5728  0.6619
  214MPD1    H1 3308   1.553   2.884  14.928  1.2980 -1.9297 -0.9666
  214MPD1    H2 3309   1.260   2.579  14.940 -0.6598 -2.3840  2.4013
  214MPD1    H3 3310   1.361   2.760  14.827 -1.2263  2.8352  0.5502
  214MPD1     N 3311   1.679   2.822  15.145 -0.1186 -0.0811 -0.0962
  214MPD1    H5 3312   1.718   2.895  15.085  0.2789 -1.0281 -0.9923
  214MPD1    N1 3313   1.321   2.487  15.178 -0.4876 -0.1522  0.0961
  214MPD1    H6 3314   1.260   2.548  15.231 -0.0982 -0.3720  0.7992
  214MPD1    H7 3315   1.258   2.429  15.123 -1.2969  0.9289 -0.1122
  215MPD1     C 3316   1.101   3.839  11.015 -0.2888  0.4137 -0.7989
  215MPD1    C1 3317   1.175   3.907  10.915  0.2761 -0.1428  0.7316
  215MPD1    C2 3318   1.308   3.922  10.944 -0.0327 -0.6006 -0.7045
  215MPD1    C3 3319   1.372   3.865  11.048  0.0445 -0.0547  0.1368
  215MPD1    C4 3320   1.303   3.783  11.136  0.3847 -0.3541 -0.4446
  215MPD1    C5 3321   1.162   3.773  11.122 -0.0767 -0.1572  0.5966
  215MPD1     H 3322   1.363   3.994  10.884  0.3535 -1.1159 -0.9620
  215MPD1    H1 3323   1.340   3.737  11.227 -1.6463  2.8360  1.9913
  215MPD1    H2 3324   0.994   3.822  11.004 -0.7105  2.5414 -0.0010
  215MPD1    H3 3325   1.108   3.739  11.210  2.8214  0.3244  2.5753
  215MPD1     N 3326   1.512   3.890  11.060 -0.3977  0.5883  0.5799
  215MPD1    H5 3327   1.548   3.971  11.010 -0.2372 -0.2644 -0.6803
  215MPD1    N1 3328   1.112   3.973  10.810  0.3555  0.1399  0.6528
  215MPD1    H6 3329   1.043   3.905  10.779 -1.0979  1.9753 -0.1721
  215MPD1    H7 3330   1.177   3.975  10.731 -2.7044 -0.8828 -1.9070
  216MPD1     C 3331   4.214   1.828  16.635  0.7274 -0.0116 -0.7344
  216MPD1    C1 3332   4.173   1.702  16.615  0.0308  0.3964  0.0494
  216MPD1    C2 3333   4.113   1.631  16.718  0.1353 -0.1345  0.0487
  216MPD1    C3 3334   4.072   1.695  16.836 -0.1159 -0.5472 -0.0539
  216MPD1    C4 3335   4.102   1.829  16.850  0.1230 -0.4845 -0.3225
  216MPD1    C5 3336   4.174   1.889  16.746  0.0106  0.1654 -0.0152
  216MPD1     H 3337   4.090   1.528  16.695  1.9788 -0.5457  0.0323
  216MPD1    H1 3338   4.084   1.882  16.943 -2.3431 -0.4114 -0.8339
  216MPD1    H2 3339   4.262   1.876  16.551  1.6526 -0.0452 -0.2171
  216MPD1    H3 3340   4.184   1.997  16.756 -0.7250  0.0515  2.0495
  216MPD1     N 3341   4.004   1.613  16.928  0.5357 -0.3727  0.2987
  216MPD1    H5 3342   4.006   1.515  16.901  1.1073 -0.1826 -0.3657
  216MPD1    N1 3343   4.213   1.647  16.490  1.3699  0.1605  0.1831
  216MPD1    H6 3344   4.160   1.567  16.456 -0.5100  0.9830  1.1511
  216MPD1    H7 3345   4.247   1.707  16.415 -2.8055  0.2639 -1.6225
  217MPD1     C 3346   4.659   3.560   8.757 -0.7025 -0.4874  0.7761
  217MPD1    C1 3347   4.589   3.522   8.871  0.2777 -0.2401  0.2924
  217MPD1    C2 3348   4.656   3.542   8.989  0.2065  0.6394  0.2917
  217MPD1    C3 3349   0.030   3.618   9.004  0.1815 -0.0230 -0.4128
  217MPD1    C4 3350   0.097   3.662   8.898  0.7601  0.2056 -0.0946
  217MPD1    C5 3351   0.041   3.631   8.777  0.2791 -0.1365  0.8922
  217MPD1     H 3352   4.614   3.496   9.078 -2.0611  1.5122 -0.3442
  217MPD1    H1 3353   0.192   3.715   8.888  1.5181 -1.0547  0.3980
  217MPD1    H2 3354   4.618   3.538   8.659  1.1786 -1.5768  0.2366
  217MPD1    H3 3355   0.106   3.652   8.692 -0.0424 -2.1390  0.1546
  217MPD1     N 3356   0.090   3.641   9.131  0.7632 -0.5519 -0.1736
  217MPD1    H5 3357   0.174   3.696   9.117 -0.3876  1.1540 -0.4463
  217MPD1    N1 3358   4.475   3.439   8.855  0.3553  0.9848  0.1572
  217MPD1    H6 3359   4.433   3.468   8.767 -1.5154  2.6339  1.5809
  217MPD1    H7 3360   4.406   3.452   8.928 -1.2491  2.6589 -1.6683
  218MPD1     C 3361   1.198   3.990  12.974  0.3075 -0.8568 -1.1273
  218MPD1    C1 3362   1.297   4.080  12.921  0.6013 -0.4282  0.1708
  218MPD1    C2 3363   1.392   4.021  12.833  0.9131 -0.1659  0.3852
  218MPD1    C3 3364   1.390   3.889  12.797 -0.0408 -0.2340 -0.2342
  218MPD1    C4 3365   1.287   3.804  12.837 -0.1706  0.0486 -0.5505
  218MPD1    C5 3366   1.202   3.857  12.937 -0.5722  0.1882 -0.2919
  218MPD1     H 3367   1.476   4.080  12.797  0.7010 -1.0233 -1.5392
  218MPD1    H1 3368   1.278   3.701  12.807 -0.9313 -0.0736  0.0658
  218MPD1    H2 3369   1.118   4.022  13.039  0.1642 -2.5058 -0.4798
  218MPD1    H3 3370   1.137   3.782  12.981  0.0704 -0.3504 -0.2690
  218MPD1     N 3371   1.499   3.844  12.720 -0.0990  0.4496  0.5862
  218MPD1    H5 3372   1.562   3.915  12.683  0.0479  0.0685  0.0947
  218MPD1    N1 3373   1.278   4.216  12.925 -0.2392  0.5289 -0.4470
  218MPD1    H6 3374   1.362   4.269  12.900 -0.1104  1.0942  1.1406
  218MPD1    H7 3375   1.227   4.253  13.005 -0.0478  0.3941 -0.2624
  219MPD1     C 3376   1.810   3.854  11.757 -0.5441 -0.1665  0.4875
  219MPD1    C1 3377   1.793   3.952  11.848  0.4457 -0.7064 -0.0199
  219MPD1    C2 3378   1.774   3.917  11.980  0.9739 -1.3408 -0.1725
  219MPD1    C3 3379   1.782   3.782  12.020 -0.8406  0.2040 -0.8092
  219MPD1    C4 3380   1.793   3.681  11.923  0.1348  0.8349 -0.9137
  219MPD1    C5 3381   1.798   3.722  11.790  0.1471  0.3151  0.2853
  219MPD1     H 3382   1.784   4.000  12.050 -0.1377 -1.9053  0.6454
  219MPD1    H1 3383   1.798   3.575  11.945 -0.8125  1.2351  1.2480
  219MPD1    H2 3384   1.828   3.882  11.654  0.5628  0.8215  0.9508
  219MPD1    H3 3385   1.795   3.655  11.705 -0.6256  1.6624 -0.7506
  219MPD1     N 3386   1.764   3.740  12.153  0.5092  0.0266  0.1327
  219MPD1    H5 3387   1.760   3.639  12.163  1.4313  0.3851  3.9432
  219MPD1    N1 3388   1.828   4.076  11.805 -0.2324 -0.3880  0.6114
  219MPD1    H6 3389   1.928   4.078  11.787 -0.7132  0.3094 -1.9950
  219MPD1    H7 3390   1.813   4.149  11.875  1.8490 -2.1733  2.8677
  220MPD1     C 3391   1.210   0.396   9.962 -0.4289  0.1303  0.1448
  220MPD1    C1 3392   1.291   0.405  10.072 -0.0004  0.1080 -0.1927
  220MPD1    C2 3393   1.308   0.285  10.149 -0.4275  0.3882 -0.2603
  220MPD1    C3 3394   1.256   0.163  10.094  0.4910 -0.5137  0.2395
  220MPD1    C4 3395   1.194   0.156   9.970 -0.3956 -0.3259  0.5243
  220MPD1    C5 3396   1.167   0.276   9.916  0.3437  0.2680 -0.8111
  220MPD1     H 3397   1.356   0.278  10.246 -1.4744  1.7634  0.3554
  220MPD1    H1 3398   1.145   0.068   9.929  2.1567 -2.5866  2.3939
  220MPD1    H2 3399   1.180   0.483   9.904  0.5270 -0.9363 -1.9523
  220MPD1    H3 3400   1.111   0.288   9.825 -0.2268 -0.3225 -0.5410
  220MPD1     N 3401   1.272   0.045  10.178 -0.6188  0.6592 -0.0753
  220MPD1    H5 3402   1.335   0.071  10.253 -3.1712  1.4443  1.7959
  220MPD1    N1 3403   1.304   0.530  10.144 -0.5790  0.3370 -0.4162
  220MPD1    H6 3404   1.385   0.528  10.205  0.4965 -0.9765 -1.8791
  220MPD1    H7 3405   1.315   0.615  10.089 -0.8454  0.1057 -0.8336
  221MPD1     C 3406   4.506   3.262  16.448  0.6003  0.3884 -0.2406
  221MPD1    C1 3407   4.443   3.180  16.353 -0.2525  0.0183  0.6154
  221MPD1    C2 3408   4.501   3.059  16.323 -0.5465 -0.1642  0.0351
  221MPD1    C3 3409   4.617   3.019  16.381  0.2142  0.0037 -0.0160
  221MPD1    C4 3410   4.663   3.090  16.488  0.0030 -0.4007  0.2535
  221MPD1    C5 3411   4.611   3.212  16.521  0.1278  0.6970  0.1556
  221MPD1     H 3412   4.462   2.995  16.244  0.5239  2.1634 -2.3990
  221MPD1    H1 3413   0.017   3.055  16.537 -0.3429  1.3758  2.1660
  221MPD1    H2 3414   4.458   3.357  16.470 -0.3596 -0.2730  0.5107
  221MPD1    H3 3415   4.649   3.267  16.606  0.2988  1.4185 -0.3902
  221MPD1     N 3416   4.677   2.892  16.353 -0.5773 -0.6475  0.7730
  221MPD1    H5 3417   0.006   2.865  16.427  0.4448 -1.5619 -0.4588
  221MPD1    N1 3418   4.338   3.224  16.276  0.1838 -0.5584 -0.2378
  221MPD1    H6 3419   4.283   3.145  16.244 -3.4160  1.2752  1.3810
  221MPD1    H7 3420   4.274   3.278  16.334 -1.0845 -2.2576 -0.0765
  222MPD1     C 3421   4.270   1.897   0.464 -0.4505  0.2259 -0.0420
  222MPD1    C1 3422   4.278   1.895   0.602  0.1606  0.2468  0.0210
  222MPD1    C2 3423   4.343   1.997   0.666 -0.4779 -0.7982 -0.8914
  222MPD1    C3 3424   4.407   2.094   0.589 -0.3338  0.2845  0.5107
  222MPD1    C4 3425   4.397   2.093   0.446  0.1036  0.2441 -0.0738
  222MPD1    C5 3426   4.326   1.993   0.392  0.4633  0.0356 -0.5706
  222MPD1     H 3427   4.349   1.989   0.774 -0.4967 -0.1952 -0.8467
  222MPD1    H1 3428   4.441   2.177   0.394  1.9450  0.0634  1.1899
  222MPD1    H2 3429   4.215   1.822   0.408 -0.8021  2.6295 -2.8896
  222MPD1    H3 3430   4.308   1.992   0.285  2.6934 -3.8363 -0.9300
  222MPD1     N 3431   4.475   2.207   0.644  0.1308 -0.2593  0.4986
  222MPD1    H5 3432   4.515   2.278   0.583  0.7813  1.7060  3.2080
  222MPD1    N1 3433   4.224   1.790   0.677 -0.7282 -0.0009 -0.3472
  222MPD1    H6 3434   4.161   1.742   0.612 -1.0991  0.1827 -0.1242
  222MPD1    H7 3435   4.183   1.814   0.768  0.6017  0.2837  0.1700
  223MPD1     C 3436   0.374   2.169   1.390  0.5867  0.3236  0.1735
  223MPD1    C1 3437   0.284   2.078   1.329 -0.1663 -0.9554  0.1615
  223MPD1    C2 3438   0.189   2.127   1.240  0.0614 -0.3088 -0.4819
  223MPD1    C3 3439   0.192   2.261   1.198  0.7663 -0.3954  0.2887
  223MPD1    C4 3440   0.271   2.345   1.267  0.3640 -0.1200  0.1196
  223MPD1    C5 3441   0.363   2.301   1.365  0.1441  0.6783 -0.3140
  223MPD1     H 3442   0.124   2.058   1.186 -0.1747  0.2683 -0.9427
  223MPD1    H1 3443   0.260   2.451   1.247  2.1353 -0.1199 -0.9199
  223MPD1    H2 3444   0.440   2.139   1.470 -1.9741 -1.9132  1.4853
  223MPD1    H3 3445   0.419   2.377   1.420 -1.2480  1.2457  0.3064
  223MPD1     N 3446   0.095   2.311   1.112 -0.2377  0.4643  0.3458
  223MPD1    H5 3447   0.014   2.251   1.101  0.4996 -0.3733 -0.4854
  223MPD1    N1 3448   0.271   1.944   1.370 -0.3999  0.1829  0.3186
  223MPD1    H6 3449   0.233   1.891   1.293 -0.4912 -0.0102  0.4960
  223MPD1    H7 3450   0.363   1.910   1.398 -0.1111  1.3098  0.7716
  224MPD1     C 3451   1.252   4.543   9.142  0.0231  0.1963  0.7401
  224MPD1    C1 3452   1.126   4.541   9.190 -0.3836  0.0477 -0.4225
  224MPD1    C2 3453   1.095   4.481   9.307 -0.5040 -0.3093 -0.2928
  224MPD1    C3 3454   1.192   4.448   9.397  0.2942  0.2506  0.0766
  224MPD1    C4 3455   1.324   4.454   9.348  0.0318  0.1083 -1.0903
  224MPD1    C5 3456   1.356   4.502   9.220 -1.2908  0.9498 -0.5825
  224MPD1     H 3457   0.992   4.460   9.335 -0.4216  0.4008  0.5348
  224MPD1    H1 3458   1.408   4.420   9.407 -2.0782 -2.1128  0.6434
  224MPD1    H2 3459   1.272   4.586   9.045 -2.2595  0.1077  0.2456
  224MPD1    H3 3460   1.459   4.511   9.188 -1.2647 -1.5013 -1.1875
  224MPD1     N 3461   1.170   4.406   9.532  0.3310  0.0355  0.3912
  224MPD1    H5 3462   1.245   4.370   9.591 -0.7997  0.5968  2.1884
  224MPD1    N1 3463   1.029   4.571   9.100 -0.0059  0.2400 -0.0118
  224MPD1    H6 3464   0.940   4.584   9.147  0.0884  0.9945 -0.0465
  224MPD1    H7 3465   1.046   4.654   9.044  0.5745  0.4746  0.5083
  225MPD1     C 3466   1.680   4.692  12.805  0.2990  0.1084 -0.5328
  225MPD1    C1 3467   1.703   4.577  12.741  0.5669 -0.2400 -0.0168
  225MPD1    C2 3468   1.595   4.509  12.704  0.2088 -0.2088  0.0093
  225MPD1    C3 3469   1.462   4.566  12.714 -0.4206 -0.3896 -0.1047
  225MPD1    C4 3470   1.441   4.692  12.773 -0.1168  0.4240 -0.0521
  225MPD1    C5 3471   1.557   0.011  12.823  0.4936  0.6550 -0.5104
  225MPD1     H 3472   1.615   4.416  12.653 -0.3610  0.2445 -1.0474
  225MPD1    H1 3473   1.344   0.004  12.775 -0.5879 -0.5245 -0.7038
  225MPD1    H2 3474   1.768   0.011  12.834  0.4211  0.6875 -2.0051
  225MPD1    H3 3475   1.554   0.109  12.870 -2.9171  0.4110 -0.1898
  225MPD1     N 3476   1.343   4.498  12.674 -1.4102  0.0372 -0.7583
  225MPD1    H5 3477   1.259   4.549  12.699 -1.2568 -1.4588  2.8750
  225MPD1    N1 3478   1.830   4.519  12.733  0.2172  0.1977  0.1442
  225MPD1    H6 3479   1.910   4.577  12.707 -0.6862  0.9710 -0.8997
  225MPD1    H7 3480   1.831   4.445  12.663 -0.9404  1.1255 -0.8444
  226MPD1     C 3481   0.919   3.977   9.715  0.3409  0.2269  0.5963
  226MPD1    C1 3482   0.968   4.012   9.597  0.4101  0.0024 -0.2234
  226MPD1    C2 3483   0.890   4.088   9.510  0.9924  0.4656 -0.0954
  226MPD1    C3 3484   0.760   4.138   9.549  0.5560 -0.5867  1.2773
  226MPD1    C4 3485   0.716   4.105   9.682  0.1972 -0.1586 -0.4816
  226MPD1    C5 3486   0.797   4.026   9.761 -0.7277  0.1674  0.3800
  226MPD1     H 3487   0.928   4.109   9.410 -0.6034  0.2896 -0.7439
  226MPD1    H1 3488   0.622   4.148   9.715 -0.1677 -1.1467 -0.2345
  226MPD1    H2 3489   0.974   3.905   9.775 -1.5288 -1.3958  0.3658
  226MPD1    H3 3490   0.757   3.990   9.855  0.2557 -0.0125  0.7287
  226MPD1     N 3491   0.695   4.232   9.460 -0.2393 -0.1695  0.6225
  226MPD1    H5 3492   0.741   4.253   9.373  1.3072  0.9604  1.7109
  226MPD1    N1 3493   1.091   3.960   9.559  0.2037 -0.0305  0.1760
  226MPD1    H6 3494   1.132   4.029   9.496 -0.0743 -0.6420 -0.6826
  226MPD1    H7 3495   1.158   3.945   9.634  0.3857  1.5451  0.3170
  227MPD1     C 3496   4.582   0.156   9.380 -0.0400 -0.3315 -0.2671
  227MPD1    C1 3497   4.694   0.225   9.353  0.1078 -0.4920  0.0586
  227MPD1    C2 3498   0.076   0.161   9.335  0.2814  0.5019 -0.1752
  227MPD1    C3 3499   0.084   0.023   9.358  0.1303  0.1341  0.0794
  227MPD1    C4 3500   4.710   4.694   9.394  0.1042 -0.0520 -0.1021
  227MPD1    C5 3501   4.590   0.020   9.408  0.9090 -0.0640  0.4228
  227MPD1     H 3502   0.168   0.211   9.305  1.5856 -0.9149  1.4210
  227MPD1    H1 3503   4.710   4.588   9.415 -0.5073  0.0082  0.1941
  227MPD1    H2 3504   4.483   0.197   9.393  0.6474  1.3060 -0.2626
  227MPD1    H3 3505   4.501   4.697   9.431  0.1207  0.7329 -0.5876
  227MPD1     N 3506   0.210   4.698   9.334  0.6986  0.4594  0.2150
  227MPD1    H5 3507   0.279   0.035   9.311  2.5017 -0.9833  1.0609
  227MPD1    N1 3508   4.687   0.358   9.315 -0.1171  0.1520 -0.2917
  227MPD1    H6 3509   4.613   0.413   9.357 -0.5987 -0.2950 -0.5525
  227MPD1    H7 3510   0.034   0.413   9.339  0.1417  0.6160 -2.1972
  228MPD1     C 3511   3.880   2.115  13.214  0.2683  0.4112  1.0056
  228MPD1    C1 3512   3.819   2.157  13.096 -0.0247  0.2329  0.7765
  228MPD1    C2 3513   3.683   2.195  13.108 -0.4710 -0.0424 -0.1963
  228MPD1    C3 3514   3.609   2.186  13.232 -0.0677 -0.5300 -0.1324
  228MPD1    C4 3515   3.678   2.134  13.337 -0.8993  0.4975  0.8003
  228MPD1    C5 3516   3.811   2.111  13.329  0.7941  0.6568  0.0810
  228MPD1     H 3517   3.621   2.223  13.023  1.3762  2.3960 -0.7289
  228MPD1    H1 3518   3.632   2.118  13.434 -1.5261  0.2341  0.4596
  228MPD1    H2 3519   3.985   2.092  13.220  0.5160  0.7415 -2.1684
  228MPD1    H3 3520   3.867   2.075  13.415 -0.9479  1.3524  1.5228
  228MPD1     N 3521   3.475   2.233  13.240 -0.7925 -0.3460 -0.2055
  228MPD1    H5 3522   3.448   2.279  13.154 -0.7553  0.9442  0.4714
  228MPD1    N1 3523   3.891   2.177  12.974  0.3852  0.4494  0.3076
  228MPD1    H6 3524   3.829   2.175  12.894 -2.0825 -1.0257  2.2500
  228MPD1    H7 3525   3.963   2.108  12.957 -1.9217 -2.4577  2.4695
  229MPD1     C 3526   2.504   1.587  14.272 -0.4303  0.0600 -0.1676
  229MPD1    C1 3527   2.544   1.462  14.257 -0.8325  1.0771 -0.3797
  229MPD1    C2 3528   2.654   1.418  14.332  0.0314  0.1488  0.2607
  229MPD1    C3 3529   2.721   1.501  14.420  0.2719  0.6284  0.4172
  229MPD1    C4 3530   2.683   1.626  14.432 -0.0849  0.1322 -0.0037
  229MPD1    C5 3531   2.578   1.671  14.360 -0.0624 -0.2242 -0.6535
  229MPD1     H 3532   2.677   1.315  14.306  0.5039  0.5772 -1.0389
  229MPD1    H1 3533   2.726   1.702  14.497 -0.4366  0.5745 -0.2885
  229MPD1    H2 3534   2.414   1.631  14.230 -1.0606 -3.0073 -2.0416
  229MPD1    H3 3535   2.551   1.776  14.361 -0.8288 -0.4211 -0.6229
  229MPD1     N 3536   2.822   1.458  14.505 -0.3301 -0.3582  0.1763
  229MPD1    H5 3537   2.848   1.519  14.582 -2.7632  1.9260 -0.8245
  229MPD1    N1 3538   2.478   1.371  14.171 -0.0038  0.2277 -0.8820
  229MPD1    H6 3539   2.424   1.427  14.105 -0.5111  0.6038 -0.1442
  229MPD1    H7 3540   2.540   1.311  14.118  0.1650  1.2761 -1.8793
  230MPD1     C 3541   3.085   1.360  15.457 -0.0216 -0.1609 -0.5098
  230MPD1    C1 3542   3.165   1.258  15.410  1.1247 -0.0815  0.2814
  230MPD1    C2 3543   3.159   1.234  15.271 -0.2387 -0.1227  0.0508
  230MPD1    C3 3544   3.088   1.322  15.181 -0.2330  0.1617 -0.1122
  230MPD1    C4 3545   3.023   1.435  15.234 -0.7516 -0.6522 -0.2812
  230MPD1    C5 3546   3.024   1.448  15.373  0.0156  0.3307 -0.1254
  230MPD1     H 3547   3.208   1.147  15.229  1.0254 -0.2445  1.7811
  230MPD1    H1 3548   2.957   1.502  15.180 -0.2897  0.0842  0.0680
  230MPD1    H2 3549   3.064   1.368  15.563  0.0765  0.9682 -0.5789
  230MPD1    H3 3550   2.965   1.525  15.421  0.2431  0.3882  0.0611
  230MPD1     N 3551   3.089   1.290  15.043 -0.3581  0.0446  0.1777
  230MPD1    H5 3552   3.128   1.199  15.021 -0.0698  0.0458  0.6928
  230MPD1    N1 3553   3.222   1.167  15.505  0.5408 -0.6270  0.3368
  230MPD1    H6 3554   3.247   1.213  15.592 -1.0749 -0.1879  0.5598
  230MPD1    H7 3555   3.307   1.128  15.464  0.6806  2.3508 -2.1606
  231MPD1     C 3556   1.327   2.758  15.429 -0.5992 -0.0646 -0.3827
  231MPD1    C1 3557   1.256   2.796  15.318 -0.4136 -0.6954 -0.0884
  231MPD1    C2 3558   1.304   2.902  15.238  0.3336  0.0797  0.0045
  231MPD1    C3 3559   1.400   2.987  15.291 -0.1836  0.7474 -0.3301
  231MPD1    C4 3560   1.459   2.959  15.416 -0.2358  1.0231 -0.2759
  231MPD1    C5 3561   1.422   2.848  15.481 -0.2592  0.1105 -0.0927
  231MPD1     H 3562   1.269   2.917  15.136  0.5202  2.0381  0.2367
  231MPD1    H1 3563   1.545   3.017  15.448  0.4350  0.7510 -1.6093
  231MPD1    H2 3564   1.308   2.671  15.490 -0.0377  0.9816  1.2684
  231MPD1    H3 3565   1.455   2.823  15.582 -2.0951 -1.7644  0.0567
  231MPD1     N 3566   1.441   3.100  15.211  0.6392 -0.1287 -0.0524
  231MPD1    H5 3567   1.394   3.124  15.124  2.5735  0.7850 -0.8326
  231MPD1    N1 3568   1.148   2.719  15.280 -0.2884  0.4614 -0.1163
  231MPD1    H6 3569   1.093   2.686  15.360 -2.2028  3.3336 -0.2438
  231MPD1    H7 3570   1.086   2.761  15.211  0.7730  1.2831 -0.5686
  232MPD1     C 3571   3.157   1.478   0.343  0.4273 -0.2125 -0.6624
  232MPD1    C1 3572   3.044   1.556   0.314  0.1514 -0.2666 -0.0296
  232MPD1    C2 3573   2.941   1.483   0.256 -0.4117  0.5388  0.6411
  232MPD1    C3 3574   2.948   1.345   0.221 -0.9838 -0.5122  0.3184
  232MPD1    C4 3575   3.057   1.272   0.254 -0.2821  0.5853 -0.5949
  232MPD1    C5 3576   3.157   1.342   0.313 -0.0506 -0.1097  0.4297
  232MPD1     H 3577   2.855   1.540   0.222  0.2793  0.5966 -1.0444
  232MPD1    H1 3578   3.066   1.169   0.222 -0.9800  1.1990 -2.8317
  232MPD1    H2 3579   3.235   1.517   0.408 -0.0789  1.7213 -1.2176
  232MPD1    H3 3580   3.244   1.278   0.321 -0.9047 -1.3695 -0.4242
  232MPD1     N 3581   2.846   1.291   0.141 -0.6621  0.4973 -0.0905
  232MPD1    H5 3582   2.777   1.359   0.112  0.2064 -0.0928 -3.5875
  232MPD1    N1 3583   3.049   1.691   0.345 -0.3517  0.8267  0.0040
  232MPD1    H6 3584   2.958   1.736   0.339 -0.9755 -0.1499  1.7590
  232MPD1    H7 3585   3.083   1.702   0.440  0.2777 -0.4562 -0.0652
  233MPD1     C 3586   4.126   3.971   1.646  0.5548 -0.2221  0.1269
  233MPD1    C1 3587   4.177   3.928   1.760  0.0987 -0.4834 -0.2351
  233MPD1    C2 3588   4.308   3.957   1.784  0.4351  0.3559 -0.3085
  233MPD1    C3 3589   4.378   4.041   1.701 -0.1825  0.3500 -0.1633
  233MPD1    C4 3590   4.317   4.106   1.596  0.2434 -0.0935  0.9287
  233MPD1    C5 3591   4.190   4.067   1.573  0.5155  0.1934  0.3289
  233MPD1     H 3592   4.359   3.906   1.865 -0.1389  1.9287  1.0433
  233MPD1    H1 3593   4.364   4.186   1.541  0.1241 -0.7066 -0.0650
  233MPD1    H2 3594   4.028   3.939   1.612  0.3004  2.0653 -1.2579
  233MPD1    H3 3595   4.146   4.106   1.482  1.0621  1.5778  0.6478
  233MPD1     N 3596   4.517   4.077   1.732 -0.5417  0.4293 -0.3787
  233MPD1    H5 3597   4.555   4.164   1.696 -0.7134  0.9454  0.7115
  233MPD1    N1 3598   4.115   3.820   1.832 -0.0253 -0.3022  0.5565
  233MPD1    H6 3599   4.016   3.840   1.838 -0.6879 -3.1669 -0.6603
  233MPD1    H7 3600   4.137   3.833   1.930 -0.0795 -0.8590  0.6449
  234MPD1     C 3601   1.244   2.502   9.611  0.0654  0.2267  0.3525
  234MPD1    C1 3602   1.127   2.523   9.682 -0.2950  0.2838 -0.4972
  234MPD1    C2 3603   1.111   2.646   9.740 -0.3137 -0.2478 -0.0890
  234MPD1    C3 3604   1.200   2.748   9.728  0.4579 -0.6951  0.7148
  234MPD1    C4 3605   1.316   2.728   9.654  0.2095  0.6743 -0.0409
  234MPD1    C5 3606   1.341   2.600   9.602  0.4496  0.1035  0.2809
  234MPD1     H 3607   1.026   2.671   9.803 -1.1000 -2.2806 -0.3538
  234MPD1    H1 3608   1.389   2.808   9.641  2.1366 -1.2943 -1.2599
  234MPD1    H2 3609   1.264   2.408   9.561 -0.3064  1.5116 -2.2040
  234MPD1    H3 3610   1.424   2.594   9.534  1.4142  0.1203  1.4482
  234MPD1     N 3611   1.171   2.874   9.777 -0.3140  0.2348  0.0106
  234MPD1    H5 3612   1.093   2.871   9.842  0.1636 -0.0418  0.5666
  234MPD1    N1 3613   1.018   2.426   9.673  0.5898  0.2239 -0.4516
  234MPD1    H6 3614   1.053   2.331   9.677  0.1636  0.0532 -0.8476
  234MPD1    H7 3615   0.947   2.446   9.743  0.6111 -0.7449 -0.1563
  235MPD1     C 3616   1.934   4.698  10.383  0.5729  0.2595  0.0182
  235MPD1    C1 3617   1.956   0.066  10.298 -0.0287  0.7264  0.4878
  235MPD1    C2 3618   2.030   0.176  10.341  0.1739  0.2250  0.0363
  235MPD1    C3 3619   2.105   0.165  10.450  0.2992 -0.4484 -0.2889
  235MPD1    C4 3620   2.091   0.055  10.532  0.8044  0.3031  0.8544
  235MPD1    C5 3621   1.992   4.693  10.505  0.5485 -0.1053  0.0637
  235MPD1     H 3622   2.036   0.261  10.275 -0.4988  0.5477  0.3919
  235MPD1    H1 3623   2.156   0.032  10.616  1.1089 -1.8860  0.0190
  235MPD1    H2 3624   1.858   4.621  10.370  1.5177 -0.4826 -1.0871
  235MPD1    H3 3625   1.980   4.610  10.574 -0.5927 -0.1302 -0.1710
  235MPD1     N 3626   2.185   0.277  10.486  0.1363 -0.1920  0.6958
  235MPD1    H5 3627   2.179   0.361  10.430 -1.2133 -0.5295  0.3342
  235MPD1    N1 3628   1.885   0.076  10.175  0.5537  0.4541  0.3278
  235MPD1    H6 3629   1.927   0.111  10.089  0.2274  1.1340  0.4511
  235MPD1    H7 3630   1.858   4.714  10.158  0.2098  0.9526 -1.9381
  236MPD1     C 3631   1.266   0.851   9.864 -0.5753  0.4058  0.2359
  236MPD1    C1 3632   1.401   0.884   9.845 -0.4455 -0.2962  0.2455
  236MPD1    C2 3633   1.471   0.937   9.953 -0.3946  0.3042  0.8933
  236MPD1    C3 3634   1.429   0.936  10.084 -0.0203 -0.9669  1.3564
  236MPD1    C4 3635   1.296   0.902  10.102  0.0614 -0.5143  0.1790
  236MPD1    C5 3636   1.218   0.866   9.996  0.1964  0.4219 -0.3002
  236MPD1     H 3637   1.574   0.967   9.936 -0.4462 -0.7198 -1.2349
  236MPD1    H1 3638   1.252   0.912  10.201 -1.9154 -2.4995 -0.4735
  236MPD1    H2 3639   1.197   0.821   9.786 -1.5728  2.1837  0.4389
  236MPD1    H3 3640   1.114   0.844  10.016 -0.0955  0.0918 -2.1630
  236MPD1     N 3641   1.508   0.979  10.195  0.1259 -1.2001  0.0701
  236MPD1    H5 3642   1.492   0.945  10.290 -0.7662 -2.5097 -0.5482
  236MPD1    N1 3643   1.455   0.894   9.716  0.0258 -0.4031 -1.0084
  236MPD1    H6 3644   1.409   0.827   9.655 -0.5710 -1.7576  0.9074
  236MPD1    H7 3645   1.556   0.887   9.700  0.1312 -2.5721  0.6155
  237MPD1     C 3646   2.024   3.900  15.668  0.0522 -0.6641  0.3633
  237MPD1    C1 3647   1.952   3.969  15.759  0.0868  0.5382 -0.0610
  237MPD1    C2 3648   1.821   3.985  15.747  0.4625 -0.2735  0.3131
  237MPD1    C3 3649   1.753   3.944  15.636  0.0188 -0.5165 -0.6959
  237MPD1    C4 3650   1.827   3.892  15.533  0.0992  0.1690 -0.5813
  237MPD1    C5 3651   1.962   3.867  15.550 -0.7156  0.4662 -0.0832
  237MPD1     H 3652   1.773   4.047  15.823  0.1424 -1.3734  1.0047
  237MPD1    H1 3653   1.782   3.852  15.443  1.1682  0.1000 -1.0871
  237MPD1    H2 3654   2.130   3.878  15.674 -0.4023 -2.0749  3.0614
  237MPD1    H3 3655   2.018   3.812  15.476  2.2415  2.5347  0.5915
  237MPD1     N 3656   1.619   3.959  15.607  0.7696  0.3095  0.2169
  237MPD1    H5 3657   1.585   3.928  15.516 -0.3881  0.8560  0.4664
  237MPD1    N1 3658   2.019   3.995  15.881  0.3844 -0.6084 -0.7819
  237MPD1    H6 3659   2.121   3.993  15.870  0.7033  0.4390  1.9195
  237MPD1    H7 3660   1.981   4.066  15.943 -1.5028 -1.4614 -0.9690
  238MPD1     C 3661   3.375   3.542  15.140 -0.6186 -0.0886  0.1380
  238MPD1    C1 3662   3.298   3.453  15.216 -0.5256 -0.4923  0.5201
  238MPD1    C2 3663   3.179   3.414  15.161 -0.3291 -0.5382  0.2363
  238MPD1    C3 3664   3.131   3.459  15.042 -0.1383  0.0290  0.2531
  238MPD1    C4 3665   3.206   3.551  14.973 -0.3134 -0.7294  0.3020
  238MPD1    C5 3666   3.322   3.597  15.023  0.6589  0.4377 -0.5039
  238MPD1     H 3667   3.118   3.343  15.216  0.3948 -1.0186  0.4294
  238MPD1    H1 3668   3.157   3.597  14.889 -1.6311 -2.9637 -0.1581
  238MPD1    H2 3669   3.477   3.561  15.173 -0.7618  2.4419 -0.8782
  238MPD1    H3 3670   3.389   3.664  14.970 -1.6769  1.4032 -2.2027
  238MPD1     N 3671   3.010   3.407  14.980 -0.3187 -0.4399 -0.3624
  238MPD1    H5 3672   2.991   3.444  14.888  1.9688 -0.6311 -0.9058
  238MPD1    N1 3673   3.337   3.395  15.338 -0.0679 -0.2149 -0.6260
  238MPD1    H6 3674   3.407   3.456  15.381 -1.9480  0.0170  2.0952
  238MPD1    H7 3675   3.258   3.369  15.397  0.5506  1.2576  0.8570
  239MPD1     C 3676   3.011   3.909  14.910 -0.2514  0.7006  0.9503
  239MPD1    C1 3677   3.051   3.888  14.779 -0.1251  0.3467  0.0284
  239MPD1    C2 3678   3.182   3.910  14.750 -1.0735 -0.3008 -0.1207
  239MPD1    C3 3679   3.270   3.956  14.850  0.2324  0.3915  0.1654
  239MPD1    C4 3680   3.227   3.958  14.979  0.0743  0.1417  1.1686
  239MPD1    C5 3681   3.096   3.948  15.008  0.2109 -0.2118  0.2290
  239MPD1     H 3682   3.215   3.885  14.650 -0.9629 -0.1732 -0.1154
  239MPD1    H1 3683   3.294   3.985  15.060  2.0839  1.5835 -0.9780
  239MPD1    H2 3684   2.910   3.879  14.938 -0.9543  2.4908  0.2899
  239MPD1    H3 3685   3.066   3.954  15.112 -3.3621 -1.0769 -0.7365
  239MPD1     N 3686   3.403   3.992  14.823  0.2309 -0.3040 -0.2812
  239MPD1    H5 3687   3.467   4.009  14.900 -1.7247 -3.2010  1.9714
  239MPD1    N1 3688   2.964   3.844  14.681  1.0959  0.2665 -0.3212
  239MPD1    H6 3689   2.992   3.886  14.593 -0.9799  1.7529 -0.2597
  239MPD1    H7 3690   2.869   3.870  14.704  1.4286  2.7272 -1.7886
  240MPD1     C 3691   2.982   4.138  13.841 -0.5727  0.7225 -0.2824
  240MPD1    C1 3692   2.888   4.052  13.781 -0.2211 -0.0115 -0.1882
  240MPD1    C2 3693   2.798   3.977  13.855  0.2956 -0.3177  0.2926
  240MPD1    C3 3694   2.807   3.974  13.993 -0.7458  0.3496  1.2266
  240MPD1    C4 3695   2.905   4.047  14.049 -0.0909 -0.1019  0.7435
  240MPD1    C5 3696   2.980   4.132  13.979  0.1959  0.2004  0.0423
  240MPD1     H 3697   2.720   3.923  13.803 -0.0389 -0.2627  0.7438
  240MPD1    H1 3698   2.929   4.036  14.154  0.9874  1.3787  0.6541
  240MPD1    H2 3699   3.053   4.198  13.787 -1.8195  2.6622  0.2464
  240MPD1    H3 3700   3.056   4.193  14.026 -0.1293  2.1014 -1.8949
  240MPD1     N 3701   2.717   3.906  14.083 -0.5275 -0.2447 -0.3306
  240MPD1    H5 3702   2.652   3.846  14.034 -1.0706  0.0765 -0.0017
  240MPD1    N1 3703   2.865   4.052  13.647  0.5596 -0.0785  0.2148
  240MPD1    H6 3704   2.944   4.056  13.583  1.7405  1.1459  1.7275
  240MPD1    H7 3705   2.809   3.972  13.618 -0.3071  0.2218  1.0937
  241MPD1     C 3706   2.613   3.513  15.089 -0.3285 -0.2346 -0.1729
  241MPD1    C1 3707   2.702   3.596  15.028  0.0849  0.5754  0.3576
  241MPD1    C2 3708   2.682   3.633  14.894  0.2312 -0.2108 -0.3169
  241MPD1    C3 3709   2.571   3.589  14.828  0.6096  0.4369  0.2372
  241MPD1    C4 3710   2.487   3.496  14.883 -0.7635  0.0392  0.4336
  241MPD1    C5 3711   2.514   3.461  15.015 -0.7148 -0.3502  0.2719
  241MPD1     H 3712   2.759   3.694  14.849  0.9296 -0.0131  1.1661
  241MPD1    H1 3713   2.398   3.451  14.840 -0.7894 -0.2406  0.7811
  241MPD1    H2 3714   2.615   3.492  15.196 -1.1752  0.5062 -0.0130
  241MPD1    H3 3715   2.440   3.397  15.061 -0.2087 -1.3499 -0.3130
  241MPD1     N 3716   2.544   3.632  14.689  0.4780 -0.3330 -0.0037
  241MPD1    H5 3717   2.469   3.587  14.637  0.3877  1.7023 -1.6467
  241MPD1    N1 3718   2.818   3.646  15.092  0.6153  1.0982  0.0344
  241MPD1    H6 3719   2.855   3.582  15.161 -0.7860 -0.7252 -0.9093
  241MPD1    H7 3720   2.901   3.665  15.036  1.5953 -0.4598  0.9747
  242MPD1     C 3721   2.446   1.734  15.966 -1.3953  0.4072 -0.3296
  242MPD1    C1 3722   2.336   1.755  15.891  0.3862  0.4635 -0.7744
  242MPD1    C2 3723   2.364   1.810  15.762  0.5242  0.0477 -0.4877
  242MPD1    C3 3724   2.484   1.870  15.738  0.5472  0.5515 -0.3954
  242MPD1    C4 3725   2.586   1.870  15.829  0.1385  0.1076 -0.4881
  242MPD1    C5 3726   2.561   1.801  15.942  0.6572 -0.1343  0.1253
  242MPD1     H 3727   2.277   1.827  15.700  0.6202 -1.7355 -1.1291
  242MPD1    H1 3728   2.677   1.928  15.840  0.7436 -0.4871 -2.5054
  242MPD1    H2 3729   2.456   1.666  16.050  1.3926 -1.0032 -1.8005
  242MPD1    H3 3730   2.643   1.790  16.012 -0.7750  0.6702  1.9169
  242MPD1     N 3731   2.503   1.953  15.622  0.5189 -0.0190 -0.2349
  242MPD1    H5 3732   2.573   2.026  15.637  2.3074 -1.7954  0.0175
  242MPD1    N1 3733   2.216   1.687  15.914  0.1190  0.1237 -0.0180
  242MPD1    H6 3734   2.199   1.665  16.012 -2.2556  0.7051 -0.2937
  242MPD1    H7 3735   2.135   1.737  15.879  0.0812 -0.4377 -0.7162
  243MPD1     C 3736   3.399   0.750   0.127  0.4876 -1.0400 -0.0289
  243MPD1    C1 3737   3.512   0.825   0.142  0.5575  0.3747  0.5232
  243MPD1    C2 3738   3.631   0.780   0.082  0.4254  0.0850  0.3939
  243MPD1    C3 3739   3.637   0.659   0.019  0.4216 -0.2219 -0.2819
  243MPD1    C4 3740   3.523   0.582   0.012 -0.0069  0.0479  0.5524
  243MPD1    C5 3741   3.406   0.626   0.067  0.2181 -0.7651  1.1300
  243MPD1     H 3742   3.716   0.848   0.074 -0.5676  1.3855  0.7976
  243MPD1    H1 3743   3.530   0.485  17.704  1.1790  0.7121 -0.5968
  243MPD1    H2 3744   3.300   0.769   0.165  0.4293 -1.4881  0.0483
  243MPD1    H3 3745   3.314   0.569   0.070  0.6544 -1.6246 -1.8456
  243MPD1     N 3746   3.758   0.615  17.698  0.0352  0.6865 -0.0967
  243MPD1    H5 3747   3.849   0.649  17.726 -0.8271  1.8767  1.2684
  243MPD1    N1 3748   3.506   0.953   0.177 -0.0020  0.3716  0.1928
  243MPD1    H6 3749   3.597   0.988   0.205 -1.0969  1.1052  2.8428
  243MPD1    H7 3750   3.439   0.962   0.253 -1.3475 -0.2911 -0.9262
  244MPD1     C 3751   4.163   4.553   0.281  0.2040  0.1096 -0.2857
  244MPD1    C1 3752   4.120   4.518   0.161  0.3353 -0.3836  0.5417
  244MPD1    C2 3753   4.104   4.621   0.071 -0.2007  0.1130  0.0164
  244MPD1    C3 3754   4.101   0.013   0.106 -0.5261  0.3316  0.1473
  244MPD1    C4 3755   4.132   0.045   0.233  0.3366  0.1056  0.7781
  244MPD1    C5 3756   4.170   4.681   0.322 -0.0565 -0.1746 -0.5287
  244MPD1     H 3757   4.092   4.601  17.706 -0.4843  2.0484 -0.3209
  244MPD1    H1 3758   4.139   0.144   0.277  0.2788 -0.4668  2.0929
  244MPD1    H2 3759   4.174   4.479   0.360 -0.1312 -0.2073 -0.5382
  244MPD1    H3 3760   4.197   4.698   0.425 -2.0967 -1.0130  0.1503
  244MPD1     N 3761   4.080   0.117   0.010  0.1953 -0.2528  0.4369
  244MPD1    H5 3762   4.076   0.090  17.653 -0.9966 -0.8479  0.6471
  244MPD1    N1 3763   4.136   4.387   0.128  0.5059  0.1958  0.4780
  244MPD1    H6 3764   4.132   4.322   0.206  1.0018 -1.1979 -0.6346
  244MPD1    H7 3765   4.064   4.360   0.061  0.7874  3.9710 -1.3508
  245MPD1     C 3766   0.969   0.609  13.140  0.2007 -0.3007  0.5087
  245MPD1    C1 3767   0.926   0.688  13.243 -1.0661  0.3743 -1.3983
  245MPD1    C2 3768   1.016   0.780  13.287  0.1266  0.4173  0.3472
  245MPD1    C3 3769   1.130   0.816  13.214  1.1060  0.3029 -0.6342
  245MPD1    C4 3770   1.168   0.744  13.106  0.1427  0.4060  1.1052
  245MPD1    C5 3771   1.092   0.634  13.078  0.2980 -0.2755 -0.3835
  245MPD1     H 3772   1.002   0.829  13.383 -1.9298  2.7039 -1.1184
  245MPD1    H1 3773   1.264   0.751  13.055 -0.3726  3.2193  0.5242
  245MPD1    H2 3774   0.917   0.518  13.115  0.7892 -0.1039 -1.4042
  245MPD1    H3 3775   1.122   0.572  12.994  0.8567 -0.2031 -0.2317
  245MPD1     N 3776   1.215   0.906  13.273  0.3014  0.1452  0.0861
  245MPD1    H5 3777   1.203   0.930  13.371  1.4053 -1.1266  0.5392
  245MPD1    N1 3778   0.811   0.660  13.310 -0.1549  0.3012 -0.2502
  245MPD1    H6 3779   0.789   0.731  13.380 -0.2077  0.2198 -0.1841
  245MPD1    H7 3780   0.727   0.648  13.253  0.9122 -0.4477 -1.6425
  246MPD1     C 3781   0.663   1.846   9.216  0.8111  0.4379  0.2218
  246MPD1    C1 3782   0.785   1.790   9.221 -0.3684  0.6821  0.3889
  246MPD1    C2 3783   0.801   1.673   9.285 -0.1305  1.3236  0.3223
  246MPD1    C3 3784   0.688   1.596   9.326  0.3827 -0.4215 -0.1421
  246MPD1    C4 3785   0.562   1.645   9.290  0.9947  0.6164 -0.0418
  246MPD1    C5 3786   0.550   1.773   9.234 -0.5310  0.9222 -0.2735
  246MPD1     H 3787   0.899   1.642   9.317  0.5271  1.8872 -1.1730
  246MPD1    H1 3788   0.466   1.605   9.319  0.5928  0.2031 -1.9523
  246MPD1    H2 3789   0.649   1.949   9.187  0.1889 -0.4045 -2.4640
  246MPD1    H3 3790   0.456   1.823   9.213 -0.1796  1.3168 -0.8788
  246MPD1     N 3791   0.708   1.476   9.401 -0.2099 -0.3330 -0.5237
  246MPD1    H5 3792   0.804   1.445   9.408  0.2330  0.8863 -1.1614
  246MPD1    N1 3793   0.899   1.871   9.216 -0.5054 -0.5879  0.9327
  246MPD1    H6 3794   0.896   1.948   9.150 -0.3914 -1.4907 -0.1299
  246MPD1    H7 3795   0.982   1.815   9.199  1.8092  3.0840  0.0541
  247MPD1     C 3796   0.823   1.716  16.849  0.2468  0.1395 -0.5834
  247MPD1    C1 3797   0.875   1.598  16.904 -0.2352 -0.6455 -0.0071
  247MPD1    C2 3798   0.864   1.483  16.826  0.1030 -0.3888  0.4040
  247MPD1    C3 3799   0.828   1.482  16.694 -0.1792 -0.2937  0.2927
  247MPD1    C4 3800   0.798   1.609  16.639  0.0788 -0.2391 -0.1493
  247MPD1    C5 3801   0.790   1.717  16.721 -0.5068  0.3582 -0.0371
  247MPD1     H 3802   0.900   1.390  16.868  0.1574  0.1527  1.5526
  247MPD1    H1 3803   0.769   1.625  16.536  1.7236 -2.8936 -1.0360
  247MPD1    H2 3804   0.814   1.810  16.902 -3.1874 -1.4044  1.5773
  247MPD1    H3 3805   0.753   1.813  16.686 -0.6858  0.8968  1.6280
  247MPD1     N 3806   0.811   1.373  16.606 -0.5347  0.4150  0.3900
  247MPD1    H5 3807   0.796   1.389  16.506  0.7139 -1.0175 -0.0340
  247MPD1    N1 3808   0.900   1.585  17.042  0.1518 -0.5351  0.2090
  247MPD1    H6 3809   0.950   1.663  17.083  0.8299 -0.2255 -1.1911
  247MPD1    H7 3810   0.955   1.501  17.054  3.4963  1.5567 -0.5808
  248MPD1     C 3811   0.604   0.650  17.369  0.4031 -0.2539  0.0665
  248MPD1    C1 3812   0.561   0.774  17.396  0.4378  0.1712 -0.0616
  248MPD1    C2 3813   0.594   0.839  17.514 -0.2218  0.2288 -0.0297
  248MPD1    C3 3814   0.653   0.765  17.615 -0.0443  0.0547 -0.9700
  248MPD1    C4 3815   0.683   0.638  17.591 -0.7971  0.4426 -0.2571
  248MPD1    C5 3816   0.666   0.583  17.468 -0.0105  0.4869 -0.1181
  248MPD1     H 3817   0.562   0.941  17.529 -0.5989  0.0099  0.6764
  248MPD1    H1 3818   0.731   0.572  17.663 -0.1103  1.8578  0.5906
  248MPD1    H2 3819   0.597   0.605  17.271 -1.0939 -0.9306  0.4969
  248MPD1    H3 3820   0.704   0.487  17.437 -0.5008 -0.9573  3.7012
  248MPD1     N 3821   0.670   0.825  17.738 -0.2789 -0.1315 -0.1468
  248MPD1    H5 3822   0.635   0.920   0.001 -2.2877 -0.8775 -0.0487
  248MPD1    N1 3823   0.498   0.855  17.298  0.2763  0.1043 -0.6577
  248MPD1    H6 3824   0.441   0.931  17.334 -2.0580 -0.8643 -2.3049
  248MPD1    H7 3825   0.436   0.800  17.240 -0.6372  0.1188  0.3115
  249MPD1     C 3826   2.439   3.533  10.924 -0.2521 -0.0330 -0.4911
  249MPD1    C1 3827   2.552   3.606  10.886 -0.4270  0.0058 -0.0666
  249MPD1    C2 3828   2.561   3.670  10.764  0.1547 -0.0349 -1.5104
  249MPD1    C3 3829   2.450   3.675  10.685  0.1243 -0.2617 -0.4322
  249MPD1    C4 3830   2.335   3.614  10.731  0.2335 -0.4783 -0.8256
  249MPD1    C5 3831   2.322   3.545  10.845  0.0814 -0.3860  0.3894
  249MPD1     H 3832   2.659   3.700  10.728  0.3729  2.5648  1.1885
  249MPD1    H1 3833   2.245   3.608  10.670 -1.5066 -2.1974  1.9470
  249MPD1    H2 3834   2.435   3.472  11.013  0.8915 -0.9087 -1.0404
  249MPD1    H3 3835   2.228   3.499  10.872 -0.9091  1.0225 -0.6783
  249MPD1     N 3836   2.453   3.756  10.569  0.0464 -0.1366  0.3702
  249MPD1    H5 3837   2.528   3.825  10.560 -2.1492  2.3420  0.9706
  249MPD1    N1 3838   2.667   3.588  10.962 -0.6935 -0.2933  0.3727
  249MPD1    H6 3839   2.749   3.649  10.954  0.2192 -1.2828  2.0941
  249MPD1    H7 3840   2.640   3.554  11.054 -0.7369 -0.1055  0.4292
  250MPD2     C 3841   0.167   3.582  13.225 -0.1979 -0.7939 -0.0072
  250MPD2    C1 3842   0.063   3.658  13.269 -0.0202  0.0636 -0.2948
  250MPD2    C2 3843   4.680   3.653  13.201 -0.3265  0.7725 -0.5356
  250MPD2    C3 3844   4.661   3.563  13.100  0.2219  0.0883  0.4147
  250MPD2    C4 3845   0.027   3.476  13.076 -0.0631 -0.0396  0.5846
  250MPD2    C5 3846   0.146   3.482  13.137  0.1487 -0.2379 -0.4433
  250MPD2     H 3847   4.601   3.723  13.229  0.6387  1.1795  1.2042
  250MPD2    H1 3848   0.007   3.401  13.000  1.0069  0.5012 -0.2408
  250MPD2    H2 3849   0.262   3.603  13.274  0.1219  1.6579 -1.6468
  250MPD2    H3 3850   0.228   3.425  13.094 -0.5945  0.5311 -2.9160
  250MPD2     N 3851   4.543   3.559  13.020 -0.5408  0.0163  0.3413
  250MPD2    H5 3852   4.544   3.486  12.949  0.7783 -0.7658  1.1732
  250MPD2    N1 3853   0.095   3.763  13.360 -0.8164  0.2057  0.4881
  250MPD2    H7 3854   0.191   3.767  13.392 -1.4154  0.6003  2.2079
  251TMC3    C1 3855   0.053   3.967  13.480 -1.1619 -0.0283 -0.5111
  251TMC3    C2 3856   4.696   4.059  13.513 -0.2478  0.4486  0.2435
  251TMC3    C3 3857   0.009   4.181  13.538  0.9008 -0.1599 -0.3901
  251TMC3    C4 3858   0.187   3.995  13.472 -0.0545 -0.3774 -0.2653
  251TMC3    C5 3859   0.229   4.122  13.498  0.1858  0.2079  0.3343
  251TMC3    C6 3860   0.143   4.222  13.520 -0.1685  0.1532  0.5917
  251TMC3     C 3861   0.006   3.839  13.433  0.6416 -0.3950 -0.0874
  251TMC3     O 3862   4.619   3.830  13.434 -0.3694  0.3766 -0.4264
  251TMC3     H 3863   4.589   4.042  13.508  0.2014 -2.3276  0.1514
  251TMC3    H1 3864   0.256   3.921  13.435  0.8051  0.4055 -0.2155
  251TMC3    H2 3865   0.174   4.320  13.555  1.3358 -0.2876  0.5241
  251TMC3    C7 3866   0.370   4.146  13.474 -0.0108 -0.4939 -0.1821
  251TMC3    C8 3867   4.653   4.281  13.587  0.1894  0.1345 -0.4184
  251TMC3    O1 3868   0.437   4.044  13.490  0.3860 -0.2999 -0.0161
  251TMC3    O2 3869   4.553   4.243  13.643 -0.3671  0.7423  0.3195
  252TMC3    C1 3870   0.402   1.268   9.175  0.2346  0.4837  0.4497
  252TMC3    C2 3871   0.508   1.197   9.217 -0.5630  0.7467 -0.5222
  252TMC3    C3 3872   0.491   1.071   9.280 -0.6856 -0.3940 -0.3295
  252TMC3    C4 3873   0.273   1.224   9.205 -0.3948  0.1307 -0.0985
  252TMC3    C5 3874   0.257   1.113   9.283  0.3661  0.0281  0.9311
  252TMC3    C6 3875   0.367   1.039   9.326 -0.4423  0.2457  0.4776
  252TMC3     C 3876   0.423   1.381   9.093  0.1017 -0.5803  0.2709
  252TMC3     O 3877   0.531   1.395   9.043 -0.0337  0.2762 -0.2895
  252TMC3     H 3878   0.608   1.219   9.182 -1.3744  2.2660 -1.8625
  252TMC3    H1 3879   0.190   1.273   9.155  1.5849  0.0261 -3.4698
  252TMC3    H2 3880   0.350   0.940   9.367  1.9043 -0.4042 -0.1059
  252TMC3    C7 3881   0.122   1.067   9.312  0.3139 -0.4523  0.0425
  252TMC3    C8 3882   0.610   1.032   9.348  0.1182  0.1106  0.2186
  252TMC3    O1 3883   0.038   1.140   9.264 -0.1312  0.2573 -0.3486
  252TMC3    O2 3884   0.710   1.092   9.314  0.8222  0.5027 -0.4458
  253MPD2     C 3885   1.013   4.368  15.426  0.3169  0.5674 -0.6394
  253MPD2    C1 3886   0.878   4.334  15.417 -0.1062 -0.3888 -0.7318
  253MPD2    C2 3887   0.796   4.368  15.526  0.0361 -0.5095 -0.4322
  253MPD2    C3 3888   0.850   4.453  15.625  0.5176  0.7089  0.5326
  253MPD2    C4 3889   0.982   4.502  15.622 -0.1966 -0.0138  0.1771
  253MPD2    C5 3890   1.059   4.460  15.515 -0.2709  0.8568  0.2369
  253MPD2     H 3891   0.692   4.339  15.515 -0.1774 -0.8124  2.3404
  253MPD2    H1 3892   1.017   4.571  15.698 -1.2125 -0.0265  0.6561
  253MPD2    H2 3893   1.077   4.352  15.340  0.4158 -0.4740 -0.3719
  253MPD2    H3 3894   1.163   4.486  15.498  0.5358 -3.2051 -1.1017
  253MPD2     N 3895   0.772   4.499  15.731  0.6480  0.1108  0.3001
  253MPD2    H5 3896   0.825   4.538  15.808 -1.3711  1.2640  1.0954
  253MPD2    N1 3897   0.821   4.264  15.308 -0.3395 -0.0638  0.1944
  253MPD2    H7 3898   0.722   4.245  15.317 -0.7500  0.8161 -2.5301
  254TMC3    C1 3899   0.574   4.544  15.856 -0.9772 -0.2142 -0.0462
  254TMC3    C2 3900   0.444   4.587  15.854 -0.1154  0.4256  0.2400
  254TMC3    C3 3901   0.369   4.563  15.970 -0.7612 -0.0751  0.1602
  254TMC3    C4 3902   0.630   4.503  15.975 -0.4410 -0.1512  0.4172
  254TMC3    C5 3903   0.553   4.489  16.088 -0.3730 -0.6960  0.1527
  254TMC3    C6 3904   0.422   4.518  16.087  0.1342 -0.1646 -1.1252
  254TMC3     C 3905   0.636   4.501  15.734  0.2759  0.0436 -0.5624
  254TMC3     O 3906   0.560   4.477  15.646 -0.3493 -0.4545 -0.3634
  254TMC3     H 3907   0.392   4.621  15.765  0.0234  1.1026  0.4153
  254TMC3    H1 3908   0.730   4.462  15.972 -0.3481  0.1171 -0.2355
  254TMC3    H2 3909   0.360   4.500  16.174  0.6160  1.2726 -0.4992
  254TMC3    C7 3910   0.616   4.439  16.207  0.4646 -0.1918  0.3860
  254TMC3    C8 3911   0.227   4.608  15.961 -0.2517  0.8337 -0.0580
  254TMC3    O1 3912   0.550   4.410  16.304  0.0928  1.1305 -0.0677
  254TMC3    O2 3913   0.195   4.671  15.865  0.0811 -0.2561 -0.0097
  255MPD2     C 3914   4.155   2.805  10.823 -0.6076 -1.2063 -0.0143
  255MPD2    C1 3915   4.131   2.820  10.690 -0.2154  0.5064  0.2095
  255MPD2    C2 3916   4.197   2.755  10.589  0.4156 -0.0892 -0.0157
  255MPD2    C3 3917   4.291   2.663  10.628 -0.3843  0.4853  0.2941
  255MPD2    C4 3918   4.310   2.635  10.762 -0.0676  0.2283  0.6976
  255MPD2    C5 3919   4.241   2.706  10.856  0.0830 -0.6840  0.3547
  255MPD2     H 3920   4.192   2.785  10.485  2.8048 -0.0211 -0.1247
  255MPD2    H1 3921   4.377   2.561  10.804 -0.5150 -1.3038 -1.2997
  255MPD2    H2 3922   4.094   2.854  10.898  0.8151  0.6957 -0.1190
  255MPD2    H3 3923   4.257   2.691  10.962  3.9835 -0.2638 -0.1752
  255MPD2     N 3924   4.365   2.608  10.531  0.5456  0.0177  0.4981
  255MPD2    H5 3925   4.337   2.639  10.438  1.5089  0.4645  0.3515
  255MPD2    N1 3926   4.026   2.905  10.669  0.6492 -0.5201 -0.2597
  255MPD2    H7 3927   3.961   2.911  10.746  0.3735  3.1752 -0.8006
  256TMC3    C1 3928   3.874   3.044  10.545 -0.3197 -0.3873  0.0267
  256TMC3    C2 3929   3.883   3.156  10.470 -0.2466 -0.1757 -0.4309
  256TMC3    C3 3930   3.768   3.205  10.412  0.0027 -0.1182  0.4209
  256TMC3    C4 3931   3.744   2.992  10.579 -0.2180 -0.0261  0.7621
  256TMC3    C5 3932   3.637   3.031  10.506  0.3329 -0.5192  0.0084
  256TMC3    C6 3933   3.650   3.134  10.422 -0.1017 -0.1350  0.8221
  256TMC3     C 3934   3.993   2.964  10.551 -0.3926  0.2981  0.0523
  256TMC3     O 3935   4.067   2.981  10.458 -0.1671  0.3703 -0.1451
  256TMC3     H 3936   3.982   3.197  10.454 -0.0386 -0.7463 -0.5898
  256TMC3    H1 3937   3.749   2.904  10.642  1.8800 -0.1768  0.4001
  256TMC3    H2 3938   3.568   3.161  10.356 -1.2281 -0.1239  2.2042
  256TMC3    C7 3939   3.566   2.917  10.453 -0.1630  0.0333 -0.3842
  256TMC3    C8 3940   3.780   3.296  10.304  1.0285  0.0882  0.3641
  256TMC3    O1 3941   3.570   2.900  10.334 -0.4802  0.2111 -0.6508
  256TMC3    O2 3942   3.718   3.265  10.199  0.1005  0.7354 -0.0642
  257MPD2     C 3943   2.562   4.103  13.255  0.4455 -0.1930 -0.4741
  257MPD2    C1 3944   2.690   4.114  13.219  0.1585  0.1937  0.2375
  257MPD2    C2 3945   2.780   4.024  13.267  0.3364 -0.2113 -0.6563
  257MPD2    C3 3946   2.741   3.930  13.361 -0.1840  0.6522 -0.3699
  257MPD2    C4 3947   2.609   3.918  13.395  0.4065 -0.4604 -0.0057
  257MPD2    C5 3948   2.516   4.006  13.344  0.0630 -0.5259 -0.3121
  257MPD2     H 3949   2.884   4.019  13.238  0.6899 -1.0252  0.7382
  257MPD2    H1 3950   2.578   3.843  13.468  1.9145  0.5080  1.6031
  257MPD2    H2 3951   2.502   4.175  13.201  1.3956 -1.0204 -2.6164
  257MPD2    H3 3952   2.409   4.005  13.363  0.1770  0.8189  0.3905
  257MPD2     N 3953   2.838   3.848  13.415 -0.3199 -0.5635 -0.6054
  257MPD2    H5 3954   2.932   3.859  13.377  0.8662 -2.7662  1.6483
  257MPD2    N1 3955   2.730   4.206  13.127  0.6046  0.0786  0.1139
  257MPD2    H7 3956   2.655   4.244  13.069 -0.6844 -0.8048  1.1897
  258TMC3    C1 3957   2.939   3.665  13.517 -0.0538 -0.8992  0.2419
  258TMC3    C2 3958   3.034   3.664  13.428  0.7654 -0.8266 -0.9485
  258TMC3    C3 3959   3.147   3.593  13.458 -0.7655  0.2456 -0.4530
  258TMC3    C4 3960   2.947   3.602  13.639 -0.2773 -0.3003 -0.3913
  258TMC3    C5 3961   3.069   3.547  13.673 -0.0468 -0.0496 -0.4286
  258TMC3    C6 3962   3.169   3.541  13.584  0.0135 -0.5791 -0.1960
  258TMC3     C 3963   2.823   3.757  13.512  0.3325 -0.3322  0.2136
  258TMC3     O 3964   2.740   3.750  13.598 -0.0604  0.4481 -0.1816
  258TMC3     H 3965   3.025   3.710  13.330  1.4062  1.7515  0.2248
  258TMC3    H1 3966   2.865   3.619  13.707 -1.7906  1.2890 -2.6191
  258TMC3    H2 3967   3.261   3.492  13.613  0.2173 -1.0293 -1.5795
  258TMC3    C7 3968   3.071   3.504  13.810  0.7437 -0.3332 -0.2436
  258TMC3    C8 3969   3.265   3.584  13.373 -1.2525 -0.4826  1.0965
  258TMC3    O1 3970   2.961   3.480  13.857  0.1568  0.0351  0.4129
  258TMC3    O2 3971   3.369   3.533  13.414  0.4196 -0.2857  0.7016
  259MPD2     C 3972   1.583   1.729   0.607  0.2328 -0.1460  0.5726
  259MPD2    C1 3973   1.687   1.644   0.593 -0.2728  0.3281 -0.1440
  259MPD2    C2 3974   1.731   1.612   0.467 -0.3046  0.0219 -0.0687
  259MPD2    C3 3975   1.656   1.649   0.362  0.3643  0.6020  0.4891
  259MPD2    C4 3976   1.543   1.730   0.381  0.5228  0.1489  0.6485
  259MPD2    C5 3977   1.511   1.778   0.506 -0.3349  0.1819  1.2311
  259MPD2     H 3978   1.822   1.553   0.456 -0.9543 -1.2957  1.5707
  259MPD2    H1 3979   1.481   1.760   0.298  0.3518 -1.6102  0.1358
  259MPD2    H2 3980   1.551   1.750   0.708  1.3523  0.3205  0.8196
  259MPD2    H3 3981   1.425   1.842   0.518 -1.6627 -1.1896 -0.8108
  259MPD2     N 3982   1.700   1.602   0.234 -0.6946 -0.2468  0.9330
  259MPD2    H5 3983   1.758   1.520   0.221 -0.7832 -0.5884  2.7547
  259MPD2    N1 3984   1.760   1.627   0.713 -0.1406 -0.0805 -0.3857
  259MPD2    H7 3985   1.711   1.668   0.793 -0.4660  1.1052 -1.1915
  260TMC3    C1 3986   1.722   1.616  17.735 -0.2887 -0.4584 -0.1189
  260TMC3    C2 3987   1.774   1.698  17.640  0.5517  0.0707 -0.4289
  260TMC3    C3 3988   1.847   1.641  17.542  0.0021 -0.3692 -0.0329
  260TMC3    C4 3989   1.740   1.481  17.731  0.0245  0.1319  0.0589
  260TMC3    C5 3990   1.806   1.430  17.626  0.6571 -0.1489 -0.3012
  260TMC3    C6 3991   1.864   1.507  17.533 -0.4938 -0.3385  0.2702
  260TMC3     C 3992   1.676   1.678   0.123  0.4873 -0.2956 -0.0056
  260TMC3     O 3993   1.623   1.786   0.113  0.2077  0.0382 -0.3023
  260TMC3     H 3994   1.779   1.805  17.658 -0.0832  0.1866 -0.9416
  260TMC3    H1 3995   1.699   1.421   0.071  0.4002 -0.5045 -0.2197
  260TMC3    H2 3996   1.907   1.470  17.441  1.6055  1.3328  0.5812
  260TMC3    C7 3997   1.866   1.301  17.623 -0.0075 -0.2127  0.8450
  260TMC3    C8 3998   1.975   1.708  17.526 -0.9076  0.7938  0.2166
  260TMC3    O1 3999   1.964   1.286  17.552  0.9164  0.3320  0.5911
  260TMC3    O2 4000   1.988   1.829  17.551 -0.3982  0.0505  0.1928
  261MPD2     C 4001   3.801   3.907  12.862  0.6437  0.1503  0.7051
  261MPD2    C1 4002   3.923   3.897  12.791 -0.1256 -1.1032 -0.3285
  261MPD2    C2 4003   3.957   3.995  12.696 -0.6178  0.2478  0.5559
  261MPD2    C3 4004   3.877   4.101  12.670 -0.0154 -0.0029  0.2084
  261MPD2    C4 4005   3.759   4.121  12.741  0.1980 -0.4698  0.0997
  261MPD2    C5 4006   3.727   4.017  12.829  0.4350 -0.6558 -0.7079
  261MPD2     H 4007   4.055   3.998  12.651 -0.6180 -1.2327  0.4352
  261MPD2    H1 4008   3.693   4.207  12.740  1.5767  0.5728 -2.2126
  261MPD2    H2 4009   3.776   3.848  12.950 -0.5509  1.1298  1.0175
  261MPD2    H3 4010   3.632   4.031  12.879 -0.4223 -1.0523 -2.2393
  261MPD2     N 4011   3.910   4.179  12.560  0.4822  0.0320  0.8323
  261MPD2    H5 4012   3.992   4.144  12.512  0.1148  1.2135 -0.6769
  261MPD2    N1 4013   4.016   3.793  12.815 -0.3463 -0.6403 -0.5338
  261MPD2    H7 4014   4.115   3.809  12.796  0.3868 -2.0151  2.1259
  262TMC3    C1 4015   3.895   4.347  12.388  0.0324  0.4641  0.0583
  262TMC3    C2 4016   3.854   4.474  12.363  0.6257 -0.3804  0.3311
  262TMC3    C3 4017   3.892   4.523  12.241  0.1718  0.6945 -0.4501
  262TMC3    C4 4018   3.978   4.274  12.306  0.7367 -0.1977 -0.2016
  262TMC3    C5 4019   4.005   4.327  12.182 -0.5999 -0.0604 -0.4617
  262TMC3    C6 4020   3.961   4.455  12.147  0.2607  0.3525  0.5835
  262TMC3     C 4021   3.846   4.292  12.517 -0.1281  0.1370  0.7686
  262TMC3     O 4022   3.749   4.351  12.565  0.2749  0.0764 -0.4188
  262TMC3     H 4023   3.809   4.541  12.435 -0.7726  1.1472 -1.9809
  262TMC3    H1 4024   3.989   4.168  12.330 -0.5365 -0.6627 -1.6152
  262TMC3    H2 4025   3.997   4.514  12.064  0.6998  2.2189  2.1105
  262TMC3    C7 4026   4.132   4.272  12.127  0.2900 -0.3219  0.4495
  262TMC3    C8 4027   3.830   4.644  12.203  0.4248 -0.1098 -0.1630
  262TMC3    O1 4028   4.168   4.164  12.172  0.0844 -0.1636 -0.0930
  262TMC3    O2 4029   3.889   4.711  12.120  0.0497 -0.3066  0.1953
  263MPD2     C 4030   4.510   3.085  11.464  0.2335  0.0158  1.0218
  263MPD2    C1 4031   4.626   3.142  11.503  0.7697  0.0262  0.8975
  263MPD2    C2 4032   4.674   3.251  11.434  1.1189 -0.3793 -0.1805
  263MPD2    C3 4033   4.614   3.300  11.322  0.9410  0.4045 -0.8098
  263MPD2    C4 4034   4.494   3.246  11.286  1.9131  0.2774 -0.1241
  263MPD2    C5 4035   4.449   3.137  11.354 -0.1717  0.1624  0.1828
  263MPD2     H 4036   0.030   3.302  11.462 -1.0546  2.8824  0.8974
  263MPD2    H1 4037   4.443   3.282  11.198  1.4472 -0.3574 -0.1152
  263MPD2    H2 4038   4.471   2.991  11.502 -0.5578  0.1094  0.4279
  263MPD2    H3 4039   4.365   3.083  11.311 -0.5794 -0.3553  1.6258
  263MPD2     N 4040   4.673   3.421  11.268  0.9536 -0.1896  0.2734
  263MPD2    H5 4041   0.008   3.463  11.328  0.4478  0.3497  0.4869
  263MPD2    N1 4042   4.713   3.081  11.599  0.1893  0.6922 -0.2422
  263MPD2    H7 4043   4.680   2.990  11.629 -0.7776  1.0117 -0.3514
  264TMC3    C1 4044   4.717   3.587  11.104 -0.0068  0.0655 -0.5276
  264TMC3    C2 4045   0.047   3.653  11.199 -0.1718 -0.7060 -0.7697
  264TMC3    C3 4046   0.164   3.713  11.166  0.8099  0.4555 -0.0917
  264TMC3    C4 4047   0.019   3.580  10.973  0.0706 -0.4432  0.1471
  264TMC3    C5 4048   0.133   3.642  10.944 -0.0042  0.4734  0.3519
  264TMC3    C6 4049   0.203   3.721  11.038  0.3239 -0.1496  0.5814
  264TMC3     C 4050   4.634   3.476  11.148  0.4689 -0.7733  0.1890
  264TMC3     O 4051   4.549   3.436  11.069 -0.3314 -0.0594  0.8517
  264TMC3     H 4052   0.022   3.650  11.304  1.7254  0.5981 -0.3042
  264TMC3    H1 4053   4.694   3.517  10.909 -0.6572  2.0631 -1.6716
  264TMC3    H2 4054   0.301   3.758  11.013 -0.1206  0.9535  0.4967
  264TMC3    C7 4055   0.203   3.606  10.824  0.3247  0.0266  0.0771
  264TMC3    C8 4056   0.222   3.810  11.260 -0.2029  0.1784  0.2476
  264TMC3    O1 4057   0.322   3.627  10.835  0.0534 -0.0255  0.0780
  264TMC3    O2 4058   0.324   3.863  11.219 -0.4568 -0.0447 -0.2628
  265MPD2     C 4059   2.355   3.952  15.801 -0.0064  0.4643 -0.2322
  265MPD2    C1 4060   2.331   4.065  15.725 -0.7072  0.0706 -0.0390
  265MPD2    C2 4061   2.367   4.061  15.590 -0.0486  0.2400  0.4323
  265MPD2    C3 4062   2.428   3.951  15.532 -0.4181 -0.6463 -0.0203
  265MPD2    C4 4063   2.445   3.842  15.611  0.1791  0.1416 -0.7583
  265MPD2    C5 4064   2.411   3.844  15.742  0.6021  0.7212 -0.5782
  265MPD2     H 4065   2.356   4.147  15.525 -0.2056  0.2801  0.5142
  265MPD2    H1 4066   2.489   3.748  15.580  0.2327  0.2946 -1.1473
  265MPD2    H2 4067   2.334   3.944  15.907 -0.1013  2.1252 -0.1226
  265MPD2    H3 4068   2.438   3.756  15.799  0.8648  0.0620 -1.7175
  265MPD2     N 4069   2.479   3.941  15.404  0.3053 -0.5925 -0.7471
  265MPD2    H5 4070   2.499   3.850  15.365  3.1194  0.6740 -2.2838
  265MPD2    N1 4071   2.265   4.178  15.772  0.2773  0.4458 -0.2380
  265MPD2    H7 4072   2.244   4.252  15.705  1.6380  1.9167  0.9548
  266TMC3    C1 4073   2.149   4.335  15.913 -0.6313 -0.0913  0.6460
  266TMC3    C2 4074   2.190   4.437  16.003  0.4621 -0.5134 -0.3759
  266TMC3    C3 4075   2.129   4.560  15.993 -0.2761  0.2243  0.1141
  266TMC3    C4 4076   2.062   4.366  15.817  0.7954  0.0015  0.2478
  266TMC3    C5 4077   2.004   4.492  15.809 -0.6226  0.0345 -0.0117
  266TMC3    C6 4078   2.039   4.592  15.899 -0.3716  0.2569 -0.2826
  266TMC3     C 4079   2.227   4.209  15.904 -0.1227  0.5116 -0.3168
  266TMC3     O 4080   2.258   4.158  16.010  0.1312 -0.0984 -0.2287
  266TMC3     H 4081   2.264   4.409  16.078 -2.0123 -1.7889  1.5794
  266TMC3    H1 4082   2.035   4.283  15.753  0.7345 -2.5134  3.5245
  266TMC3    H2 4083   1.989   4.688  15.903 -1.5582 -0.2151 -3.3789
  266TMC3    C7 4084   1.952   4.522  15.678  0.4894 -0.2213  0.2630
  266TMC3    C8 4085   2.176   4.656  16.088 -0.0799  0.1468 -0.9289
  266TMC3    O1 4086   1.970   4.434  15.593 -0.2402  0.5539 -0.1240
  266TMC3    O2 4087   2.258   4.610  16.170 -0.1526  0.0240  0.2791
  267MPD2     C 4088   3.882   1.318   0.228 -0.4980  0.0693  0.4522
  267MPD2    C1 4089   3.990   1.355   0.153  0.1074 -0.3459 -0.4963
  267MPD2    C2 4090   3.982   1.363   0.008 -0.8710  0.0510 -0.3251
  267MPD2    C3 4091   3.864   1.349  17.687 -0.2259  0.7531 -0.0567
  267MPD2    C4 4092   3.755   1.307   0.026  0.0285  0.1655 -0.0161
  267MPD2    C5 4093   3.767   1.288   0.163  1.4264  0.3717 -0.6924
  267MPD2     H 4094   4.074   1.368  17.692 -1.0297  1.0847 -0.4932
  267MPD2    H1 4095   3.659   1.281  17.723 -1.7850  2.7608  2.4335
  267MPD2    H2 4096   3.882   1.318   0.337  0.2803  1.2390  0.4601
  267MPD2    H3 4097   3.678   1.275   0.222  1.1257 -0.8942 -1.4313
  267MPD2     N 4098   3.837   1.369  17.554 -0.0171 -0.2519 -0.2711
  267MPD2    H5 4099   3.752   1.326  17.518  0.8762 -2.9747  0.8866
  267MPD2    N1 4100   4.102   1.382   0.236 -0.0276 -0.0551 -0.7000
  267MPD2    H7 4101   4.094   1.377   0.337  1.1222 -0.8658 -0.6492
  268TMC3    C1 4102   4.303   1.482   0.300 -0.0507  0.4989 -0.0335
  268TMC3    C2 4103   4.370   1.596   0.263  0.0363 -0.2043  0.2425
  268TMC3    C3 4104   4.472   1.632   0.350 -0.0204 -0.0512  0.4405
  268TMC3    C4 4105   4.340   1.399   0.402  0.1914 -0.1354  0.4935
  268TMC3    C5 4106   4.445   1.435   0.478 -0.0293  0.0080  0.2797
  268TMC3    C6 4107   4.500   1.560   0.459 -0.3234 -0.4621  0.6697
  268TMC3     C 4108   4.213   1.448   0.190 -0.4594 -0.3399  0.1727
  268TMC3     O 4109   4.237   1.491   0.075  0.7415 -0.3745 -0.0872
  268TMC3     H 4110   4.336   1.650   0.175 -0.4768  0.5277  0.8835
  268TMC3    H1 4111   4.283   1.309   0.422 -0.3248  0.2659  0.8339
  268TMC3    H2 4112   4.588   1.591   0.516 -1.0091 -0.9056  1.9569
  268TMC3    C7 4113   4.444   1.387   0.613 -0.0887  0.2395  0.4836
  268TMC3    C8 4114   4.562   1.737   0.307 -0.4398 -0.8711 -0.6854
  268TMC3    O1 4115   4.444   1.266   0.629 -0.0540  0.0645  0.1070
  268TMC3    O2 4116   4.621   1.803   0.393 -0.9297  0.5526  0.0514
  269MPD2     C 4117   4.697   0.026  15.641 -1.1459  0.1475 -0.1240
  269MPD2    C1 4118   4.566   0.048  15.681 -0.0623 -0.4650  0.2279
  269MPD2    C2 4119   4.527   0.183  15.683  0.4536 -0.8191 -0.0725
  269MPD2    C3 4120   4.622   0.286  15.656 -0.0664  0.0338  0.2035
  269MPD2    C4 4121   0.008   0.254  15.605  0.8325  0.4641 -0.0393
  269MPD2    C5 4122   0.050   0.125  15.596 -0.3117  0.0000  0.4267
  269MPD2     H 4123   4.431   0.211  15.726 -0.3651  1.2363 -3.1818
  269MPD2    H1 4124   0.086   0.322  15.573  0.4962  0.9192  0.1168
  269MPD2    H2 4125   0.007   4.663  15.640  1.4554  1.3524 -1.2004
  269MPD2    H3 4126   0.151   0.101  15.564 -1.4364 -4.6964  0.5062
  269MPD2     N 4127   4.580   0.418  15.674 -0.2258 -0.0768  0.7471
  269MPD2    H5 4128   4.487   0.426  15.713 -0.2114  1.3718  0.4847
  269MPD2    N1 4129   4.495   4.664  15.718 -0.2379  0.2468  0.3515
  269MPD2    H7 4130   4.529   4.569  15.712  1.5013  0.7494  2.4488
  270TMC3    C1 4131   4.307   4.554  15.805 -0.3358 -0.5388 -1.0601
  270TMC3    C2 4132   4.172   4.529  15.773  0.2384  0.0166 -0.1161
  270TMC3    C3 4133   4.124   4.405  15.813 -0.7699 -0.5387  0.3564
  270TMC3    C4 4134   4.386   4.468  15.868 -0.2235  0.0092  0.1151
  270TMC3    C5 4135   4.335   4.350  15.910 -0.4049 -0.0305  0.6189
  270TMC3    C6 4136   4.207   4.322  15.877 -1.4297  0.3932 -0.2834
  270TMC3     C 4137   4.362   4.675  15.747 -0.2262 -0.1474  0.3738
  270TMC3     O 4138   4.280   0.032  15.739  0.2786 -0.0385 -0.5274
  270TMC3     H 4139   4.121   4.603  15.713 -1.2668 -1.4061 -0.5940
  270TMC3    H1 4140   4.487   4.503  15.884  0.4657 -2.7429  1.7039
  270TMC3    H2 4141   4.174   4.220  15.890 -0.5776  0.1981  0.2968
  270TMC3    C7 4142   4.436   4.247  15.898 -0.3370  0.2992 -1.2613
  270TMC3    C8 4143   4.086   4.333  15.694 -0.6955  0.0096  0.1115
  270TMC3    O1 4144   4.547   4.279  15.943 -0.4482 -0.0958 -0.1335
  270TMC3    O2 4145   4.159   4.240  15.662 -0.0605  0.0883  0.7499
  271MPD2     C 4146   3.656   4.211  14.046  0.3548 -0.1243 -0.1125
  271MPD2    C1 4147   3.616   4.263  14.166  0.2238 -0.1073 -0.1902
  271MPD2    C2 4148   3.504   4.343  14.180 -0.2053 -0.1861  0.0234
  271MPD2    C3 4149   3.424   4.369  14.068  0.4954  0.1733  0.9875
  271MPD2    C4 4150   3.474   4.328  13.948 -0.2226 -0.2474  0.4962
  271MPD2    C5 4151   3.589   4.260  13.932  0.0517  0.5814 -0.1569
  271MPD2     H 4152   3.481   4.383  14.279 -2.0816 -2.1718  0.3873
  271MPD2    H1 4153   3.423   4.367  13.861  0.1123 -0.2347  0.3100
  271MPD2    H2 4154   3.748   4.155  14.032  0.2622  0.4226 -2.8138
  271MPD2    H3 4155   3.613   4.235  13.829  0.7017 -2.3075  0.7191
  271MPD2     N 4156   3.306   4.445  14.071 -0.4658  0.2250  0.1662
  271MPD2    H5 4157   3.251   4.456  13.986 -1.9120  0.5578  1.1397
  271MPD2    N1 4158   3.697   4.253  14.281  0.3413  0.2846  0.0496
  271MPD2    H7 4159   3.672   4.315  14.358  2.6480 -0.1680  1.1549
  272TMC3    C1 4160   3.852   4.178  14.446  0.2803  0.5306 -0.2769
  272TMC3    C2 4161   3.976   4.137  14.468 -0.3257  0.1357  0.1266
  272TMC3    C3 4162   4.013   4.116  14.604 -0.0396 -0.2836  0.2877
  272TMC3    C4 4163   3.765   4.203  14.549 -0.6178 -0.4327  0.0295
  272TMC3    C5 4164   3.814   4.204  14.682 -0.5984  0.0577  0.2839
  272TMC3    C6 4165   3.944   4.161  14.712 -0.2207  0.3730  0.2502
  272TMC3     C 4166   3.807   4.178  14.301 -0.6261  0.0679 -1.0552
  272TMC3     O 4167   3.868   4.109  14.222  0.0411 -0.1197  0.2921
  272TMC3     H 4168   4.045   4.111  14.388  0.0078  2.3930 -0.3207
  272TMC3    H1 4169   3.664   4.241  14.539 -0.2185 -0.0619 -2.6145
  272TMC3    H2 4170   3.971   4.142  14.815  1.8307 -1.7674 -0.7049
  272TMC3    C7 4171   3.743   4.286  14.773 -0.0482 -0.1079  0.1832
  272TMC3    C8 4172   4.157   4.104  14.608  0.0667 -0.9476 -0.0505
  272TMC3    O1 4173   3.621   4.293  14.766 -0.2556  0.4377  0.2456
  272TMC3    O2 4174   4.225   4.182  14.543  0.2680  0.0926 -0.5241
  273MPD2     C 4175   0.242   2.032  11.413  0.3156  0.4192  1.4257
  273MPD2    C1 4176   0.355   2.105  11.423 -0.7538 -0.3863  0.5699
  273MPD2    C2 4177   0.444   2.109  11.316  0.5417  0.0169  0.1085
  273MPD2    C3 4178   0.409   2.059  11.192 -0.2634 -0.2199 -0.2468
  273MPD2    C4 4179   0.290   1.990  11.184 -0.7694 -0.6238  0.5467
  273MPD2    C5 4180   0.211   1.977  11.291  0.1583  0.4254  0.2800
  273MPD2     H 4181   0.541   2.153  11.337  0.0829 -0.0890  2.5090
  273MPD2    H1 4182   0.244   1.958  11.092 -0.1269  0.3843 -0.1250
  273MPD2    H2 4183   0.167   2.029  11.491 -1.5370 -0.7242 -0.3660
  273MPD2    H3 4184   0.115   1.927  11.281  0.5246  0.1840 -1.9142
  273MPD2     N 4185   0.491   2.094  11.087  0.3938 -0.2721 -0.0545
  273MPD2    H5 4186   0.584   2.122  11.116  0.8020  1.2303 -2.7915
  273MPD2    N1 4187   0.383   2.174  11.545  0.1686  0.3749  0.1938
  273MPD2    H7 4188   0.315   2.170  11.621  1.9401  1.5814  1.8522
  274TMC3    C1 4189   0.536   2.197  10.884  0.0377  0.5851 -1.0718
  274TMC3    C2 4190   0.473   2.240  10.769 -0.5894 -1.1078 -0.2751
  274TMC3    C3 4191   0.403   2.355  10.781  0.8058 -0.1878  0.0376
  274TMC3    C4 4192   0.588   2.291  10.970  0.5008  0.2813 -0.3814
  274TMC3    C5 4193   0.539   2.417  10.963 -0.1784 -0.6493 -0.0436
  274TMC3    C6 4194   0.443   2.446  10.873 -0.0368  0.2130 -1.0801
  274TMC3     C 4195   0.454   2.105  10.956 -0.1495 -0.2388 -0.6090
  274TMC3     O 4196   0.349   2.068  10.912 -0.2651 -0.4384 -0.1283
  274TMC3     H 4197   0.454   2.168  10.691 -1.8208  0.3070 -1.2853
  274TMC3    H1 4198   0.656   2.274  11.052  0.2662  0.1035 -0.2227
  274TMC3    H2 4199   0.406   2.547  10.857 -0.3096  0.3359  0.3572
  274TMC3    C7 4200   0.521   2.496  11.086  0.3843  0.7751 -0.2393
  274TMC3    C8 4201   0.343   2.398  10.658  0.3297  0.4933  0.8083
  274TMC3    O1 4202   0.411   2.537  11.119 -0.5391  0.3028  1.0374
  274TMC3    O2 4203   0.388   2.353  10.551  0.0268  0.5759 -0.2337
  275MPD2     C 4204   0.654   0.599  14.386 -0.3163  0.4749 -0.1856
  275MPD2    C1 4205   0.625   0.552  14.513 -0.7951  0.3519  0.6414
  275MPD2    C2 4206   0.507   0.490  14.533 -0.4314 -0.0733 -0.1195
  275MPD2    C3 4207   0.414   0.490  14.431 -0.4086 -0.0809  0.2905
  275MPD2    C4 4208   0.441   0.549  14.308  0.2774  0.2216 -0.2318
  275MPD2    C5 4209   0.560   0.606  14.286 -0.0493  0.4818 -0.3092
  275MPD2     H 4210   0.501   0.442  14.630 -0.2806 -1.4773 -0.8059
  275MPD2    H1 4211   0.376   0.545  14.221 -0.3264  1.8125  0.1437
  275MPD2    H2 4212   0.756   0.628  14.365 -0.0568 -0.1975  0.1162
  275MPD2    H3 4213   0.586   0.644  14.188 -0.7622  0.3934 -0.5396
  275MPD2     N 4214   0.282   0.439  14.447  0.2874 -0.4021 -0.1931
  275MPD2    H5 4215   0.221   0.443  14.366  1.5009 -0.8138 -1.1216
  275MPD2    N1 4216   0.717   0.562  14.619  0.3065  0.5095  0.2200
  275MPD2    H7 4217   0.680   0.529  14.707 -0.6614 -0.3517 -0.5085
  276TMC3    C1 4218   0.882   0.647  14.753  0.0457 -0.1294 -0.1028
  276TMC3    C2 4219   0.901   0.527  14.817  0.4950 -0.1019  0.0213
  276TMC3    C3 4220   0.921   0.545  14.953 -0.0869 -0.2141  0.2686
  276TMC3    C4 4221   0.893   0.776  14.805  0.9775  0.1980 -0.8492
  276TMC3    C5 4222   0.935   0.777  14.937 -0.0092  0.0510  0.3232
  276TMC3    C6 4223   0.937   0.664  15.013 -0.6786  0.0622 -0.7283
  276TMC3     C 4224   0.833   0.631  14.614 -0.5102 -0.3846  0.4558
  276TMC3     O 4225   0.904   0.676  14.523 -0.5108  0.5040  0.3033
  276TMC3     H 4226   0.880   0.431  14.772  0.3751 -0.4722  0.8636
  276TMC3    H1 4227   0.874   0.865  14.746 -0.1108 -0.4539 -1.4735
  276TMC3    H2 4228   0.942   0.669  15.121  0.4560 -1.3723 -0.7138
  276TMC3    C7 4229   0.983   0.897  14.997  0.8204 -0.1880  0.4218
  276TMC3    C8 4230   0.963   0.431  15.035  0.2683  0.6872  0.0963
  276TMC3    O1 4231   1.007   0.882  15.116 -0.4416 -0.0373  0.2370
  276TMC3    O2 4232   1.042   0.459  15.124 -0.6999  0.0340  0.3048
  277MPD2     C 4233   2.479   4.210  13.587  0.2001 -0.4017 -0.7128
  277MPD2    C1 4234   2.344   4.239  13.588 -0.1924 -0.2914 -0.5078
  277MPD2    C2 4235   2.271   4.176  13.684 -0.3681 -0.2069  0.9035
  277MPD2    C3 4236   2.315   4.077  13.766  0.3342  0.6501 -0.5073
  277MPD2    C4 4237   2.449   4.042  13.746 -0.4084 -0.2816 -1.4911
  277MPD2    C5 4238   2.530   4.115  13.669  0.3752  0.3287 -0.6211
  277MPD2     H 4239   2.169   4.212  13.693  0.1081  1.2626  0.4368
  277MPD2    H1 4240   2.498   3.970  13.811  1.2201  2.7347  0.5919
  277MPD2    H2 4241   2.549   4.265  13.524  2.1506 -0.1822  1.6452
  277MPD2    H3 4242   2.636   4.091  13.671  0.7556  2.4233  3.1750
  277MPD2     N 4243   2.228   4.010  13.850  0.1135  0.5879 -0.0078
  277MPD2    H5 4244   2.136   4.053  13.854 -0.0585  0.1229  1.0095
  277MPD2    N1 4245   2.280   4.331  13.499 -0.0740  0.0011  0.5571
  277MPD2    H7 4246   2.181   4.346  13.512  0.5686  4.4786  0.4338
  278TMC3    C1 4247   2.132   3.863  14.004 -0.1659 -0.4126 -0.4706
  278TMC3    C2 4248   2.117   3.731  14.051 -0.1200 -0.2787 -0.2552
  278TMC3    C3 4249   2.005   3.708  14.133 -0.3695  0.1033 -0.1235
  278TMC3    C4 4250   2.068   3.969  14.057 -1.1435  0.4881 -0.2451
  278TMC3    C5 4251   1.970   3.949  14.146 -0.0229  0.2039 -0.1611
  278TMC3    C6 4252   1.928   3.818  14.174  0.3232  0.0206  0.2006
  278TMC3     C 4253   2.249   3.894  13.923 -0.0064  0.7144  0.1404
  278TMC3     O 4254   2.344   3.821  13.915 -0.5893 -0.0545  0.7767
  278TMC3     H 4255   2.184   3.648  14.031  1.7675  0.5671  2.5138
  278TMC3    H1 4256   2.094   4.075  14.057  0.5664  0.0779  0.3638
  278TMC3    H2 4257   1.833   3.799  14.223  1.4977  0.7837  2.7938
  278TMC3    C7 4258   1.876   4.055  14.170  0.1857 -0.1456 -0.4108
  278TMC3    C8 4259   1.945   3.575  14.149  0.0567  0.8853  0.0160
  278TMC3    O1 4260   1.920   4.169  14.169  0.1825 -0.4434  0.4501
  278TMC3    O2 4261   1.852   3.569  14.232 -0.3179 -0.3828  0.3657
  279MPD2     C 4262   1.663   0.369   0.257 -0.1384  0.2051  0.3180
  279MPD2    C1 4263   1.598   0.246   0.283 -0.4627 -0.2124 -0.3233
  279MPD2    C2 4264   1.590   0.156   0.186 -0.8366  0.4995  0.4788
  279MPD2    C3 4265   1.637   0.191   0.054  0.2034 -0.0340  1.1117
  279MPD2    C4 4266   1.688   0.316   0.028 -0.1617  0.1209 -0.0859
  279MPD2    C5 4267   1.704   0.406   0.129 -0.3146  0.3320  0.1597
  279MPD2     H 4268   1.542   0.062   0.211 -2.2284  1.1160  0.1204
  279MPD2    H1 4269   1.705   0.345  17.666 -2.1607 -0.5549 -0.6018
  279MPD2    H2 4270   1.685   0.446   0.330 -0.3748 -0.2891  0.9107
  279MPD2    H3 4271   1.754   0.499   0.106  0.5702  0.2703  1.8707
  279MPD2     N 4272   1.614   0.098  17.688 -0.0561 -0.8469 -0.3880
  279MPD2    H5 4273   1.633   0.132  17.594 -0.3053  0.0532 -0.1105
  279MPD2    N1 4274   1.553   0.208   0.417  0.5028 -0.2987 -0.1984
  279MPD2    H7 4275   1.506   0.119   0.427 -1.6956  0.8938  0.0902
  280TMC3    C1 4276   1.466   0.225   0.631 -0.0863 -0.0341  0.2444
  280TMC3    C2 4277   1.505   0.092   0.663 -0.1562  0.4143  0.2303
  280TMC3    C3 4278   1.433   0.019   0.756  0.0226 -0.7221  0.7069
  280TMC3    C4 4279   1.372   0.287   0.703  0.0016  0.3495  0.0100
  280TMC3    C5 4280   1.291   0.208   0.788  0.8006  0.5096 -0.3299
  280TMC3    C6 4281   1.325   0.077   0.818 -0.2654  0.1556 -0.5026
  280TMC3     C 4282   1.526   0.293   0.519 -0.0469 -0.4530  0.1068
  280TMC3     O 4283   1.539   0.416   0.529 -0.2233 -0.1149  0.4354
  280TMC3     H 4284   1.560   0.037   0.588  1.6508  2.1667  0.2564
  280TMC3    H1 4285   1.338   0.386   0.678 -1.2655  0.0121  0.3816
  280TMC3    H2 4286   1.269   0.025   0.895  0.9435  1.1101  1.0254
  280TMC3    C7 4287   1.154   0.244   0.830  0.4931  0.5093 -0.5342
  280TMC3    C8 4288   1.469   4.617   0.782 -0.2634 -0.7119 -0.2622
  280TMC3    O1 4289   1.106   0.194   0.930 -0.5477  0.3218  0.2729
  280TMC3    O2 4290   1.579   4.577   0.734 -0.3635  0.1572  0.5390
  281TMC3    C1 4291   0.624   4.118  13.761  0.4719 -1.0915  0.2711
  281TMC3    C2 4292   0.729   4.176  13.695 -0.1800  0.1828  0.0708
  281TMC3    C3 4293   0.806   4.097  13.615 -0.7715  0.3761 -1.1996
  281TMC3    C4 4294   0.602   3.982  13.767  0.6270  0.5611 -0.0510
  281TMC3    C5 4295   0.688   3.906  13.697  0.8518  0.2922  0.2347
  281TMC3    C6 4296   0.794   3.957  13.618 -0.1236 -0.1965  0.0716
  281TMC3     C 4297   0.506   4.198  13.784 -0.4657 -0.1389 -0.3202
  281TMC3     O 4298   0.407   4.130  13.805 -0.0418 -0.3938 -0.1812
  281TMC3     H 4299   0.719   4.282  13.678 -0.3868  0.2318  0.4852
  281TMC3    H1 4300   0.522   3.943  13.829  1.2737 -1.8935 -0.7554
  281TMC3    H2 4301   0.847   3.893  13.548 -1.8604 -1.6994  0.1531
  281TMC3    C7 4302   0.643   3.773  13.656  0.1891  0.7061  1.1028
  281TMC3    C8 4303   0.903   4.150  13.519 -0.6628  0.0817  0.1607
  281TMC3    O1 4304   0.712   3.696  13.595  0.3199  0.6416  0.5565
  281TMC3    O2 4305   1.009   4.085  13.509 -0.2524 -0.5898 -0.2137
  282MPD2     C 4306   2.228   1.358  15.147  0.6481 -0.0473 -0.0308
  282MPD2    C1 4307   2.093   1.377  15.147  0.3313 -0.2401  0.0699
  282MPD2    C2 4308   2.012   1.347  15.038  0.0870  0.3946 -0.3105
  282MPD2    C3 4309   2.076   1.303  14.921 -0.4472 -0.3517  0.2725
  282MPD2    C4 4310   2.213   1.285  14.916  0.1446 -0.4448  0.0188
  282MPD2    C5 4311   2.291   1.307  15.031  0.0183  0.0181  0.7663
  282MPD2     H 4312   1.904   1.353  15.047  0.0484 -1.1661  0.1149
  282MPD2    H1 4313   2.270   1.251  14.830  1.3620 -0.8283  0.9742
  282MPD2    H2 4314   2.292   1.371  15.233  1.9425  0.1572 -1.0210
  282MPD2    H3 4315   2.393   1.269  15.031  0.1728  0.4267  1.6444
  282MPD2     N 4316   1.995   1.291  14.807 -0.5039 -0.6802 -0.1818
  282MPD2    H5 4317   1.901   1.322  14.825 -1.0676 -2.2789 -0.3894
  282MPD2    N1 4318   2.024   1.429  15.257  0.4882  0.2425  0.1368
  282MPD2    H7 4319   1.924   1.445  15.247 -0.0301 -3.5770 -0.6436
  283TMC3    C1 4320   1.996   1.536  15.468 -0.4809  0.0886  0.0512
  283TMC3    C2 4321   2.028   1.656  15.517 -0.2851 -0.4053 -0.5343
  283TMC3    C3 4322   1.963   1.700  15.631  0.3037 -0.0350 -0.0428
  283TMC3    C4 4323   1.887   1.467  15.511 -0.0369  0.3876  0.4660
  283TMC3    C5 4324   1.813   1.523  15.612 -0.0876 -0.3301  0.0769
  283TMC3    C6 4325   1.860   1.631  15.686  0.2271 -0.5183  1.5764
  283TMC3     C 4326   2.082   1.491  15.366  0.6154 -0.0554 -0.3347
  283TMC3     O 4327   2.197   1.536  15.355  0.2886  0.1218 -0.3629
  283TMC3     H 4328   2.123   1.696  15.484 -0.7173  1.4904  0.4924
  283TMC3    H1 4329   1.856   1.373  15.467  0.6456  0.3152  0.1380
  283TMC3    H2 4330   1.805   1.671  15.770 -0.6080 -1.9192  1.6860
  283TMC3    C7 4331   1.701   1.449  15.662 -0.3963 -0.0148  0.1667
  283TMC3    C8 4332   1.983   1.832  15.679 -0.0270  0.3030 -0.6716
  283TMC3    O1 4333   1.659   1.474  15.772  0.4412 -0.5238 -0.0132
  283TMC3    O2 4334   1.998   1.849  15.798 -0.3448 -0.2539  0.3279
  284MPD2     C 4335   4.491   0.131  12.281  0.5819  0.4058 -0.6776
  284MPD2    C1 4336   4.564   0.079  12.173 -0.1038 -0.6108 -0.8378
  284MPD2    C2 4337   4.657   4.715  12.198  0.1377 -0.0687 -0.0878
  284MPD2    C3 4338   4.668   4.658  12.324 -0.5259  0.4429 -0.2645
  284MPD2    C4 4339   4.600   4.713  12.432  0.0176  0.1645 -0.7098
  284MPD2    C5 4340   4.515   0.080  12.409 -0.2056 -0.4017 -0.4182
  284MPD2     H 4341   4.724   4.684  12.118  0.5084 -1.4514  0.7637
  284MPD2    H1 4342   4.607   4.667  12.530  0.7726  0.0029 -0.8373
  284MPD2    H2 4343   4.410   0.202  12.268  0.4972  0.3581 -0.4136
  284MPD2    H3 4344   4.458   0.129  12.488 -1.7327 -0.3834 -1.5327
  284MPD2     N 4345   0.031   4.561  12.354 -0.1339 -0.9198  0.9275
  284MPD2    H5 4346   0.055   4.547  12.452 -1.5789 -1.7202  1.1695
  284MPD2    N1 4347   4.574   0.136  12.041 -0.4437 -0.0233  0.3156
  284MPD2    H7 4348   4.635   0.087  11.976 -0.4681  0.5529 -0.1414
  285TMC3    C1 4349   4.582   0.318  11.907 -1.2526  0.0132 -0.4841
  285TMC3    C2 4350   4.707   0.261  11.876 -0.2911  0.1150  0.7380
  285TMC3    C3 4351   0.066   0.341  11.824 -0.2012  0.0515  0.8842
  285TMC3    C4 4352   4.575   0.450  11.898 -0.2917 -0.1198 -0.7445
  285TMC3    C5 4353   4.673   0.524  11.832 -0.4472 -0.5620 -0.1340
  285TMC3    C6 4354   0.048   0.468  11.788 -0.3086 -0.1886  0.2076
  285TMC3     C 4355   4.507   0.254  12.009  0.3553  0.0990  0.4643
  285TMC3     O 4356   4.423   0.313  12.074  0.1608 -0.4433 -0.4113
  285TMC3     H 4357   4.727   0.155  11.875  0.0270  0.1838 -0.3026
  285TMC3    H1 4358   4.485   0.491  11.942 -0.0848 -0.7260  0.2434
  285TMC3    H2 4359   0.124   0.531  11.746  0.7682 -1.1605  0.6953
  285TMC3    C7 4360   4.667   0.665  11.814  0.2582  0.6545  0.2958
  285TMC3    C8 4361   0.191   0.276  11.767 -1.1864 -0.0419  0.0341
  285TMC3    O1 4362   0.038   0.724  11.792 -0.0777 -0.5875 -0.5401
  285TMC3    O2 4363   0.190   0.154  11.751  0.0242  0.7716  0.7011
  286MPD2     C 4364   0.675   4.590   1.799 -0.4813 -0.3190 -0.1636
  286MPD2    C1 4365   0.597   4.546   1.693  0.1515 -0.5027 -0.4972
  286MPD2    C2 4366   0.603   4.415   1.660  0.6441  0.5300 -0.0297
  286MPD2    C3 4367   0.662   4.322   1.738  0.5029 -0.4393 -0.4728
  286MPD2    C4 4368   0.709   4.356   1.859 -0.2883  0.6392  0.5370
  286MPD2    C5 4369   0.727   4.495   1.880 -0.1023  0.6906  0.3320
  286MPD2     H 4370   0.556   4.384   1.567  1.6884  0.1808 -0.4452
  286MPD2    H1 4371   0.747   4.285   1.931  1.7532 -0.2200 -1.3607
  286MPD2    H2 4372   0.693   4.693   1.827  2.3529 -1.1645  1.0812
  286MPD2    H3 4373   0.781   4.516   1.971  1.6341 -1.4817 -0.1802
  286MPD2     N 4374   0.677   4.186   1.707  0.2064  0.4493  0.7924
  286MPD2    H5 4375   0.699   4.126   1.785  2.4172 -0.0499 -0.2287
  286MPD2    N1 4376   0.522   4.632   1.613 -0.1159  0.1182  0.2609
  286MPD2    H7 4377   0.463   4.591   1.541 -0.5186  1.1921 -0.0171
  287TMC3    C1 4378   0.689   3.987   1.579  0.2480  0.4560  0.0027
  287TMC3    C2 4379   0.648   3.917   1.470  0.0420  0.4563 -0.2094
  287TMC3    C3 4380   0.707   3.812   1.428 -0.4046 -0.5649 -0.5256
  287TMC3    C4 4381   0.800   3.945   1.648 -0.1433  0.3543  0.9873
  287TMC3    C5 4382   0.865   3.835   1.600 -0.4778  0.4424  0.6779
  287TMC3    C6 4383   0.817   3.763   1.492  0.3117 -0.3022 -0.5301
  287TMC3     C 4384   0.651   4.129   1.586 -0.1284 -0.0496 -0.0313
  287TMC3     O 4385   0.609   4.179   1.486  0.0158 -0.0656 -0.4312
  287TMC3     H 4386   0.557   3.953   1.423  1.0305  0.6369 -1.9764
  287TMC3    H1 4387   0.854   3.986   1.733  0.1158  2.2538 -0.0780
  287TMC3    H2 4388   0.866   3.675   1.452 -0.9190 -1.0073 -0.4929
  287TMC3    C7 4389   0.999   3.805   1.646 -0.0384 -0.0008 -0.4429
  287TMC3    C8 4390   0.671   3.747   1.308 -0.1854 -0.0819  0.2797
  287TMC3    O1 4391   1.033   3.837   1.758  0.1421 -0.0730  0.3703
  287TMC3    O2 4392   0.724   3.640   1.288 -0.3778  0.0745 -0.1984
  288TMC3    C1 4393   2.151   4.299  14.529 -0.5752  0.0602 -0.1906
  288TMC3    C2 4394   2.095   4.204  14.610  0.2469 -0.1514  0.5839
  288TMC3    C3 4395   1.987   4.246  14.691  0.0394 -0.5209  0.2276
  288TMC3    C4 4396   2.107   4.430  14.521  0.6954  0.0163  0.3661
  288TMC3    C5 4397   2.023   4.475  14.616 -0.0290 -0.3462  0.0239
  288TMC3    C6 4398   1.958   4.377  14.689 -0.1664  0.9217  0.4123
  288TMC3     C 4399   2.250   4.247  14.443 -0.3376 -0.1421 -0.5656
  288TMC3     O 4400   2.330   4.168  14.487  0.0380 -0.0163 -0.7561
  288TMC3     H 4401   2.130   4.102  14.614  1.5056  0.2961  0.7232
  288TMC3    H1 4402   2.165   4.496  14.457  1.5182 -0.2361  0.8449
  288TMC3    H2 4403   1.864   4.407  14.735 -0.4325  1.0343 -0.2037
  288TMC3    C7 4404   1.944   4.592  14.584 -0.4313 -0.6404 -0.7381
  288TMC3    C8 4405   1.983   4.198  14.826 -0.5315  0.1805 -0.5318
  288TMC3    O1 4406   1.822   4.589  14.571  0.0383 -0.1605  0.0609
  288TMC3    O2 4407   1.977   4.268  14.929  0.1638 -0.1249 -0.5337
  289MPD2     C 4408   2.394   3.362  13.936 -0.0892  0.1915  0.5380
  289MPD2    C1 4409   2.363   3.392  14.064 -0.0973 -0.7239  0.8895
  289MPD2    C2 4410   2.262   3.317  14.121 -0.6386 -0.3495  0.2638
  289MPD2    C3 4411   2.204   3.203  14.069 -0.7588  0.1067 -0.5832
  289MPD2    C4 4412   2.241   3.180  13.940  0.4540 -0.0426  0.0015
  289MPD2    C5 4413   2.339   3.253  13.874  0.2411 -0.3104 -0.0858
  289MPD2     H 4414   2.223   3.351  14.216 -0.6660 -0.3979  0.2700
  289MPD2    H1 4415   2.182   3.099  13.899  3.2832 -0.9274 -2.3323
  289MPD2    H2 4416   2.477   3.418  13.895 -0.2914  1.1312  1.4121
  289MPD2    H3 4417   2.369   3.226  13.773 -1.8874  2.2152 -1.4114
  289MPD2     N 4418   2.099   3.129  14.129  0.2537 -0.3185 -0.2468
  289MPD2    H5 4419   2.051   3.063  14.068  2.4754 -0.0237 -2.3043
  289MPD2    N1 4420   2.435   3.496  14.132  0.3137 -0.0042  0.0122
  289MPD2    H7 4421   2.523   3.527  14.092 -0.2427  0.6410 -0.6875
  290TMC3    C1 4422   1.926   3.103  14.292 -0.2410 -0.2131 -0.6304
  290TMC3    C2 4423   1.846   3.190  14.370 -0.6444  0.1830 -0.0634
  290TMC3    C3 4424   1.713   3.142  14.389 -0.3797 -0.0011  0.4210
  290TMC3    C4 4425   1.883   2.979  14.239 -0.2928 -0.4127 -0.1336
  290TMC3    C5 4426   1.756   2.945  14.260 -0.0411 -0.3348 -0.8000
  290TMC3    C6 4427   1.670   3.028  14.329  0.1024 -1.3928 -0.0334
  290TMC3     C 4428   2.057   3.152  14.262  0.4132  0.0071 -0.0465
  290TMC3     O 4429   2.094   3.219  14.358  0.3970 -0.1924 -0.4779
  290TMC3     H 4430   1.882   3.288  14.399 -0.2555 -0.1491  0.5721
  290TMC3    H1 4431   1.959   2.916  14.195 -0.3726 -1.5979  1.4021
  290TMC3    H2 4432   1.569   2.993  14.344  0.0276 -0.1693  2.3399
  290TMC3    C7 4433   1.693   2.884  14.150  0.3405 -0.3882 -0.5004
  290TMC3    C8 4434   1.618   3.248  14.401 -0.1338 -0.5064  0.5066
  290TMC3    O1 4435   1.586   2.936  14.114  0.0452 -0.7945  0.4304
  290TMC3    O2 4436   1.519   3.234  14.327  0.1516  0.3941  0.2372
  291MPD2     C 4437   1.326   3.312   0.185 -0.5007 -0.3078 -0.2871
  291MPD2    C1 4438   1.431   3.238   0.235 -0.0734 -0.5757  0.4724
  291MPD2    C2 4439   1.554   3.301   0.266  0.3137  0.5635  0.4383
  291MPD2    C3 4440   1.579   3.426   0.224 -0.4389  0.4689 -0.8443
  291MPD2    C4 4441   1.473   3.504   0.166  0.0237  1.0351 -1.4051
  291MPD2    C5 4442   1.346   3.447   0.152  0.0358 -0.0192  0.2320
  291MPD2     H 4443   1.624   3.237   0.318  0.8359  1.3790  0.7320
  291MPD2    H1 4444   1.480   3.611   0.148  0.9114  1.5373  1.9558
  291MPD2    H2 4445   1.226   3.270   0.188 -1.0562  1.1403  1.6616
  291MPD2    H3 4446   1.261   3.505   0.117 -0.0526  0.1800  0.7790
  291MPD2     N 4447   1.708   3.481   0.227 -0.7221  0.2913 -0.3270
  291MPD2    H5 4448   1.717   3.567   0.174 -2.3988  0.8269  0.2511
  291MPD2    N1 4449   1.417   3.095   0.257 -0.0860 -0.6535  0.3103
  291MPD2    H7 4450   1.491   3.048   0.307  0.4428  0.3047  0.4221
  292TMC3    C1 4451   1.320   2.883   0.271 -0.2723  0.5320  0.7183
  292TMC3    C2 4452   1.369   2.872   0.399  0.0826  0.1204 -0.0300
  292TMC3    C3 4453   1.348   2.750   0.452 -0.1274  0.0373 -0.2321
  292TMC3    C4 4454   1.257   2.781   0.212  0.7259 -0.0350 -0.8195
  292TMC3    C5 4455   1.222   2.664   0.274 -1.3280 -0.5935 -0.3905
  292TMC3    C6 4456   1.286   2.644   0.393  0.5926 -0.4694 -0.0206
  292TMC3     C 4457   1.319   3.014   0.212 -0.2399  0.0824  0.5568
  292TMC3     O 4458   1.229   3.039   0.132  0.1421 -0.7326  0.0755
  292TMC3     H 4459   1.388   2.958   0.462  0.4154 -1.3531  1.8876
  292TMC3    H1 4460   1.222   2.792   0.110  0.2348  1.1377 -0.5287
  292TMC3    H2 4461   1.287   2.547   0.440 -1.7676 -0.8690 -0.7680
  292TMC3    C7 4462   1.192   2.543   0.199 -0.6823  0.0673 -0.3176
  292TMC3    C8 4463   1.359   2.748   0.597  0.2830  0.4896  0.3516
  292TMC3    O1 4464   1.270   2.451   0.224  0.2547 -0.0234  0.0948
  292TMC3    O2 4465   1.426   2.839   0.644  0.6557  0.2265  0.0797
  293MPD2     C 4466   3.004   4.153  12.662 -0.9354  0.2945 -0.7184
  293MPD2    C1 4467   2.937   4.081  12.759 -0.6378 -0.1074  0.3547
  293MPD2    C2 4468   2.992   4.061  12.883 -0.2412 -0.2102  0.8831
  293MPD2    C3 4469   3.113   4.130  12.911  0.4395  0.1729 -0.5546
  293MPD2    C4 4470   3.166   4.205  12.819 -0.1896  0.0440 -0.0852
  293MPD2    C5 4471   3.116   4.230  12.689 -0.0313 -0.7629  0.4896
  293MPD2     H 4472   2.947   3.994  12.955  1.0214 -0.2061  1.6885
  293MPD2    H1 4473   3.256   4.264  12.833  1.3882 -1.2973 -4.8651
  293MPD2    H2 4474   2.966   4.172  12.561 -0.8316  2.1305 -0.4254
  293MPD2    H3 4475   3.155   4.302  12.618 -0.8095 -0.2918  0.5383
  293MPD2     N 4476   3.174   4.113  13.043 -0.0113 -0.0284 -0.4128
  293MPD2    H5 4477   3.141   4.046  13.112 -0.9678  2.6955  1.7586
  293MPD2    N1 4478   2.812   4.024  12.721 -0.6041 -0.1202  0.1251
  293MPD2    H7 4479   2.783   4.034  12.625 -1.7024  1.6120  0.6529
  294TMC3    C1 4480   2.600   3.937  12.747 -0.5983 -0.1152  0.0797
  294TMC3    C2 4481   2.526   3.832  12.800  0.2318  0.1002 -0.4478
  294TMC3    C3 4482   2.414   3.797  12.727  0.5896 -0.1295  0.4594
  294TMC3    C4 4483   2.577   4.003  12.627  0.2910  1.1838 -0.3852
  294TMC3    C5 4484   2.463   3.955  12.563  0.0774  0.3459 -0.3921
  294TMC3    C6 4485   2.381   3.861  12.613  0.0066  0.8611 -0.1094
  294TMC3     C 4486   2.733   3.954  12.808  0.4390 -0.3115 -0.2814
  294TMC3     O 4487   2.762   3.898  12.912  1.4986  0.5263  0.6025
  294TMC3     H 4488   2.560   3.784  12.890 -0.2582  3.0275  1.2986
  294TMC3    H1 4489   2.621   4.098  12.599 -0.0519  0.9915 -1.5573
  294TMC3    H2 4490   2.289   3.830  12.565 -0.0819 -1.5798  1.6647
  294TMC3    C7 4491   2.446   3.996  12.418  0.3501  0.5747 -0.0835
  294TMC3    C8 4492   2.429   3.653  12.702 -0.1353 -0.3059 -0.9219
  294TMC3    O1 4493   2.340   3.992  12.362 -0.1611  0.1942  0.5039
  294TMC3    O2 4494   2.473   3.588  12.795 -0.0154  0.3610  0.6059
  295MPD2     C 4495   4.689   3.459   1.423 -0.6361 -0.3986  0.3420
  295MPD2    C1 4496   4.655   3.348   1.343  0.4705 -0.7233  0.0775
  295MPD2    C2 4497   4.692   3.226   1.386  0.5757  0.2883  0.7075
  295MPD2    C3 4498   0.033   3.206   1.499 -0.2871  0.3493 -0.0703
  295MPD2    C4 4499   0.071   3.321   1.569  0.7378 -0.5976 -0.5554
  295MPD2    C5 4500   0.020   3.446   1.543 -0.1471 -0.6284  0.3870
  295MPD2     H 4501   4.676   3.142   1.319  2.8490  0.0931  0.4062
  295MPD2    H1 4502   0.135   3.303   1.655 -0.7466 -0.5756  0.5553
  295MPD2    H2 4503   4.666   3.563   1.403 -0.4320 -0.4005  0.0990
  295MPD2    H3 4504   0.028   3.536   1.603 -0.8194 -1.0215  1.0744
  295MPD2     N 4505   0.070   3.081   1.551 -0.6361 -0.4931  0.3503
  295MPD2    H5 4506   0.133   3.079   1.631 -0.2776  1.7108  0.1355
  295MPD2    N1 4507   4.573   3.352   1.227 -0.5098  0.4467 -0.2260
  295MPD2    H7 4508   4.537   3.267   1.185 -0.7683  0.3954  0.0934
  296TMC3    C1 4509   0.086   2.843   1.553  0.4443  0.0438 -0.4238
  296TMC3    C2 4510   0.202   2.854   1.626  0.2511 -0.3404 -0.4913
  296TMC3    C3 4511   0.255   2.732   1.669 -0.7228  0.4485 -0.4333
  296TMC3    C4 4512   0.027   2.722   1.512 -0.3278  0.2349 -0.6543
  296TMC3    C5 4513   0.087   2.612   1.552  0.4698  0.2709  0.0829
  296TMC3    C6 4514   0.199   2.614   1.630  0.4493 -0.4481 -0.3992
  296TMC3     C 4515   0.027   2.962   1.495 -0.2390 -0.9533 -0.7680
  296TMC3     O 4516   4.662   2.953   1.426 -0.4503 -0.3391  0.2636
  296TMC3     H 4517   0.265   2.941   1.641  1.3960 -1.3172  0.3850
  296TMC3    H1 4518   4.690   2.717   1.432 -0.3106 -2.3130 -0.5182
  296TMC3    H2 4519   0.244   2.523   1.668 -1.3138 -0.7039  1.0646
  296TMC3    C7 4520   0.028   2.481   1.532 -0.2258  1.1573 -0.1992
  296TMC3    C8 4521   0.360   2.737   1.766  0.5471 -0.1071 -0.0349
  296TMC3    O1 4522   0.086   2.381   1.568  0.4105 -0.2579 -0.1740
  296TMC3    O2 4523   0.441   2.647   1.751 -0.6478 -0.1134 -0.6420
  297MPD2     C 4524   1.105   0.068  16.594  0.3353 -0.1800  0.7475
  297MPD2    C1 4525   1.038   0.100  16.472 -0.4789 -0.4189  0.2364
  297MPD2    C2 4526   1.115   0.160  16.369  0.1882 -0.2376  0.1540
  297MPD2    C3 4527   1.244   0.200  16.388 -0.0049 -0.0999 -0.3283
  297MPD2    C4 4528   1.297   0.183  16.511 -0.8384 -0.2211 -0.2326
  297MPD2    C5 4529   1.233   0.111  16.609 -0.6964  0.5271 -0.0838
  297MPD2     H 4530   1.069   0.172  16.272  0.1277  0.1118  0.2239
  297MPD2    H1 4531   1.392   0.230  16.536 -0.2825 -1.8210  0.6838
  297MPD2    H2 4532   1.073   0.023  16.687  1.6134 -1.3857  0.5912
  297MPD2    H3 4533   1.282   0.111  16.705 -1.4870 -1.6127  0.3190
  297MPD2     N 4534   1.315   0.266  16.279  0.1389 -0.0157 -0.4426
  297MPD2    H5 4535   1.406   0.307  16.302 -0.5062  1.3437 -0.2984
  297MPD2    N1 4536   0.896   0.074  16.451 -0.2371  0.3447 -0.3233
  297MPD2    H7 4537   0.862   0.107  16.361  0.1917  1.1253 -0.1997
  298TMC3    C1 4538   0.669   0.028  16.498  0.3953  0.2401  0.2837
  298TMC3    C2 4539   0.654   0.047  16.359  0.3183 -0.4718 -0.7344
  298TMC3    C3 4540   0.538   0.112  16.318  0.7241 -0.0251 -0.1997
  298TMC3    C4 4541   0.585   0.087  16.589 -0.4626 -0.2051 -0.7706
  298TMC3    C5 4542   0.475   0.154  16.542  0.2472 -0.1183 -0.5480
  298TMC3    C6 4543   0.457   0.179  16.407 -1.0082  0.3770  0.5563
  298TMC3     C 4544   0.805   0.025  16.543  0.1864 -0.4917 -0.1110
  298TMC3     O 4545   0.820   0.019  16.663 -0.7165  0.1339  0.0707
  298TMC3     H 4546   0.716   4.731  16.287  0.2105 -0.3707 -0.8972
  298TMC3    H1 4547   0.598   0.085  16.697  0.6530  3.1714 -0.8465
  298TMC3    H2 4548   0.378   0.241  16.367 -0.7889  0.4986  0.3161
  298TMC3    C7 4549   0.378   0.215  16.633  0.1811 -0.3062  0.7034
  298TMC3    C8 4550   0.499   0.133  16.177 -0.2626  0.4390  0.6840
  298TMC3    O1 4551   0.418   0.257  16.742  0.2650  0.1074  0.2324
  298TMC3    O2 4552   0.395   0.188  16.150  0.4471  0.0633 -0.0766
  299MPD2     C 4553   1.337   0.229  10.562 -0.0180 -1.0952 -0.1701
  299MPD2    C1 4554   1.320   0.097  10.596  0.5018 -0.1259 -0.2560
  299MPD2    C2 4555   1.210   0.023  10.547  0.0032  0.1061 -0.0243
  299MPD2    C3 4556   1.117   0.081  10.466 -0.1563  0.6278  0.0464
  299MPD2    C4 4557   1.136   0.211  10.429  0.4197  0.6130 -0.9722
  299MPD2    C5 4558   1.237   0.281  10.481  0.2012 -0.3201  0.4905
  299MPD2     H 4559   1.207   4.654  10.576 -1.8324  0.8064  2.2171
  299MPD2    H1 4560   1.074   0.261  10.356 -1.9221 -0.8638 -0.0024
  299MPD2    H2 4561   1.406   0.294  10.614 -1.5589  0.3454  0.0717
  299MPD2    H3 4562   1.234   0.384  10.447  0.8686 -1.0982 -1.9786
  299MPD2     N 4563   1.004   0.005  10.425 -0.7621  0.1009 -0.6410
  299MPD2    H5 4564   0.940   0.062  10.371 -0.1759  1.1781 -0.1973
  299MPD2    N1 4565   1.423   0.057  10.684  0.3455 -0.0737  0.0613
  299MPD2    H7 4566   1.496   0.127  10.689  0.5296 -0.1555 -1.4248
  300TMC3    C1 4567   0.855   4.570  10.378 -0.0108  0.0300 -0.0609
  300TMC3    C2 4568   0.824   4.665  10.284  0.4223  0.4299  0.4256
  300TMC3    C3 4569   0.696   4.727  10.281 -0.0637 -0.0422 -0.2035
  300TMC3    C4 4570   0.762   4.519  10.459 -0.1261  0.1650 -0.5246
  300TMC3    C5 4571   0.638   4.578  10.454  0.2872 -0.4298 -0.5639
  300TMC3    C6 4572   0.608   4.680  10.377 -0.1526 -0.2955  0.2121
  300TMC3     C 4573   0.973   4.608  10.450 -0.0758  0.2606 -0.1829
  300TMC3     O 4574   1.028   4.527  10.520  0.7554  0.6412  0.3580
  300TMC3     H 4575   0.889   4.703  10.206 -1.6207  0.4559 -1.2793
  300TMC3    H1 4576   0.780   4.428  10.515  0.9062  0.6376 -0.0779
  300TMC3    H2 4577   0.511   4.730  10.375 -0.1445 -0.3026 -0.3629
  300TMC3    C7 4578   0.538   4.529  10.545 -0.2577  0.2575 -0.0979
  300TMC3    C8 4579   0.708   0.135  10.282  0.8914  0.4452  0.4530
  300TMC3    O1 4580   0.419   4.560  10.524  0.6971 -0.0530  0.0769
  300TMC3    O2 4581   0.823   0.179  10.296 -0.2537 -0.0039  0.2951
  301MPD2     C 4582   4.060   1.485   0.966 -0.3876  0.4691 -0.1569
  301MPD2    C1 4583   3.949   1.452   0.896 -0.1133 -0.4779  0.0376
  301MPD2    C2 4584   3.890   1.325   0.912 -0.2954 -0.0123  0.2965
  301MPD2    C3 4585   3.943   1.235   1.004  0.2671  0.0439  0.2922
  301MPD2    C4 4586   4.059   1.272   1.076  0.2815 -0.1675  0.4010
  301MPD2    C5 4587   4.116   1.396   1.055 -0.2168  1.0074  0.2830
  301MPD2     H 4588   3.798   1.311   0.857  0.0692  2.4475 -0.9298
  301MPD2    H1 4589   4.110   1.201   1.139 -0.6456  0.6061  2.0162
  301MPD2    H2 4590   4.102   1.584   0.952 -0.5469  0.3917 -1.1450
  301MPD2    H3 4591   4.204   1.413   1.117 -1.0490  0.5911  1.5782
  301MPD2     N 4592   3.874   1.115   1.017 -0.5307 -0.5783 -0.3450
  301MPD2    H5 4593   3.784   1.106   0.972 -2.1875  4.1460  1.9733
  301MPD2    N1 4594   3.887   1.546   0.813 -0.2390 -0.0598 -0.4101
  301MPD2    H7 4595   3.808   1.513   0.758 -1.0426  0.8697  0.1988
  302TMC3    C1 4596   3.817   0.893   1.112 -0.2035  0.0248 -0.0859
  302TMC3    C2 4597   3.857   0.789   1.193 -0.1099 -0.3324  0.0333
  302TMC3    C3 4598   3.810   0.665   1.163 -0.7208 -0.9117  0.6411
  302TMC3    C4 4599   3.738   0.865   1.006 -0.4420 -0.3131 -0.8238
  302TMC3    C5 4600   3.708   0.735   0.982 -0.4912  0.1484 -0.0798
  302TMC3    C6 4601   3.748   0.624   1.052 -1.1115  0.1983 -0.2837
  302TMC3     C 4602   3.907   1.016   1.109 -0.2986  0.4402 -0.5819
  302TMC3     O 4603   4.007   1.007   1.181  0.3206  0.1952 -0.1358
  302TMC3     H 4604   3.922   0.810   1.278  2.9633  0.5889 -2.5576
  302TMC3    H1 4605   3.725   0.942   0.931  0.2276  0.8892  0.2879
  302TMC3    H2 4606   3.706   0.529   1.022 -2.2125  1.1466 -1.7185
  302TMC3    C7 4607   3.657   0.704   0.850  0.4678  0.1504 -0.1958
  302TMC3    C8 4608   3.869   0.565   1.248  0.1138 -0.5560 -0.5653
  302TMC3    O1 4609   3.690   0.597   0.802  0.1591  0.1184 -0.0998
  302TMC3    O2 4610   3.955   0.595   1.327  0.5899  0.1928  0.1067
  303MPD2     C 4611   4.204   4.408  10.595  0.1067 -0.8366  0.5509
  303MPD2    C1 4612   4.104   4.313  10.598 -0.6251  0.0954 -0.3757
  303MPD2    C2 4613   4.058   4.250  10.483 -0.1171 -0.4281  0.6565
  303MPD2    C3 4614   4.118   4.291  10.363  0.9859  0.4991 -0.7438
  303MPD2    C4 4615   4.221   4.387  10.358 -0.5734 -0.9716  0.7256
  303MPD2    C5 4616   4.269   4.439  10.479  0.2962 -0.3060 -0.1869
  303MPD2     H 4617   3.971   4.187  10.494  1.7887 -2.6758  2.7832
  303MPD2    H1 4618   4.271   4.411  10.265 -0.7436 -1.8618  0.4023
  303MPD2    H2 4619   4.240   4.456  10.685  0.0704  0.3915 -0.0813
  303MPD2    H3 4620   4.351   4.510  10.484  2.8363 -3.1297 -1.6478
  303MPD2     N 4621   4.054   4.258  10.242  0.2748  0.5382  0.3706
  303MPD2    H5 4622   4.114   4.281  10.164  0.8164 -2.4960 -0.1136
  303MPD2    N1 4623   4.053   4.272  10.722  0.1208  0.5910  0.4211
  303MPD2    H7 4624   4.092   4.324  10.799  1.3858  0.7146 -0.3114
  304TMC3    C1 4625   3.960   4.129  10.881  0.3417 -0.0516 -0.0698
  304TMC3    C2 4626   3.883   4.236  10.926  0.3690 -0.1993  0.3926
  304TMC3    C3 4627   3.760   4.206  10.985  0.2742  0.8262  0.9435
  304TMC3    C4 4628   3.938   4.001  10.913  0.5333 -0.0703  1.1251
  304TMC3    C5 4629   3.834   3.971  10.991 -0.5625  0.8961  0.0215
  304TMC3    C6 4630   3.747   4.072  11.021 -1.3289  0.3457  0.9016
  304TMC3     C 4631   4.002   4.146  10.743 -0.1957  0.0147 -0.3658
  304TMC3     O 4632   3.988   4.047  10.669  0.1139  0.9867 -0.0340
  304TMC3     H 4633   3.898   4.342  10.906 -0.6335 -0.9169 -4.1025
  304TMC3    H1 4634   3.995   3.914  10.883  0.9220  0.3333  0.6919
  304TMC3    H2 4635   3.670   4.049  11.094 -2.0454  1.7235  0.5892
  304TMC3    C7 4636   3.759   3.850  10.964 -0.1424 -0.0581  0.1534
  304TMC3    C8 4637   3.660   4.247  10.899  0.4154  0.7422  0.0867
  304TMC3    O1 4638   3.645   3.883  10.939 -0.2213 -0.0075 -0.3270
  304TMC3    O2 4639   3.672   4.352  10.836 -0.5328 -0.2142  0.2738
  305MPD2     C 4640   1.921   1.673  13.966 -0.4208  0.7805 -0.1106
  305MPD2    C1 4641   1.966   1.553  14.004  0.0758 -0.0113 -0.5704
  305MPD2    C2 4642   1.944   1.436  13.928 -1.1376  0.0842 -0.2021
  305MPD2    C3 4643   1.895   1.455  13.797 -0.2953  0.1257  0.3461
  305MPD2    C4 4644   1.861   1.586  13.750 -0.2560 -0.6843 -0.3682
  305MPD2    C5 4645   1.875   1.688  13.837  0.1985  0.1011 -0.3747
  305MPD2     H 4646   1.955   1.334  13.961  1.3281  0.3084 -0.3227
  305MPD2    H1 4647   1.805   1.597  13.657 -0.3795  2.5418  0.0763
  305MPD2    H2 4648   1.904   1.760  14.028  0.9049 -0.7828  2.4379
  305MPD2    H3 4649   1.836   1.783  13.800  1.3599 -0.2468 -2.4526
  305MPD2     N 4650   1.876   1.352  13.707 -0.3580  0.1857 -0.1641
  305MPD2    H5 4651   1.847   1.369  13.612  2.3124  1.7123 -0.7336
  305MPD2    N1 4652   2.010   1.540  14.136 -0.1191  0.0945  0.2833
  305MPD2    H7 4653   2.025   1.629  14.183 -0.0065 -0.6661  1.6745
  306TMC3    C1 4654   2.122   1.453  14.328 -0.8477  0.2373  0.6487
  306TMC3    C2 4655   2.199   1.355  14.383  0.7574  0.9685  0.4592
  306TMC3    C3 4656   2.283   1.391  14.479  0.2037  0.1108  0.2388
  306TMC3    C4 4657   2.131   1.586  14.367 -0.3339  0.3648 -0.3959
  306TMC3    C5 4658   2.202   1.605  14.482  0.0927  0.2965 -0.3457
  306TMC3    C6 4659   2.282   1.514  14.536  0.0262  0.1047 -0.2413
  306TMC3     C 4660   2.052   1.425  14.205 -0.3654 -0.1278 -0.1593
  306TMC3     O 4661   2.027   1.310  14.173 -0.2874  0.2364 -0.6180
  306TMC3     H 4662   2.201   1.259  14.331  0.8483  1.1822  0.0674
  306TMC3    H1 4663   2.062   1.660  14.327 -1.3441 -0.5486 -0.3428
  306TMC3    H2 4664   2.343   1.545  14.620 -1.3717 -0.5025  1.0105
  306TMC3    C7 4665   2.256   1.737  14.491 -0.5142 -0.4295 -0.2429
  306TMC3    C8 4666   2.380   1.291  14.519  0.0930 -0.2139  0.5709
  306TMC3    O1 4667   2.251   1.805  14.388 -0.5129 -0.1649 -0.0981
  306TMC3    O2 4668   2.386   1.185  14.458  0.0532  0.1982  0.1241
  307MPD2     C 4669   0.091   4.585   0.757 -0.0319 -0.5049 -0.4453
  307MPD2    C1 4670   0.047   4.701   0.699  0.4886 -0.2317 -0.5256
  307MPD2    C2 4671   4.730   0.065   0.781 -0.9668 -0.3590 -0.2690
  307MPD2    C3 4672   4.703   0.047   0.915  0.1421 -0.1602 -0.1891
  307MPD2    C4 4673   0.020   4.671   0.974 -0.6506 -0.6430  0.0940
  307MPD2    C5 4674   0.088   4.576   0.896  0.3855  0.2456 -0.5180
  307MPD2     H 4675   4.699   0.157   0.732  0.8879  0.4913  0.1420
  307MPD2    H1 4676   0.006   4.650   1.079 -0.6774 -0.6990  0.0793
  307MPD2    H2 4677   0.156   4.514   0.707  0.6411 -0.3686  0.2262
  307MPD2    H3 4678   0.133   4.489   0.942 -0.0484 -0.2366 -1.0226
  307MPD2     N 4679   4.622   0.137   0.981 -1.0772 -0.4316  0.5715
  307MPD2    H5 4680   4.598   0.216   0.923 -0.1830 -1.0196 -0.6024
  307MPD2    N1 4681   0.074   0.003   0.566  0.7387 -0.1863 -0.1421
  307MPD2    H7 4682   0.056   0.098   0.533 -1.5700  0.0992  1.9568
  308TMC3    C1 4683   4.221   0.261   1.169  0.0757 -0.1798  1.0529
  308TMC3    C2 4684   4.244   0.393   1.139 -0.2666  0.0899 -0.3128
  308TMC3    C3 4685   4.369   0.428   1.089 -0.1379  0.3523 -0.4290
  308TMC3    C4 4686   4.332   0.175   1.177 -0.4528 -0.4789  0.0680
  308TMC3    C5 4687   4.450   0.215   1.114  0.0331  1.2137 -0.5191
  308TMC3    C6 4688   4.473   0.341   1.081  0.7041 -0.0009  0.8498
  308TMC3     C 4689   4.092   0.198   1.154 -0.4100  0.4228 -0.1903
  308TMC3     O 4690   4.103   0.080   1.195  0.2439  0.5337 -0.0760
  308TMC3     H 4691   4.164   0.460   1.112  1.8996  2.2788 -1.2902
  308TMC3    H1 4692   4.323   0.080   1.229 -0.9333  0.3017  1.4053
  308TMC3    H2 4693   4.571   0.377   1.050  0.7376  0.5002  1.5570
  308TMC3    C7 4694   4.564   0.120   1.105  0.6780  0.1790  0.5983
  308TMC3    C8 4695   4.378   0.553   1.022  0.2296  0.7903  0.3829
  308TMC3    O1 4696   4.561   0.013   1.166  0.3041 -0.1355  0.1808
  308TMC3    O2 4697   4.464   0.560   0.935 -0.1701  0.0175  0.2982
  309MPD2     C 4698   3.707   0.159  17.383 -0.7674 -0.1305  0.2880
  309MPD2    C1 4699   3.636   0.133  17.267 -0.2049 -0.0108 -0.2197
  309MPD2    C2 4700   3.499   0.118  17.280 -0.0314 -0.5389 -0.1631
  309MPD2    C3 4701   3.431   0.136  17.396  0.1014 -0.0586 -0.8506
  309MPD2    C4 4702   3.502   0.153  17.512  0.1814 -0.4792 -0.3547
  309MPD2    C5 4703   3.641   0.160  17.506  0.3678  0.3998 -0.2095
  309MPD2     H 4704   3.439   0.081  17.198 -1.0928  0.5378  0.1246
  309MPD2    H1 4705   3.459   0.166  17.610 -0.0910  1.1641 -0.6884
  309MPD2    H2 4706   3.815   0.151  17.378 -0.5345  2.0029  1.8470
  309MPD2    H3 4707   3.699   0.183  17.595 -0.5341 -1.1658  0.7833
  309MPD2     N 4708   3.294   0.139  17.410  0.0762  0.1889  0.0908
  309MPD2    H5 4709   3.257   0.160  17.502 -0.2431 -0.4024  0.1014
  309MPD2    N1 4710   3.693   0.108  17.139  0.0850 -0.3048 -0.4965
  309MPD2    H7 4711   3.623   0.098  17.067 -1.0708 -0.7263  0.6989
  310TMC3    C1 4712   3.859   0.050  16.978 -0.0351  0.2447  0.5532
  310TMC3    C2 4713   3.787   0.111  16.876  0.2729  0.0522 -0.4948
  310TMC3    C3 4714   3.841   0.111  16.751 -0.6125 -0.3139 -0.9269
  310TMC3    C4 4715   3.975   4.726  16.964 -0.5407 -0.0466 -0.1031
  310TMC3    C5 4716   4.023   4.720  16.834  0.2796  0.7064 -0.1078
  310TMC3    C6 4717   3.961   0.054  16.730  0.5414 -0.4183  0.0993
  310TMC3     C 4718   3.820   0.075  17.121  0.2012 -0.5569 -0.6190
  310TMC3     O 4719   3.905   0.044  17.202 -0.3441 -0.0016  0.9028
  310TMC3     H 4720   3.705   0.180  16.895  0.6202 -0.0351  1.3758
  310TMC3    H1 4721   4.021   4.676  17.048 -1.9238 -0.8229  0.1905
  310TMC3    H2 4722   4.012   0.054  16.634  0.5291  0.1787  0.0947
  310TMC3    C7 4723   4.135   4.631  16.800 -0.4589  0.1775  0.1578
  310TMC3    C8 4724   3.761   0.141  16.637  0.0480  0.1405 -0.0034
  310TMC3    O1 4725   4.146   4.592  16.683 -0.2363 -0.4197 -0.4760
  310TMC3    O2 4726   3.813   0.133  16.525 -0.0975  0.4297  0.2392
  311MPD2     C 4727   1.081   0.839  12.671 -0.1723  0.7995  0.3999
  311MPD2    C1 4728   1.125   0.892  12.789 -0.1213  0.6144 -0.9820
  311MPD2    C2 4729   1.039   0.928  12.887  0.3620 -0.1313 -0.6315
  311MPD2    C3 4730   0.901   0.912  12.867  0.5120  0.1606  0.5814
  311MPD2    C4 4731   0.851   0.860  12.745  0.0702  0.9082  1.3718
  311MPD2    C5 4732   0.943   0.824  12.649 -0.2828 -0.2930 -0.4507
  311MPD2     H 4733   1.074   0.981  12.975  1.4487  1.5155 -2.0513
  311MPD2    H1 4734   0.749   0.851  12.712  0.4827 -0.3024  0.4345
  311MPD2    H2 4735   1.137   0.804  12.585 -0.5872  2.5233 -0.5878
  311MPD2    H3 4736   0.911   0.775  12.558 -2.0034 -0.2505  0.1491
  311MPD2     N 4737   0.807   0.931  12.977 -0.9158  0.4338 -0.0775
  311MPD2    H5 4738   0.851   0.940  13.068  0.0059 -2.0747 -0.2836
  311MPD2    N1 4739   1.263   0.915  12.822  0.6437 -0.3941 -0.0209
  311MPD2    H7 4740   1.278   0.950  12.916  0.8086 -0.4070 -0.0425
  312TMC3    C1 4741   0.584   0.949  13.074 -0.4062  1.1172 -0.5345
  312TMC3    C2 4742   0.450   0.964  13.054  0.5649 -0.0733  0.3250
  312TMC3    C3 4743   0.363   0.951  13.159 -0.4167 -0.2887  0.3888
  312TMC3    C4 4744   0.630   0.944  13.203  0.1445 -0.5038  0.4740
  312TMC3    C5 4745   0.544   0.960  13.305 -0.0696  0.8461 -1.0939
  312TMC3    C6 4746   0.409   0.958  13.285 -1.0360 -0.5086  0.6811
  312TMC3     C 4747   0.664   0.931  12.955  0.6629 -0.2241 -0.4362
  312TMC3     O 4748   0.603   0.935  12.847  0.2873 -0.1054  0.3608
  312TMC3     H 4749   0.412   1.003  12.960  1.3546  2.1043  0.9115
  312TMC3    H1 4750   0.733   0.917  13.226 -0.0106 -1.4075  0.1230
  312TMC3    H2 4751   0.347   0.922  13.366 -0.3550  2.4492  2.4969
  312TMC3    C7 4752   0.587   0.952  13.442  0.7360 -0.1191 -0.0743
  312TMC3    C8 4753   0.221   0.918  13.144 -0.0554  0.0130  0.0300
  312TMC3    O1 4754   0.691   0.898  13.473 -0.4535  0.0500 -0.0091
  312TMC3    O2 4755   0.166   0.842  13.220  0.1565  0.5035 -0.2167
  313MPD2     C 4756   0.493   0.594  11.389  0.0620 -1.0098  0.5473
  313MPD2    C1 4757   0.362   0.590  11.371 -0.9031 -0.4112  1.3678
  313MPD2    C2 4758   0.305   0.469  11.326  0.9660  0.2696 -0.0832
  313MPD2    C3 4759   0.383   0.363  11.300  0.1748  0.3005 -0.6882
  313MPD2    C4 4760   0.519   0.364  11.320 -0.4317  0.1476 -0.2312
  313MPD2    C5 4761   0.574   0.482  11.360  0.3634 -0.3503  0.7154
  313MPD2     H 4762   0.196   0.472  11.318  0.9606 -0.8595 -0.3517
  313MPD2    H1 4763   0.579   0.277  11.296 -0.4438 -0.3253  1.4199
  313MPD2    H2 4764   0.553   0.683  11.402 -2.6590  0.8558  0.3762
  313MPD2    H3 4765   0.681   0.494  11.370  0.4616  0.3633 -1.2911
  313MPD2     N 4766   0.321   0.243  11.278 -0.5805  0.3673  0.2481
  313MPD2    H5 4767   0.226   0.230  11.309 -0.6574 -1.4923 -0.8097
  313MPD2    N1 4768   0.275   0.700  11.390  0.1317  0.0034  0.1083
  313MPD2    H7 4769   0.178   0.689  11.364  0.7911 -0.6976 -2.0812
  314TMC3    C1 4770   0.264   0.940  11.370  0.2789  0.2904 -0.0490
  314TMC3    C2 4771   0.353   1.046  11.357  0.4299  0.3870 -0.6989
  314TMC3    C3 4772   0.357   1.109  11.238  0.0973 -0.4507 -0.5407
  314TMC3    C4 4773   0.180   0.916  11.264  0.4850  0.4307 -0.2389
  314TMC3    C5 4774   0.194   0.978  11.144  0.0929 -0.4532  0.3594
  314TMC3    C6 4775   0.288   1.077  11.130 -0.3601  0.2735 -0.5584
  314TMC3     C 4776   0.317   0.821  11.432  0.8864 -0.0801 -0.3293
  314TMC3     O 4777   0.413   0.842  11.501 -0.4398 -0.0399  0.0366
  314TMC3     H 4778   0.424   1.071  11.435  0.9381  0.0100 -1.0411
  314TMC3    H1 4779   0.094   0.851  11.272  0.9242 -0.1151 -0.0103
  314TMC3    H2 4780   0.319   1.126  11.038  1.3897 -0.8153 -0.5371
  314TMC3    C7 4781   0.162   0.901  11.031 -0.1703  1.1776  0.3453
  314TMC3    C8 4782   0.477   1.180  11.213  1.0616  0.3166 -0.2698
  314TMC3    O1 4783   0.058   0.837  11.045 -0.1252 -0.0112 -0.4035
  314TMC3    O2 4784   0.519   1.175  11.100 -0.4525  0.5242 -0.2578
  315MPD2     C 4785   0.380   4.540   0.052  0.3036  0.3413 -0.7959
  315MPD2    C1 4786   0.389   4.594   0.180  0.2245 -0.0494 -0.8857
  315MPD2    C2 4787   0.432   4.725   0.192 -0.3605  0.1972 -0.0399
  315MPD2    C3 4788   0.462   0.073   0.085 -0.2162 -0.3075 -0.1252
  315MPD2    C4 4789   0.445   0.019  17.701  0.5658  0.2364  0.6794
  315MPD2    C5 4790   0.406   4.622  17.688 -0.6681  0.7118 -0.2050
  315MPD2     H 4791   0.449   0.022   0.294 -1.5655  0.7890 -0.0254
  315MPD2    H1 4792   0.466   0.078  17.612  0.2172 -1.3770 -0.4756
  315MPD2    H2 4793   0.368   4.434   0.037  2.0413 -0.0422  0.4798
  315MPD2    H3 4794   0.389   4.591  17.585  0.3622 -0.9368  0.1226
  315MPD2     N 4795   0.506   0.201   0.123 -0.1452  0.4518  0.1548
  315MPD2    H5 4796   0.524   0.208   0.223  1.6425 -1.1625 -0.0541
  315MPD2    N1 4797   0.361   4.518   0.298  0.0749 -0.2998  0.4609
  315MPD2    H7 4798   0.405   4.561   0.379 -0.9757 -0.0329  0.8935
  316TMC3    C1 4799   0.525   0.424   0.119  0.2002  0.1233 -0.4438
  316TMC3    C2 4800   0.590   0.419   0.241  0.3940 -0.1893  0.5630
  316TMC3    C3 4801   0.551   0.523   0.325 -0.2613  0.4667 -0.0443
  316TMC3    C4 4802   0.444   0.524   0.075 -0.6435 -0.5296  0.2262
  316TMC3    C5 4803   0.416   0.628   0.160  0.6593  0.3865  1.2500
  316TMC3    C6 4804   0.461   0.626   0.292 -0.6031 -0.4298  0.1425
  316TMC3     C 4805   0.518   0.308   0.041  0.1853 -0.1726 -0.8596
  316TMC3     O 4806   0.472   0.319  17.669  0.7944  0.0299 -0.4110
  316TMC3     H 4807   0.655   0.338   0.271 -1.6008 -1.9788  0.0549
  316TMC3    H1 4808   0.404   0.516  17.716 -0.5410  1.3086  0.0454
  316TMC3    H2 4809   0.441   0.706   0.362  0.7183  1.0711 -1.2163
  316TMC3    C7 4810   0.356   0.757   0.115 -0.3177  0.3114 -0.4970
  316TMC3    C8 4811   0.601   0.539   0.460 -0.1272  0.3138  0.1234
  316TMC3    O1 4812   0.334   0.839   0.200 -0.3050 -0.3441  0.4055
  316TMC3    O2 4813   0.552   0.626   0.534 -0.1852  0.4287  0.0644
  317MPD2     C 4814   2.432   2.839  12.677 -1.0916 -0.4159  0.7525
  317MPD2    C1 4815   2.558   2.828  12.727 -0.3898  0.0035 -0.4855
  317MPD2    C2 4816   2.574   2.810  12.864 -0.5875 -0.6277 -0.4220
  317MPD2    C3 4817   2.461   2.811  12.946 -0.1818  0.0606  0.6073
  317MPD2    C4 4818   2.339   2.838  12.889 -0.5047 -0.2958  0.1396
  317MPD2    C5 4819   2.322   2.840  12.754 -0.5480 -0.5347 -0.7864
  317MPD2     H 4820   2.672   2.783  12.902 -0.1376  3.6571  1.4802
  317MPD2    H1 4821   2.247   2.833  12.946  0.1213 -1.4022  1.0418
  317MPD2    H2 4822   2.409   2.846  12.572 -1.1061 -2.4224  0.6237
  317MPD2    H3 4823   2.227   2.839  12.702 -0.2567 -1.7555 -1.2996
  317MPD2     N 4824   2.487   2.786  13.077 -0.1918  0.4059 -0.1141
  317MPD2    H5 4825   2.580   2.754  13.101 -0.4766  1.0508  1.8436
  317MPD2    N1 4826   2.673   2.819  12.644  0.0363  0.4995  0.6708
  317MPD2    H7 4827   2.758   2.794  12.693  0.4754  2.2632  0.8068
  318TMC3    C1 4828   2.446   2.722  13.294  0.6505  0.2374 -0.1508
  318TMC3    C2 4829   2.386   2.627  13.373 -0.2046  0.4142  0.5269
  318TMC3    C3 4830   2.460   2.559  13.468  0.0698  0.4186 -0.0754
  318TMC3    C4 4831   2.580   2.747  13.321  0.5482  0.0929 -0.1779
  318TMC3    C5 4832   2.636   2.701  13.438  0.0831 -0.4773  0.0789
  318TMC3    C6 4833   2.585   2.594  13.505 -0.0461  0.4682  0.3260
  318TMC3     C 4834   2.388   2.776  13.174  0.4088 -0.1800  0.1465
  318TMC3     O 4835   2.267   2.769  13.159  0.4361 -0.1330 -0.5518
  318TMC3     H 4836   2.281   2.608  13.353  0.7827 -1.8190 -2.5594
  318TMC3    H1 4837   2.644   2.818  13.270 -0.4957  0.3900 -1.0719
  318TMC3    H2 4838   2.628   2.560  13.598  1.0963  2.5112  0.5418
  318TMC3    C7 4839   2.771   2.748  13.467  0.4346  0.6210 -0.1858
  318TMC3    C8 4840   2.426   2.412  13.483 -0.6340 -0.4922  0.1114
  318TMC3    O1 4841   2.792   2.861  13.427  0.6021  0.3142  0.3029
  318TMC3    O2 4842   2.510   2.333  13.524 -0.1401  0.3362 -0.0243
  319MPD2     C 4843   3.522   4.532  16.675  0.0760 -0.2105  0.7097
  319MPD2    C1 4844   3.448   4.443  16.757  1.0492 -0.5375  0.3557
  319MPD2    C2 4845   3.342   4.383  16.691  0.0876  0.2775  0.6370
  319MPD2    C3 4846   3.317   4.397  16.561 -1.1625  0.1630  0.4506
  319MPD2    C4 4847   3.394   4.483  16.489  0.1096 -0.4007 -0.9671
  319MPD2    C5 4848   3.494   4.552  16.550 -0.6172 -0.4856  0.5036
  319MPD2     H 4849   3.275   4.325  16.754 -0.2449 -0.9184 -0.8489
  319MPD2    H1 4850   3.383   4.486  16.381 -0.7787  1.1406 -0.8399
  319MPD2    H2 4851   3.605   4.584  16.722  0.3360 -0.5630  0.6454
  319MPD2    H3 4852   3.562   4.610  16.489 -1.8742  0.8747  0.4121
  319MPD2     N 4853   3.215   4.325  16.493 -0.2021  0.4277  0.3479
  319MPD2    H5 4854   3.213   4.338  16.392  0.8995 -1.5320  0.0625
  319MPD2    N1 4855   3.478   4.403  16.891  0.1760 -0.5637 -0.0473
  319MPD2    H7 4856   3.411   4.347  16.941 -0.2936 -0.7932 -0.9277
  320TMC3    C1 4857   3.035   4.174  16.462  0.1516  0.0763  0.2395
  320TMC3    C2 4858   2.987   4.249  16.363  0.0529 -0.3129  0.0029
  320TMC3    C3 4859   2.899   4.202  16.273  0.2175 -0.1452 -0.1804
  320TMC3    C4 4860   3.001   4.041  16.471 -0.5030 -0.5979  0.0755
  320TMC3    C5 4861   2.912   3.985  16.376  0.1351  0.1835 -0.1700
  320TMC3    C6 4862   2.861   4.067  16.276  0.6728 -0.3996 -0.3327
  320TMC3     C 4863   3.140   4.230  16.552 -0.3644 -0.3561 -0.5667
  320TMC3     O 4864   3.144   4.177  16.665  0.4568  0.3135  0.1761
  320TMC3     H 4865   3.000   4.357  16.366 -0.7560 -0.2484  1.4715
  320TMC3    H1 4866   3.036   3.988  16.559 -1.1870  1.0768  1.3523
  320TMC3    H2 4867   2.769   4.038  16.227 -0.6294  3.3849 -0.1007
  320TMC3    C7 4868   2.868   3.851  16.392 -0.4698  0.4472  0.5166
  320TMC3    C8 4869   2.852   4.283  16.165 -0.4829  0.2870  0.2227
  320TMC3    O1 4870   2.802   3.814  16.298 -0.7199 -0.0607 -1.0832
  320TMC3    O2 4871   2.847   4.402  16.189 -0.0720 -0.4310 -0.0880
  321TMC3    C1 4872   3.587   4.404  17.104 -0.0331 -0.1722  0.7441
  321TMC3    C2 4873   3.471   4.350  17.161 -0.0753  0.3318 -0.3154
  321TMC3    C3 4874   3.450   4.378  17.293  0.3652  0.2349 -0.4560
  321TMC3    C4 4875   3.678   4.473  17.177 -0.6665  0.0002 -0.1804
  321TMC3    C5 4876   3.650   4.495  17.307 -0.4143  0.4708 -0.9080
  321TMC3    C6 4877   3.531   4.459  17.365 -0.0163 -0.0139 -0.5538
  321TMC3     C 4878   3.591   4.436  16.963  0.3123  0.0167  0.2314
  321TMC3     O 4879   3.689   4.489  16.918  0.4672  0.0815  0.0168
  321TMC3     H 4880   3.393   4.299  17.106 -0.7018 -1.2388  2.0427
  321TMC3    H1 4881   3.767   4.508  17.125 -0.4082 -1.1834 -0.5483
  321TMC3    H2 4882   3.503   4.476  17.469 -1.5929  1.1727 -1.1716
  321TMC3    C7 4883   3.765   4.475  17.397  0.6798 -0.4885 -0.0637
  321TMC3    C8 4884   3.417   4.268  17.370 -0.1481  0.3286 -0.1947
  321TMC3    O1 4885   3.741   4.413  17.499 -0.1606  0.0778 -0.1301
  321TMC3    O2 4886   3.322   4.202  17.331 -0.0550 -0.8743 -0.0864
  322MPD2     C 4887   1.750   0.789  13.933  0.0737  0.0216 -0.5145
  322MPD2    C1 4888   1.886   0.771  13.935  0.2920  0.1534 -0.4623
  322MPD2    C2 4889   1.937   0.656  13.877  0.3485  0.2597 -0.0797
  322MPD2    C3 4890   1.853   0.563  13.817 -0.5325 -0.2284  0.7366
  322MPD2    C4 4891   1.716   0.594  13.798 -0.2325  0.2138 -0.0065
  322MPD2    C5 4892   1.662   0.705  13.866 -0.4225 -0.4343  0.7948
  322MPD2     H 4893   2.040   0.622  13.884  0.0933 -0.4207  0.4308
  322MPD2    H1 4894   1.644   0.532  13.746 -0.1141  1.0099 -1.1223
  322MPD2    H2 4895   1.713   0.876  13.986  0.7220  0.6344 -1.0648
  322MPD2    H3 4896   1.555   0.723  13.868 -0.1703  0.9957  1.2420
  322MPD2     N 4897   1.899   0.430  13.789 -0.3490  0.4582 -0.0627
  322MPD2    H5 4898   1.995   0.407  13.815  0.0494  3.3797  0.9981
  322MPD2    N1 4899   1.966   0.870  13.995  0.2224  0.3934  0.0189
  322MPD2    H7 4900   1.917   0.942  14.047  0.4712  1.4084 -1.1376
  323TMC3    C1 4901   2.163   0.984  14.063 -0.6762 -0.3547  0.7083
  323TMC3    C2 4902   2.290   1.013  14.023  0.3502  0.3984 -0.2299
  323TMC3    C3 4903   2.399   1.019  14.109  0.0745  0.1200 -0.7159
  323TMC3    C4 4904   2.151   0.940  14.192 -0.2418 -0.4163  0.2246
  323TMC3    C5 4905   2.260   0.935  14.274 -0.3686  0.0036  0.0814
  323TMC3    C6 4906   2.377   0.985  14.243  0.3497 -0.1884 -0.0426
  323TMC3     C 4907   2.102   0.885  13.973 -0.3847  0.1992  0.5276
  323TMC3     O 4908   2.176   0.839  13.889 -0.1888 -0.4146  0.7596
  323TMC3     H 4909   2.297   1.025  13.915 -1.5236 -3.1896 -0.7546
  323TMC3    H1 4910   2.058   0.907  14.236  0.5005  0.0645  2.1663
  323TMC3    H2 4911   2.446   1.004  14.324 -1.7878  1.1994  1.4414
  323TMC3    C7 4912   2.237   0.860  14.388 -0.3601 -0.6479 -0.0535
  323TMC3    C8 4913   2.536   1.002  14.062 -0.2779 -0.0313  0.4137
  323TMC3    O1 4914   2.173   0.759  14.387 -0.3700 -0.0165  0.2264
  323TMC3    O2 4915   2.616   0.966  14.145 -0.2959 -0.1043 -0.2549
  324MPD2     C 4916   3.979   1.459  14.402 -0.3345  0.7297  0.0704
  324MPD2    C1 4917   4.002   1.566  14.487  0.1586  0.1423 -0.1914
  324MPD2    C2 4918   3.905   1.665  14.495 -0.1656  0.0132 -0.0325
  324MPD2    C3 4919   3.791   1.656  14.418 -0.1589 -0.3817 -0.3782
  324MPD2    C4 4920   3.769   1.543  14.334 -0.3797 -0.1970  0.1207
  324MPD2    C5 4921   3.869   1.451  14.328 -0.2433  0.2092  0.0705
  324MPD2     H 4922   3.911   1.744  14.569  2.2102 -0.8915  0.7087
  324MPD2    H1 4923   3.677   1.508  14.288  0.5267 -0.5322 -1.4250
  324MPD2    H2 4924   4.051   1.380  14.385 -1.0989  0.3996 -1.6440
  324MPD2    H3 4925   3.864   1.357  14.273  0.0899  0.5572 -0.5526
  324MPD2     N 4926   3.682   1.744  14.448  0.2154  0.1640  0.2723
  324MPD2    H5 4927   3.589   1.726  14.411  0.1265  1.2748 -0.0712
  324MPD2    N1 4928   4.121   1.572  14.564 -0.0277  0.6619  0.2126
  324MPD2    H7 4929   4.134   1.653  14.623  1.3992  1.0361 -0.6026
  325TMC3    C1 4930   3.554   1.923  14.529 -0.7611 -0.0840 -0.7362
  325TMC3    C2 4931   3.444   1.851  14.484 -0.4636  0.1080  0.0498
  325TMC3    C3 4932   3.325   1.911  14.503  0.2695  0.0045  0.7772
  325TMC3    C4 4933   3.551   2.047  14.587 -1.1837  0.4236 -0.2042
  325TMC3    C5 4934   3.429   2.100  14.604 -0.3996 -0.2099 -0.0136
  325TMC3    C6 4935   3.315   2.036  14.562  0.2357 -0.0060 -0.7638
  325TMC3     C 4936   3.689   1.865  14.513  0.3034 -0.0461  0.9268
  325TMC3     O 4937   3.780   1.911  14.581  0.1396 -0.7023  0.2436
  325TMC3     H 4938   3.445   1.757  14.430  0.0182 -0.2747  0.7204
  325TMC3    H1 4939   3.643   2.083  14.631 -0.7390  1.2043 -1.7503
  325TMC3    H2 4940   3.213   2.065  14.584  0.1275 -1.4056  0.5358
  325TMC3    C7 4941   3.430   2.231  14.676 -0.1762 -0.4083  0.1565
  325TMC3    C8 4942   3.223   1.872  14.411  0.4227  0.1270  0.6095
  325TMC3    O1 4943   3.542   2.272  14.709 -0.0714  0.0832 -0.1999
  325TMC3    O2 4944   3.236   1.766  14.354  0.0935 -0.1830  0.4347
  326MPD2     C 4945   4.528   2.901  11.167 -0.9419 -0.1114 -0.2388
  326MPD2    C1 4946   4.606   2.929  11.060 -0.1184  0.5266  0.1560
  326MPD2    C2 4947   0.004   2.894  11.066 -0.5759  0.9483  0.1088
  326MPD2    C3 4948   0.066   2.851  11.182  0.1620 -0.6972 -0.2907
  326MPD2    C4 4949   4.717   2.819  11.287 -0.7169  0.4206  0.0248
  326MPD2    C5 4950   4.579   2.843  11.276 -0.3972 -0.0192  0.0654
  326MPD2     H 4951   0.065   2.930  10.984 -1.4916  0.6869 -0.6781
  326MPD2    H1 4952   0.022   2.780  11.379  0.9888 -0.3059 -1.0257
  326MPD2    H2 4953   4.422   2.924  11.176 -1.1227 -0.6938 -0.8998
  326MPD2    H3 4954   4.514   2.831  11.361  0.2551  0.1340  0.5846
  326MPD2     N 4955   0.208   2.841  11.193 -0.2573 -0.3227 -0.1181
  326MPD2    H5 4956   0.244   2.811  11.283 -0.2010 -2.7425 -0.9539
  326MPD2    N1 4957   4.545   2.994  10.945 -0.2355  0.8302 -0.6086
  326MPD2    H7 4958   4.602   2.992  10.861 -0.4464 -0.1535 -0.7293
  327TMC3    C1 4959   4.397   3.028  10.789  0.1168  0.1642 -0.7342
  327TMC3    C2 4960   4.336   3.139  10.735  0.0465  0.3493 -0.5215
  327TMC3    C3 4961   4.329   3.146  10.597  0.0856 -0.2863  0.6191
  327TMC3    C4 4962   4.474   2.941  10.719 -0.6047 -0.2171 -0.1629
  327TMC3    C5 4963   4.460   2.951  10.582 -0.3973  0.1982 -0.1107
  327TMC3    C6 4964   4.387   3.044  10.522  0.0995  0.0823  0.4800
  327TMC3     C 4965   4.411   3.026  10.928 -0.3193 -0.4452  0.2230
  327TMC3     O 4966   4.327   3.057  11.009 -0.3357  0.6107  0.0911
  327TMC3     H 4967   4.277   3.202  10.801 -2.3476 -0.9322 -1.4443
  327TMC3    H1 4968   4.513   2.853  10.768  0.7878  0.0773 -0.7595
  327TMC3    H2 4969   4.387   3.057  10.414 -0.1630  0.8549  0.5732
  327TMC3    C7 4970   4.547   2.880  10.498  0.6217  0.5552 -0.7537
  327TMC3    C8 4971   4.314   3.279  10.547 -0.0092 -0.3818 -0.0839
  327TMC3    O1 4972   4.531   2.893  10.376 -0.0749  0.3585 -0.3790
  327TMC3    O2 4973   4.341   3.364  10.630  0.1389  0.1287 -0.1781
  328MPD2     C 4974   2.870   3.255  17.496  0.2576 -0.8826  0.5827
  328MPD2    C1 4975   2.793   3.170  17.423 -0.3234 -0.2220  0.0708
  328MPD2    C2 4976   2.712   3.233  17.336  0.3308 -0.1524  0.3899
  328MPD2    C3 4977   2.709   3.369  17.307  0.3755 -0.2400 -0.2647
  328MPD2    C4 4978   2.804   3.449  17.366 -0.4860  0.3608 -0.3354
  328MPD2    C5 4979   2.869   3.392  17.473 -0.7413 -0.0554 -0.4132
  328MPD2     H 4980   2.641   3.165  17.291  1.7974 -0.9660 -0.7098
  328MPD2    H1 4981   2.796   3.556  17.359  0.8507  0.5840  1.4291
  328MPD2    H2 4982   2.933   3.226  17.579  0.0864 -0.5487  0.8293
  328MPD2    H3 4983   2.917   3.468  17.534  1.1337 -0.7608 -1.0387
  328MPD2     N 4984   2.612   3.423  17.222 -0.0627  0.4663 -0.0360
  328MPD2    H5 4985   2.628   3.520  17.195  1.8860  0.2145  0.2269
  328MPD2    N1 4986   2.776   3.036  17.464  0.1333 -0.5423 -0.0128
  328MPD2    H7 4987   2.815   3.009  17.554  0.9137  1.1897  0.1763
  329TMC3    C1 4988   2.694   2.814  17.466  0.0097  0.2676  0.0178
  329TMC3    C2 4989   2.624   2.834  17.585 -0.6728  0.3829  0.4845
  329TMC3    C3 4990   2.566   2.730  17.659  0.4986  0.4728  0.5133
  329TMC3    C4 4991   2.684   2.686  17.410 -0.0371  0.1750  0.6080
  329TMC3    C5 4992   2.604   2.592  17.475 -0.0988  0.1692 -0.2622
  329TMC3    C6 4993   2.568   2.606  17.605  0.1883  0.0030  0.8053
  329TMC3     C 4994   2.721   2.933  17.385 -0.7647  1.0460 -0.0281
  329TMC3     O 4995   2.700   2.929  17.267  0.0781 -0.7616 -0.4601
  329TMC3     H 4996   2.626   2.929  17.638  2.3605  0.9092 -0.5491
  329TMC3    H1 4997   2.713   2.675  17.307  0.8158  2.0915  0.6436
  329TMC3    H2 4998   2.530   2.531  17.673  0.6310  0.2127  1.2848
  329TMC3    C7 4999   2.557   2.473  17.401  0.6401  0.2039  0.0517
  329TMC3    C8 5000   2.546   2.752   0.063 -0.2064  0.4753 -0.6489
  329TMC3    O1 5001   2.567   2.463  17.278  0.1068 -0.3499  0.2550
  329TMC3    O2 5002   2.574   2.662   0.145 -0.3871 -0.2630  0.0314
  330TMC3    C1 5003   0.432   1.967   9.510  0.3840 -0.4981 -0.0380
  330TMC3    C2 5004   0.321   1.906   9.469 -0.4585 -0.4582 -0.1161
  330TMC3    C3 5005   0.313   1.771   9.495 -0.5809  0.2898  0.3532
  330TMC3    C4 5006   0.536   1.909   9.574  0.1565  0.1842  0.3940
  330TMC3    C5 5007   0.520   1.776   9.609  0.7278  0.7578  0.3879
  330TMC3    C6 5008   0.404   1.707   9.574 -0.2461 -0.1569  0.1613
  330TMC3     C 5009   0.440   2.112   9.494  0.2197 -0.0816  0.3014
  330TMC3     O 5010   0.554   2.155   9.484 -0.7064  0.5025 -0.1890
  330TMC3     H 5011   0.231   1.955   9.435  0.4565  0.5015 -1.1525
  330TMC3    H1 5012   0.599   1.985   9.617 -0.3825  0.3304  0.9308
  330TMC3    H2 5013   0.409   1.600   9.593  0.6042 -0.2761 -0.7557
  330TMC3    C7 5014   0.617   1.703   9.692 -0.2185  0.1457  0.6772
  330TMC3    C8 5015   0.191   1.690   9.452  0.0018  0.2278 -0.6968
  330TMC3    O1 5016   0.602   1.587   9.717  0.2448  0.5124 -0.1757
  330TMC3    O2 5017   0.103   1.752   9.400  0.3761 -0.5882 -0.2075
  331MPD2     C 5018   3.634   1.287  13.119 -0.0950  0.1448  0.2985
  331MPD2    C1 5019   3.498   1.299  13.073 -0.0599 -0.1043 -0.0620
  331MPD2    C2 5020   3.422   1.180  13.076 -0.0199  0.0097 -0.0071
  331MPD2    C3 5021   3.475   1.060  13.109  0.1024  0.1403  0.7546
  331MPD2    C4 5022   3.599   1.052  13.163 -1.1473  0.2462  0.8042
  331MPD2    C5 5023   3.684   1.168  13.165  0.1526 -0.5946 -0.5460
  331MPD2     H 5024   3.322   1.182  13.033 -1.5122 -1.2821  3.4058
  331MPD2    H1 5025   3.651   0.960  13.190 -0.3503  0.5240  0.2453
  331MPD2    H2 5026   3.700   1.372  13.127  0.0201  0.0746  0.1010
  331MPD2    H3 5027   3.781   1.171  13.214  0.0732 -0.5466 -0.3905
  331MPD2     N 5028   3.396   0.941  13.088 -0.5359 -0.9642  0.1222
  331MPD2    H5 5029   3.302   0.952  13.053 -0.4027 -2.6971 -0.7432
  331MPD2    N1 5030   3.456   1.414  12.999  0.4844  1.0279 -0.0059
  331MPD2    H7 5031   3.521   1.488  12.976  0.6247  0.2354 -2.2362
  332TMC3    C1 5032   3.339   0.725  13.040 -0.0018 -0.7371 -0.4234
  332TMC3    C2 5033   3.254   0.772  12.939  0.1928  0.1392  0.3891
  332TMC3    C3 5034   3.192   0.666  12.870  0.3800  0.0758  0.4262
  332TMC3    C4 5035   3.361   0.589  13.069 -0.2381 -0.2381  0.0245
  332TMC3    C5 5036   3.294   0.500  12.990 -0.1130  0.1604  0.2644
  332TMC3    C6 5037   3.212   0.533  12.888  0.2128 -0.1720 -0.6293
  332TMC3     C 5038   3.433   0.807  13.105  0.2302 -0.3585  0.0573
  332TMC3     O 5039   3.519   0.757  13.179 -0.3325  0.6378  0.1971
  332TMC3     H 5040   3.217   0.874  12.934 -0.0531  0.1882  3.2579
  332TMC3    H1 5041   3.417   0.543  13.149 -0.3629 -2.2054 -1.0370
  332TMC3    H2 5042   3.167   0.454  12.829 -0.7177 -0.8847  1.0455
  332TMC3    C7 5043   3.356   0.372  12.987 -0.4041  0.1023 -0.1888
  332TMC3    C8 5044   3.127   0.705  12.750 -0.3113 -0.9968 -1.0270
  332TMC3    O1 5045   3.293   0.267  12.991  0.3039 -0.1323 -0.8167
  332TMC3    O2 5046   3.135   0.822  12.716  0.5520  0.0169  0.2469
  333MPD2     C 5047   3.739   1.046  11.651 -0.8509  0.3272  0.0257
  333MPD2    C1 5048   3.700   1.031  11.520  0.2001 -0.4928 -0.5435
  333MPD2    C2 5049   3.586   0.958  11.490  0.0851 -0.2892  0.0281
  333MPD2    C3 5050   3.514   0.881  11.592  0.1571  0.8287  0.4471
  333MPD2    C4 5051   3.559   0.899  11.717 -0.1722 -0.3157  0.3801
  333MPD2    C5 5052   3.663   0.987  11.753 -0.1127  0.7571  0.1150
  333MPD2     H 5053   3.549   0.922  11.395 -0.5565 -0.7410  0.4448
  333MPD2    H1 5054   3.510   0.841  11.795 -3.4208  0.7062 -0.9204
  333MPD2    H2 5055   3.832   1.091  11.684 -0.3427 -0.8434  0.1659
  333MPD2    H3 5056   3.701   0.997  11.854 -2.1281 -2.3903  1.1831
  333MPD2     N 5057   3.416   0.796  11.540 -0.1445  0.2710  0.0155
  333MPD2    H5 5058   3.405   0.790  11.439 -0.0846 -0.2015  0.0402
  333MPD2    N1 5059   3.787   1.088  11.417  0.5587  0.7515  0.0475
  333MPD2    H7 5060   3.876   1.131  11.439  1.3076 -0.7268 -0.0895
  334TMC3    C1 5061   3.852   1.147  11.194  0.0686 -0.1207  0.3913
  334TMC3    C2 5062   3.991   1.131  11.230 -0.1477 -0.1799  0.1163
  334TMC3    C3 5063   4.085   1.165  11.135  0.0496  0.1438  0.1961
  334TMC3    C4 5064   3.811   1.168  11.061  0.4918  1.0361  0.4086
  334TMC3    C5 5065   3.918   1.193  10.973 -0.2097 -0.3245 -0.6241
  334TMC3    C6 5066   4.050   1.206  11.009 -0.3283 -0.5357  0.2417
  334TMC3     C 5067   3.746   1.097  11.285 -0.7099 -0.2221 -0.1783
  334TMC3     O 5068   3.643   1.071  11.230 -0.4004 -0.2933  0.0410
  334TMC3     H 5069   4.020   1.113  11.333  1.0808  0.7738 -0.0664
  334TMC3    H1 5070   3.707   1.189  11.037  0.1394 -0.0576  0.9871
  334TMC3    H2 5071   4.119   1.218  10.927  0.5339  1.3531  1.2510
  334TMC3    C7 5072   3.876   1.256  10.853 -0.1988  0.1795 -0.2348
  334TMC3    C8 5073   4.224   1.153  11.175  0.1370  0.6100  0.3496
  334TMC3    O1 5074   3.769   1.208  10.807 -0.1589 -0.2790  0.3665
  334TMC3    O2 5075   4.247   1.131  11.293  0.2989  0.2346  0.5289
  335TMC3    C1 5076   3.236   2.813  17.205  0.4151 -0.0075 -0.3145
  335TMC3    C2 5077   3.180   2.763  17.093  0.8400  0.1575  1.3397
  335TMC3    C3 5078   3.256   2.714  16.993  0.1757  0.5219  0.5084
  335TMC3    C4 5079   3.370   2.808  17.222 -1.1695 -0.5086 -0.5093
  335TMC3    C5 5080   3.444   2.756  17.129 -0.2430  0.0024  0.0456
  335TMC3    C6 5081   3.393   2.711  17.012 -0.3462 -0.5863  0.1071
  335TMC3     C 5082   3.141   2.840  17.315  0.1016 -0.3823 -0.0254
  335TMC3     O 5083   3.034   2.782  17.312  0.1064  0.8624  0.3131
  335TMC3     H 5084   3.073   2.783  17.082  1.0192  0.3778 -0.0010
  335TMC3    H1 5085   3.414   2.831  17.319  1.1352  0.7115 -1.8692
  335TMC3    H2 5086   3.450   2.659  16.935  1.5204  0.1529  0.9901
  335TMC3    C7 5087   3.578   2.716  17.156  0.4625  0.0900 -0.2227
  335TMC3    C8 5088   3.194   2.650  16.881 -0.4285 -0.4242 -0.0675
  335TMC3    O1 5089   3.637   2.693  17.051 -0.1035 -0.0927 -0.3569
  335TMC3    O2 5090   3.271   2.598  16.799  0.2586 -0.1365  0.1021
  336MPD2     C 5091   2.807   1.053  16.498  0.8039 -0.3434  0.4023
  336MPD2    C1 5092   2.811   1.029  16.361 -0.4684  0.5499 -0.2961
  336MPD2    C2 5093   2.858   0.907  16.321  0.5095  0.4887 -0.2566
  336MPD2    C3 5094   2.892   0.810  16.419  0.1023  0.3906  0.0494
  336MPD2    C4 5095   2.882   0.840  16.551 -0.3573  0.3892  0.3212
  336MPD2    C5 5096   2.841   0.963  16.591  0.3379 -0.5892  0.6098
  336MPD2     H 5097   2.870   0.887  16.215  2.7044  0.0587  0.0904
  336MPD2    H1 5098   2.910   0.774  16.633  2.2447 -0.7112 -1.4437
  336MPD2    H2 5099   2.787   1.154  16.531 -1.2850 -0.7513  0.3475
  336MPD2    H3 5100   2.826   0.990  16.695 -1.3182 -0.4504  0.3301
  336MPD2     N 5101   2.925   0.678  16.394  0.2387 -0.1543  0.0464
  336MPD2    H5 5102   2.922   0.608  16.468 -1.6380  1.5403  1.5657
  336MPD2    N1 5103   2.763   1.123  16.260  0.4914 -0.2431  0.4953
  336MPD2    H7 5104   2.789   1.104  16.164 -0.8318 -0.9795  0.2865
  337TMC3    C1 5105   2.646   1.300  16.178 -0.3702 -0.0018  0.3334
  337TMC3    C2 5106   2.513   1.293  16.156 -0.3581  0.1760 -0.0009
  337TMC3    C3 5107   2.473   1.319  16.029  0.5874 -0.3254  0.6551
  337TMC3    C4 5108   2.738   1.351  16.088  0.6751 -0.0231  0.8041
  337TMC3    C5 5109   2.689   1.394  15.968  0.1882  0.5065 -0.0667
  337TMC3    C6 5110   2.559   1.373  15.934  0.6777  0.6888 -0.2920
  337TMC3     C 5111   2.698   1.235  16.295  0.5503  0.2953  0.0314
  337TMC3     O 5112   2.653   1.270  16.402  0.3051  0.3984 -0.6052
  337TMC3     H 5113   2.450   1.236  16.223  1.6492 -2.0831 -0.0459
  337TMC3    H1 5114   2.834   1.387  16.124 -0.0116  2.0093  0.6160
  337TMC3    H2 5115   2.514   1.410  15.842  1.1361  0.1315 -0.7419
  337TMC3    C7 5116   2.773   1.481  15.889 -0.5767  0.1459  0.1413
  337TMC3    C8 5117   2.323   1.303  16.002  0.1689  0.4169 -0.4235
  337TMC3    O1 5118   2.895   1.477  15.910  0.1294  0.6769  0.0929
  337TMC3    O2 5119   2.251   1.275  16.098  0.1018  0.4239 -0.1333
  338MPD2     C 5120   2.966   0.543   1.057 -0.3268 -0.3525  0.0453
  338MPD2    C1 5121   2.946   0.525   0.917 -0.8668  0.8609  0.4056
  338MPD2    C2 5122   2.814   0.501   0.873 -0.0695 -0.4914  0.1375
  338MPD2    C3 5123   2.713   0.492   0.962 -0.5133 -0.2088 -0.2408
  338MPD2    C4 5124   2.728   0.524   1.097 -0.2102 -0.3260  0.4737
  338MPD2    C5 5125   2.854   0.549   1.140  0.0365  0.5806  0.3826
  338MPD2     H 5126   2.787   0.481   0.770 -1.0083 -0.4224  0.3664
  338MPD2    H1 5127   2.654   0.525   1.175 -0.5574  0.9101  0.1296
  338MPD2    H2 5128   3.066   0.527   1.095 -0.3755 -2.1278 -0.5498
  338MPD2    H3 5129   2.872   0.555   1.247  0.7854  1.4305  0.2123
  338MPD2     N 5130   2.586   0.469   0.905 -0.0733 -0.3067  0.3814
  338MPD2    H5 5131   2.581   0.427   0.813 -1.3010  0.3243  0.1576
  338MPD2    N1 5132   3.052   0.509   0.818  0.0942 -0.3120  0.4084
  338MPD2    H7 5133   3.018   0.491   0.725  2.5138  0.1094 -0.5569
  339TMC3    C1 5134   2.365   0.412   0.878  0.1628 -0.5279  0.6148
  339TMC3    C2 5135   2.309   0.291   0.882 -0.3760 -1.1917  0.8539
  339TMC3    C3 5136   2.249   0.252   0.764  0.5626  0.3341  1.3696
  339TMC3    C4 5137   2.366   0.492   0.770  0.3960 -0.2655 -0.0673
  339TMC3    C5 5138   2.304   0.452   0.660  0.0853  0.3399  0.2796
  339TMC3    C6 5139   2.247   0.329   0.652  0.2549 -0.3671 -0.7889
  339TMC3     C 5140   2.473   0.442   0.974  0.2355 -0.0263  0.0160
  339TMC3     O 5141   2.453   0.408   1.086  0.0439 -0.0710  0.1629
  339TMC3     H 5142   2.319   0.233   0.973 -0.2020 -2.7090 -0.1253
  339TMC3    H1 5143   2.410   0.591   0.769 -1.9184  0.7333 -0.4391
  339TMC3    H2 5144   2.201   0.296   0.559  0.3484  0.5232 -1.1546
  339TMC3    C7 5145   2.342   0.523   0.537  0.0438 -0.2915 -0.3176
  339TMC3    C8 5146   2.245   0.110   0.747  0.1393 -0.5774 -0.0339
  339TMC3    O1 5147   2.365   0.642   0.540 -0.3249  0.5371 -0.5153
  339TMC3    O2 5148   2.253   0.076   0.631 -0.6280  0.2780 -0.0805
  340MPD2     C 5149   3.418   2.438  10.533  1.0914  0.2411  0.6863
  340MPD2    C1 5150   3.451   2.503  10.414  0.1616  0.2917 -0.2106
  340MPD2    C2 5151   3.502   2.631  10.421  0.1563  0.0063  0.6624
  340MPD2    C3 5152   3.483   2.699  10.538 -0.2409  0.3377  0.8092
  340MPD2    C4 5153   3.448   2.645  10.656 -0.1002  0.2448 -0.3109
  340MPD2    C5 5154   3.422   2.507  10.650 -1.0678  0.3899 -0.1810
  340MPD2     H 5155   3.544   2.675  10.332 -2.0975 -0.5064 -0.6506
  340MPD2    H1 5156   3.446   2.705  10.746  1.4441  0.9295 -0.7303
  340MPD2    H2 5157   3.396   2.331  10.534  1.1006  0.2200 -0.9931
  340MPD2    H3 5158   3.404   2.463  10.748  1.7424 -0.6376 -0.1158
  340MPD2     N 5159   3.522   2.834  10.559 -0.5985 -0.4303  0.5728
  340MPD2    H5 5160   3.519   2.873  10.653  0.3824  0.0903  0.3833
  340MPD2    N1 5161   3.461   2.426  10.295  0.5251 -0.2879 -0.0330
  340MPD2    H7 5162   3.450   2.326  10.302  0.5257 -0.2823  0.0493
  341TMC3    C1 5163   3.472   2.371  10.073 -0.2734  0.4264 -0.3508
  341TMC3    C2 5164   3.368   2.282  10.082  0.1839 -0.5353  0.3426
  341TMC3    C3 5165   3.330   2.218   9.964 -0.4611  0.0300  0.1282
  341TMC3    C4 5166   3.541   2.393   9.954 -1.2082 -0.2707 -0.1054
  341TMC3    C5 5167   3.512   2.317   9.851  0.8519 -0.9339 -0.9175
  341TMC3    C6 5168   3.408   2.225   9.854  0.4792 -0.0887 -0.5355
  341TMC3     C 5169   3.499   2.474  10.173  0.4019 -0.2336  0.0178
  341TMC3     O 5170   3.537   2.587  10.140  0.3424 -0.1985  0.0052
  341TMC3     H 5171   3.308   2.263  10.171 -2.3258 -1.4825 -1.5699
  341TMC3    H1 5172   3.613   2.473   9.947 -0.7394 -0.5304  1.7943
  341TMC3    H2 5173   3.397   2.151   9.775  2.0749 -1.4428  0.5080
  341TMC3    C7 5174   3.613   2.292   9.755  0.0942  0.5982  0.4577
  341TMC3    C8 5175   3.240   2.107   9.970 -0.1553  0.4104 -0.1991
  341TMC3    O1 5176   3.735   2.321   9.775 -0.3960  0.3806 -0.5961
  341TMC3    O2 5177   3.220   2.063  10.082  0.2094  0.7444 -0.6225
  342MPD2     C 5178   0.971   1.089  17.664  0.3338 -0.0248  0.6515
  342MPD2    C1 5179   1.085   1.115  17.592 -0.5565  0.7730  0.0005
  342MPD2    C2 5180   1.126   1.249  17.575 -0.2200  0.3191  0.5971
  342MPD2    C3 5181   1.059   1.348  17.646 -0.0320 -0.4798 -0.2782
  342MPD2    C4 5182   0.948   1.319  17.724 -0.5531  0.7493  0.1631
  342MPD2    C5 5183   0.906   1.187  17.727 -0.4274 -0.7936 -0.6179
  342MPD2     H 5184   1.206   1.270  17.505  1.1297 -0.6015  1.8754
  342MPD2    H1 5185   0.905   1.402   0.038 -2.3890  1.3714 -2.1927
  342MPD2    H2 5186   0.925   0.991  17.672 -0.5063  0.2359 -1.1294
  342MPD2    H3 5187   0.822   1.157   0.048 -0.3167  1.6365  0.6953
  342MPD2     N 5188   1.098   1.487  17.635  0.0535  0.3057  0.4534
  342MPD2    H5 5189   1.031   1.553  17.673  0.1824  0.7865 -0.1503
  342MPD2    N1 5190   1.164   1.018  17.531 -0.2318 -0.0042 -0.1714
  342MPD2    H7 5191   1.238   1.052  17.471 -0.7815  1.9803  0.2491
  343TMC3    C1 5192   1.244   0.808  17.467  0.7829  0.2829  0.0964
  343TMC3    C2 5193   1.318   0.863  17.377 -0.1097  0.8558 -0.4066
  343TMC3    C3 5194   1.381   0.791  17.281  0.1551  0.1154  0.2256
  343TMC3    C4 5195   1.240   0.673  17.480 -0.0794 -0.0034  0.2560
  343TMC3    C5 5196   1.312   0.600  17.389 -0.1488 -0.2951  0.0557
  343TMC3    C6 5197   1.378   0.656  17.284 -0.0189 -0.2663  0.6018
  343TMC3     C 5198   1.157   0.884  17.558  0.3921  0.2132  0.4037
  343TMC3     O 5199   1.098   0.829  17.654 -1.0538 -0.0438  0.6125
  343TMC3     H 5200   1.320   0.972  17.374  1.2074  0.8292 -0.7379
  343TMC3    H1 5201   1.172   0.625  17.549  2.3010 -0.7740  2.0548
  343TMC3    H2 5202   1.424   0.586  17.216  0.9149  1.6457 -0.7297
  343TMC3    C7 5203   1.292   0.455  17.388 -0.4612 -0.2799  0.5816
  343TMC3    C8 5204   1.461   0.866  17.185 -0.0824 -0.1851  0.0613
  343TMC3    O1 5205   1.275   0.406  17.277 -0.1068  0.3192  0.3412
  343TMC3    O2 5206   1.473   0.987  17.213  0.3079 -0.8700  0.5574
  344MPD2     C 5207   1.875   0.316  11.166  0.2784  0.4151  0.1102
  344MPD2    C1 5208   1.909   0.282  11.039 -0.7592 -0.5628  0.2809
  344MPD2    C2 5209   1.989   0.363  10.959  0.4582 -0.8023  0.2332
  344MPD2    C3 5210   2.018   0.490  11.000 -0.2231 -0.5403  0.7405
  344MPD2    C4 5211   1.992   0.525  11.131 -0.5722 -0.0537  0.2904
  344MPD2    C5 5212   1.919   0.440  11.212  0.0124  0.0532  0.3694
  344MPD2     H 5213   2.004   0.329  10.857  1.2169  2.7207 -0.8145
  344MPD2    H1 5214   2.021   0.620  11.173 -1.0107  0.0086  0.4555
  344MPD2    H2 5215   1.820   0.252  11.234  2.0377 -0.9188  0.2825
  344MPD2    H3 5216   1.882   0.484  11.304 -1.5146  4.0437 -2.1348
  344MPD2     N 5217   2.083   0.588  10.916  0.0078  0.8637  0.8882
  344MPD2    H5 5218   2.115   0.672  10.962 -1.0910  3.1630 -2.5853
  344MPD2    N1 5219   1.862   0.158  10.998  0.2465 -0.1628 -0.2466
  344MPD2    H7 5220   1.805   0.102  11.061  0.1800 -0.1804 -0.3233
  345TMC3    C1 5221   2.134   0.696  10.707 -0.1727  0.1130 -0.8909
  345TMC3    C2 5222   2.213   0.794  10.774  0.0659  0.4748 -0.4430
  345TMC3    C3 5223   2.265   0.891  10.699 -0.2241  0.1766  0.7480
  345TMC3    C4 5224   2.114   0.705  10.573 -0.6512 -0.1102  0.0783
  345TMC3    C5 5225   2.169   0.815  10.503  1.0828 -0.6236  0.8937
  345TMC3    C6 5226   2.237   0.918  10.566  0.5872 -0.5127 -0.2812
  345TMC3     C 5227   2.077   0.582  10.776  0.0973  0.3191 -0.4139
  345TMC3     O 5228   2.017   0.500  10.710  0.3155  0.0472 -0.7382
  345TMC3     H 5229   2.252   0.768  10.872  0.1541  0.5771 -0.4519
  345TMC3    H1 5230   2.039   0.638  10.533 -0.9811 -1.2225  2.5628
  345TMC3    H2 5231   2.293   0.997  10.517  1.9436  0.1046  2.2806
  345TMC3    C7 5232   2.112   0.844  10.367  0.1088  0.8059 -0.2333
  345TMC3    C8 5233   2.333   1.005  10.763 -0.0035  0.7092 -0.7295
  345TMC3    O1 5234   2.017   0.781  10.333 -0.1538  0.2234  0.2731
  345TMC3    O2 5235   2.366   1.096  10.692 -0.7347 -0.1811 -0.2606
  346MPD2     C 5236   2.013   2.376  14.418 -0.5253  0.0675  0.2122
  346MPD2    C1 5237   2.134   2.342  14.366 -0.4591  0.5938  0.4570
  346MPD2    C2 5238   2.248   2.382  14.427  0.0426  0.2090 -0.5653
  346MPD2    C3 5239   2.246   2.444  14.548 -0.1651  0.3724 -0.3806
  346MPD2    C4 5240   2.122   2.472  14.606  0.5617 -0.2209 -0.3887
  346MPD2    C5 5241   2.010   2.442  14.535  0.0655  0.6214  0.0346
  346MPD2     H 5242   2.345   2.350  14.391  1.3304  1.7277  1.5006
  346MPD2    H1 5243   2.105   2.507  14.707  1.9143  2.3894 -1.0518
  346MPD2    H2 5244   1.923   2.351  14.364 -0.6545  0.1130  0.4083
  346MPD2    H3 5245   1.920   2.473  14.587  0.8574  1.6646  0.7652
  346MPD2     N 5246   2.372   2.482  14.605 -0.3274  0.1897  0.1296
  346MPD2    H5 5247   2.453   2.468  14.545 -1.3063 -1.5244 -0.7804
  346MPD2    N1 5248   2.154   2.284  14.240 -0.1606  0.9117  0.5895
  346MPD2    H7 5249   2.250   2.268  14.208  0.1244  0.6350  1.5846
  347TMC3    C1 5250   2.519   2.624  14.723  1.2293 -0.5970 -0.1235
  347TMC3    C2 5251   2.638   2.566  14.730  0.1873 -0.0662 -1.2682
  347TMC3    C3 5252   2.747   2.625  14.687  0.1600  0.0187 -0.5346
  347TMC3    C4 5253   2.504   2.746  14.661  0.0160 -0.9501 -0.2621
  347TMC3    C5 5254   2.618   2.809  14.612 -1.0345 -0.5674 -0.2689
  347TMC3    C6 5255   2.738   2.742  14.621  0.0541  0.7741  0.0844
  347TMC3     C 5256   2.392   2.547  14.728  0.2051  0.0492  0.5263
  347TMC3     O 5257   2.309   2.605  14.795  0.2931  0.1703  0.0199
  347TMC3     H 5258   2.646   2.468  14.777 -0.7595  0.9533  1.0029
  347TMC3    H1 5259   2.404   2.786  14.664  0.2350 -0.4475  0.5294
  347TMC3    H2 5260   2.828   2.790  14.584  0.6729 -0.9693 -0.6849
  347TMC3    C7 5261   2.598   2.856  14.475 -0.4329 -0.0964  0.6828
  347TMC3    C8 5262   2.861   2.543  14.692  0.0304 -0.5759  0.0142
  347TMC3    O1 5263   2.691   2.889  14.406 -0.0466  0.2187 -0.2952
  347TMC3    O2 5264   2.847   2.421  14.684 -0.2781  0.7160  0.3331
  348MPD2     C 5265   1.433   1.599  11.920 -0.2100 -0.3990 -0.3495
  348MPD2    C1 5266   1.306   1.563  11.876 -0.0573 -0.8919 -0.0917
  348MPD2    C2 5267   1.248   1.637  11.770 -0.6451 -0.4715 -0.7040
  348MPD2    C3 5268   1.322   1.729  11.704 -0.2085  0.7442 -0.5254
  348MPD2    C4 5269   1.452   1.754  11.736 -0.8288  0.1049 -0.2333
  348MPD2    C5 5270   1.504   1.693  11.848  0.1126  0.1158  0.4829
  348MPD2     H 5271   1.146   1.616  11.740 -1.0648  2.2551 -1.2282
  348MPD2    H1 5272   1.513   1.829  11.687 -1.0240 -0.6421 -1.6127
  348MPD2    H2 5273   1.478   1.547  12.004 -0.5738  1.3502  0.9252
  348MPD2    H3 5274   1.608   1.708  11.877  0.0723 -2.0838  1.7274
  348MPD2     N 5275   1.258   1.803  11.594  0.2870  0.0543 -0.0830
  348MPD2    H5 5276   1.161   1.784  11.571 -0.9083  2.0216  3.2865
  348MPD2    N1 5277   1.231   1.462  11.942 -0.3875  0.1176 -0.6869
  348MPD2    H7 5278   1.137   1.448  11.907  0.0087 -0.6709 -1.4768
  349TMC3    C1 5279   1.192   1.276  12.073 -0.3391  1.1623 -0.4411
  349TMC3    C2 5280   1.231   1.148  12.097 -0.3391  0.5325 -0.1625
  349TMC3    C3 5281   1.140   1.051  12.112 -0.5657 -0.0210  1.2396
  349TMC3    C4 5282   1.061   1.313  12.083  0.2501 -0.2130  0.5187
  349TMC3    C5 5283   0.973   1.216  12.119  0.3119 -0.5683 -0.5226
  349TMC3    C6 5284   1.012   1.090  12.137 -0.0663  0.2750  1.1566
  349TMC3     C 5285   1.285   1.364  12.018  0.4876  0.6149 -0.0380
  349TMC3     O 5286   1.403   1.329  12.040 -0.5220  0.1563 -0.0158
  349TMC3     H 5287   1.337   1.123  12.104 -0.9397 -2.2686 -1.1612
  349TMC3    H1 5288   1.031   1.417  12.067  0.8590 -0.3344 -1.4393
  349TMC3    H2 5289   0.936   1.023  12.175 -0.8052  0.1677 -0.4955
  349TMC3    C7 5290   0.833   1.250  12.139 -0.3184  0.1408 -0.0942
  349TMC3    C8 5291   1.182   0.927  12.180 -0.7422 -0.2531 -0.4352
  349TMC3    O1 5292   0.752   1.183  12.080  0.3822  0.1321  0.3191
  349TMC3    O2 5293   1.277   0.945  12.252 -0.6223 -0.4559  0.0652
  350MPD2     C 5294   4.576   4.418  10.739 -0.7626 -0.6027  0.4183
  350MPD2    C1 5295   4.702   4.466  10.700  0.6363  0.2681  0.6086
  350MPD2    C2 5296   0.052   4.510  10.797  0.1035 -0.7351 -0.2711
  350MPD2    C3 5297   0.025   4.472  10.923  0.7159  0.3732  0.0882
  350MPD2    C4 5298   4.643   4.408  10.961 -0.7813  0.2452  0.8090
  350MPD2    C5 5299   4.550   4.388  10.863  0.7037  1.0045  0.8569
  350MPD2     H 5300   0.143   4.565  10.775  0.5808 -1.8225 -1.0314
  350MPD2    H1 5301   4.617   4.380  11.063 -2.1596  0.7209  0.5865
  350MPD2    H2 5302   4.496   4.392  10.671  0.0679 -1.0802 -0.3740
  350MPD2    H3 5303   4.457   4.334  10.880 -1.0453  4.0936  1.1210
  350MPD2     N 5304   0.119   4.511  11.020  0.1131 -0.0417 -0.3120
  350MPD2    H5 5305   0.202   4.563  10.994  0.6826  0.8039  3.1819
  350MPD2    N1 5306   0.004   4.488  10.565 -0.5104 -0.9758  0.2851
  350MPD2    H7 5307   0.091   4.540  10.557 -0.3326 -1.6863 -2.3038
  351TMC3    C1 5308   4.730   4.472  10.330  0.1888  0.8849 -0.0633
  351TMC3    C2 5309   0.131   4.476  10.324  0.5163 -0.1888 -0.0754
  351TMC3    C3 5310   0.180   4.476  10.195  0.2801 -0.1471  0.2931
  351TMC3    C4 5311   4.644   4.458  10.221 -0.3735 -0.1756 -0.0650
  351TMC3    C5 5312   4.695   4.463  10.101  0.0748 -0.4017 -0.3858
  351TMC3    C6 5313   0.097   4.471  10.088  0.3935 -0.7989 -0.0485
  351TMC3     C 5314   4.662   4.453  10.458 -0.2606  0.7195  0.3105
  351TMC3     O 5315   4.549   4.403  10.447  0.2990 -0.0191 -0.0098
  351TMC3     H 5316   0.192   4.496  10.411  1.6109  1.9516 -1.3307
  351TMC3    H1 5317   4.535   4.459  10.229 -0.4634 -1.9144 -1.1764
  351TMC3    H2 5318   0.142   4.456   9.991 -1.0921 -2.5879 -0.4672
  351TMC3    C7 5319   4.608   4.455   9.990 -0.1209 -0.4393  0.2680
  351TMC3    C8 5320   0.309   4.432  10.168 -0.3049  0.0020 -0.2883
  351TMC3    O1 5321   4.490   4.485  10.012  0.1323  0.0535 -0.3282
  351TMC3    O2 5322   0.359   4.452  10.055 -0.3324 -0.2245  0.7099
  352MPD2     C 5323   3.566   2.552   0.888  0.3862  0.9020  0.4846
  352MPD2    C1 5324   3.477   2.446   0.903  0.2101 -0.1877 -0.4833
  352MPD2    C2 5325   3.517   2.317   0.863 -0.5390 -0.3535 -0.1459
  352MPD2    C3 5326   3.649   2.289   0.825  0.1962 -0.0275 -0.0493
  352MPD2    C4 5327   3.737   2.390   0.821  0.4024  0.4608  0.1027
  352MPD2    C5 5328   3.694   2.522   0.851  0.1158 -0.2768 -0.3659
  352MPD2     H 5329   3.444   2.238   0.875  0.0321 -1.0057 -1.0253
  352MPD2    H1 5330   3.837   2.373   0.783 -0.7292 -1.2393 -2.1613
  352MPD2    H2 5331   3.538   2.656   0.901 -0.2664  0.7068  0.6158
  352MPD2    H3 5332   3.762   2.606   0.844 -0.8227  0.3916 -1.6405
  352MPD2     N 5333   3.691   2.160   0.776  0.1087  0.0379 -0.2697
  352MPD2    H5 5334   3.790   2.144   0.755  0.2027 -0.9856  0.9104
  352MPD2    N1 5335   3.348   2.483   0.947  0.1348  0.2116  0.3658
  352MPD2    H7 5336   3.335   2.581   0.970 -1.8689 -0.1907  0.9281
  353TMC3    C1 5337   3.672   1.945   0.698 -0.3993  0.4526 -0.2323
  353TMC3    C2 5338   3.769   1.876   0.770  0.2533 -0.5197 -0.3873
  353TMC3    C3 5339   3.770   1.740   0.770  0.0105 -0.1613  0.2702
  353TMC3    C4 5340   3.586   1.872   0.618 -0.1368 -0.6250  0.5830
  353TMC3    C5 5341   3.584   1.737   0.638  0.6679 -0.5239  0.5119
  353TMC3    C6 5342   3.670   1.662   0.713  0.6051  0.3302  0.5549
  353TMC3     C 5343   3.604   2.061   0.754 -0.0351 -0.1921 -0.1308
  353TMC3     O 5344   3.484   2.055   0.757  0.4244  0.9048 -0.2617
  353TMC3     H 5345   3.832   1.934   0.836  1.6062 -0.9970 -1.2621
  353TMC3    H1 5346   3.511   1.925   0.561  1.5141  1.5389  0.4294
  353TMC3    H2 5347   3.669   1.553   0.721 -0.9370  0.2377 -0.8651
  353TMC3    C7 5348   3.462   1.670   0.625  0.7213  0.4738 -0.7045
  353TMC3    C8 5349   3.898   1.683   0.813  0.2295  0.1623 -0.4060
  353TMC3    O1 5350   3.472   1.547   0.620 -0.4811 -0.5237 -0.5587
  353TMC3    O2 5351   3.979   1.758   0.867 -0.8000  0.0495  0.9477
  354TMC3    C1 5352   4.699   2.292  13.482 -0.3063  0.4089  0.3384
  354TMC3    C2 5353   4.712   2.426  13.505 -0.0588  0.4243  0.0238
  354TMC3    C3 5354   0.031   2.502  13.403 -0.0421 -0.3477 -0.2944
  354TMC3    C4 5355   0.014   2.238  13.369 -0.0106 -0.3443 -0.3426
  354TMC3    C5 5356   0.060   2.312  13.265  0.5886 -0.1106  0.1031
  354TMC3    C6 5357   0.057   2.445  13.277  0.2542 -0.0633 -0.8396
  354TMC3     C 5358   4.620   2.214  13.577  0.9548 -0.2493 -0.2962
  354TMC3     O 5359   4.554   2.125  13.528 -0.4136  0.1451 -0.0994
  354TMC3     H 5360   4.666   2.461  13.597 -1.0480  1.6977 -0.9556
  354TMC3    H1 5361   4.719   2.136  13.350 -1.5235 -0.4646  2.7708
  354TMC3    H2 5362   0.073   2.504  13.188  0.3883  1.2058  0.0143
  354TMC3    C7 5363   0.108   2.241  13.145 -0.2867  0.6635 -0.1475
  354TMC3    C8 5364   0.020   2.650  13.422  0.5022  0.0222 -0.2678
  354TMC3    O1 5365   0.077   2.127  13.137 -0.2131 -0.1186 -0.0710
  354TMC3    O2 5366   0.008   2.689  13.538 -0.0511  0.2091  0.1768
  355MPD2     C 5367   0.178   3.641  12.168 -0.2194 -0.4708 -0.7700
  355MPD2    C1 5368   0.231   3.606  12.047  0.1392  0.2790  0.3501
  355MPD2    C2 5369   0.304   3.482  12.029  0.0218  0.2684 -0.0251
  355MPD2    C3 5370   0.320   3.405  12.141 -0.1804 -0.9899 -0.6201
  355MPD2    C4 5371   0.264   3.436  12.263  0.3106 -0.4254 -0.2140
  355MPD2    C5 5372   0.195   3.553  12.273  0.2648 -0.0950 -0.0870
  355MPD2     H 5373   0.353   3.458  11.936 -3.4374  1.1227 -2.1061
  355MPD2    H1 5374   0.269   3.361  12.340  0.4649  2.1244  2.2471
  355MPD2    H2 5375   0.128   3.736  12.185 -0.5053 -1.0737  1.7112
  355MPD2    H3 5376   0.154   3.577  12.370 -0.2576 -0.6414 -0.1707
  355MPD2     N 5377   0.416   3.303  12.151 -0.4119 -0.0311  0.1045
  355MPD2    H5 5378   0.440   3.280  12.247  0.9270 -1.1128 -0.4745
  355MPD2    N1 5379   0.240   3.701  11.946 -0.0677 -0.3211  0.2815
  355MPD2    H7 5380   0.228   3.797  11.977 -0.9446 -0.2135 -0.3962
  356TMC3    C1 5381   0.641   3.287  12.086 -0.6388  0.1186 -0.6354
  356TMC3    C2 5382   0.707   3.339  11.975 -0.6956 -0.2035 -0.7428
  356TMC3    C3 5383   0.814   3.419  11.995  0.1624  0.9363 -0.7678
  356TMC3    C4 5384   0.681   3.319  12.215  0.0177  0.5371 -0.1081
  356TMC3    C5 5385   0.788   3.409  12.221  0.1328  0.0160  0.3961
  356TMC3    C6 5386   0.859   3.461  12.113 -1.2583 -0.2615 -0.0657
  356TMC3     C 5387   0.502   3.274  12.054 -0.9895 -0.7319 -0.3349
  356TMC3     O 5388   0.483   3.268  11.933 -0.1988  0.0764  0.3482
  356TMC3     H 5389   0.679   3.326  11.871 -0.7877  0.1073 -0.7591
  356TMC3    H1 5390   0.628   3.282  12.302  0.2083  1.0753  0.2367
  356TMC3    H2 5391   0.944   3.528  12.115 -0.7236 -0.9925  1.4482
  356TMC3    C7 5392   0.820   3.456  12.354 -0.1703  0.3824  0.5713
  356TMC3    C8 5393   0.868   3.477  11.872  0.1459  0.6394 -0.6453
  356TMC3    O1 5394   0.786   3.387  12.452  0.1799 -0.0867 -0.0623
  356TMC3    O2 5395   0.845   3.415  11.766 -0.0421  0.0347 -0.0482
  357MPD2     C 5396   0.156   4.014   1.211 -0.8502  0.2329 -0.4041
  357MPD2    C1 5397   0.199   3.971   1.330  0.2372  0.3834 -0.0834
  357MPD2    C2 5398   0.201   4.060   1.429 -0.1911 -0.4454  0.5271
  357MPD2    C3 5399   0.165   4.195   1.411  0.5328 -0.3796  0.3057
  357MPD2    C4 5400   0.111   4.232   1.288  0.1318  0.4422  0.4317
  357MPD2    C5 5401   0.123   4.144   1.189  0.0520  0.2582  0.4512
  357MPD2     H 5402   0.240   4.025   1.524 -0.8387 -1.6532  0.3388
  357MPD2    H1 5403   0.072   4.332   1.271 -0.7662  0.1271  0.6566
  357MPD2    H2 5404   0.165   3.955   1.121 -1.3758  1.1737 -1.0705
  357MPD2    H3 5405   0.088   4.164   1.088  1.9112 -2.4398 -0.7170
  357MPD2     N 5406   0.174   4.307   1.499  0.0804 -0.4356  0.2134
  357MPD2    H5 5407   0.160   4.397   1.455 -1.0485 -1.3630 -1.3520
  357MPD2    N1 5408   0.257   3.845   1.337 -0.0740  0.0704  0.6500
  357MPD2    H7 5409   0.257   3.787   1.253  1.4708 -0.2033  0.8479
  358TMC3    C1 5410   0.332   3.644   1.427 -0.0333 -0.3317  0.4894
  358TMC3    C2 5411   0.274   3.576   1.322 -0.1432 -0.2700  0.2360
  358TMC3    C3 5412   0.329   3.468   1.284  0.1502  0.0197  0.3256
  358TMC3    C4 5413   0.422   3.589   1.509 -1.2296  0.2240  0.1465
  358TMC3    C5 5414   0.475   3.466   1.475 -0.5016 -1.1567  0.4064
  358TMC3    C6 5415   0.429   3.406   1.360 -0.0747 -0.1614  0.1691
  358TMC3     C 5416   0.308   3.781   1.451 -1.1999 -0.0188 -0.6505
  358TMC3     O 5417   0.319   3.824   1.567 -0.0738 -0.7077  0.3510
  358TMC3     H 5418   0.195   3.619   1.261  0.8508  2.4219  0.8093
  358TMC3    H1 5419   0.473   3.654   1.579 -0.8186 -0.8764  0.8659
  358TMC3    H2 5420   0.487   3.332   1.306  2.3946  2.1193 -0.3129
  358TMC3    C7 5421   0.609   3.435   1.523  0.1351  0.3501 -0.0466
  358TMC3    C8 5422   0.255   3.384   1.191 -0.0468 -0.1270 -0.2216
  358TMC3    O1 5423   0.681   3.352   1.461  0.4957 -0.4503  0.7505
  358TMC3    O2 5424   0.190   3.449   1.110  0.1399 -0.3694 -0.0502
  359MPD2     C 5425   4.702   2.583  11.957  0.5258  0.0118 -0.5581
  359MPD2    C1 5426   0.007   2.447  11.943 -0.5984  0.5289 -0.7283
  359MPD2    C2 5427   4.647   2.342  11.959 -0.2675  0.4414 -0.7298
  359MPD2    C3 5428   4.513   2.375  11.972 -1.1777  0.0134  0.5237
  359MPD2    C4 5429   4.482   2.513  12.006  0.1608 -0.2328  0.9074
  359MPD2    C5 5430   4.573   2.613  11.992 -0.1273 -0.3955  0.1777
  359MPD2     H 5431   4.685   2.241  11.948  0.0801  0.6393 -1.3283
  359MPD2    H1 5432   4.380   2.549  12.019  0.2092 -0.4155  1.7887
  359MPD2    H2 5433   0.037   2.665  11.958  0.3667  0.1432  1.8277
  359MPD2    H3 5434   4.553   2.719  12.007  1.1427 -0.1016 -0.1617
  359MPD2     N 5435   4.413   2.284  11.995 -0.0205 -0.1984  0.2077
  359MPD2    H5 5436   4.326   2.324  12.030  0.0970  0.0415  0.2254
  359MPD2    N1 5437   0.142   2.404  11.919  0.5534 -0.2069 -0.2901
  359MPD2    H7 5438   0.166   2.305  11.918  0.0729 -0.3287  0.5658
  360TMC3    C1 5439   0.375   2.427  11.887  0.5083 -0.0854 -0.4255
  360TMC3    C2 5440   0.487   2.484  11.933 -0.1687 -0.8831 -0.0198
  360TMC3    C3 5441   0.599   2.452  11.857  0.5317 -0.0319 -0.1476
  360TMC3    C4 5442   0.372   2.343  11.777  0.5339 -0.1976 -0.1519
  360TMC3    C5 5443   0.481   2.325  11.702 -0.3163  0.3792 -0.0520
  360TMC3    C6 5444   0.594   2.381  11.742  0.5273  0.1766 -0.3666
  360TMC3     C 5445   0.250   2.487  11.932 -0.8118 -0.0677  0.2976
  360TMC3     O 5446   0.251   2.603  11.970 -0.7413 -0.6184 -0.2288
  360TMC3     H 5447   0.495   2.522  12.035  1.0667  0.1303 -0.4890
  360TMC3    H1 5448   0.272   2.318  11.742  0.5246 -1.2991  0.6735
  360TMC3    H2 5449   0.686   2.350  11.693  0.2077  0.4923 -1.1607
  360TMC3    C7 5450   0.485   2.263  11.573  0.2273 -0.9685 -0.9355
  360TMC3    C8 5451   0.695   2.560  11.851  0.3028  0.3520  0.1430
  360TMC3    O1 5452   0.587   2.278  11.518 -0.3455  0.0514  0.0670
  360TMC3    O2 5453   0.653   2.670  11.872  0.0343 -0.3200  0.1191
  361MPD2     C 5454   2.201   1.904  16.877 -0.3213 -0.6739  0.4465
  361MPD2    C1 5455   2.149   1.781  16.843  0.3446  0.4955  0.0550
  361MPD2    C2 5456   2.219   1.662  16.858  0.0174  0.2730 -0.0674
  361MPD2    C3 5457   2.340   1.659  16.919  0.6411 -0.7812  0.0352
  361MPD2    C4 5458   2.390   1.782  16.962 -0.3580 -0.3428 -0.0331
  361MPD2    C5 5459   2.324   1.902  16.937 -0.1051 -0.0280  0.2804
  361MPD2     H 5460   2.184   1.568  16.816  2.1553 -0.4560 -0.2629
  361MPD2    H1 5461   2.484   1.790  17.015  0.1862  1.7684 -1.2860
  361MPD2    H2 5462   2.142   1.994  16.857  0.6431 -0.0730  0.3218
  361MPD2    H3 5463   2.371   1.995  16.965  0.1811 -0.6577  1.9012
  361MPD2     N 5464   2.425   1.546  16.928 -0.1615  0.5354  0.2573
  361MPD2    H5 5465   2.510   1.564  16.980 -0.4298  1.2298  0.4634
  361MPD2    N1 5466   2.017   1.780  16.803  0.0214  0.3180  0.5465
  361MPD2    H7 5467   1.982   1.874  16.789  0.0164  0.0304 -1.3494
  362TMC3    C1 5468   1.801   1.716  16.790  0.3356 -0.1560 -0.4068
  362TMC3    C2 5469   1.696   1.648  16.846  0.2675 -0.5315 -0.0494
  362TMC3    C3 5470   1.570   1.682  16.820  0.1785 -0.2333 -0.9039
  362TMC3    C4 5471   1.774   1.816  16.698  0.3952 -0.6602 -0.3831
  362TMC3    C5 5472   1.641   1.843  16.667  0.1868 -0.1804 -0.1699
  362TMC3    C6 5473   1.537   1.785  16.736  0.3732 -0.0034 -0.1931
  362TMC3     C 5474   1.933   1.678  16.825  0.2025 -0.2137  0.1769
  362TMC3     O 5475   1.958   1.565  16.868  0.2544 -0.0719 -0.2495
  362TMC3     H 5476   1.731   1.573  16.916 -1.2942 -0.9640  0.2832
  362TMC3    H1 5477   1.848   1.864  16.635 -0.1461  0.1060 -0.4376
  362TMC3    H2 5478   1.435   1.815  16.718 -0.0383 -0.4543  1.3533
  362TMC3    C7 5479   1.613   1.921  16.546  0.0511  0.2232  0.0096
  362TMC3    C8 5480   1.471   1.644  16.923  0.2316  0.4670 -0.3293
  362TMC3    O1 5481   1.501   1.901  16.496  0.1706 -0.4334  0.5910
  362TMC3    O2 5482   1.503   1.550  16.994  0.4058 -0.0600  0.0222
  363TMC3    C1 5483   1.542   0.170   9.821  0.3000  0.1459 -0.3639
  363TMC3    C2 5484   1.591   0.064   9.903  0.1443 -0.4868  0.7980
  363TMC3    C3 5485   1.537   4.670   9.882  0.2912  0.2525  0.3231
  363TMC3    C4 5486   1.444   0.148   9.728  0.1155  0.2739 -0.6364
  363TMC3    C5 5487   1.386   0.022   9.725  1.1742 -0.0182  0.8214
  363TMC3    C6 5488   1.433   4.650   9.796 -0.2273 -0.2181  0.1660
  363TMC3     C 5489   1.583   0.309   9.849  0.3499 -0.1926  0.4822
  363TMC3     O 5490   1.554   0.390   9.757  0.3902  0.0951 -0.1319
  363TMC3     H 5491   1.689   0.073   9.949 -0.2552  0.3685  1.4942
  363TMC3    H1 5492   1.423   0.227   9.656 -1.0960  0.2650 -0.2902
  363TMC3    H2 5493   1.380   4.555   9.790 -1.5641  0.4913  0.6685
  363TMC3    C7 5494   1.261   0.011   9.651  0.8244 -0.7620  0.3867
  363TMC3    C8 5495   1.551   4.582  10.002 -0.4773  0.1464 -0.2924
  363TMC3    O1 5496   1.188   4.659   9.684 -0.1139  0.4467  0.3635
  363TMC3    O2 5497   1.627   4.629  10.084 -0.2761  0.1358 -0.5898
  364MPD2     C 5498   4.421   3.582  10.152 -0.3310 -0.0006  0.5825
  364MPD2    C1 5499   4.457   3.595  10.285 -0.2527  0.2457 -0.6850
  364MPD2    C2 5500   4.422   3.492  10.362  0.6860  0.3105  0.2552
  364MPD2    C3 5501   4.331   3.397  10.334  0.2911 -0.5433 -0.7143
  364MPD2    C4 5502   4.278   3.408  10.204  0.7959 -0.1731 -0.1904
  364MPD2    C5 5503   4.328   3.488  10.113 -0.0675 -0.0373 -0.8172
  364MPD2     H 5504   4.462   3.483  10.462  2.1981  2.6308 -0.1397
  364MPD2    H1 5505   4.192   3.345  10.187 -0.0480  1.0720 -0.5450
  364MPD2    H2 5506   4.471   3.646  10.080  0.0539 -0.6443  0.2759
  364MPD2    H3 5507   4.302   3.486  10.008 -2.9014 -1.6298 -0.0736
  364MPD2     N 5508   4.284   3.292  10.416  0.2343 -0.2810  0.1731
  364MPD2    H5 5509   4.243   3.213  10.367  0.7739 -1.0721  0.9976
  364MPD2    N1 5510   4.551   3.692  10.324 -0.1430 -0.1077 -0.1953
  364MPD2    H7 5511   4.599   3.739  10.248  0.4003  0.3805  0.4543
  365TMC3    C1 5512   4.689   3.820  10.475  0.6932  0.1086  0.3056
  365TMC3    C2 5513   0.058   3.816  10.381  0.4617  0.3766  0.3700
  365TMC3    C3 5514   0.179   3.865  10.429 -1.0692 -0.0439  0.4330
  365TMC3    C4 5515   4.690   3.884  10.596 -0.4996  0.4977 -0.3231
  365TMC3    C5 5516   0.079   3.939  10.628 -0.2747  0.5754  0.2170
  365TMC3    C6 5517   0.188   3.926  10.547  0.1971  0.5014 -0.9095
  365TMC3     C 5518   4.578   3.737  10.449  0.2052  0.0559  0.1727
  365TMC3     O 5519   4.510   3.717  10.548 -0.2969 -0.2524 -0.1710
  365TMC3     H 5520   0.055   3.756  10.291  0.1639  2.0995 -0.7723
  365TMC3    H1 5521   4.607   3.898  10.664  1.3990  1.0796  1.9100
  365TMC3    H2 5522   0.282   3.966  10.583  0.3147  0.8435 -1.6030
  365TMC3    C7 5523   0.107   3.984  10.767 -0.3668  0.0055 -0.0417
  365TMC3    C8 5524   0.297   3.853  10.354 -0.7289  0.0428 -0.6800
  365TMC3    O1 5525   0.228   4.001  10.796  0.6171  0.6730  0.1024
  365TMC3    O2 5526   0.392   3.869  10.427  0.2694  0.1953 -0.1045
  366MPD2     C 5527   2.855   4.445  15.134 -0.1908 -0.1961  0.0236
  366MPD2    C1 5528   2.905   4.519  15.234  0.1254  0.2765  0.2374
  366MPD2    C2 5529   3.040   4.512  15.261  0.3372  0.2869 -0.0027
  366MPD2    C3 5530   3.129   4.456  15.169 -0.1620  0.4697  0.0591
  366MPD2    C4 5531   3.077   4.399  15.055 -0.2456  0.0490 -0.9481
  366MPD2    C5 5532   2.945   4.372  15.052  0.2419 -0.4516 -0.4952
  366MPD2     H 5533   3.074   4.579  15.339  1.8268 -0.3510 -0.0985
  366MPD2    H1 5534   3.147   4.360  14.982  2.0028 -0.7202  1.6392
  366MPD2    H2 5535   2.749   4.445  15.113  0.3690 -1.9702 -2.7890
  366MPD2    H3 5536   2.913   4.314  14.967 -0.7171  0.6202 -0.8780
  366MPD2     N 5537   3.268   4.459  15.178 -0.7260  0.0445 -1.0845
  366MPD2    H5 5538   3.320   4.394  15.120 -1.6556 -1.2699 -0.4543
  366MPD2    N1 5539   2.833   4.608  15.313 -0.7710 -0.0437  0.0455
  366MPD2    H7 5540   2.883   4.664  15.381  1.4157  0.7172 -2.1970
  367TMC3    C1 5541   2.650   0.011  15.391  0.3202  0.4978  0.2732
  367TMC3    C2 5542   2.752   0.081  15.454  0.3393 -0.0921  0.4322
  367TMC3    C3 5543   2.715   0.195  15.513 -0.3390 -0.3206 -0.4413
  367TMC3    C4 5544   2.523   0.049  15.389 -0.8714 -0.2160 -0.1100
  367TMC3    C5 5545   2.491   0.170  15.450  0.2595 -0.4152  0.0918
  367TMC3    C6 5546   2.591   0.239  15.518  0.2030 -0.1765  0.0759
  367TMC3     C 5547   2.693   4.640  15.300  0.1083  0.6008  0.0508
  367TMC3     O 5548   2.611   4.585  15.231 -0.0135 -0.1443  0.4661
  367TMC3     H 5549   2.858   0.057  15.443  0.4694  2.0528 -2.9500
  367TMC3    H1 5550   2.454   4.730  15.325 -1.8247  0.9057 -0.0451
  367TMC3    H2 5551   2.560   0.325  15.577 -1.1034 -1.4560  1.2319
  367TMC3    C7 5552   2.379   0.252  15.400  0.9806  0.1902  0.0842
  367TMC3    C8 5553   2.826   0.269  15.578  0.5727  0.2558 -0.3670
  367TMC3    O1 5554   2.404   0.373  15.411  0.2691 -0.8798  0.2022
  367TMC3    O2 5555   2.925   0.201  15.610 -0.4960  0.1801  0.8652
  368MPD2     C 5556   3.962   1.873  13.592 -0.0603  0.4149  0.2646
  368MPD2    C1 5557   3.938   1.806  13.475 -0.7447 -0.1927  0.0568
  368MPD2    C2 5558   4.040   1.795  13.379  0.2171  0.5957 -0.0374
  368MPD2    C3 5559   4.166   1.856  13.394 -0.1366 -0.3245 -0.4303
  368MPD2    C4 5560   4.171   1.938  13.501 -0.1655 -0.4190 -0.4811
  368MPD2    C5 5561   4.075   1.939  13.600 -0.1667  0.7224 -1.0256
  368MPD2     H 5562   4.011   1.745  13.287  0.8291  1.0339 -0.4717
  368MPD2    H1 5563   4.256   2.003  13.519 -0.5036 -0.2364  0.4348
  368MPD2    H2 5564   3.895   1.874  13.678  1.1205 -0.1273  1.1882
  368MPD2    H3 5565   4.101   1.992  13.691 -0.8761  0.3966 -0.6358
  368MPD2     N 5566   4.267   1.854  13.297 -0.0774 -0.1456 -0.0680
  368MPD2    H5 5567   4.343   1.917  13.318 -0.9462  1.8198 -2.7668
  368MPD2    N1 5568   3.816   1.751  13.436 -0.0387 -0.5080  0.1264
  368MPD2    H7 5569   3.818   1.700  13.348  0.0014 -0.6908  0.2321
  369TMC3    C1 5570   3.590   1.766  13.381  0.2109  0.0521  0.6114
  369TMC3    C2 5571   3.626   1.800  13.256 -0.6884 -0.2509 -0.4090
  369TMC3    C3 5572   3.528   1.803  13.159 -0.2981 -0.2209  0.1918
  369TMC3    C4 5573   3.457   1.738  13.418 -0.6528  0.0247 -0.7191
  369TMC3    C5 5574   3.367   1.727  13.309 -0.0604  0.0537  0.2346
  369TMC3    C6 5575   3.395   1.770  13.180 -0.0331  0.2159 -0.5054
  369TMC3     C 5576   3.689   1.783  13.483 -0.1289  0.4422  0.0620
  369TMC3     O 5577   3.649   1.848  13.581  0.1821 -0.0523  0.6453
  369TMC3     H 5578   3.721   1.848  13.235 -0.8441 -0.0763 -0.7204
  369TMC3    H1 5579   3.436   1.702  13.519 -0.3358  0.8484 -0.3627
  369TMC3    H2 5580   3.327   1.779  13.097 -0.1640  1.4264 -0.2606
  369TMC3    C7 5581   3.244   1.658  13.341 -0.2410  0.4837  0.4065
  369TMC3    C8 5582   3.562   1.841  13.025  0.1031  0.1156 -0.3679
  369TMC3    O1 5583   3.248   1.578  13.434 -0.5450 -0.2146 -1.2132
  369TMC3    O2 5584   3.482   1.886  12.945  0.2210 -0.1198 -0.0771
  370TMC3    C1 5585   3.461   2.498  16.447  0.0233 -0.2232 -0.7417
  370TMC3    C2 5586   3.387   2.418  16.536 -0.7292  0.6086 -0.3019
  370TMC3    C3 5587   3.310   2.321  16.485  0.2431  0.0730 -0.2463
  370TMC3    C4 5588   3.461   2.468  16.310 -0.1659  0.0055 -0.9538
  370TMC3    C5 5589   3.390   2.360  16.272 -0.1926 -0.0743 -0.2687
  370TMC3    C6 5590   3.317   2.281  16.355  0.0119 -0.1147 -0.5368
  370TMC3     C 5591   3.582   2.575  16.502  0.4569 -0.6088  0.2311
  370TMC3     O 5592   3.614   2.554  16.621  0.2030  0.2895 -0.4476
  370TMC3     H 5593   3.391   2.438  16.643  0.7360  3.7579 -0.9433
  370TMC3    H1 5594   3.521   2.535  16.249  0.6641 -0.1581 -0.3176
  370TMC3    H2 5595   3.259   2.198  16.318 -2.2143  1.5597 -0.8059
  370TMC3    C7 5596   3.387   2.333  16.127  0.4163 -0.5039 -0.4434
  370TMC3    C8 5597   3.251   2.222  16.574  0.0697 -0.1265 -0.1770
  370TMC3    O1 5598   3.389   2.433  16.055  0.2561  0.5436  0.8142
  370TMC3    O2 5599   3.221   2.111  16.533 -0.0065 -0.5223  0.1758
  371TMC3    C1 5600   4.551   0.653  15.664 -0.0533  0.2350 -0.1356
  371TMC3    C2 5601   4.412   0.636  15.675  0.0190 -1.0614 -0.0757
  371TMC3    C3 5602   4.338   0.731  15.727  0.0715 -0.7119 -0.8387
  371TMC3    C4 5603   4.610   0.772  15.698 -0.0082 -0.2518 -0.0573
  371TMC3    C5 5604   4.528   0.870  15.740 -0.1920  0.0807  0.6123
  371TMC3    C6 5605   4.398   0.850  15.771  0.1213 -0.1206  0.1309
  371TMC3     C 5606   4.637   0.539  15.634  0.7363 -0.9759  0.0780
  371TMC3     O 5607   0.007   0.562  15.576 -0.0419 -0.6098 -0.1043
  371TMC3     H 5608   4.361   0.549  15.636 -1.1993 -0.7663  0.8566
  371TMC3    H1 5609   4.717   0.789  15.697 -0.0653  0.1053  0.0311
  371TMC3    H2 5610   4.341   0.930  15.818 -0.6083  0.3989 -1.6245
  371TMC3    C7 5611   4.562   1.006  15.722  0.5474 -0.0928 -0.2546
  371TMC3    C8 5612   4.210   0.739  15.665  0.4123  0.6295  0.4731
  371TMC3    O1 5613   4.467   1.080  15.708 -0.1350 -0.4897 -0.2194
  371TMC3    O2 5614   4.221   0.713  15.545 -0.7312  0.0914  0.5641
  372MPD2     C 5615   4.733   1.688  13.485  0.3138  0.2018  0.0629
  372MPD2    C1 5616   0.060   1.604  13.573 -0.4655  0.6509 -0.5607
  372MPD2    C2 5617   4.734   1.490  13.614 -0.3775  0.1072  0.4160
  372MPD2    C3 5618   4.606   1.456  13.581 -1.2783  0.0078  0.1073
  372MPD2    C4 5619   4.539   1.546  13.494 -0.5878 -0.7080  0.5578
  372MPD2    C5 5620   4.606   1.657  13.444  0.0577 -0.5786 -0.2253
  372MPD2     H 5621   0.055   1.423  13.678  1.4861  0.4780 -0.8238
  372MPD2    H1 5622   4.436   1.527  13.466  0.3791  0.3586 -3.7325
  372MPD2    H2 5623   0.041   1.783  13.456 -2.1304  0.9125 -1.3498
  372MPD2    H3 5624   4.560   1.726  13.373 -0.1088 -0.4776 -0.0189
  372MPD2     N 5625   4.554   1.344  13.650 -0.0313 -0.0606  0.1210
  372MPD2    H5 5626   4.619   1.306  13.718  3.0291 -0.1395 -2.9153
  372MPD2    N1 5627   0.191   1.634  13.618 -1.0738 -0.3066 -0.0234
  372MPD2    H7 5628   0.219   1.584  13.701  2.4601  3.9059  1.3220
  373TMC3    C1 5629   4.384   1.191  13.726  0.3356  0.4492  0.3347
  373TMC3    C2 5630   4.253   1.188  13.752  0.2128 -0.6524  0.7916
  373TMC3    C3 5631   4.198   1.076  13.805 -0.2200  0.2544 -0.1821
  373TMC3    C4 5632   4.457   1.076  13.737 -0.5515 -0.6372 -0.2626
  373TMC3    C5 5633   4.396   0.965  13.793 -0.0701 -0.1097 -0.8536
  373TMC3    C6 5634   4.264   0.958  13.815 -0.2510 -0.0119 -0.5179
  373TMC3     C 5635   4.428   1.291  13.629 -0.1468 -0.1646 -0.1708
  373TMC3     O 5636   4.335   1.347  13.568  0.0816  0.7306 -0.2251
  373TMC3     H 5637   4.188   1.273  13.738 -0.1953 -1.1880 -0.5604
  373TMC3    H1 5638   4.556   1.073  13.694  0.1185 -0.9451  1.2950
  373TMC3    H2 5639   4.214   0.872  13.859  1.8228 -1.0222 -0.1473
  373TMC3    C7 5640   4.477   0.845  13.770 -0.2205  0.2010 -0.2798
  373TMC3    C8 5641   4.059   1.083  13.853 -0.2368 -0.2080  0.3718
  373TMC3    O1 5642   4.596   0.855  13.789 -0.0415  0.2352  0.6373
  373TMC3    O2 5643   3.988   0.995  13.809  0.4159 -0.2708  0.3243
  374TMC3    C1 5644   4.631   1.535   9.845  0.6592  0.7270  0.3992
  374TMC3    C2 5645   4.733   1.622   9.859  0.2051  0.1186  0.6634
  374TMC3    C3 5646   4.728   1.732   9.780 -0.3358  0.6720 -0.3133
  374TMC3    C4 5647   4.525   1.565   9.764 -0.4114  0.1273  0.0949
  374TMC3    C5 5648   4.523   1.677   9.686  0.3413 -0.1016 -0.5474
  374TMC3    C6 5649   4.628   1.765   9.694  0.8805  1.0816  0.1060
  374TMC3     C 5650   4.625   1.409   9.922 -0.4634  0.5305 -0.2394
  374TMC3     O 5651   4.519   1.350   9.923  0.5516  0.3162 -0.6072
  374TMC3     H 5652   0.068   1.610   9.940  0.5251  0.4976  0.4415
  374TMC3    H1 5653   4.447   1.491   9.755 -1.1258  0.8306  0.4874
  374TMC3    H2 5654   4.621   1.859   9.641  0.1177  0.0944 -1.5841
  374TMC3    C7 5655   4.432   1.681   9.569  0.0551  0.7230  0.8111
  374TMC3    C8 5656   0.084   1.846   9.801 -0.6686 -0.0151  0.4193
  374TMC3    O1 5657   4.463   1.746   9.465 -0.0503  0.1311  0.0715
  374TMC3    O2 5658   0.050   1.955   9.759 -0.4718 -0.1720 -0.5226
  375MPD2     C 5659   0.188   2.396  17.076 -0.0052 -0.1320 -0.0608
  375MPD2    C1 5660   0.128   2.416  16.955  0.1467 -0.2880 -0.1308
  375MPD2    C2 5661   0.200   2.398  16.839  0.0633 -0.4696 -0.5497
  375MPD2    C3 5662   0.334   2.379  16.846  0.9445 -0.2328 -1.1357
  375MPD2    C4 5663   0.394   2.368  16.970 -0.0052  0.5025  0.5344
  375MPD2    C5 5664   0.324   2.394  17.085 -0.4602 -0.4461 -0.8891
  375MPD2     H 5665   0.140   2.403  16.749  1.3517  1.5070 -1.2926
  375MPD2    H1 5666   0.499   2.342  16.983 -0.0397  0.7563  1.3308
  375MPD2    H2 5667   0.129   2.398  17.167  1.7782  0.3363  1.0868
  375MPD2    H3 5668   0.374   2.401  17.181 -0.2451 -0.7534 -0.9790
  375MPD2     N 5669   0.421   2.366  16.735 -0.2972 -0.3684  0.6037
  375MPD2    H5 5670   0.519   2.367  16.759  0.0495  1.5707 -0.9464
  375MPD2    N1 5671   4.725   2.433  16.945  0.5757  0.6373 -0.0577
  375MPD2    H7 5672   4.680   2.452  16.856  0.4918  0.9576  0.0542
  376TMC3    C1 5673   0.487   2.319  16.513 -0.8559 -0.3817  0.8737
  376TMC3    C2 5674   0.615   2.303  16.567  0.2256 -0.2975 -0.0711
  376TMC3    C3 5675   0.705   2.226  16.499  0.0272  0.6476 -0.3772
  376TMC3    C4 5676   0.456   2.258  16.396 -0.0599 -0.3681 -0.0715
  376TMC3    C5 5677   0.545   2.173  16.338  0.2642  0.1400  0.4678
  376TMC3    C6 5678   0.669   2.152  16.391  0.2510  0.0804  0.5332
  376TMC3     C 5679   0.381   2.360  16.603  0.5985  0.2167  0.1494
  376TMC3     O 5680   0.272   2.381  16.562  0.1623 -0.0034 -0.1110
  376TMC3     H 5681   0.652   2.380  16.634 -2.0683 -0.5212  1.4412
  376TMC3    H1 5682   0.353   2.272  16.364 -0.6154 -0.4741  1.6363
  376TMC3    H2 5683   0.740   2.088  16.339 -0.0367  0.9605 -0.9487
  376TMC3    C7 5684   0.516   2.113  16.209 -0.2656 -0.2768 -0.3586
  376TMC3    C8 5685   0.835   2.291  16.493 -0.2803  0.5395 -0.0415
  376TMC3    O1 5686   0.551   1.999  16.180  0.2822  0.2579  0.3834
  376TMC3    O2 5687   0.883   2.330  16.390  0.3461 -0.0207  0.1662
  377MPD2     C 5688   3.091   2.063  13.117 -1.2980 -0.0320  0.0940
  377MPD2    C1 5689   3.011   2.135  13.035 -0.4545  0.4034  0.0531
  377MPD2    C2 5690   2.880   2.155  13.073  0.1257  0.4034 -0.0767
  377MPD2    C3 5691   2.823   2.085  13.178  0.2746  0.4622  0.1175
  377MPD2    C4 5692   2.913   2.024  13.263 -0.6365  0.1260 -0.1892
  377MPD2    C5 5693   3.041   2.007  13.231  0.8258  0.3143 -0.7051
  377MPD2     H 5694   2.822   2.218  13.006 -1.0612 -0.7524 -0.1294
  377MPD2    H1 5695   2.871   1.977  13.351  0.3041 -0.8809 -0.2876
  377MPD2    H2 5696   3.195   2.039  13.098  0.1258  2.5326  4.6578
  377MPD2    H3 5697   3.116   1.951  13.287 -1.5917 -0.7913  1.4403
  377MPD2     N 5698   2.687   2.072  13.211  0.6165 -0.0045  0.8399
  377MPD2    H5 5699   2.672   2.016  13.295  1.4747 -1.4654  0.0153
  377MPD2    N1 5700   3.086   2.177  12.921 -0.1435 -0.3575 -0.3193
  377MPD2    H7 5701   3.182   2.148  12.907  0.2688  1.6684 -1.7404
  378TMC3    C1 5702   3.114   2.333  12.485 -0.1487  0.5159 -0.7611
  378TMC3    C2 5703   3.095   2.359  12.616 -0.0455  0.6147  0.5021
  378TMC3    C3 5704   3.102   2.252  12.699  0.0342 -0.2312  0.8755
  378TMC3    C4 5705   3.163   2.216  12.441  0.7410  0.3182  0.4318
  378TMC3    C5 5706   3.190   2.118  12.533  0.1028 -0.4042 -0.3477
  378TMC3    C6 5707   3.165   2.136  12.668 -0.2546  0.2492  0.0797
  378TMC3     C 5708   3.032   2.415  12.397  0.1022  0.0332  0.0284
  378TMC3     O 5709   2.947   2.486  12.448  0.3017  0.1876 -0.5965
  378TMC3     H 5710   3.044   2.452  12.642 -0.1579  0.9474 -0.9558
  378TMC3    H1 5711   3.186   2.200  12.337  0.5683 -0.9114  0.5800
  378TMC3    H2 5712   3.189   2.060  12.741 -0.0685  0.1361 -0.0978
  378TMC3    C7 5713   3.281   2.014  12.496 -0.3878  0.2314  0.1316
  378TMC3    C8 5714   3.035   2.261  12.826  0.2489  0.3792  0.1385
  378TMC3    O1 5715   3.350   1.972  12.589 -0.1711  0.6678 -0.1780
  378TMC3    O2 5716   2.942   2.339  12.835  0.1362  0.0055  0.1021
  379MPD2     C 5717   3.322   0.313  16.442 -0.5909 -0.4691  0.3985
  379MPD2    C1 5718   3.448   0.313  16.389  0.6908  0.2072  0.6943
  379MPD2    C2 5719   3.551   0.252  16.460  0.0774 -0.2194  0.2950
  379MPD2    C3 5720   3.522   0.200  16.589  1.2878 -0.1709 -0.6125
  379MPD2    C4 5721   3.395   0.209  16.648 -0.1674 -0.6089  0.5518
  379MPD2    C5 5722   3.298   0.267  16.565  0.1709  0.4187  0.4932
  379MPD2     H 5723   3.654   0.275  16.435 -0.4455  0.7951 -0.9170
  379MPD2    H1 5724   3.364   0.174  16.745  1.0317  2.1690  1.9429
  379MPD2    H2 5725   3.253   0.373  16.384  1.7981  0.1407 -1.8072
  379MPD2    H3 5726   3.198   0.265  16.606 -0.0011 -1.6957 -0.0515
  379MPD2     N 5727   3.627   0.157  16.670 -0.0815 -0.3263  0.0692
  379MPD2    H5 5728   3.604   0.134  16.765  0.7619 -1.5603 -0.0332
  379MPD2    N1 5729   3.476   0.394  16.278  0.0574  0.3186 -0.0571
  379MPD2    H7 5730   3.398   0.448  16.242  1.8445  3.5442  0.8269
  380TMC3    C1 5731   3.566   0.447  16.066  0.2429  0.3103 -0.9221
  380TMC3    C2 5732   3.623   0.380  15.961  0.3333 -0.5195 -0.1468
  380TMC3    C3 5733   3.579   0.403  15.830 -0.4116 -0.1322  0.8257
  380TMC3    C4 5734   3.464   0.531  16.053 -0.6387  0.7190  0.1476
  380TMC3    C5 5735   3.414   0.548  15.924 -0.2646 -0.4969  0.0535
  380TMC3    C6 5736   3.464   0.479  15.816  0.3553 -0.8167 -0.5833
  380TMC3     C 5737   3.583   0.378  16.194 -0.1016 -0.9885  0.5005
  380TMC3     O 5738   3.677   0.296  16.204 -0.0567  0.3400 -0.5738
  380TMC3     H 5739   3.701   0.305  15.961  2.5381  1.7789 -0.3837
  380TMC3    H1 5740   3.418   0.581  16.138 -0.7080  0.2082  0.4119
  380TMC3    H2 5741   3.421   0.491  15.717  0.6601 -1.7243 -0.8282
  380TMC3    C7 5742   3.277   0.595  15.917 -0.0766 -0.3937  0.0651
  380TMC3    C8 5743   3.681   0.410  15.724 -0.0342  0.1782  0.7472
  380TMC3    O1 5744   3.255   0.678  16.006  0.1828 -0.2791 -0.0071
  380TMC3    O2 5745   3.650   0.489  15.631  0.0416 -0.0476  0.2479
  381TMC3    C1 5746   3.343   1.394  16.039 -0.6452  0.0599  0.7300
  381TMC3    C2 5747   3.435   1.489  16.082  0.0549 -0.6541 -0.1521
  381TMC3    C3 5748   3.398   1.575  16.181  0.4695 -0.0701 -0.2777
  381TMC3    C4 5749   3.228   1.375  16.116 -0.5766  0.3381  0.3184
  381TMC3    C5 5750   3.202   1.460  16.221  0.7957 -0.2772 -0.3339
  381TMC3    C6 5751   3.287   1.568  16.251  0.3871 -0.0916  0.2171
  381TMC3     C 5752   3.404   1.278  15.983  0.2133 -0.1514 -0.1408
  381TMC3     O 5753   3.525   1.273  15.981 -0.0621 -0.5996 -0.0495
  381TMC3     H 5754   3.520   1.506  16.017 -0.3022  1.2970 -0.0969
  381TMC3    H1 5755   3.170   1.286  16.095  0.0040 -0.5129  2.2536
  381TMC3    H2 5756   3.258   1.643  16.324 -0.8932 -0.0818 -0.3077
  381TMC3    C7 5757   3.128   1.390  16.326  0.2665 -0.1501  0.0398
  381TMC3    C8 5758   3.479   1.699  16.185  0.3766  0.5910  0.0206
  381TMC3    O1 5759   3.132   1.266  16.332  0.5053  0.2596 -0.2279
  381TMC3    O2 5760   3.553   1.727  16.092 -0.7417 -0.1228 -0.3169
  382MPD2     C 5761   1.815   4.396  17.618  0.0328  0.5235  0.0463
  382MPD2    C1 5762   1.942   4.391  17.571 -0.4498 -0.6450 -0.2219
  382MPD2    C2 5763   1.980   4.275  17.510 -0.4487  0.2958 -0.3291
  382MPD2    C3 5764   1.892   4.168  17.503 -0.2181 -0.0582  0.1726
  382MPD2    C4 5765   1.761   4.175  17.552 -0.4960  0.7434 -0.8376
  382MPD2    C5 5766   1.727   4.291  17.608 -0.0824  0.8040 -0.3822
  382MPD2     H 5767   2.083   4.268  17.479 -0.5565  0.0967 -0.6431
  382MPD2    H1 5768   1.696   4.088  17.561 -1.4420  1.3750 -1.4808
  382MPD2    H2 5769   1.780   4.471  17.688 -0.1698 -0.3295  0.8696
  382MPD2    H3 5770   1.635   4.286  17.665  1.2537  1.4185  1.8373
  382MPD2     N 5771   1.942   4.038  17.456 -0.2690 -0.2285  0.2903
  382MPD2    H5 5772   1.880   3.960  17.438 -1.0968  1.2028 -3.1638
  382MPD2    N1 5773   2.039   4.492  17.590 -0.5620 -0.3703  0.4066
  382MPD2    H7 5774   2.129   4.471  17.549 -0.6384 -2.5588  1.3698
  383TMC3    C1 5775   2.098   3.865  17.416 -0.7542 -0.0862  0.0462
  383TMC3    C2 5776   2.003   3.779  17.361 -0.3025  1.2513  0.8949
  383TMC3    C3 5777   2.039   3.646  17.354 -0.2726 -0.8909  0.2838
  383TMC3    C4 5778   2.220   3.811  17.449 -0.2589 -0.5139 -0.7124
  383TMC3    C5 5779   2.250   3.677  17.425  0.2430  0.1797  0.4940
  383TMC3    C6 5780   2.156   3.592  17.375 -0.2357  0.3013  0.6884
  383TMC3     C 5781   2.074   4.005  17.429  0.5642  0.6075 -0.5168
  383TMC3     O 5782   2.177   4.073  17.446 -0.3181  0.0328  0.3371
  383TMC3     H 5783   1.910   3.820  17.323  1.0462 -0.0192 -3.8035
  383TMC3    H1 5784   2.301   3.873  17.486 -1.0582  0.2565 -0.2571
  383TMC3    H2 5785   2.191   3.494  17.344 -0.1754 -0.2984  2.6646
  383TMC3    C7 5786   2.362   3.607  17.494  0.2199 -0.3433  0.7852
  383TMC3    C8 5787   1.931   3.557  17.294 -0.4650  0.2458 -0.2292
  383TMC3    O1 5788   2.361   3.483  17.508  0.0971  0.1222  0.3067
  383TMC3    O2 5789   1.840   3.611  17.232  0.4839 -0.7492 -0.0672
  384MPD2     C 5790   4.184   4.700  12.295  0.4814 -0.0925  0.2336
  384MPD2    C1 5791   4.189   4.649  12.422  0.1191  0.5205  0.2199
  384MPD2    C2 5792   4.267   4.542  12.448 -0.0281 -0.5497  0.0062
  384MPD2    C3 5793   4.345   4.482  12.349 -0.0931  0.2915  0.1228
  384MPD2    C4 5794   4.338   4.536  12.223 -0.0224 -0.3219 -0.3736
  384MPD2    C5 5795   4.252   4.642  12.193 -0.2230  0.5063 -0.0344
  384MPD2     H 5796   4.270   4.510  12.551 -0.4992 -1.4919 -0.2807
  384MPD2    H1 5797   4.389   4.489  12.140  3.5359 -0.5343  1.9481
  384MPD2    H2 5798   4.118   0.049  12.276  0.7219 -0.4043 -1.9443
  384MPD2    H3 5799   4.243   4.680  12.092 -1.1464  1.9720  0.6007
  384MPD2     N 5800   4.411   4.359  12.370 -0.1966 -0.1210 -0.4821
  384MPD2    H5 5801   4.483   4.328  12.305  1.1057  1.7745  0.0597
  384MPD2    N1 5802   4.101   4.696  12.523  0.4742  0.2295 -0.2259
  384MPD2    H7 5803   4.119   4.655  12.614  1.3863  3.0442  0.8591
  385TMC3    C1 5804   4.464   4.157  12.476 -0.3991  0.1265  0.0736
  385TMC3    C2 5805   4.394   4.093  12.374  0.9602 -0.4938 -0.6884
  385TMC3    C3 5806   4.344   3.968  12.405 -0.2798  0.1763 -0.2455
  385TMC3    C4 5807   4.483   4.096  12.598 -0.5996  0.0310 -0.2715
  385TMC3    C5 5808   4.436   3.974  12.621 -0.0205  0.7477  0.0663
  385TMC3    C6 5809   4.378   3.902  12.521 -0.7910 -0.0500 -0.5148
  385TMC3     C 5810   4.415   4.291  12.490 -0.3361  0.3570 -0.2610
  385TMC3     O 5811   4.373   4.324  12.600 -0.7297  0.5081  0.5765
  385TMC3     H 5812   4.386   4.133  12.273  0.4924 -0.2473 -0.5545
  385TMC3    H1 5813   4.537   4.149  12.675 -0.1645 -1.7648  0.6703
  385TMC3    H2 5814   4.345   3.800  12.534 -0.9254  0.0665  0.0822
  385TMC3    C7 5815   4.362   3.961  12.750  0.3791  0.3980  0.3095
  385TMC3    C8 5816   4.331   3.878  12.291  0.9721  0.6345  0.2120
  385TMC3    O1 5817   4.302   3.857  12.771  0.4082  0.1277  0.2182
  385TMC3    O2 5818   4.367   3.761  12.308  0.2315  0.0662  0.2337
  386TMC3    C1 5819   4.258   1.625  11.711 -0.4206 -0.8279 -0.3370
  386TMC3    C2 5820   4.299   1.668  11.586  0.5138  0.1081 -0.6432
  386TMC3    C3 5821   4.199   1.703  11.490  0.2247 -0.1010  0.2203
  386TMC3    C4 5822   4.126   1.623  11.752 -0.1698  0.2076  0.0509
  386TMC3    C5 5823   4.035   1.665  11.655  0.5187  0.3449  0.6879
  386TMC3    C6 5824   4.068   1.702  11.525 -0.1390 -0.2937 -0.0713
  386TMC3     C 5825   4.366   1.602  11.809 -0.6347  0.6936  0.4231
  386TMC3     O 5826   4.465   1.669  11.781  0.5059  0.2040  0.0310
  386TMC3     H 5827   4.404   1.663  11.557  0.0603  1.9868 -2.6097
  386TMC3    H1 5828   4.109   1.623  11.859  1.2626  1.0393  0.2813
  386TMC3    H2 5829   4.000   1.738  11.449 -2.1164 -3.5811  0.1597
  386TMC3    C7 5830   3.913   1.735  11.707 -0.8836 -0.2758 -0.1886
  386TMC3    C8 5831   4.232   1.750  11.359  0.2496  0.0380  0.0117
  386TMC3    O1 5832   3.870   1.697  11.812 -0.0557  0.2426  0.2447
  386TMC3    O2 5833   4.145   1.739  11.273 -0.3192  0.0173 -0.3415
  387MPD2     C 5834   2.258   2.472  10.038  0.3658  0.2320 -0.1726
  387MPD2    C1 5835   2.382   2.408  10.049  0.5416 -0.3371  0.7264
  387MPD2    C2 5836   2.378   2.269  10.025  0.2220  0.0023 -0.1483
  387MPD2    C3 5837   2.268   2.197   9.990  1.2212  0.1558  0.3906
  387MPD2    C4 5838   2.150   2.262   9.988 -0.4929 -0.3094  0.8112
  387MPD2    C5 5839   2.147   2.397  10.007  0.4355  0.4960 -0.1971
  387MPD2     H 5840   2.475   2.221  10.027  0.0225 -0.2980  1.8811
  387MPD2    H1 5841   2.059   2.219   9.948  0.0754  0.2069 -1.0306
  387MPD2    H2 5842   2.243   2.578  10.058  1.7446  0.5845 -0.9914
  387MPD2    H3 5843   2.055   2.450   9.984 -0.1220 -0.3216  0.1612
  387MPD2     N 5844   2.274   2.059   9.971  0.1040 -0.0711  0.0699
  387MPD2    H5 5845   2.367   2.018   9.971  0.0157 -0.2744 -0.3473
  387MPD2    N1 5846   2.502   2.470  10.080  0.3016 -0.3248 -0.6868
  387MPD2    H7 5847   2.582   2.409  10.066  1.0375  0.7411 -1.1518
  388TMC3    C1 5848   2.640   2.619  10.199  0.5795 -0.1900 -1.0041
  388TMC3    C2 5849   2.636   2.729  10.279 -0.0916 -0.2812 -0.1202
  388TMC3    C3 5850   2.702   2.729  10.398 -0.0917  0.2753 -0.0125
  388TMC3    C4 5851   2.712   2.512  10.227  1.0818  0.0732  0.3899
  388TMC3    C5 5852   2.769   2.513  10.356  0.1994  0.1161 -0.4455
  388TMC3    C6 5853   2.763   2.618  10.444 -0.4692 -0.2264 -0.4510
  388TMC3     C 5854   2.509   2.593  10.133  0.2739 -0.3016 -0.3903
  388TMC3     O 5855   2.424   2.681  10.151 -0.4439 -0.4172  0.0840
  388TMC3     H 5856   2.580   2.816  10.247 -1.7986 -1.0348  0.8149
  388TMC3    H1 5857   2.727   2.432  10.156 -0.5627 -0.9748  1.2396
  388TMC3    H2 5858   2.814   2.604  10.539  2.7254  1.2496 -1.9527
  388TMC3    C7 5859   2.809   2.379  10.412  0.3529 -0.1776 -0.3624
  388TMC3    C8 5860   2.684   2.845  10.487  0.3421 -0.4768  0.2783
  388TMC3    O1 5861   2.848   2.367  10.525  0.1612  0.6951 -0.3815
  388TMC3    O2 5862   2.735   2.837  10.594  0.2674  0.0179 -1.0521
  389MPD2     C 5863   0.943   0.624  11.438 -0.1862 -0.2686  0.1862
  389MPD2    C1 5864   0.989   0.524  11.349 -0.8617 -0.2677 -0.4430
  389MPD2    C2 5865   1.050   0.409  11.392 -0.1767  0.7130 -0.1054
  389MPD2    C3 5866   1.064   0.380  11.529 -0.1749  0.3481 -0.2700
  389MPD2    C4 5867   1.036   0.481  11.622 -0.4661  0.7592  0.1433
  389MPD2    C5 5868   0.970   0.597  11.572 -0.7624 -0.4254  0.1170
  389MPD2     H 5869   1.090   0.337  11.322  1.0182  0.2949  1.0098
  389MPD2    H1 5870   1.047   0.476  11.730  1.1110  1.3699  0.0126
  389MPD2    H2 5871   0.905   0.721  11.410 -0.9428 -1.2531 -2.2442
  389MPD2    H3 5872   0.929   0.665  11.645 -0.9073  0.4854 -0.8164
  389MPD2     N 5873   1.114   0.261  11.592  0.2067 -0.4949  0.2767
  389MPD2    H5 5874   1.125   0.262  11.693 -1.2197  1.8081  0.4065
  389MPD2    N1 5875   0.988   0.548  11.213 -0.4141  0.3238  0.3198
  389MPD2    H7 5876   1.048   0.489  11.157 -2.3152 -1.3898  0.0511
  390TMC3    C1 5877   1.216   0.050  11.608  0.4181  0.0574 -0.0601
  390TMC3    C2 5878   1.158   4.663  11.592 -0.1813  0.3108  0.5650
  390TMC3    C3 5879   1.115   4.606  11.711  0.4689 -0.0209 -0.5050
  390TMC3    C4 5880   1.247   0.097  11.736  0.2358  0.4572 -0.2036
  390TMC3    C5 5881   1.209   0.033  11.850 -0.1432  0.3865  0.0080
  390TMC3    C6 5882   1.136   4.658  11.838  0.6699  0.3133  0.0910
  390TMC3     C 5883   1.158   0.149  11.523  0.3285 -0.4514  0.1784
  390TMC3     O 5884   1.158   0.128  11.400  0.0648 -0.3058 -0.2709
  390TMC3     H 5885   1.126   4.630  11.494  3.4119  1.0555 -0.8392
  390TMC3    H1 5886   1.309   0.185  11.750 -0.9702  1.1645  0.6840
  390TMC3    H2 5887   1.103   4.603  11.925 -0.0505  1.4242  0.5215
  390TMC3    C7 5888   1.133   0.136  11.926 -0.2349  0.5666  0.6059
  390TMC3    C8 5889   1.017   4.510  11.700 -0.1475  0.5131 -0.0850
  390TMC3    O1 5890   1.139   0.254  11.885  0.2839  0.6326 -0.5784
  390TMC3    O2 5891   1.024   4.424  11.616 -0.1185 -0.5517 -0.0751
  391MPD2     C 5892   0.829   1.656  11.054  0.2526  0.2838 -0.5593
  391MPD2    C1 5893   0.930   1.733  11.008  0.4497  0.2768  0.0532
  391MPD2    C2 5894   0.950   1.748  10.872  0.5548  0.8823 -0.5259
  391MPD2    C3 5895   0.861   1.689  10.784  0.7305 -0.0950 -0.0279
  391MPD2    C4 5896   0.759   1.612  10.834  0.9313  0.4416  0.0289
  391MPD2    C5 5897   0.748   1.594  10.972 -0.3079 -0.0093  0.2311
  391MPD2     H 5898   1.026   1.813  10.829  1.1442 -0.3275 -1.3124
  391MPD2    H1 5899   0.705   1.540  10.774  1.2830  0.7194 -0.6293
  391MPD2    H2 5900   0.816   1.624  11.157  0.5203  1.0100 -0.2986
  391MPD2    H3 5901   0.683   1.515  11.008 -1.9062 -0.3294 -3.3196
  391MPD2     N 5902   0.880   1.701  10.643  0.1360 -0.5382  0.4025
  391MPD2    H5 5903   0.968   1.744  10.616 -0.0118 -0.0851  0.6438
  391MPD2    N1 5904   1.016   1.791  11.097  0.1404  0.8583  0.4006
  391MPD2    H7 5905   0.981   1.804  11.191 -0.9023 -0.2509  0.1761
  392TMC3    C1 5906   0.840   1.701  10.415 -0.3335  0.3554 -0.7409
  392TMC3    C2 5907   0.752   1.680  10.307 -0.7625  0.4959  0.1290
  392TMC3    C3 5908   0.773   1.749  10.193  0.1125 -0.5672  0.4442
  392TMC3    C4 5909   0.958   1.763  10.393  0.1917 -0.2931  0.0352
  392TMC3    C5 5910   0.971   1.822  10.274  0.0158  0.6611 -0.1283
  392TMC3    C6 5911   0.877   1.827  10.178  0.4532  0.8069  0.2159
  392TMC3     C 5912   0.798   1.651  10.543 -0.4173 -0.0854 -0.2069
  392TMC3     O 5913   0.693   1.591  10.560  0.5813 -0.4504  0.0232
  392TMC3     H 5914   0.666   1.614  10.305 -0.1471 -0.3693  1.6816
  392TMC3    H1 5915   1.045   1.764  10.457  0.7127 -0.9015 -0.6568
  392TMC3    H2 5916   0.896   1.869  10.080  0.7573 -0.4110 -0.2405
  392TMC3    C7 5917   1.068   1.921  10.262  0.2282 -0.3779 -1.0808
  392TMC3    C8 5918   0.668   1.755  10.095 -0.2629  0.0227 -0.5423
  392TMC3    O1 5919   1.039   2.031  10.218  0.0830  0.4057 -0.0116
  392TMC3    O2 5920   0.592   1.661  10.102  0.0047  0.5604  0.3832
  393TMC3    C1 5921   4.030   0.034  11.341  0.8894 -0.6593 -0.7170
  393TMC3    C2 5922   3.902   0.074  11.364 -0.0457 -0.6453 -0.2842
  393TMC3    C3 5923   3.866   0.103  11.492  0.3988  0.2426 -0.6016
  393TMC3    C4 5924   4.127   0.017  11.436  0.4005  0.2621 -1.0514
  393TMC3    C5 5925   4.092   0.066  11.561 -0.5004  0.0522  1.0695
  393TMC3    C6 5926   3.961   0.113  11.593 -0.3621 -0.3368 -0.4241
  393TMC3     C 5927   4.075   0.006  11.206  0.3738  0.1205 -0.0503
  393TMC3     O 5928   4.190   0.016  11.177  0.4074 -0.1345  0.4294
  393TMC3     H 5929   3.831   0.098  11.286 -1.1908 -1.3884  0.5364
  393TMC3    H1 5930   4.223   4.717  11.400  0.9176 -0.0322  0.6098
  393TMC3    H2 5931   3.940   0.138  11.696 -1.8566 -4.4770  0.3069
  393TMC3    C7 5932   4.192   0.068  11.662  0.1128 -0.6791  0.2227
  393TMC3    C8 5933   3.731   0.159  11.533  0.4841 -0.0291 -0.4446
  393TMC3    O1 5934   4.157   0.031  11.779  0.2181 -0.3463  0.5401
  393TMC3    O2 5935   3.733   0.217  11.637  0.5118  0.5549  0.1723
  394TMC3    C1 5936   0.915   0.617  11.016  0.4971  0.1873 -0.2133
  394TMC3    C2 5937   0.805   0.626  10.931 -0.5745 -0.0819 -0.0279
  394TMC3    C3 5938   0.826   0.620  10.799  0.2940  0.1933  0.1646
  394TMC3    C4 5939   1.042   0.608  10.969  0.0619  0.8399  0.2388
  394TMC3    C5 5940   1.056   0.607  10.831  0.1631  0.1856  0.5866
  394TMC3    C6 5941   0.953   0.608  10.742 -0.0016 -0.0984  0.4196
  394TMC3     C 5942   0.903   0.639  11.156  0.7495 -0.3130  0.4197
  394TMC3     O 5943   0.800   0.696  11.192 -0.3359 -0.1513 -0.0801
  394TMC3     H 5944   0.705   0.635  10.973 -1.0477 -0.6843 -1.0156
  394TMC3    H1 5945   1.126   0.619  11.035 -0.1969 -1.6473  0.9593
  394TMC3    H2 5946   0.971   0.613  10.635 -1.4906  3.4390  0.3230
  394TMC3    C7 5947   1.189   0.631  10.774 -0.4752  0.0146  0.2032
  394TMC3    C8 5948   0.705   0.606  10.721  0.0168  0.1505  0.0952
  394TMC3    O1 5949   1.201   0.690  10.670 -0.5931 -0.1497  0.2891
  394TMC3    O2 5950   0.606   0.679  10.740 -0.0356  0.0420 -0.0322
  395TMC3    C1 5951   1.037   2.518  14.387  0.7158 -0.3738  0.4684
  395TMC3    C2 5952   0.911   2.556  14.387  0.4829  1.0282  0.3584
  395TMC3    C3 5953   0.873   2.658  14.468 -0.8390  0.5213  0.3209
  395TMC3    C4 5954   1.129   2.582  14.460 -0.0154  0.1724  0.8206
  395TMC3    C5 5955   1.099   2.694  14.529  0.0016 -0.1147 -0.5065
  395TMC3    C6 5956   0.971   2.733  14.529 -0.0485 -0.0318  0.4798
  395TMC3     C 5957   1.047   2.377  14.385  0.3621 -0.0136  0.4904
  395TMC3     O 5958   1.042   2.314  14.279  0.7720  0.2071 -0.2708
  395TMC3     H 5959   0.835   2.511  14.325 -1.1050  2.6296  1.1398
  395TMC3    H1 5960   1.233   2.550  14.458  0.2715  1.1939 -0.7313
  395TMC3    H2 5961   0.949   2.826  14.581 -1.8014 -0.9120  1.3057
  395TMC3    C7 5962   1.196   2.784  14.592  0.2148  0.9361  0.4425
  395TMC3    C8 5963   0.755   2.639  14.549  0.1037 -0.4951 -0.1860
  395TMC3    O1 5964   1.150   2.866  14.668 -0.3120  0.6794  0.2760
  395TMC3    O2 5965   0.716   2.732  14.616  0.1634  0.2255  0.6032
  396MPD2     C 5966   0.348   3.540  17.270  0.0421 -0.7788 -0.7721
  396MPD2    C1 5967   0.477   3.575  17.313 -0.1244  0.0852  0.1824
  396MPD2    C2 5968   0.537   3.681  17.255 -0.3283 -0.0931 -0.6052
  396MPD2    C3 5969   0.486   3.752  17.151  0.0836 -0.3830  0.2558
  396MPD2    C4 5970   0.363   3.713  17.101 -0.1801  0.0982  0.6052
  396MPD2    C5 5971   0.300   3.612  17.167 -0.2527 -0.3885 -0.4181
  396MPD2     H 5972   0.638   3.708  17.284  0.4184 -1.9204 -1.4595
  396MPD2    H1 5973   0.311   3.765  17.022 -0.5558  1.0761  1.4890
  396MPD2    H2 5974   0.296   3.454  17.310  0.8825 -0.3825  1.1692
  396MPD2    H3 5975   0.201   3.586  17.131 -0.8566 -0.7610  1.5453
  396MPD2     N 5976   0.582   3.850  17.094 -0.1715  0.3156 -0.1284
  396MPD2    H5 5977   0.674   3.853  17.138  0.0908  0.6445 -0.6968
  396MPD2    N1 5978   0.546   3.482  17.396 -0.2967  0.5419 -0.0798
  396MPD2    H7 5979   0.495   3.396  17.416  0.0384  0.1099 -1.0712
  397TMC3    C1 5980   0.704   3.383  17.528  0.3701  0.0878 -0.5433
  397TMC3    C2 5981   0.830   3.331  17.499  0.3220  0.9124  0.2411
  397TMC3    C3 5982   0.831   3.206  17.444 -0.1464  0.4026  0.3505
  397TMC3    C4 5983   0.600   3.298  17.559 -0.5602  0.1883 -0.2592
  397TMC3    C5 5984   0.623   3.161  17.541  0.5031 -0.8383  0.1762
  397TMC3    C6 5985   0.729   3.114  17.467  0.4085 -0.2261  0.3137
  397TMC3     C 5986   0.675   3.487  17.436 -0.0599 -0.1294  0.0535
  397TMC3     O 5987   0.758   3.575  17.416 -0.1140  0.2762 -0.4107
  397TMC3     H 5988   0.902   3.407  17.472 -1.4511  1.8856 -1.7131
  397TMC3    H1 5989   0.507   3.338  17.597 -0.3353  0.8888 -0.4464
  397TMC3    H2 5990   0.734   3.008  17.446 -0.1929  0.0133 -1.0087
  397TMC3    C7 5991   0.540   3.071  17.615  0.4585 -0.4747  0.3994
  397TMC3    C8 5992   0.913   3.180  17.324  0.1468  0.2009 -0.4184
  397TMC3    O1 5993   0.524   2.961  17.564 -0.0294 -0.0659  0.2445
  397TMC3    O2 5994   0.886   3.093  17.244 -0.5239  0.1217 -0.0617
  398MPD2     C 5995   3.764   0.633   0.362 -0.0770  0.4440 -0.2163
  398MPD2    C1 5996   3.885   0.574   0.335 -0.0276 -0.2673 -0.1415
  398MPD2    C2 5997   3.999   0.650   0.322  0.1401 -0.4101 -0.4004
  398MPD2    C3 5998   3.996   0.790   0.334  0.5106  0.2113  0.4766
  398MPD2    C4 5999   3.874   0.848   0.352 -0.1636 -0.1534  0.3427
  398MPD2    C5 6000   3.763   0.769   0.362 -1.2009 -0.2791  0.3945
  398MPD2     H 6001   4.098   0.607   0.318  0.2468 -0.2941  0.7155
  398MPD2    H1 6002   3.859   0.955   0.344 -1.4282 -0.4893 -1.9130
  398MPD2    H2 6003   3.674   0.572   0.364  1.0705 -1.2397  0.4918
  398MPD2    H3 6004   3.665   0.816   0.368 -0.2029  1.8995 -0.3060
  398MPD2     N 6005   4.115   0.860   0.323 -0.4648  0.8397  0.2359
  398MPD2    H5 6006   4.197   0.812   0.287  0.3334  1.7784  0.8119
  398MPD2    N1 6007   3.901   0.434   0.354 -0.1640 -0.2649 -0.0226
  398MPD2    H7 6008   3.993   0.391   0.356 -1.0151 -2.0793 -0.0392
  399TMC3    C1 6009   3.834   0.209   0.399 -0.1840 -0.2885 -0.1278
  399TMC3    C2 6010   3.929   0.189   0.495 -0.2420  0.5245  0.1889
  399TMC3    C3 6011   3.944   0.058   0.537 -0.2418 -0.6911 -0.3824
  399TMC3    C4 6012   3.764   0.113   0.336  0.1107 -0.0756  0.1441
  399TMC3    C5 6013   3.799   4.719   0.364  0.4330  0.1022 -0.5223
  399TMC3    C6 6014   3.886   4.689   0.468 -0.0958 -0.2597  0.3166
  399TMC3     C 6015   3.797   0.350   0.375 -0.2232 -0.6203  0.8074
  399TMC3     O 6016   3.679   0.361   0.350  0.1969  0.4214 -0.3312
  399TMC3     H 6017   3.956   0.266   0.566 -0.0779  1.1122 -0.5112
  399TMC3    H1 6018   3.688   0.146   0.266 -0.5393 -0.0357  0.8731
  399TMC3    H2 6019   3.923   4.588   0.483  2.1404  0.6799  1.2187
  399TMC3    C7 6020   3.710   4.616   0.311  0.2767  0.2393 -0.3817
  399TMC3    C8 6021   4.035   0.032   0.642  0.1283  0.4749 -0.2484
  399TMC3    O1 6022   3.708   4.514   0.372 -0.2966  0.0602 -0.1451
  399TMC3    O2 6023   4.130   0.111   0.652  0.0534  0.0078 -0.3872
  400TMC3    C1 6024   2.426   3.443  17.087 -0.0607  0.1636  0.2290
  400TMC3    C2 6025   2.331   3.377  17.010  0.2039  0.2397 -0.3369
  400TMC3    C3 6026   2.227   3.453  16.960 -0.2395  0.1174  0.4169
  400TMC3    C4 6027   2.425   3.575  17.109 -0.8307  0.0049 -0.1238
  400TMC3    C5 6028   2.319   3.645  17.066 -0.4385 -0.4786  0.2576
  400TMC3    C6 6029   2.222   3.590  16.987  0.1435 -0.5667  0.4937
  400TMC3     C 6030   2.514   3.355  17.160 -0.0661  0.1833  0.4308
  400TMC3     O 6031   2.492   3.232  17.150 -0.2664 -0.2089  0.6263
  400TMC3     H 6032   2.339   3.269  17.001  0.8262  0.2698 -0.1753
  400TMC3    H1 6033   2.506   3.630  17.156 -1.6918  0.6850  0.5506
  400TMC3    H2 6034   2.143   3.639  16.931  0.7441 -0.5252 -0.3258
  400TMC3    C7 6035   2.321   3.790  17.088 -0.3858 -0.6533 -0.2519
  400TMC3    C8 6036   2.118   3.386  16.890  0.3149  0.7091  0.2223
  400TMC3    O1 6037   2.423   3.835  17.141 -0.1992  0.0682 -0.4042
  400TMC3    O2 6038   2.012   3.449  16.875 -0.0839 -0.0945  0.1261
  401MPD2     C 6039   0.217   2.224   0.781 -0.0056 -0.7223  0.0456
  401MPD2    C1 6040   0.289   2.156   0.866 -0.2538 -0.4620 -0.4070
  401MPD2    C2 6041   0.242   2.035   0.907 -0.1853 -0.8983 -0.0256
  401MPD2    C3 6042   0.124   1.981   0.859 -0.0262  0.3852 -0.2717
  401MPD2    C4 6043   0.055   2.056   0.765 -0.6520 -0.0336 -0.2753
  401MPD2    C5 6044   0.101   2.180   0.724  0.0366  0.2739  0.0924
  401MPD2     H 6045   0.302   1.979   0.979  1.7556 -0.4395 -1.2910
  401MPD2    H1 6046   4.702   2.014   0.718 -0.5738 -1.5779  1.0001
  401MPD2    H2 6047   0.232   2.329   0.759 -1.3366 -0.2447  1.4526
  401MPD2    H3 6048   0.054   2.243   0.649  1.0583  1.5475  0.5242
  401MPD2     N 6049   0.057   1.867   0.907 -0.3930  0.0499 -0.0815
  401MPD2    H5 6050   4.710   1.830   0.862  0.9570 -0.8274 -1.8242
  401MPD2    N1 6051   0.407   2.193   0.923 -0.1099  0.7829  0.5694
  401MPD2    H7 6052   0.464   2.130   0.978 -0.2315 -1.8563 -2.3355
  402TMC3    C1 6053   0.043   1.664   1.011 -0.5094  0.1791 -0.5054
  402TMC3    C2 6054   0.086   1.587   1.117  0.0960 -0.3535  0.0453
  402TMC3    C3 6055   0.168   1.479   1.093 -0.5002 -0.2541  0.5547
  402TMC3    C4 6056   0.051   1.610   0.887 -0.4062  0.3181 -0.0569
  402TMC3    C5 6057   0.116   1.489   0.862 -0.8552 -0.3783  0.1048
  402TMC3    C6 6058   0.186   1.434   0.962 -0.1781 -0.1303 -0.6123
  402TMC3     C 6059   0.098   1.798   1.016  0.3533  0.3317  0.0069
  402TMC3     O 6060   0.176   1.829   1.110  0.4857  0.1687 -0.3232
  402TMC3     H 6061   0.068   1.632   1.214 -2.4876  0.2470 -0.7047
  402TMC3    H1 6062   4.735   1.657   0.804 -0.5412  1.5129  0.7026
  402TMC3    H2 6063   0.227   1.334   0.971 -0.3920 -0.1228  0.4710
  402TMC3    C7 6064   0.096   1.418   0.735 -0.9857 -0.3258  0.5150
  402TMC3    C8 6065   0.267   1.434   1.186 -0.4402  0.0412 -0.2850
  402TMC3    O1 6066   0.019   1.469   0.656 -0.0094 -0.0975  0.3309
  402TMC3    O2 6067   0.365   1.376   1.140  0.5123  0.0031  0.5715
  403MPD2     C 6068   3.888   3.727  13.216  0.1660 -0.4104 -0.1480
  403MPD2    C1 6069   3.854   3.852  13.267  0.2327 -0.6283 -0.2171
  403MPD2    C2 6070   3.943   3.915  13.350 -0.0975 -0.0537 -0.0019
  403MPD2    C3 6071   4.064   3.853  13.383  0.6411  0.1796  0.1039
  403MPD2    C4 6072   4.104   3.732  13.328  0.8467 -0.4466  0.1419
  403MPD2    C5 6073   4.012   3.674  13.242  0.0772 -0.0866 -0.6142
  403MPD2     H 6074   3.925   4.009  13.401 -0.3815 -1.7719  3.0675
  403MPD2    H1 6075   4.204   3.694  13.347  1.6160  1.1229 -0.7466
  403MPD2    H2 6076   3.825   3.663  13.156 -1.1267  2.5754 -1.9801
  403MPD2    H3 6077   4.036   3.585  13.184 -3.7125 -2.4492  1.5275
  403MPD2     N 6078   4.141   3.927  13.477  0.0496 -0.7595 -0.2790
  403MPD2    H5 6079   4.098   4.013  13.509  2.0485 -0.2735  1.1427
  403MPD2    N1 6080   3.726   3.907  13.251 -0.3172 -0.3511  0.0129
  403MPD2    H7 6081   3.665   3.852  13.191 -0.0789 -0.1667 -0.4020
  404TMC3    C1 6082   3.529   3.991  13.313  0.5986 -0.0000  0.0590
  404TMC3    C2 6083   3.452   3.992  13.423  1.0995 -0.5862 -0.7622
  404TMC3    C3 6084   3.314   4.006  13.411  0.2811 -0.2081 -0.4610
  404TMC3    C4 6085   3.483   4.043  13.195  0.0700  0.0676  0.2110
  404TMC3    C5 6086   3.349   4.071  13.191  0.8431 -0.7022  0.5015
  404TMC3    C6 6087   3.265   4.053  13.292 -0.6380  0.2876  0.4404
  404TMC3     C 6088   3.670   3.992  13.338  0.2631 -0.8371  0.4520
  404TMC3     O 6089   3.718   4.065  13.427  0.1359  0.1995  0.6380
  404TMC3     H 6090   3.499   3.946  13.509  0.4707 -0.0322 -0.1093
  404TMC3    H1 6091   3.554   4.058  13.114  0.0980  1.9509  0.5881
  404TMC3    H2 6092   3.162   4.085  13.297 -0.0323  2.6747 -2.1839
  404TMC3    C7 6093   3.309   4.138  13.073 -0.4432 -0.4449 -0.0495
  404TMC3    C8 6094   3.230   3.986  13.527 -0.5510  0.3118  0.2846
  404TMC3    O1 6095   3.393   4.196  13.004  0.0714  0.3563  0.2048
  404TMC3    O2 6096   3.110   3.961  13.507  0.4839 -0.4412 -0.4486
  405MPD2     C 6097   4.294   0.705  14.841 -1.1193 -0.5403  0.0026
  405MPD2    C1 6098   4.227   0.610  14.767 -0.0723  0.6301 -0.4349
  405MPD2    C2 6099   4.169   0.652  14.652 -0.1952  0.5508  0.1698
  405MPD2    C3 6100   4.179   0.779  14.606 -0.5855  0.1245  0.1864
  405MPD2    C4 6101   4.249   0.872  14.688  0.2274  0.4217  0.5396
  405MPD2    C5 6102   4.308   0.835  14.801 -0.5703  0.1406 -0.6022
  405MPD2     H 6103   4.100   0.591  14.593 -0.4954  2.4329 -1.4154
  405MPD2    H1 6104   4.257   0.976  14.661 -1.6407  0.0274 -1.5366
  405MPD2    H2 6105   4.336   0.682  14.939  0.5741  2.8251  0.0674
  405MPD2    H3 6106   4.364   0.904  14.863  0.5864  0.4922 -2.0482
  405MPD2     N 6107   4.110   0.806  14.483  0.4823 -0.0336  0.1893
  405MPD2    H5 6108   4.054   0.730  14.446  1.9818 -1.7416  1.4383
  405MPD2    N1 6109   4.213   0.481  14.825 -0.1394 -0.0362  0.3101
  405MPD2    H7 6110   4.243   0.472  14.922 -0.0546  1.0318  0.3789
  406TMC3    C1 6111   3.825   0.961  14.210  0.4092  0.4626  0.0812
  406TMC3    C2 6112   3.805   0.840  14.158 -0.7753 -0.6105 -0.2822
  406TMC3    C3 6113   3.902   0.748  14.174  0.0483 -0.3123 -0.2164
  406TMC3    C4 6114   3.941   1.002  14.263 -0.6321  0.0920  0.0931
  406TMC3    C5 6115   4.034   0.909  14.286 -0.1118  0.7705  0.1636
  406TMC3    C6 6116   4.015   0.782  14.238 -0.3270 -0.4176  0.5672
  406TMC3     C 6117   3.713   1.060  14.212  0.3046  0.1679  0.3958
  406TMC3     O 6118   3.740   1.180  14.222  0.1243  0.4386  0.2884
  406TMC3     H 6119   3.710   0.809  14.116 -0.3341 -0.8574 -1.0993
  406TMC3    H1 6120   3.952   1.100  14.306  1.5792  0.1011 -0.5173
  406TMC3    H2 6121   4.093   0.708  14.255  1.5823  1.4247 -0.0917
  406TMC3    C7 6122   4.108   0.924  14.412 -0.3216  0.4907  0.4295
  406TMC3    C8 6123   3.860   0.609  14.154  0.3536 -0.1792 -1.0418
  406TMC3    O1 6124   4.138   1.040  14.448 -0.2885 -0.3296  0.2161
  406TMC3    O2 6125   3.752   0.578  14.102  0.5664  0.8213 -0.4058
  407MPD2     C 6126   1.431   2.310   9.940 -0.0723 -0.1550 -0.6254
  407MPD2    C1 6127   1.551   2.254   9.977  0.2819 -0.3602 -0.0776
  407MPD2    C2 6128   1.650   2.342  10.027  0.4568  0.4754  0.2216
  407MPD2    C3 6129   1.635   2.480  10.030 -1.0561  0.2588 -0.5737
  407MPD2    C4 6130   1.520   2.529   9.964 -0.6261 -0.1212 -0.1417
  407MPD2    C5 6131   1.425   2.439   9.923 -0.1237 -0.3671  0.9209
  407MPD2     H 6132   1.740   2.296  10.066 -1.1092 -1.8845  1.0596
  407MPD2    H1 6133   1.505   2.635   9.951 -0.3530 -0.0271  0.3060
  407MPD2    H2 6134   1.348   2.249   9.905  0.2812  0.5501 -2.6981
  407MPD2    H3 6135   1.339   2.478   9.870  0.2645  0.9105  1.2188
  407MPD2     N 6136   1.728   2.569  10.072 -1.2273  0.7568 -0.0401
  407MPD2    H5 6137   1.710   2.665  10.046 -0.7364  1.1624  1.1073
  407MPD2    N1 6138   1.590   2.119   9.974  0.1473  0.2832 -0.2797
  407MPD2    H7 6139   1.681   2.088  10.007 -0.8963 -2.9311 -0.3649
  408TMC3    C1 6140   1.585   1.884   9.921  0.7759 -0.1710  0.2840
  408TMC3    C2 6141   1.705   1.880   9.869 -0.5454  0.0067  0.3268
  408TMC3    C3 6142   1.751   1.776   9.792  0.3468  0.1654  0.0608
  408TMC3    C4 6143   1.498   1.774   9.911  0.3479 -0.3364  0.7322
  408TMC3    C5 6144   1.552   1.675   9.842  0.2675  0.9125 -0.8358
  408TMC3    C6 6145   1.666   1.675   9.770 -0.9640 -0.5242  0.0200
  408TMC3     C 6146   1.510   2.013   9.949 -0.4396 -0.2051 -0.2338
  408TMC3     O 6147   1.389   2.009   9.936 -0.5287 -0.1297  0.4182
  408TMC3     H 6148   1.765   1.969   9.889  1.2524 -0.8416 -1.3910
  408TMC3    H1 6149   1.408   1.765   9.971 -0.0590 -0.7176  0.0681
  408TMC3    H2 6150   1.695   1.595   9.703  0.4792  0.1175 -0.1438
  408TMC3    C7 6151   1.456   1.565   9.833 -0.4364  0.5267 -0.4341
  408TMC3    C8 6152   1.873   1.785   9.720  0.3220  0.0289 -0.2374
  408TMC3    O1 6153   1.412   1.518   9.730  0.3626 -0.8960 -0.4405
  408TMC3    O2 6154   1.914   1.683   9.658  0.2006  0.0528  0.2878
  409MPD2     C 6155   0.784   2.687  16.782 -0.0440  0.3553 -0.7318
  409MPD2    C1 6156   0.869   2.673  16.887 -0.2647  0.3150  0.0617
  409MPD2    C2 6157   0.968   2.769  16.909  0.1145 -0.1746 -0.3399
  409MPD2    C3 6158   0.985   2.871  16.819  0.4610 -0.2119  1.0956
  409MPD2    C4 6159   0.895   2.886  16.715 -0.5245 -0.6552 -0.7030
  409MPD2    C5 6160   0.798   2.785  16.693 -0.2815 -0.0793 -0.4803
  409MPD2     H 6161   1.049   2.748  16.978  0.1049 -1.3769 -0.6914
  409MPD2    H1 6162   0.911   2.960  16.637  0.2680 -0.3428 -0.2410
  409MPD2    H2 6163   0.705   2.616  16.761 -2.6218  2.4785  2.0376
  409MPD2    H3 6164   0.739   2.784  16.602 -0.1605  0.1377 -0.5608
  409MPD2     N 6165   1.092   2.971  16.825  0.1162 -0.3857 -0.2761
  409MPD2    H5 6166   1.095   3.039  16.749  1.1785 -0.6137 -0.4302
  409MPD2    N1 6167   0.849   2.572  16.979  0.4510  0.2914  0.2876
  409MPD2    H7 6168   0.922   2.580  17.049  0.9612  3.7044 -0.6284
  410TMC3    C1 6169   1.288   3.085  16.883 -0.2742 -1.5887 -0.0208
  410TMC3    C2 6170   1.343   3.165  16.974  0.5058  0.6215  0.0197
  410TMC3    C3 6171   1.428   3.262  16.936 -0.8794  0.3622 -0.4650
  410TMC3    C4 6172   1.322   3.101  16.750 -0.6369  0.2405  0.4446
  410TMC3    C5 6173   1.403   3.202  16.714  0.1840  0.7500 -0.6241
  410TMC3    C6 6174   1.464   3.276  16.807  0.4503 -0.1653  0.1252
  410TMC3     C 6175   1.190   2.988  16.922  0.9785 -0.4351  0.0669
  410TMC3     O 6176   1.212   2.929  17.028 -0.1107  0.0693  0.0658
  410TMC3     H 6177   1.312   3.158  17.078  0.8982  0.2385  0.1123
  410TMC3    H1 6178   1.289   3.025  16.680  4.3218 -1.8780  0.4185
  410TMC3    H2 6179   1.543   3.346  16.784  1.5842 -1.9015 -1.2830
  410TMC3    C7 6180   1.464   3.189  16.586  0.3042 -0.1723 -0.4843
  410TMC3    C8 6181   1.530   3.305  17.020 -0.7533 -0.0699 -0.6797
  410TMC3    O1 6182   1.487   3.080  16.535 -0.4591  0.2396  0.0738
  410TMC3    O2 6183   1.576   3.421  17.009 -0.1558  0.3357  0.8046
  411MPD2     C 6184   1.221   3.134  14.259 -0.0219  0.2622 -0.3607
  411MPD2    C1 6185   1.168   3.170  14.380  0.6203 -0.0312  0.5961
  411MPD2    C2 6186   1.046   3.118  14.419  0.3408  0.2454  0.5308
  411MPD2    C3 6187   0.970   3.034  14.337  0.2570 -0.1486  0.2563
  411MPD2    C4 6188   1.028   3.000  14.215  0.3708 -0.7196  0.2018
  411MPD2    C5 6189   1.149   3.044  14.180 -0.8108  0.7605 -0.4566
  411MPD2     H 6190   0.993   3.168  14.500 -0.8133 -1.2523  0.7097
  411MPD2    H1 6191   0.981   2.919  14.159  0.5309 -0.5420 -0.1898
  411MPD2    H2 6192   1.319   3.165  14.226 -0.1518 -0.8037 -1.7426
  411MPD2    H3 6193   1.200   3.007  14.092 -1.1164 -0.4745 -0.1154
  411MPD2     N 6194   0.836   3.007  14.359 -0.6661 -0.5444  0.7375
  411MPD2    H5 6195   0.787   2.952  14.288  2.6462 -1.6688 -0.6675
  411MPD2    N1 6196   1.241   3.271  14.450 -0.7531  0.4897 -0.5289
  411MPD2    H7 6197   1.328   3.301  14.408  0.1346  0.4575  1.3011
  412TMC3    C1 6198   0.622   3.030  14.434 -0.5346  0.2251  0.0280
  412TMC3    C2 6199   0.576   3.071  14.311  1.1769 -0.1501  0.1850
  412TMC3    C3 6200   0.446   3.056  14.278 -0.4294  0.1745  0.1986
  412TMC3    C4 6201   0.535   2.986  14.531 -0.0365  0.3428  0.4109
  412TMC3    C5 6202   0.417   2.940  14.486  0.1198  0.0203 -0.5900
  412TMC3    C6 6203   0.370   2.982  14.361 -0.0807 -0.3814  0.4592
  412TMC3     C 6204   0.761   3.051  14.470 -0.4009  0.1293  0.0418
  412TMC3     O 6205   0.791   3.085  14.581  0.1905 -0.2599 -0.0578
  412TMC3     H 6206   0.640   3.124  14.242 -0.7044 -0.7014 -1.9965
  412TMC3    H1 6207   0.578   2.939  14.618  0.6813 -1.0545 -0.6885
  412TMC3    H2 6208   0.277   2.936  14.330  0.5478 -1.7334  0.5766
  412TMC3    C7 6209   0.398   2.798  14.503  0.3872 -0.0903  0.3925
  412TMC3    C8 6210   0.417   3.044  14.139  0.4294  0.3826 -0.3625
  412TMC3    O1 6211   0.329   2.752  14.594 -0.3076 -0.4643  0.2103
  412TMC3    O2 6212   0.512   3.009  14.064 -0.5094  0.6536  0.0144
  413MPD2     C 6213   3.090   2.150  15.432  0.2942  0.5858 -0.1479
  413MPD2    C1 6214   3.002   2.082  15.349  0.3502 -1.0623  0.0561
  413MPD2    C2 6215   3.049   1.984  15.262 -0.5402 -0.2017 -0.5572
  413MPD2    C3 6216   3.176   1.936  15.281  0.4934 -0.6331 -0.3347
  413MPD2    C4 6217   3.261   1.994  15.365  0.0113  0.4385  0.3415
  413MPD2    C5 6218   3.215   2.099  15.441 -0.6049 -0.3215  0.2502
  413MPD2     H 6219   2.988   1.930  15.192 -0.3871  0.0611 -0.8927
  413MPD2    H1 6220   3.365   1.961  15.369  0.4001  1.4251 -1.3494
  413MPD2    H2 6221   3.065   2.224  15.507  2.8002  0.2245  1.0465
  413MPD2    H3 6222   3.287   2.134  15.514 -1.6420 -0.8674  1.5203
  413MPD2     N 6223   3.203   1.827  15.194  0.2356 -0.7207  0.1704
  413MPD2    H5 6224   3.123   1.795  15.140 -0.3018 -1.7921  1.6067
  413MPD2    N1 6225   2.867   2.127  15.343 -0.3950  0.0446 -0.5531
  413MPD2    H7 6226   2.837   2.190  15.418  2.2789  0.4030  0.2410
  414TMC3    C1 6227   3.343   1.667  15.082  0.1719  0.1779  0.6377
  414TMC3    C2 6228   3.408   1.558  15.111 -0.3546 -1.0042 -0.6848
  414TMC3    C3 6229   3.406   1.458  15.011 -0.7265  1.2194  0.0184
  414TMC3    C4 6230   3.293   1.685  14.958  0.2634  0.0515 -0.1420
  414TMC3    C5 6231   3.295   1.599  14.855 -0.4303 -0.2350 -0.3106
  414TMC3    C6 6232   3.344   1.475  14.888 -0.0807 -0.1084 -1.4712
  414TMC3     C 6233   3.323   1.755  15.194  0.0672  1.0291 -0.7720
  414TMC3     O 6234   3.410   1.762  15.280  0.2482 -0.4294  0.0597
  414TMC3     H 6235   3.446   1.542  15.211 -0.9958  0.2147 -0.2502
  414TMC3    H1 6236   3.232   1.773  14.951  0.5309  0.0287 -3.0728
  414TMC3    H2 6237   3.355   1.400  14.811 -0.2438  0.4477 -2.0340
  414TMC3    C7 6238   3.241   1.633  14.724  0.2031  0.0103  0.1013
  414TMC3    C8 6239   3.517   1.362  15.007 -0.0243 -0.0814  0.5030
  414TMC3    O1 6240   3.146   1.708  14.711 -0.3277 -0.1957 -0.1051
  414TMC3    O2 6241   3.530   1.276  14.927 -0.2198 -0.2107 -0.0467
  415TMC3    C1 6242   3.887   4.183  10.091 -0.0885  0.3731 -0.5401
  415TMC3    C2 6243   3.956   4.263  10.002  0.2384  0.1336 -0.3516
  415TMC3    C3 6244   3.941   4.238   9.867  0.4250 -0.0495  0.5994
  415TMC3    C4 6245   3.804   4.082  10.052 -0.2969  0.5595  0.1577
  415TMC3    C5 6246   3.790   4.062   9.915  0.0205 -0.2337  0.2337
  415TMC3    C6 6247   3.855   4.137   9.822 -1.0891 -0.0710  0.0433
  415TMC3     C 6248   3.943   4.177  10.229 -0.3324  0.4928 -0.3237
  415TMC3     O 6249   3.882   4.114  10.315 -0.1088  0.3374  0.0576
  415TMC3     H 6250   3.978   4.365  10.030  1.5029 -0.4118  0.5985
  415TMC3    H1 6251   3.761   4.021  10.130 -1.3127 -0.2556 -1.0473
  415TMC3    H2 6252   3.836   4.118   9.717  0.3059 -1.2242  0.0012
  415TMC3    C7 6253   3.715   3.945   9.872 -0.5333 -0.0265  0.3925
  415TMC3    C8 6254   3.958   4.351   9.779  0.2311 -0.2580  0.3429
  415TMC3    O1 6255   3.730   3.903   9.757  0.3751 -0.3238 -0.1827
  415TMC3    O2 6256   3.865   4.357   9.703 -0.0726  0.4360  0.1884
  416MPD2     C 6257   0.743   2.772  11.450 -0.3224 -0.3364 -0.1116
  416MPD2    C1 6258   0.616   2.720  11.444 -0.4665  0.8493  0.1854
  416MPD2    C2 6259   0.581   2.634  11.344 -0.3963  0.0029  0.1759
  416MPD2    C3 6260   0.671   2.606  11.245  0.9226 -0.7719 -0.4875
  416MPD2    C4 6261   0.801   2.651  11.262 -0.0845 -0.9829 -0.7461
  416MPD2    C5 6262   0.829   2.749  11.351 -0.1722  0.0909 -0.4628
  416MPD2     H 6263   0.479   2.599  11.331  0.1035 -1.0006 -1.1233
  416MPD2    H1 6264   0.882   2.636  11.192 -0.7831  1.3544 -2.0989
  416MPD2    H2 6265   0.775   2.838  11.530  0.0556  0.0827 -0.6154
  416MPD2    H3 6266   0.925   2.799  11.359  0.1780 -0.6184 -0.2598
  416MPD2     N 6267   0.643   2.526  11.138  0.6463  0.1802  0.0373
  416MPD2    H5 6268   0.719   2.480  11.089 -0.2524  1.0807 -2.2098
  416MPD2    N1 6269   0.523   2.778  11.546  0.1859 -0.8368 -0.0596
  416MPD2    H7 6270   0.549   2.836  11.625  0.5917  0.0133 -0.8051
  417TMC3    C1 6271   0.314   2.832  11.649 -0.5821  1.1359 -0.2594
  417TMC3    C2 6272   0.387   2.853  11.765  0.3022 -0.3096  0.5813
  417TMC3    C3 6273   0.356   2.953  11.848 -0.4432 -0.1962  0.4205
  417TMC3    C4 6274   0.215   2.919  11.610  0.1705 -1.2053  0.3681
  417TMC3    C5 6275   0.194   3.020  11.692 -0.1255 -0.3355 -0.3968
  417TMC3    C6 6276   0.264   3.038  11.808 -0.1416  0.6493  0.0100
  417TMC3     C 6277   0.388   2.765  11.536 -0.4761 -0.6162 -0.0851
  417TMC3     O 6278   0.318   2.719  11.448  0.2930 -0.9269 -0.2796
  417TMC3     H 6279   0.465   2.785  11.798  0.7258 -1.0023 -1.8555
  417TMC3    H1 6280   0.162   2.896  11.519  3.2600 -1.1073 -1.4587
  417TMC3    H2 6281   0.238   3.116  11.878 -0.8753  1.8035 -1.5366
  417TMC3    C7 6282   0.104   3.129  11.645 -0.8514 -0.0862  0.6152
  417TMC3    C8 6283   0.388   2.955  11.993  0.2420 -0.4351 -0.0195
  417TMC3    O1 6284   0.143   3.240  11.660 -0.7532 -0.5578  0.6620
  417TMC3    O2 6285   0.308   3.009  12.068 -0.5146 -0.0490 -0.1645
  418TMC3    C1 6286   4.453   0.906   0.283 -0.4137 -0.2135 -0.2277
  418TMC3    C2 6287   4.335   0.960   0.249 -0.0880  0.3303 -0.0883
  418TMC3    C3 6288   4.267   1.027   0.343  0.1892 -0.0969  0.6923
  418TMC3    C4 6289   4.511   0.910   0.413 -0.0858 -0.1793  0.0465
  418TMC3    C5 6290   4.435   0.978   0.503 -0.5101  0.4027 -0.2560
  418TMC3    C6 6291   4.314   1.031   0.470 -1.0026  0.7846 -0.4815
  418TMC3     C 6292   4.526   0.869   0.167  0.0843  0.4668  0.1946
  418TMC3     O 6293   4.509   0.944   0.071  0.4377  0.3040 -0.1379
  418TMC3     H 6294   4.301   0.963   0.147 -0.5204 -1.7126  0.0013
  418TMC3    H1 6295   4.610   0.872   0.434  0.1263  1.0785  1.3930
  418TMC3    H2 6296   4.240   1.073   0.538 -0.7902 -0.3552  0.4417
  418TMC3    C7 6297   4.466   0.931   0.638  0.0632  0.2338  0.0775
  418TMC3    C8 6298   4.130   0.990   0.345 -0.0108 -0.5124 -0.2049
  418TMC3    O1 6299   4.530   0.829   0.644 -0.5294 -0.2255  0.2280
  418TMC3    O2 6300   4.054   1.058   0.407 -0.4959  0.1164 -0.5381
  419MPD2     C 6301   2.967   3.265  11.971 -0.0638  0.1090  0.3966
  419MPD2    C1 6302   2.838   3.317  11.987  0.2477 -0.1673 -0.5869
  419MPD2    C2 6303   2.775   3.305  12.107  0.2239  0.3942 -1.0964
  419MPD2    C3 6304   2.844   3.253  12.215 -0.5132  0.5134  0.5749
  419MPD2    C4 6305   2.978   3.209  12.198 -0.9149 -0.4560  0.2062
  419MPD2    C5 6306   3.036   3.216  12.080  0.1496  0.2609  0.1458
  419MPD2     H 6307   2.670   3.334  12.110  0.8546  2.6443 -0.8705
  419MPD2    H1 6308   3.039   3.168  12.276 -1.2238 -0.5733  0.3866
  419MPD2    H2 6309   3.008   3.263  11.870  0.9279 -0.2201  0.8004
  419MPD2    H3 6310   3.133   3.172  12.061 -0.8634 -1.0351 -1.9825
  419MPD2     N 6311   2.772   3.244  12.337  0.0663 -0.2636  0.0856
  419MPD2    H5 6312   2.673   3.265  12.332  0.1402  0.3424  1.1923
  419MPD2    N1 6313   2.764   3.389  11.882  0.7090 -0.4199 -0.7145
  419MPD2    H7 6314   2.667   3.405  11.906  0.3676 -1.6116 -1.2725
  420TMC3    C1 6315   2.725   3.181  12.554 -0.3704 -0.1436 -0.0754
  420TMC3    C2 6316   2.590   3.202  12.515 -0.3737  0.2359  0.8098
  420TMC3    C3 6317   2.504   3.231  12.614 -0.9344 -0.1377 -0.2814
  420TMC3    C4 6318   2.763   3.204  12.687  0.1350  0.4385 -0.0305
  420TMC3    C5 6319   2.668   3.251  12.774 -0.6165  0.4204 -0.5460
  420TMC3    C6 6320   2.539   3.263  12.741  0.0113 -0.4185  1.2971
  420TMC3     C 6321   2.826   3.200  12.454 -0.4759  0.1303  0.4966
  420TMC3     O 6322   2.943   3.182  12.486 -0.5853  0.6937  0.3093
  420TMC3     H 6323   2.554   3.187  12.413  0.6240  2.1797  0.1638
  420TMC3    H1 6324   2.867   3.205  12.718 -0.0091 -0.4738  0.4993
  420TMC3    H2 6325   2.471   3.281  12.823  1.8008  2.3352  2.1588
  420TMC3    C7 6326   2.712   3.288  12.904  0.3010 -0.0828 -0.4403
  420TMC3    C8 6327   2.366   3.197  12.596  0.0518 -0.0333 -0.6433
  420TMC3    O1 6328   2.802   3.222  12.957 -0.3417  0.0585  0.2997
  420TMC3    O2 6329   2.324   3.196  12.478 -0.6948 -0.2018  0.0661
  421TMC3    C1 6330   4.277   3.967  13.658  0.0859 -0.3681  0.2989
  421TMC3    C2 6331   4.226   4.092  13.671  0.3141 -0.1397  0.4931
  421TMC3    C3 6332   4.230   4.139  13.798  0.2039  0.6278 -0.2747
  421TMC3    C4 6333   4.318   3.890  13.763 -0.0412 -0.0722  0.1179
  421TMC3    C5 6334   4.325   3.947  13.890  0.1461  0.7274  0.0808
  421TMC3    C6 6335   4.269   4.074  13.913 -0.8109 -0.1278 -0.1669
  421TMC3     C 6336   4.257   3.892  13.535  0.0462  0.2132  0.6716
  421TMC3     O 6337   4.327   3.794  13.510  0.5469 -0.1985 -0.1015
  421TMC3     H 6338   4.184   4.154  13.593  0.0601 -0.8563  0.0566
  421TMC3    H1 6339   4.335   3.784  13.753 -1.7878 -0.2786 -0.5613
  421TMC3    H2 6340   4.287   4.116  14.011  0.6674 -0.5586 -0.2400
  421TMC3    C7 6341   4.384   3.874  13.997  0.6280 -0.1672  0.3742
  421TMC3    C8 6342   4.195   4.280  13.816  0.3173  0.0920  0.6192
  421TMC3    O1 6343   4.361   3.754  14.002  0.1172  0.3572  0.1220
  421TMC3    O2 6344   4.215   4.360  13.726 -0.9661 -0.1196 -0.0691
  422TMC3    C1 6345   1.729   0.950  12.720 -0.0934 -0.1790 -0.0048
  422TMC3    C2 6346   1.735   1.049  12.815 -0.1981 -0.0462 -0.2516
  422TMC3    C3 6347   1.624   1.085  12.879  0.1168  0.3757 -0.1528
  422TMC3    C4 6348   1.609   0.879  12.704  0.3346  0.6591 -0.3100
  422TMC3    C5 6349   1.502   0.923  12.776 -0.1454 -0.1267  0.5386
  422TMC3    C6 6350   1.501   1.026  12.867  0.8500  0.0742  0.2375
  422TMC3     C 6351   1.833   0.965  12.622 -0.0856 -0.5163  0.2822
  422TMC3     O 6352   1.872   1.081  12.618  0.3738  0.3235 -0.3229
  422TMC3     H 6353   1.828   1.099  12.836 -0.6249 -0.2606  2.2397
  422TMC3    H1 6354   1.593   0.810  12.622  3.2715 -1.6707  1.0682
  422TMC3    H2 6355   1.414   1.075  12.909 -0.5709 -0.9785 -1.4507
  422TMC3    C7 6356   1.370   0.884  12.734  0.1224  0.1715  0.4294
  422TMC3    C8 6357   1.618   1.233  12.884 -0.5589  0.4843 -0.9117
  422TMC3    O1 6358   1.370   0.840  12.618 -0.2601  0.7900 -0.4581
  422TMC3    O2 6359   1.554   1.294  12.965 -0.6646 -0.1992  0.1374
  423MPD2     C 6360   2.638   2.225   0.612 -0.1648 -0.1578  0.5258
  423MPD2    C1 6361   2.777   2.257   0.600  0.3019 -0.2422 -0.4803
  423MPD2    C2 6362   2.842   2.217   0.487 -1.1734  0.3350  0.1347
  423MPD2    C3 6363   2.777   2.147   0.387  0.1334  0.0507 -0.1078
  423MPD2    C4 6364   2.642   2.117   0.405  0.4773  0.4457  0.4585
  423MPD2    C5 6365   2.575   2.161   0.514  0.3896  0.7786 -0.1706
  423MPD2     H 6366   2.950   2.228   0.483 -0.8528 -2.9921 -0.3119
  423MPD2    H1 6367   2.583   2.064   0.331 -0.2294 -1.0123  2.0520
  423MPD2    H2 6368   2.581   2.251   0.700  1.5122 -1.3627  1.9761
  423MPD2    H3 6369   2.469   2.144   0.523 -0.1380  3.1967 -1.8240
  423MPD2     N 6370   2.836   2.085   0.277  0.4534  0.3374 -0.5106
  423MPD2    H5 6371   2.774   2.035   0.215 -1.0432  0.8079  0.6094
  423MPD2    N1 6372   2.846   2.329   0.695 -0.4721  0.3884  0.1601
  423MPD2    H7 6373   2.946   2.339   0.680 -0.5240  0.2648 -0.2844
  424TMC3    C1 6374   2.895   2.458   0.871 -0.2201  0.2619 -0.3922
  424TMC3    C2 6375   3.008   2.394   0.894  0.2098  0.5556 -0.2128
  424TMC3    C3 6376   3.108   2.460   0.970  0.4609 -0.5309  0.5544
  424TMC3    C4 6377   2.867   2.570   0.936  0.1828  0.4721 -0.3378
  424TMC3    C5 6378   2.962   2.632   1.019 -0.6254 -0.0191  0.8790
  424TMC3    C6 6379   3.084   2.572   1.030 -0.5393  0.2449 -0.4866
  424TMC3     C 6380   2.792   2.402   0.795 -0.1997 -0.0346  0.1610
  424TMC3     O 6381   2.674   2.426   0.828 -0.4092 -0.9115 -0.2814
  424TMC3     H 6382   3.023   2.291   0.863  0.7737  0.5331  0.1303
  424TMC3    H1 6383   2.767   2.612   0.938 -0.4837 -1.1260 -0.2448
  424TMC3    H2 6384   3.154   2.613   1.101 -1.1847  0.3860  0.0680
  424TMC3    C7 6385   2.932   2.731   1.114  0.3340 -0.1730  0.6558
  424TMC3    C8 6386   3.239   2.395   0.952  0.2400 -0.3475  0.0311
  424TMC3    O1 6387   3.022   2.802   1.159  0.2480 -0.1141 -0.4054
  424TMC3    O2 6388   3.231   2.272   0.959 -0.4370 -0.2505  0.3178
  425MPD2     C 6389   1.891   1.735  17.163 -0.9248  0.1397 -0.2670
  425MPD2    C1 6390   1.809   1.622  17.196 -0.1741  0.5127 -0.3415
  425MPD2    C2 6391   1.690   1.639  17.268 -0.3785  0.1671 -0.5267
  425MPD2    C3 6392   1.644   1.768  17.296 -0.4634 -0.4395 -0.4113
  425MPD2    C4 6393   1.721   1.879  17.259  0.5723  0.5856 -0.1402
  425MPD2    C5 6394   1.838   1.860  17.191 -0.2668 -0.2622  0.5473
  425MPD2     H 6395   1.614   1.564  17.288  0.0777 -0.5290 -1.4522
  425MPD2    H1 6396   1.679   1.978  17.271  0.7028  0.6310 -0.0586
  425MPD2    H2 6397   1.980   1.712  17.106 -0.4391  1.7768 -0.1570
  425MPD2    H3 6398   1.895   1.947  17.158  0.0186 -0.2181  1.1730
  425MPD2     N 6399   1.530   1.771  17.372  0.6159 -0.1032 -0.0734
  425MPD2    H5 6400   1.491   1.682  17.402  0.6117  0.2718  1.0248
  425MPD2    N1 6401   1.863   1.502  17.155  0.2280 -0.3427  0.1699
  425MPD2    H7 6402   1.955   1.516  17.114  0.1269  0.3502  0.1836
  426TMC3    C1 6403   1.893   1.271  17.143 -0.7024  0.7674  0.4580
  426TMC3    C2 6404   1.965   1.275  17.025 -0.3465  0.4438  0.5022
  426TMC3    C3 6405   2.002   1.154  16.970  0.0073  0.7698  0.4532
  426TMC3    C4 6406   1.872   1.156  17.215 -0.1377  0.2819  0.7780
  426TMC3    C5 6407   1.919   1.036  17.155  0.0021 -0.7385 -1.0180
  426TMC3    C6 6408   1.997   1.037  17.038  0.9272  0.3825 -0.2263
  426TMC3     C 6409   1.806   1.380  17.186 -0.1968  0.0992 -0.1863
  426TMC3     O 6410   1.709   1.348  17.253  0.3647  0.0997  0.4002
  426TMC3     H 6411   1.991   1.367  16.973 -0.9905  1.7810  2.5295
  426TMC3    H1 6412   1.817   1.161  17.308 -0.0454 -0.2133  0.8587
  426TMC3    H2 6413   2.027   0.942  16.995 -1.5214  0.0840 -1.2313
  426TMC3    C7 6414   1.893   0.905  17.219 -0.0015  0.5163 -0.6937
  426TMC3    C8 6415   2.036   1.143  16.830  0.0713  0.1339  0.0589
  426TMC3    O1 6416   1.955   0.807  17.175 -0.2056  0.6822 -0.0994
  426TMC3    O2 6417   2.053   1.032  16.781  0.1387  0.4470 -0.1110
  427MPD2     C 6418   0.430   3.176  15.061  0.1105 -0.1983 -0.0716
  427MPD2    C1 6419   0.438   3.246  15.180 -0.3793 -0.0343 -1.0719
  427MPD2    C2 6420   0.356   3.349  15.202 -0.1137 -0.7488  0.3595
  427MPD2    C3 6421   0.261   3.390  15.116 -0.4855  0.3623  0.1498
  427MPD2    C4 6422   0.248   3.311  15.008  0.0968 -0.6532 -0.1868
  427MPD2    C5 6423   0.327   3.210  14.976 -0.5176 -0.5384  0.0890
  427MPD2     H 6424   0.369   3.407  15.293  0.7651  0.9209 -0.8080
  427MPD2    H1 6425   0.173   3.328  14.932  1.3865  2.2885 -0.8287
  427MPD2    H2 6426   0.492   3.094  15.027  0.9432  0.9426 -1.3252
  427MPD2    H3 6427   0.313   3.152  14.885  0.7664  1.0964 -1.1624
  427MPD2     N 6428   0.163   3.486  15.131  0.4185  0.0742 -0.5249
  427MPD2    H5 6429   0.092   3.493  15.059  1.3917 -2.2864 -1.6831
  427MPD2    N1 6430   0.528   3.205  15.283 -0.8990 -0.0106 -0.6585
  427MPD2    H7 6431   0.542   3.268  15.362  0.1263 -2.4706  1.1324
  428TMC3    C1 6432   0.737   3.089  15.358  0.1146 -0.4224 -0.7683
  428TMC3    C2 6433   0.746   2.968  15.421  0.2623 -0.3168  0.8142
  428TMC3    C3 6434   0.864   2.933  15.476 -0.9741 -0.1895  0.7037
  428TMC3    C4 6435   0.854   3.163  15.338  0.0467 -0.3075  0.8472
  428TMC3    C5 6436   0.971   3.120  15.382  0.0656  0.2223 -0.5525
  428TMC3    C6 6437   0.977   3.008  15.459 -0.8509  0.1623  0.3737
  428TMC3     C 6438   0.630   3.102  15.264 -0.9164 -0.5275  0.7238
  428TMC3     O 6439   0.649   3.025  15.172  0.5268  0.2642 -0.4684
  428TMC3     H 6440   0.657   2.907  15.433 -1.2535  1.6545 -0.6099
  428TMC3    H1 6441   0.841   3.252  15.278  0.8119 -0.7190  0.0739
  428TMC3    H2 6442   1.072   2.976  15.499  0.0324 -0.6331 -2.3195
  428TMC3    C7 6443   1.084   3.215  15.397 -0.1526  0.2097  0.2650
  428TMC3    C8 6444   0.890   2.787  15.482 -0.3903 -0.3672 -0.2233
  428TMC3    O1 6445   1.161   3.209  15.494 -0.5908 -0.0347 -0.1085
  428TMC3    O2 6446   0.843   2.722  15.394 -0.0307  0.1072  0.4898
  429MPD2     C 6447   1.129   3.625  17.522 -0.3093 -0.4899  0.0190
  429MPD2    C1 6448   1.263   3.595  17.494  0.4444  0.3896  0.9545
  429MPD2    C2 6449   1.336   3.695  17.434  0.0213  0.1487 -0.6047
  429MPD2    C3 6450   1.280   3.815  17.389  0.4293  0.3425  0.0654
  429MPD2    C4 6451   1.146   3.848  17.426 -0.4725 -0.6132  0.3966
  429MPD2    C5 6452   1.077   3.747  17.487  0.0425 -0.2170 -0.2263
  429MPD2     H 6453   1.442   3.681  17.414  0.7061  3.0964  1.0765
  429MPD2    H1 6454   1.097   3.943  17.409 -1.9672 -1.5837 -0.7736
  429MPD2    H2 6455   1.058   3.558  17.569 -1.1478 -0.1612 -0.7753
  429MPD2    H3 6456   0.978   3.771  17.527  0.7935  2.2051  0.2112
  429MPD2     N 6457   1.360   3.909  17.319  0.2248 -0.6181 -0.1709
  429MPD2    H5 6458   1.459   3.888  17.312  0.1664 -1.0846  0.4232
  429MPD2    N1 6459   1.317   3.467  17.515 -0.3171  0.6630 -0.0892
  429MPD2    H7 6460   1.417   3.466  17.500 -0.5673 -1.4747 -1.6162
  430TMC3    C1 6461   1.411   4.099  17.177 -0.1527 -0.1943  0.5328
  430TMC3    C2 6462   1.377   4.177  17.066  0.2827 -0.8904 -0.0164
  430TMC3    C3 6463   1.469   4.248  17.000  0.4251  0.0450 -0.7957
  430TMC3    C4 6464   1.536   4.102  17.228  0.5059  0.2026 -0.0207
  430TMC3    C5 6465   1.633   4.184  17.169  0.3791 -0.1846 -0.2577
  430TMC3    C6 6466   1.600   4.250  17.052  0.0706 -0.0185 -0.2540
  430TMC3     C 6467   1.307   4.014  17.244  0.3149 -0.5030 -0.4263
  430TMC3     O 6468   1.192   4.028  17.204 -0.2482 -0.2363  0.5078
  430TMC3     H 6469   1.270   4.186  17.049 -0.1086 -0.1617  2.8172
  430TMC3    H1 6470   1.569   4.048  17.316  2.9619  1.0204 -0.4413
  430TMC3    H2 6471   1.672   4.296  16.986 -0.2242  1.7706  0.6847
  430TMC3    C7 6472   1.761   4.123  17.166 -0.7449  0.4459 -0.4229
  430TMC3    C8 6473   1.442   4.253  16.857  0.2613 -0.3066 -0.3499
  430TMC3    O1 6474   1.769   4.014  17.223  0.0582 -0.2391 -0.0694
  430TMC3    O2 6475   1.361   4.173  16.823 -0.4228 -0.6521  0.3870
  431MPD2     C 6476   2.681   3.550  12.562 -0.1867  0.3646  1.5509
  431MPD2    C1 6477   2.568   3.598  12.496 -0.0191  0.1770 -0.5048
  431MPD2    C2 6478   2.582   3.631  12.362 -0.3450  0.2473  0.3655
  431MPD2    C3 6479   2.702   3.616  12.293 -0.3236 -0.8169 -0.2734
  431MPD2    C4 6480   2.817   3.577  12.367 -0.4504 -0.4337  0.6016
  431MPD2    C5 6481   2.802   3.537  12.498 -0.0549 -0.0587 -0.1684
  431MPD2     H 6482   2.495   3.678  12.317 -1.0044 -1.4987 -0.1629
  431MPD2    H1 6483   2.909   3.566  12.312  0.9500 -0.2318  2.9265
  431MPD2    H2 6484   2.669   3.529  12.668  0.7014  0.8073  1.7390
  431MPD2    H3 6485   2.886   3.492  12.551  0.5744  1.2800 -0.0183
  431MPD2     N 6486   2.717   3.658  12.157  0.1363  0.2784  0.0818
  431MPD2    H5 6487   2.810   3.650  12.117 -0.0207  1.9033 -0.6095
  431MPD2    N1 6488   2.455   3.641  12.572 -0.4950  0.4750 -0.0637
  431MPD2    H7 6489   2.378   3.689  12.524 -0.8351 -0.6701 -0.6560
  432TMC3    C1 6490   2.664   3.702  11.929  0.6051  0.1803 -0.2847
  432TMC3    C2 6491   2.759   3.796  11.919 -0.2719 -0.1179 -0.1129
  432TMC3    C3 6492   2.858   3.784  11.825 -0.3714 -0.3438  0.5841
  432TMC3    C4 6493   2.662   3.596  11.842  0.4868 -0.1077  0.1215
  432TMC3    C5 6494   2.762   3.579  11.750 -0.1044 -0.0249  0.5457
  432TMC3    C6 6495   2.859   3.675  11.742 -0.0334  0.6213 -0.0752
  432TMC3     C 6496   2.613   3.675  12.063 -0.3916 -0.0783  0.3723
  432TMC3     O 6497   2.508   3.615  12.067  0.1641 -0.1063  0.5111
  432TMC3     H 6498   2.761   3.882  11.985  0.1622 -0.4932  0.3629
  432TMC3    H1 6499   2.575   3.533  11.854  0.9887 -0.3302  2.6727
  432TMC3    H2 6500   2.943   3.653  11.677 -1.2571  1.4402 -1.9003
  432TMC3    C7 6501   2.823   3.450  11.774 -0.1819  0.0417  0.1734
  432TMC3    C8 6502   2.993   3.825  11.874  0.1275  0.7510 -0.5776
  432TMC3    O1 6503   2.943   3.450  11.751 -0.6064 -0.0022  0.2244
  432TMC3    O2 6504   3.006   3.854  11.995  0.4513  0.2021 -0.4291
  433MPD2     C 6505   1.653   2.443  10.720  0.3107 -0.0977 -0.1890
  433MPD2    C1 6506   1.665   2.316  10.779 -0.0201 -0.3767  0.3991
  433MPD2    C2 6507   1.642   2.300  10.913  0.3923  0.6460 -0.7917
  433MPD2    C3 6508   1.625   2.414  10.994  0.7313  0.0330  0.6264
  433MPD2    C4 6509   1.613   2.537  10.936  0.3437  0.6622 -0.1729
  433MPD2    C5 6510   1.616   2.546  10.802 -0.5975  0.5097 -0.2086
  433MPD2     H 6511   1.626   2.204  10.960 -2.0744  0.8729 -1.1815
  433MPD2    H1 6512   1.597   2.625  10.997  0.7360 -0.7892  2.0048
  433MPD2    H2 6513   1.664   2.453  10.613 -2.5925  0.5161 -0.4247
  433MPD2    H3 6514   1.630   2.645  10.759  2.1807  0.1905 -0.0494
  433MPD2     N 6515   1.615   2.389  11.133 -0.1313  0.5622  0.0193
  433MPD2    H5 6516   1.624   2.296  11.173  0.7117  1.2994  1.5285
  433MPD2    N1 6517   1.699   2.210  10.693  0.3878 -0.1813  0.1269
  433MPD2    H7 6518   1.722   2.230  10.596  3.0638  1.1528  1.0193
  434TMC3    C1 6519   1.781   2.002  10.623  0.0989 -0.4350 -0.2192
  434TMC3    C2 6520   1.906   1.978  10.672 -0.0107 -0.1370  0.6524
  434TMC3    C3 6521   1.952   1.847  10.672  0.1301  0.5923  0.1730
  434TMC3    C4 6522   1.706   1.888  10.583  0.1485  0.6065  0.3493
  434TMC3    C5 6523   1.754   1.762  10.593  0.3735  0.2250  0.1301
  434TMC3    C6 6524   1.881   1.738  10.625 -0.0190  0.1512  0.0677
  434TMC3     C 6525   1.702   2.077  10.724 -0.5237 -0.9557  0.0207
  434TMC3     O 6526   1.661   2.016  10.821  0.3741 -0.2890 -0.2069
  434TMC3     H 6527   1.978   2.051  10.708  0.1686  0.6656 -1.3182
  434TMC3    H1 6528   1.600   1.885  10.558  0.3661  1.1651 -0.6109
  434TMC3    H2 6529   1.935   1.644  10.627 -0.6857 -0.2150  1.0343
  434TMC3    C7 6530   1.692   1.655  10.537  0.0935 -0.1027 -0.1051
  434TMC3    C8 6531   2.051   1.815  10.772  0.1975 -0.1225 -0.0555
  434TMC3    O1 6532   1.630   1.677  10.433 -0.6214  0.4775 -0.3747
  434TMC3    O2 6533   2.060   1.703  10.824 -0.5051 -0.4329 -0.7539
  435MPD2     C 6534   3.484   2.647  15.638 -0.3955 -0.2511 -0.4544
  435MPD2    C1 6535   3.483   2.605  15.770 -0.4987  0.1628 -0.2385
  435MPD2    C2 6536   3.587   2.532  15.820  0.5440 -0.2274  0.2907
  435MPD2    C3 6537   3.682   2.475  15.740 -0.8927  0.6049 -0.0519
  435MPD2    C4 6538   3.678   2.500  15.606  0.3048  0.7125  0.0390
  435MPD2    C5 6539   3.581   2.589  15.557  0.4211  0.0890  0.0271
  435MPD2     H 6540   3.581   2.497  15.922  0.8838  0.0171  0.3976
  435MPD2    H1 6541   3.754   2.463  15.539  0.4383 -0.2014  0.6923
  435MPD2    H2 6542   3.419   2.720  15.591 -0.2273  0.6074  0.6440
  435MPD2    H3 6543   3.587   2.612  15.451 -0.4056  0.8779  0.1504
  435MPD2     N 6544   3.775   2.382  15.796  0.0805 -0.0026  1.0959
  435MPD2    H5 6545   3.755   2.354  15.891  1.1040 -3.2001  0.3752
  435MPD2    N1 6546   3.390   2.634  15.869 -0.1618  0.3680 -0.5464
  435MPD2    H7 6547   3.409   2.590  15.958 -1.9524 -0.3544 -0.5300
  436TMC3    C1 6548   3.209   2.771  16.216 -0.8785 -0.1687  0.8975
  436TMC3    C2 6549   3.278   2.742  16.096  0.7450  0.0250  0.1537
  436TMC3    C3 6550   3.203   2.717  15.984  0.2124  0.1248 -0.8351
  436TMC3    C4 6551   3.073   2.748  16.217 -0.0794 -0.3740  0.4586
  436TMC3    C5 6552   2.998   2.721  16.102  0.0361 -0.1039 -0.8772
  436TMC3    C6 6553   3.062   2.708  15.981 -0.1522  0.2309  0.1616
  436TMC3     C 6554   3.288   2.805  16.337 -0.2369  0.1117  0.2093
  436TMC3     O 6555   3.409   2.825  16.323 -0.2694  0.5401 -0.0575
  436TMC3     H 6556   3.385   2.756  16.099  0.8566 -0.5863 -1.2075
  436TMC3    H1 6557   3.026   2.753  16.315  1.9480 -0.8121  1.4464
  436TMC3    H2 6558   3.011   2.683  15.889  1.7993 -1.2154 -0.5439
  436TMC3    C7 6559   2.859   2.737  16.118  0.4156  0.3900  0.3265
  436TMC3    C8 6560   3.273   2.704  15.853  0.2408  0.3291  0.2639
  436TMC3    O1 6561   2.818   2.722  16.232  0.0709 -0.6228 -0.1371
  436TMC3    O2 6562   3.221   2.726  15.745 -0.1307 -0.0874  0.5644
  437TMC3    C1 6563   1.929   4.302  12.385 -0.5550 -0.3385  0.1505
  437TMC3    C2 6564   1.857   4.415  12.357  0.1710 -0.2779 -0.3276
  437TMC3    C3 6565   1.895   4.501  12.255 -0.3507 -0.6479 -0.0326
  437TMC3    C4 6566   2.048   4.283  12.318  0.0707 -0.3223  0.1468
  437TMC3    C5 6567   2.080   4.374  12.218  1.0084 -0.1273  0.3575
  437TMC3    C6 6568   2.001   4.479  12.177 -0.3175 -0.4534  0.2677
  437TMC3     C 6569   1.886   4.214  12.498 -0.2987 -0.2718  0.5970
  437TMC3     O 6570   1.812   4.263  12.583 -0.9047  0.1014 -0.3376
  437TMC3     H 6571   1.768   4.431  12.418 -0.2354 -0.4505 -0.8700
  437TMC3    H1 6572   2.110   4.200  12.351  0.6237 -0.6383 -1.7312
  437TMC3    H2 6573   2.023   4.549  12.097  0.2401  0.4736  1.2335
  437TMC3    C7 6574   2.221   4.398  12.192  0.5270 -0.7104 -0.4514
  437TMC3    C8 6575   1.799   4.605  12.221 -1.1496  0.2667  0.8414
  437TMC3    O1 6576   2.239   4.459  12.085 -0.3576  0.2525 -0.5594
  437TMC3    O2 6577   1.724   4.632  12.312  0.1870  0.1929  0.9579
  438MPD2     C 6578   4.482   0.449  16.920 -0.6490  0.0955  0.0812
  438MPD2    C1 6579   4.506   0.339  16.998  0.2563  0.0846 -0.2284
  438MPD2    C2 6580   4.510   0.361  17.132 -0.5131  0.3067  0.4450
  438MPD2    C3 6581   4.496   0.485  17.194 -0.4545  0.7893 -0.2210
  438MPD2    C4 6582   4.481   0.597  17.116  0.5714 -0.6519 -0.2812
  438MPD2    C5 6583   4.469   0.573  16.984  0.2804 -0.6007 -0.6798
  438MPD2     H 6584   4.517   0.270  17.190 -3.4469 -0.9980 -1.2185
  438MPD2    H1 6585   4.469   0.698  17.153 -1.2248 -0.9174 -0.1614
  438MPD2    H2 6586   4.477   0.451  16.811 -1.1426  0.9696  0.1211
  438MPD2    H3 6587   4.441   0.655  16.919  0.3991  1.8353  2.3766
  438MPD2     N 6588   4.499   0.499  17.332 -0.7345  0.8571  0.7245
  438MPD2    H5 6589   4.496   0.596  17.362 -1.1058  1.1421 -0.2389
  438MPD2    N1 6590   4.533   0.215  16.945 -0.5583 -0.8137 -0.4065
  438MPD2    H7 6591   4.576   0.152  17.012  0.3635 -2.8174 -2.8906
  439TMC3    C1 6592   4.575   0.043  16.794 -0.3335  0.0079  0.4242
  439TMC3    C2 6593   4.546   4.721  16.671  0.4475 -0.5051  0.2527
  439TMC3    C3 6594   4.629   4.614  16.647  0.2668 -0.2315 -0.1576
  439TMC3    C4 6595   4.665   4.735  16.885  0.7171  0.1448  0.1659
  439TMC3    C5 6596   0.001   4.624  16.847 -0.1127 -0.3354  0.5940
  439TMC3    C6 6597   4.722   4.564  16.732 -0.1801 -0.4934  0.1572
  439TMC3     C 6598   4.510   0.171  16.817  0.6700  0.2550 -0.1855
  439TMC3     O 6599   4.449   0.238  16.730  0.5394  0.3644  0.2870
  439TMC3     H 6600   4.480   0.034  16.599  1.5227  1.4502  0.5858
  439TMC3    H1 6601   4.706   0.062  16.963  0.9593 -0.9288  0.8836
  439TMC3    H2 6602   0.039   4.473  16.707 -0.5854 -0.0442 -2.2873
  439TMC3    C7 6603   0.137   4.622  16.897  0.1747  0.2635  0.2318
  439TMC3    C8 6604   4.682   4.583  16.513 -0.0291 -0.1125 -0.1818
  439TMC3    O1 6605   0.152   4.648  17.019  0.4472  0.7098  0.0965
  439TMC3    O2 6606   0.066   4.556  16.503 -0.1280 -0.1119 -0.1867
  440MPD2     C 6607   3.306   0.791  14.634 -0.1722 -0.2461 -0.1070
  440MPD2    C1 6608   3.368   0.889  14.710  0.2228  1.0865 -0.2052
  440MPD2    C2 6609   3.472   0.848  14.788 -0.7032 -0.1210 -0.3501
  440MPD2    C3 6610   3.525   0.718  14.787  0.1898  0.1334  0.5622
  440MPD2    C4 6611   3.461   0.621  14.710 -0.7538 -0.2919 -0.0698
  440MPD2    C5 6612   3.362   0.668  14.625  0.5849  0.0083  0.2784
  440MPD2     H 6613   3.519   0.921  14.852  0.1046 -2.6056  1.8734
  440MPD2    H1 6614   3.486   0.516  14.711  0.3462 -0.0208  1.9506
  440MPD2    H2 6615   3.227   0.802  14.561 -0.6210  1.1407  0.6038
  440MPD2    H3 6616   3.307   0.611  14.552  2.0579 -0.4361 -0.4849
  440MPD2     N 6617   3.647   0.681  14.851  0.4785  0.0350 -0.0075
  440MPD2    H5 6618   3.675   0.585  14.833  0.1540  0.4750 -2.8351
  440MPD2    N1 6619   3.325   1.028  14.699 -0.4258 -0.5451  0.5872
  440MPD2    H7 6620   3.383   1.095  14.748 -0.9859  0.4368 -0.0951
  441TMC3    C1 6621   3.860   0.718  14.943  0.4506 -0.3707  0.1258
  441TMC3    C2 6622   3.966   0.808  14.933  0.5652 -1.0150  0.1884
  441TMC3    C3 6623   4.055   0.817  15.034 -0.4135 -0.1572 -0.7605
  441TMC3    C4 6624   3.843   0.640  15.052  0.3072 -0.2463 -0.1577
  441TMC3    C5 6625   3.943   0.647  15.141 -0.3390 -0.0824  0.1227
  441TMC3    C6 6626   4.053   0.728  15.137 -0.2323 -0.1399 -0.2005
  441TMC3     C 6627   3.734   0.772  14.886 -0.1799 -0.0239 -1.0469
  441TMC3     O 6628   3.734   0.894  14.877 -0.1149 -0.0138 -0.3576
  441TMC3     H 6629   3.982   0.855  14.837 -0.2464  0.1267  0.6119
  441TMC3    H1 6630   3.754   0.579  15.062 -0.4337  0.4838 -2.2913
  441TMC3    H2 6631   4.111   0.738  15.228  1.2243 -1.7360 -0.9360
  441TMC3    C7 6632   3.913   0.572  15.267 -0.5407  0.1944  0.7621
  441TMC3    C8 6633   4.049   0.949  15.092  0.1102  0.2332 -0.5973
  441TMC3    O1 6634   3.793   0.554  15.291  0.5891 -0.9649  0.5313
  441TMC3    O2 6635   4.134   0.964  15.179 -0.2939  0.3713 -0.1620
  442MPD2     C 6636   1.642   1.174  16.341  0.7135  0.0831 -0.2321
  442MPD2    C1 6637   1.579   1.075  16.417 -0.0954  0.4296  0.4972
  442MPD2    C2 6638   1.583   0.952  16.367 -0.8674  0.2084 -0.2422
  442MPD2    C3 6639   1.616   0.920  16.239 -0.6869 -0.8034  0.0398
  442MPD2    C4 6640   1.666   1.018  16.157 -0.3833  0.7934 -0.9519
  442MPD2    C5 6641   1.683   1.141  16.211 -0.8147  0.3089  0.1927
  442MPD2     H 6642   1.552   0.872  16.433  0.3165  0.3412  0.4680
  442MPD2    H1 6643   1.701   0.997  16.057  1.6833  1.1453 -0.3167
  442MPD2    H2 6644   1.663   1.273  16.380  0.0860  0.6651 -1.3947
  442MPD2    H3 6645   1.739   1.216  16.156 -1.5101 -0.5754 -1.7112
  442MPD2     N 6646   1.595   0.800  16.178  0.2730 -0.4801  0.0907
  442MPD2    H5 6647   1.608   0.796  16.077 -2.2151  0.0656 -0.2596
  442MPD2    N1 6648   1.533   1.078  16.553  0.2122  0.1392  0.4898
  442MPD2    H7 6649   1.493   0.991  16.586 -1.3771  0.4703 -0.5919
  443TMC3    C1 6650   1.429   1.175  16.732 -0.1252  0.1614  0.5225
  443TMC3    C2 6651   1.367   1.287  16.783 -0.2179  0.0316  0.6106
  443TMC3    C3 6652   1.261   1.278  16.866  0.5443  0.1716  0.3645
  443TMC3    C4 6653   1.385   1.056  16.772  0.3377 -0.1979  0.6051
  443TMC3    C5 6654   1.298   1.050  16.872  0.2347  0.1849 -0.4169
  443TMC3    C6 6655   1.224   1.158  16.915  0.0632 -0.7342 -0.8550
  443TMC3     C 6656   1.520   1.194  16.621  0.2208 -0.0187  0.0267
  443TMC3     O 6657   1.571   1.300  16.596 -0.7035 -0.1449  0.1155
  443TMC3     H 6658   1.408   1.383  16.755 -2.5671  1.1833  1.0669
  443TMC3    H1 6659   1.433   0.961  16.754 -0.6605 -0.6504  0.3086
  443TMC3    H2 6660   1.123   1.152  16.955  0.0753  0.6242 -0.6447
  443TMC3    C7 6661   1.250   0.920  16.923 -0.4600 -0.8561  0.0456
  443TMC3    C8 6662   1.203   1.391  16.927  0.0559  0.3501  0.5122
  443TMC3    O1 6663   1.257   0.823  16.845  0.2486 -0.7823  0.0769
  443TMC3    O2 6664   1.176   1.380  17.047  0.0109 -0.1386  0.7704
  444MPD2     C 6665   1.617   0.988  16.968 -0.7097 -0.2444 -0.2826
  444MPD2    C1 6666   1.576   0.859  16.966  0.0960  0.4857 -0.1051
  444MPD2    C2 6667   1.626   0.780  16.862  0.0121  0.1141  0.3363
  444MPD2    C3 6668   1.700   0.835  16.758 -0.6567  0.0064 -0.6972
  444MPD2    C4 6669   1.751   0.962  16.774  0.1446 -0.6069 -0.0205
  444MPD2    C5 6670   1.710   1.034  16.880  0.7409  0.6323  0.3120
  444MPD2     H 6671   1.584   0.682  16.879  0.8172  0.1583  2.5346
  444MPD2    H1 6672   1.819   1.008  16.703 -0.1622  1.3185  0.9410
  444MPD2    H2 6673   1.583   1.054  17.046 -0.3099  0.4973 -0.7406
  444MPD2    H3 6674   1.743   1.137  16.888  0.6453  0.3956  3.5321
  444MPD2     N 6675   1.754   0.759  16.650 -0.2349 -0.1369 -0.3669
  444MPD2    H5 6676   1.826   0.803  16.593  0.4711 -1.3184 -0.3849
  444MPD2    N1 6677   1.509   0.794  17.072 -0.1282 -0.2619 -0.2979
  444MPD2    H7 6678   1.475   0.700  17.055  1.3035 -1.1163  1.5733
  445TMC3    C1 6679   1.795   0.572  16.517 -0.8344 -0.0296  0.2631
  445TMC3    C2 6680   1.711   0.478  16.454 -0.6006  0.0116 -0.1238
  445TMC3    C3 6681   1.776   0.365  16.403 -0.1090  0.4703  0.1073
  445TMC3    C4 6682   1.923   0.557  16.534  0.1724 -0.6155  0.6552
  445TMC3    C5 6683   1.985   0.453  16.473 -0.0325  0.0441  0.1914
  445TMC3    C6 6684   1.917   0.349  16.410  0.0160 -0.6909  0.6833
  445TMC3     C 6685   1.714   0.633  16.618  0.0461 -0.1093 -0.2970
  445TMC3     O 6686   1.604   0.585  16.636  0.3198  0.4523  0.1732
  445TMC3     H 6687   1.605   0.486  16.438 -0.6048 -0.7837 -0.4931
  445TMC3    H1 6688   1.975   0.642  16.578  0.4799 -0.1690 -0.5749
  445TMC3    H2 6689   1.967   0.277  16.346 -0.3830  0.1918 -0.6092
  445TMC3    C7 6690   2.119   0.427  16.519 -0.7133  0.1087  0.3525
  445TMC3    C8 6691   1.702   0.266  16.326 -0.4816 -0.0645  0.0857
  445TMC3    O1 6692   2.194   0.522  16.525  0.4840  0.5893  0.1039
  445TMC3    O2 6693   1.586   0.303  16.310 -0.6639  0.1769 -0.4193
  446MPD2     C 6694   1.663   1.500  11.018 -0.0844  0.4623 -0.0546
  446MPD2    C1 6695   1.591   1.608  10.955 -0.4247  0.1560  0.1940
  446MPD2    C2 6696   1.646   1.736  10.959 -0.0472  0.2340  0.0394
  446MPD2    C3 6697   1.762   1.765  11.021  0.7345  0.8963  0.5667
  446MPD2    C4 6698   1.825   1.658  11.080  0.4000  0.2301 -0.0490
  446MPD2    C5 6699   1.783   1.532  11.078 -0.1463  0.4552 -0.3337
  446MPD2     H 6700   1.585   1.806  10.905  0.9411  1.5682  0.6549
  446MPD2    H1 6701   1.917   1.688  11.128 -0.1783  1.5589  0.2241
  446MPD2    H2 6702   1.640   1.395  11.005 -0.2909  0.8306 -2.6333
  446MPD2    H3 6703   1.843   1.460  11.133 -0.5250 -0.2400 -0.8280
  446MPD2     N 6704   1.801   1.901  11.026 -0.1449  0.0089  0.0863
  446MPD2    H5 6705   1.748   1.959  10.962 -1.1522  1.0631  1.8917
  446MPD2    N1 6706   1.465   1.583  10.899  0.0875  0.0739 -0.4940
  446MPD2    H7 6707   1.416   1.656  10.848 -0.9925  0.2555  0.8014
  447TMC3    C1 6708   1.894   2.099  11.119 -1.0865 -0.5485 -0.1228
  447TMC3    C2 6709   1.939   2.145  11.000 -0.0560 -0.0232  0.1607
  447TMC3    C3 6710   2.012   2.262  11.003  0.3664  0.4068  0.8123
  447TMC3    C4 6711   1.939   2.154  11.234  0.3730  1.0173  0.3706
  447TMC3    C5 6712   2.011   2.273  11.233 -0.0664 -0.0219  0.2437
  447TMC3    C6 6713   2.046   2.326  11.112 -0.0486 -0.2388  0.1921
  447TMC3     C 6714   1.888   1.957  11.124 -0.1600  0.6084  0.1083
  447TMC3     O 6715   1.933   1.904  11.221 -0.0641 -0.0241 -0.0476
  447TMC3     H 6716   1.936   2.092  10.906  3.2140 -2.2374  1.2847
  447TMC3    H1 6717   1.926   2.110  11.333 -0.7565 -0.4960 -0.4573
  447TMC3    H2 6718   2.110   2.413  11.101 -1.8588  0.7976 -2.2118
  447TMC3    C7 6719   2.088   2.304  11.353  0.2520 -0.2914  0.3888
  447TMC3    C8 6720   2.063   2.300  10.876  0.2662  0.5280 -0.5608
  447TMC3    O1 6721   2.179   2.378  11.319  0.6471  0.7635 -1.1543
  447TMC3    O2 6722   2.008   2.274  10.772  0.0751  0.1063  0.0682
  448TMC3    C1 6723   4.444   2.047  17.034  0.3850  0.3918  0.7441
  448TMC3    C2 6724   4.476   1.932  16.976 -0.0260 -0.2302 -0.4913
  448TMC3    C3 6725   4.522   1.841  17.066 -0.8491  0.0778  0.1390
  448TMC3    C4 6726   4.446   2.084  17.169 -0.0482  0.3011  0.1421
  448TMC3    C5 6727   4.501   1.985  17.250 -0.0526  0.1728 -0.6789
  448TMC3    C6 6728   4.533   1.860  17.203  0.7014  0.8731  0.3071
  448TMC3     C 6729   4.394   2.155  16.954  0.0221  0.4540  0.0491
  448TMC3     O 6730   4.451   2.185  16.846  0.0931 -0.4330  0.0636
  448TMC3     H 6731   4.477   1.923  16.868 -0.2599 -1.4340 -0.4011
  448TMC3    H1 6732   4.423   2.183  17.208  3.4719  1.5313 -0.9157
  448TMC3    H2 6733   4.573   1.786  17.271  1.4028 -0.3600 -1.4278
  448TMC3    C7 6734   4.541   2.027  17.384  0.9435  0.6648  0.3553
  448TMC3    C8 6735   4.548   1.704  17.024 -0.3035 -0.3771  0.4666
  448TMC3    O1 6736   4.557   2.149  17.392  0.2016  0.6116  0.9520
  448TMC3    O2 6737   4.589   1.627  17.111  0.1058 -0.2083 -0.6009
  449MPD2     C 6738   1.474   0.062  14.355 -1.2156  0.9532  0.5987
  449MPD2    C1 6739   1.367   0.047  14.276  0.6421  0.1034 -0.1037
  449MPD2    C2 6740   1.266   4.701  14.322 -0.5751 -0.4845  0.6130
  449MPD2    C3 6741   1.274   4.635  14.438 -0.4441  0.7310 -0.0546
  449MPD2    C4 6742   1.382   4.656  14.514 -0.0524  0.3105 -0.2449
  449MPD2    C5 6743   1.479   0.002  14.475 -0.4311  0.1555 -0.1529
  449MPD2     H 6744   1.187   4.678  14.251  1.0855 -2.3929 -0.6199
  449MPD2    H1 6745   1.395   4.611  14.612 -3.3970 -0.5847 -0.2160
  449MPD2    H2 6746   1.565   0.108  14.321 -0.0813 -2.4553 -1.0282
  449MPD2    H3 6747   1.567   0.015  14.537 -0.7537  1.0722  0.1141
  449MPD2     N 6748   1.166   4.553  14.475 -0.0066 -0.4808 -0.0392
  449MPD2    H5 6749   1.087   4.559  14.412 -0.4882  3.4105  0.9193
  449MPD2    N1 6750   1.353   0.094  14.145 -0.2225  0.4629  0.4680
  449MPD2    H7 6751   1.257   0.107  14.115  0.7871  2.7269 -1.8371
  450TMC3    C1 6752   1.381   0.220  13.959 -0.5139  0.2930 -0.6329
  450TMC3    C2 6753   1.410   0.156  13.842  0.1138  0.2468 -0.5904
  450TMC3    C3 6754   1.309   0.131  13.749  0.4333  0.8401 -0.4965
  450TMC3    C4 6755   1.257   0.254  13.985 -0.3746 -0.0511 -0.4969
  450TMC3    C5 6756   1.152   0.223  13.894 -0.1656  0.4344  0.3192
  450TMC3    C6 6757   1.177   0.165  13.777  0.5154  0.0375  0.4435
  450TMC3     C 6758   1.444   0.157  14.067 -0.3256  0.0881 -0.1428
  450TMC3     O 6759   1.562   0.138  14.084  0.7846 -0.3165  0.3149
  450TMC3     H 6760   1.512   0.121  13.827 -0.1218 -0.7026 -0.0123
  450TMC3    H1 6761   1.226   0.303  14.077 -2.6562 -0.7534 -0.8918
  450TMC3    H2 6762   1.091   0.153  13.712  0.2802 -0.7956  0.9074
  450TMC3    C7 6763   1.058   0.139  13.965  0.4851 -0.3696  0.4398
  450TMC3    C8 6764   1.338   0.114  13.609  0.3680 -0.3755 -0.2165
  450TMC3    O1 6765   1.081   0.128  14.084 -0.0876  0.1197 -0.4902
  450TMC3    O2 6766   1.243   0.141  13.532  0.3088 -0.0008 -0.2454
  451MPD2     C 6767   1.957   3.367   1.117  0.3347  0.4485 -0.1681
  451MPD2    C1 6768   2.059   3.416   1.190  0.2348  0.4385  0.1092
  451MPD2    C2 6769   2.191   3.375   1.163  0.8412 -0.3431 -0.4311
  451MPD2    C3 6770   2.219   3.285   1.066  0.0455 -0.5612  0.3533
  451MPD2    C4 6771   2.111   3.236   0.997 -0.1388  0.3454 -0.3010
  451MPD2    C5 6772   1.983   3.279   1.014 -0.7493 -0.0457 -0.2926
  451MPD2     H 6773   2.270   3.412   1.228 -1.5791  3.6218  0.2578
  451MPD2    H1 6774   2.132   3.162   0.921 -2.1979 -1.2577  0.6697
  451MPD2    H2 6775   1.853   3.394   1.130  0.4891  1.9466 -2.1038
  451MPD2    H3 6776   1.916   3.222   0.951  0.2807 -1.7531  0.1614
  451MPD2     N 6777   2.349   3.254   1.031 -0.0211  0.7356 -0.2337
  451MPD2    H5 6778   2.368   3.185   0.960  0.7235  0.1827  0.5050
  451MPD2    N1 6779   2.032   3.520   1.280 -0.6060 -0.0812 -0.2185
  451MPD2    H7 6780   1.932   3.532   1.287 -0.4647  0.0477  1.5080
  452TMC3    C1 6781   2.583   3.241   1.031  0.5277  0.0258 -0.0494
  452TMC3    C2 6782   2.579   3.122   0.965  0.0173  0.3195 -0.2334
  452TMC3    C3 6783   2.689   3.085   0.892 -0.0073  0.1611  0.5842
  452TMC3    C4 6784   2.688   3.322   1.008  0.1283 -0.0168 -0.4412
  452TMC3    C5 6785   2.780   3.293   0.915  0.1387  0.2097  0.8049
  452TMC3    C6 6786   2.783   3.178   0.851 -0.3065 -0.3462  0.5939
  452TMC3     C 6787   2.460   3.298   1.088  0.4268  0.6922  0.2542
  452TMC3     O 6788   2.479   3.395   1.157  0.0386  0.3792 -0.4701
  452TMC3     H 6789   2.500   3.051   0.989 -0.3793  1.2730  1.2473
  452TMC3    H1 6790   2.673   3.421   1.048  0.6985 -0.4409  0.8271
  452TMC3    H2 6791   2.855   3.152   0.774 -1.6188  0.3894 -0.8646
  452TMC3    C7 6792   2.865   3.401   0.855 -0.2632 -0.6390 -0.2868
  452TMC3    C8 6793   2.667   2.970   0.794 -0.6470 -0.1521 -0.2694
  452TMC3    O1 6794   2.915   3.394   0.745 -0.0152  0.5131 -0.2884
  452TMC3    O2 6795   2.550   2.947   0.763  0.0032 -0.0064 -0.6788
  453TMC3    C1 6796   3.736   0.643  11.866 -0.1578  0.8745 -0.0144
  453TMC3    C2 6797   3.657   0.544  11.907 -0.2794 -1.0825  0.1118
  453TMC3    C3 6798   3.576   0.485  11.821 -0.0992  0.1828 -0.3256
  453TMC3    C4 6799   3.758   0.669  11.735  0.3932 -0.6599  0.6756
  453TMC3    C5 6800   3.689   0.591  11.647  0.0419  0.2863  0.4877
  453TMC3    C6 6801   3.588   0.503  11.687 -0.0819 -0.1242 -0.0741
  453TMC3     C 6802   3.842   0.649  11.962 -0.1851  0.6055 -0.3272
  453TMC3     O 6803   3.953   0.595  11.937  0.0692  0.4434  0.1837
  453TMC3     H 6804   3.646   0.527  12.013 -1.3827  1.4875  0.4230
  453TMC3    H1 6805   3.809   0.755  11.695  0.5643 -0.6304  0.9605
  453TMC3    H2 6806   3.543   0.434  11.617  1.8344 -1.7256  0.2586
  453TMC3    C7 6807   3.704   0.617  11.505 -0.0659 -0.1135  1.0301
  453TMC3    C8 6808   3.505   0.372  11.872  0.0428 -0.6368  0.5258
  453TMC3    O1 6809   3.613   0.562  11.446 -0.5519 -0.1699  0.3588
  453TMC3    O2 6810   3.386   0.364  11.846  0.0813 -0.1267  0.5249
  454MPD2     C 6811   2.621   0.590  16.065  0.2552 -0.4765 -0.4641
  454MPD2    C1 6812   2.522   0.572  15.975 -0.6181  0.6135 -0.7217
  454MPD2    C2 6813   2.425   0.670  15.949 -0.7993  0.9452  0.3070
  454MPD2    C3 6814   2.431   0.789  16.023  0.1725 -0.2456  0.4769
  454MPD2    C4 6815   2.533   0.805  16.115 -0.2763 -0.3223 -0.2840
  454MPD2    C5 6816   2.626   0.709  16.134  0.8263  0.1678  0.6563
  454MPD2     H 6817   2.337   0.653  15.888 -0.3956  1.3002 -0.3770
  454MPD2    H1 6818   2.535   0.894  16.178 -0.9888  0.7375 -1.7542
  454MPD2    H2 6819   2.686   0.510  16.097 -0.6654 -1.5775 -1.3725
  454MPD2    H3 6820   2.714   0.721  16.196 -0.0040 -1.2763  2.1111
  454MPD2     N 6821   2.326   0.890  16.022  0.1336 -0.4863 -0.3596
  454MPD2    H5 6822   2.308   0.942  16.107 -0.2623 -1.7570  0.3329
  454MPD2    N1 6823   2.501   0.453  15.897 -0.3741 -0.2909  0.0798
  454MPD2    H7 6824   2.431   0.461  15.824  0.3622 -0.8761 -0.6932
  455TMC3    C1 6825   2.100   0.879  15.990  0.6585 -0.2498  0.2333
  455TMC3    C2 6826   2.092   0.950  16.104  0.0270  0.5175 -0.0340
  455TMC3    C3 6827   2.007   0.899  16.199 -0.1410  0.4888  0.1332
  455TMC3    C4 6828   2.049   0.755  15.972  0.4747  0.2488  0.1888
  455TMC3    C5 6829   1.969   0.706  16.073 -0.0200  0.2077 -0.0123
  455TMC3    C6 6830   1.951   0.770  16.191  0.1753 -0.2869  0.0601
  455TMC3     C 6831   2.223   0.895  15.927 -0.1168 -0.6008 -0.5481
  455TMC3     O 6832   2.224   0.855  15.811  0.3394  0.0580 -0.1440
  455TMC3     H 6833   2.134   1.050  16.103 -0.5764  0.7547 -1.0213
  455TMC3    H1 6834   2.073   0.694  15.886 -1.1343  0.6329 -0.5440
  455TMC3    H2 6835   1.883   0.726  16.263 -0.6633  0.6425 -0.1700
  455TMC3    C7 6836   1.976   0.560  16.084  0.5076  0.0708  0.0954
  455TMC3    C8 6837   1.986   0.977  16.318 -0.5042  0.1724 -0.1626
  455TMC3    O1 6838   1.868   0.499  16.101 -1.0574 -0.0691  0.0736
  455TMC3    O2 6839   1.959   0.908  16.420 -0.5586  0.4982 -0.1552
  456MPD2     C 6840   0.024   0.291  16.557 -0.0894  0.7064  0.1770
  456MPD2    C1 6841   0.137   0.299  16.627  0.5309 -0.5226 -0.3280
  456MPD2    C2 6842   0.147   0.397  16.719 -0.2594  0.4063 -0.4465
  456MPD2    C3 6843   0.050   0.492  16.729 -0.4658  0.0559 -0.3633
  456MPD2    C4 6844   4.672   0.485  16.652 -0.1061  0.3060  0.2997
  456MPD2    C5 6845   4.657   0.386  16.565  0.0612  0.5443  0.2273
  456MPD2     H 6846   0.238   0.418  16.775  0.6267  0.7525 -2.0211
  456MPD2    H1 6847   4.584   0.545  16.667  0.4923  1.0303  0.9498
  456MPD2    H2 6848   0.017   0.222  16.474  2.2011  0.3219  0.3011
  456MPD2    H3 6849   4.573   0.380  16.497 -1.0183  1.4186  1.5023
  456MPD2     N 6850   0.072   0.602  16.809  0.0194 -0.1643 -0.1019
  456MPD2    H5 6851   0.145   0.605  16.878 -0.4611 -0.6982  0.4327
  456MPD2    N1 6852   0.249   0.222  16.576  0.3481 -0.9371 -0.0378
  456MPD2    H7 6853   0.226   0.175  16.489 -2.3238 -0.9668  0.6954
  457TMC3    C1 6854   0.059   0.828  16.880  0.4939 -0.9355  0.5999
  457TMC3    C2 6855   0.017   0.959  16.861  0.3443  0.2452 -0.9477
  457TMC3    C3 6856   0.046   1.057  16.952 -0.3152 -0.5659 -0.3802
  457TMC3    C4 6857   0.096   0.791  17.012  0.4087  0.6955 -0.5932
  457TMC3    C5 6858   0.138   0.894  17.098  0.6737  0.3172 -0.6875
  457TMC3    C6 6859   0.105   1.024  17.068  0.1514 -0.8155 -0.1559
  457TMC3     C 6860   0.009   0.724  16.794  0.4254  0.4369 -0.0015
  457TMC3     O 6861   4.684   0.770  16.696  0.1962 -0.1834 -0.5887
  457TMC3     H 6862   4.703   0.989  16.769 -0.2109 -0.3299 -0.8368
  457TMC3    H1 6863   0.127   0.690  17.038 -0.6289  0.1391 -1.5311
  457TMC3    H2 6864   0.150   1.099  17.132 -1.5556  0.1305 -0.0751
  457TMC3    C7 6865   0.186   0.858  17.231  0.7687  0.1099  0.4737
  457TMC3    C8 6866   4.724   1.188  16.945 -0.9286  0.0093  1.2646
  457TMC3    O1 6867   0.226   0.742  17.250  0.0528  0.2375 -0.1492
  457TMC3    O2 6868   4.732   1.260  17.042  0.3359 -1.1214 -0.1232
  458MPD2     C 6869   2.705   4.465  12.323 -0.1816  0.0442 -0.1402
  458MPD2    C1 6870   2.648   4.406  12.432 -0.2896  0.1301  0.7127
  458MPD2    C2 6871   2.509   4.383  12.426 -0.1320 -0.5480 -0.3650
  458MPD2    C3 6872   2.440   4.406  12.304 -0.4448 -0.3056  0.5959
  458MPD2    C4 6873   2.514   4.447  12.192 -0.3957  0.4874  0.0377
  458MPD2    C5 6874   2.643   4.479  12.204 -0.2014 -0.0395 -0.2773
  458MPD2     H 6875   2.460   4.353  12.518 -0.4032  0.8799 -0.0407
  458MPD2    H1 6876   2.477   4.469  12.092 -0.7858  0.6196  0.2098
  458MPD2    H2 6877   2.810   4.491  12.334 -0.1871  0.0396 -0.0780
  458MPD2    H3 6878   2.703   4.510  12.119  0.3903  2.0495  0.9084
  458MPD2     N 6879   2.300   4.380  12.305  0.1198 -0.2188 -0.0027
  458MPD2    H5 6880   2.270   4.337  12.392 -1.0105  0.2984 -0.1299
  458MPD2    N1 6881   2.728   4.410  12.554 -0.1302  0.2081  0.7787
  458MPD2    H7 6882   2.821   4.448  12.562 -0.3346  0.4220  2.1852
  459TMC3    C1 6883   2.780   4.399  12.783 -0.0702  0.4289  0.0803
  459TMC3    C2 6884   2.882   4.495  12.767  0.2816 -0.5491 -0.1095
  459TMC3    C3 6885   2.972   4.516  12.869 -0.0367 -0.2146  0.6935
  459TMC3    C4 6886   2.769   4.323  12.897 -0.2319  0.4974 -0.2699
  459TMC3    C5 6887   2.868   4.345  12.994  0.0211 -0.0284  0.4316
  459TMC3    C6 6888   2.966   4.438  12.981  0.6492  0.9039  0.2357
  459TMC3     C 6889   2.687   4.365  12.675  0.2218 -0.1163  0.3480
  459TMC3     O 6890   2.585   4.300  12.707  0.4930  0.2759 -0.4505
  459TMC3     H 6891   2.888   4.565  12.684  0.3213  1.1631  1.3456
  459TMC3    H1 6892   2.693   4.246  12.906 -1.7528  1.7806 -2.0288
  459TMC3    H2 6893   3.044   4.444  13.056  1.1102  0.2486 -0.1881
  459TMC3    C7 6894   2.854   4.272  13.118  0.0591  0.2376  0.4023
  459TMC3    C8 6895   3.094   4.594  12.852  0.3101  0.3115 -0.0686
  459TMC3    O1 6896   2.948   4.259  13.198  0.7284 -0.1436 -0.2973
  459TMC3    O2 6897   3.195   4.552  12.902 -0.0543 -0.1774  0.2332
  460MPD2     C 6898   2.384   2.447  10.804 -0.0224  0.0920 -0.6617
  460MPD2    C1 6899   2.247   2.428  10.789 -0.6065 -0.7220  0.1434
  460MPD2    C2 6900   2.177   2.505  10.699  0.7221  0.0511  0.3641
  460MPD2    C3 6901   2.243   2.588  10.612  0.1373 -0.6354 -0.5135
  460MPD2    C4 6902   2.382   2.605  10.625 -0.3632  0.3573  1.0076
  460MPD2    C5 6903   2.452   2.529  10.717 -0.5688  0.1789 -0.3126
  460MPD2     H 6904   2.070   2.492  10.683  0.7845  0.0967 -0.0862
  460MPD2    H1 6905   2.431   2.681  10.566 -0.5417  0.4966  1.0412
  460MPD2    H2 6906   2.442   2.399  10.882 -0.3062 -0.1602 -0.6069
  460MPD2    H3 6907   2.558   2.550  10.728 -0.7768 -0.0746  2.3417
  460MPD2     N 6908   2.169   2.630  10.499 -0.0709 -0.0345  0.1517
  460MPD2    H5 6909   2.075   2.594  10.502 -0.4361  0.7530 -1.8138
  460MPD2    N1 6910   2.187   2.353  10.886  0.5962  0.9367 -0.0327
  460MPD2    H7 6911   2.231   2.345  10.977 -0.2743  1.3834  0.4278
  461TMC3    C1 6912   2.114   2.731  10.299  0.4032  0.2973  0.4262
  461TMC3    C2 6913   2.036   2.629  10.255 -0.9294  0.3719 -0.3794
  461TMC3    C3 6914   1.936   2.649  10.165  0.1231 -0.1705  0.5134
  461TMC3    C4 6915   2.109   2.850  10.225 -0.1176 -0.3131  0.3171
  461TMC3    C5 6916   2.012   2.860  10.125 -0.1326 -0.0933 -0.6907
  461TMC3    C6 6917   1.921   2.766  10.093  0.2077  0.1954  0.0804
  461TMC3     C 6918   2.212   2.721  10.406  0.7032 -0.1921 -0.0158
  461TMC3     O 6919   2.303   2.808  10.412  0.2020  0.0667  0.2189
  461TMC3     H 6920   2.036   2.536  10.311  1.6357  1.2051  0.9998
  461TMC3    H1 6921   2.187   2.923  10.240 -1.4498  0.9149  1.2721
  461TMC3    H2 6922   1.847   2.784  10.016  0.8988  0.9049 -0.4244
  461TMC3    C7 6923   2.008   2.982  10.046 -0.5085 -0.0119 -0.1780
  461TMC3    C8 6924   1.850   2.532  10.134  0.0490 -0.0856 -0.1045
  461TMC3    O1 6925   1.897   3.011  10.006  0.0822 -0.8963  0.6819
  461TMC3    O2 6926   1.887   2.426  10.187  0.8234 -0.3476 -0.4676
  462TMC3    C1 6927   2.057   3.617   0.098  0.1797 -0.9151  0.8562
  462TMC3    C2 6928   2.167   3.533   0.101 -0.0541  0.0822 -0.1380
  462TMC3    C3 6929   2.160   3.426   0.180  0.1778 -0.0640  0.1686
  462TMC3    C4 6930   1.941   3.597   0.165 -0.1094 -0.7061  0.4966
  462TMC3    C5 6931   1.945   3.484   0.250  0.1959 -0.4703  0.1149
  462TMC3    C6 6932   2.054   3.401   0.263  0.0542 -0.2702 -0.3599
  462TMC3     C 6933   2.080   3.756   0.065 -1.5865  0.5407  0.0951
  462TMC3     O 6934   1.981   3.828   0.046 -0.0944 -0.1412 -0.5266
  462TMC3     H 6935   2.258   3.557   0.047  0.8771  2.3179  2.4367
  462TMC3    H1 6936   1.862   3.671   0.164  1.5299  1.0170 -1.0005
  462TMC3    H2 6937   2.045   3.303   0.309 -1.9563  0.7069  1.3278
  462TMC3    C7 6938   1.816   3.419   0.293 -0.1738  0.3115  0.2392
  462TMC3    C8 6939   2.269   3.327   0.166  0.6286 -0.3611  0.4655
  462TMC3    O1 6940   1.824   3.314   0.355  0.2083 -0.5318 -0.0592
  462TMC3    O2 6941   2.332   3.325   0.063 -0.2113  0.2146  0.6919
  463MPD2     C 6942   3.590   1.607   1.102  0.3240 -0.1050  0.2626
  463MPD2    C1 6943   3.518   1.718   1.068  0.0877  0.2232 -0.5418
  463MPD2    C2 6944   3.582   1.838   1.083  0.7181  0.3547 -0.9892
  463MPD2    C3 6945   3.715   1.856   1.118  0.0981  0.4457 -0.2640
  463MPD2    C4 6946   3.789   1.738   1.128 -0.5582 -0.5292 -0.1697
  463MPD2    C5 6947   3.728   1.617   1.122  0.3736 -0.2815 -0.8386
  463MPD2     H 6948   3.523   1.928   1.066 -1.2420 -0.6391  0.6308
  463MPD2    H1 6949   3.897   1.735   1.133 -0.5316 -0.4912 -0.7472
  463MPD2    H2 6950   3.546   1.508   1.107  1.3833 -0.5649  0.4688
  463MPD2    H3 6951   3.793   1.533   1.139 -0.3370 -0.6187  0.1898
  463MPD2     N 6952   3.777   1.978   1.136  0.3668  0.6237  0.2462
  463MPD2    H5 6953   3.875   1.969   1.159  0.4182  1.0977  0.2155
  463MPD2    N1 6954   3.381   1.719   1.034 -0.3433 -0.2745 -0.5876
  463MPD2    H7 6955   3.344   1.812   1.018 -0.9415 -0.6186 -1.2050
  464TMC3    C1 6956   3.159   1.631   1.019 -0.1098  0.0492  0.5538
  464TMC3    C2 6957   3.104   1.751   1.048  0.3202  0.2253  0.4467
  464TMC3    C3 6958   2.963   1.755   1.046  0.0342  0.0973 -0.5020
  464TMC3    C4 6959   3.081   1.517   1.002 -0.3137 -0.3560 -0.2484
  464TMC3    C5 6960   2.945   1.522   1.017  0.6872 -0.0176 -0.2476
  464TMC3    C6 6961   2.885   1.644   1.031 -0.1994  0.3769  1.3937
  464TMC3     C 6962   3.300   1.607   1.018  1.0287 -0.7885  0.3815
  464TMC3     O 6963   3.341   1.494   1.002  0.1670  0.0387 -0.0129
  464TMC3     H 6964   3.166   1.833   1.081 -0.4301  0.9053  0.1828
  464TMC3    H1 6965   3.129   1.423   0.978 -1.6182 -1.1037  0.0893
  464TMC3    H2 6966   2.778   1.655   1.036 -0.6159 -2.5356 -1.0821
  464TMC3    C7 6967   2.867   1.405   0.975 -0.2934 -0.1169 -0.1338
  464TMC3    C8 6968   2.889   1.876   1.069  0.4246  0.2446 -0.9504
  464TMC3    O1 6969   2.932   1.307   0.936  0.3095  0.0214 -0.2256
  464TMC3    O2 6970   2.768   1.873   1.041 -0.2972  0.1935  0.0685
  465MPD2     C 6971   4.113   0.335  17.006  0.5278  0.1231 -0.2355
  465MPD2    C1 6972   4.007   0.389  17.073  0.4988 -1.1802 -0.4608
  465MPD2    C2 6973   3.914   0.434  16.993 -0.4610  0.3268  0.2029
  465MPD2    C3 6974   3.920   0.430  16.856  0.8439  0.1373 -0.1667
  465MPD2    C4 6975   4.036   0.387  16.787 -0.0028  0.2919 -0.4280
  465MPD2    C5 6976   4.134   0.331  16.873  0.0300 -0.2422 -0.6264
  465MPD2     H 6977   3.833   0.481  17.047 -0.3136  1.1537 -0.2957
  465MPD2    H1 6978   4.048   0.367  16.681  0.2547  1.4672 -0.6122
  465MPD2    H2 6979   4.200   0.300  17.060  1.4169  3.2860  0.3281
  465MPD2    H3 6980   4.230   0.293  16.842  0.4625  1.0471 -0.8850
  465MPD2     N 6981   3.808   0.480  16.786  0.3887 -0.7149  0.0809
  465MPD2    H5 6982   3.728   0.494  16.847  0.8468  2.4115 -0.0359
  465MPD2    N1 6983   3.990   0.382  17.210  0.5952 -0.5089  0.5149
  465MPD2    H7 6984   3.914   0.443  17.237  0.9875  1.3641 -2.5434
  466TMC3    C1 6985   3.446   0.557  16.638  0.0098  0.1690  0.4438
  466TMC3    C2 6986   3.440   0.651  16.540 -0.6346 -0.4525 -0.7368
  466TMC3    C3 6987   3.548   0.690  16.475  0.0819  0.1045 -0.0316
  466TMC3    C4 6988   3.567   0.507  16.679 -0.4219  0.4513  0.4684
  466TMC3    C5 6989   3.677   0.549  16.611 -0.5537 -0.2748  0.5908
  466TMC3    C6 6990   3.671   0.635  16.503  0.2411  1.0443  1.0106
  466TMC3     C 6991   3.343   0.574  16.748 -0.4919 -0.5820  0.7148
  466TMC3     O 6992   3.369   0.520  16.858 -0.1234  0.4170  0.7507
  466TMC3     H 6993   3.345   0.685  16.500 -0.2638  1.3976 -0.0428
  466TMC3    H1 6994   3.571   0.426  16.750 -1.3934  0.8664  0.9968
  466TMC3    H2 6995   3.766   0.673  16.467  0.4237 -0.6351 -0.3005
  466TMC3    C7 6996   3.804   0.510  16.651 -0.0856 -0.0923  0.4152
  466TMC3    C8 6997   3.559   0.820  16.422  0.1981 -0.6739  0.9570
  466TMC3    O1 6998   3.896   0.502  16.566  0.1367 -0.0728 -0.3180
  466TMC3    O2 6999   3.654   0.843  16.353 -0.4679 -0.0814  0.1258
  467TMC3    C1 7000   0.084   3.562  14.060  0.5958  0.2404  0.3359
  467TMC3    C2 7001   0.048   3.682  14.013  0.2406 -0.0099 -1.1310
  467TMC3    C3 7002   4.687   3.689  13.913 -0.0653  0.7865 -1.0453
  467TMC3    C4 7003   0.014   3.446  14.033 -0.3665 -0.5418  0.2021
  467TMC3    C5 7004   4.637   3.473  13.968  0.3631  0.1251  0.2726
  467TMC3    C6 7005   4.608   3.583  13.897 -0.1733  0.0276  0.5802
  467TMC3     C 7006   0.213   3.548  14.108  0.3397 -1.0936  0.2412
  467TMC3     O 7007   0.263   3.640  14.166 -0.2777 -0.7803  0.5378
  467TMC3     H 7008   0.113   3.766  14.035 -1.1366  0.1229  2.5142
  467TMC3    H1 7009   0.026   3.352  14.086  0.6400 -0.4006  0.2236
  467TMC3    H2 7010   4.516   3.596  13.841  0.7691 -0.1147 -0.9907
  467TMC3    C7 7011   4.530   3.387  13.992 -0.6358  0.3946  0.8085
  467TMC3    C8 7012   0.022   3.739  13.804 -0.1433  0.3796 -0.4014
  467TMC3    O1 7013   4.559   3.275  14.028 -0.2794  0.4759  0.0725
  467TMC3    O2 7014   0.064   3.852  13.819  0.2271 -0.2227  0.3347
  468MPD2     C 7015   3.881   1.619  10.503 -0.0519  0.1689 -0.1215
  468MPD2    C1 7016   3.978   1.655  10.596 -0.4067  1.0886 -0.4685
  468MPD2    C2 7017   3.979   1.571  10.700 -0.2168  0.5389 -0.4908
  468MPD2    C3 7018   3.910   1.452  10.716  0.2064  0.6677  0.5564
  468MPD2    C4 7019   3.824   1.420  10.616  0.3681 -0.3167  0.1464
  468MPD2    C5 7020   3.801   1.506  10.512  1.0171 -0.5997 -0.3105
  468MPD2     H 7021   4.047   1.604  10.777 -0.3575  1.3092 -0.6968
  468MPD2    H1 7022   3.762   1.332  10.627 -0.1993  0.2715  1.6824
  468MPD2    H2 7023   3.855   1.691  10.426  0.8754 -1.3320 -1.8336
  468MPD2    H3 7024   3.728   1.482  10.435  1.0105  1.0319 -0.8092
  468MPD2     N 7025   3.949   1.365  10.822 -0.0213 -0.0713  0.3752
  468MPD2    H5 7026   4.010   1.416  10.885 -1.3295  1.0155  0.7826
  468MPD2    N1 7027   4.057   1.770  10.603 -0.1427  0.2533 -0.6548
  468MPD2    H7 7028   4.118   1.775  10.684  0.2515 -0.6625 -0.9008
  469TMC3    C1 7029   4.122   1.986  10.570 -0.3596 -0.7233 -0.5898
  469TMC3    C2 7030   4.214   1.974  10.668 -0.0474 -0.0942  0.4480
  469TMC3    C3 7031   4.298   2.080  10.695  0.5685 -0.0861  0.1656
  469TMC3    C4 7032   4.102   2.103  10.504 -0.5638 -0.7208 -0.2735
  469TMC3    C5 7033   4.178   2.211  10.541 -0.4368 -0.5760 -0.3163
  469TMC3    C6 7034   4.270   2.201  10.637 -0.1302  0.7297  0.1752
  469TMC3     C 7035   4.062   1.869  10.512 -0.3086  0.2695 -0.1393
  469TMC3     O 7036   3.999   1.880  10.409 -0.1167  0.4099  0.2248
  469TMC3     H 7037   4.252   1.878  10.700 -1.5827 -0.2862  1.6709
  469TMC3    H1 7038   4.024   2.109  10.429 -0.0926 -0.3809 -0.7346
  469TMC3    H2 7039   4.331   2.286  10.662  2.4788 -0.7734 -1.1181
  469TMC3    C7 7040   4.099   2.336  10.546 -0.7536  0.0720  0.3886
  469TMC3    C8 7041   4.388   2.093  10.810  0.2581 -0.5287  0.2829
  469TMC3    O1 7042   4.028   2.354  10.446 -0.0765 -0.0170  0.5254
  469TMC3    O2 7043   4.490   2.155  10.800 -1.1967  0.0387 -0.2372
  470TMC3    C1 7044   0.823   3.168   0.764  0.8530  0.0839 -0.5173
  470TMC3    C2 7045   0.783   3.303   0.760 -0.1911  0.4031 -0.2136
  470TMC3    C3 7046   0.852   3.391   0.827 -0.0348 -0.5489  0.0983
  470TMC3    C4 7047   0.922   3.115   0.845 -0.1940  0.9600  0.1486
  470TMC3    C5 7048   0.985   3.222   0.919  0.1826 -0.0752  0.0749
  470TMC3    C6 7049   0.954   3.359   0.907  0.1764  0.0431  0.2788
  470TMC3     C 7050   0.759   3.078   0.665 -1.0552  0.8608  0.5978
  470TMC3     O 7051   0.714   3.137   0.568 -0.1242  0.0863 -0.1415
  470TMC3     H 7052   0.699   3.326   0.695  1.2389  2.3076 -1.3677
  470TMC3    H1 7053   0.962   3.014   0.842  0.4993  1.1707  1.9657
  470TMC3    H2 7054   1.009   3.440   0.952 -1.0598  1.5195 -0.8838
  470TMC3    C7 7055   1.100   3.196   1.005  0.3433  0.1565 -1.0766
  470TMC3    C8 7056   0.816   3.533   0.808 -0.4223 -0.5800  0.1138
  470TMC3    O1 7057   1.104   3.262   1.109 -0.4664 -0.0805  0.7659
  470TMC3    O2 7058   0.749   3.554   0.704 -0.4948  0.4308 -0.2802
  471MPD2     C 7059   1.433   4.426  16.380 -0.6272 -0.6851  0.7066
  471MPD2    C1 7060   1.406   4.300  16.417  1.1317 -0.5685  0.0534
  471MPD2    C2 7061   1.435   4.268  16.553 -0.0158  0.1812  0.2505
  471MPD2    C3 7062   1.471   4.378  16.647 -0.5220 -0.5167 -0.2604
  471MPD2    C4 7063   1.497   4.503  16.593 -0.2455 -0.5391 -0.4386
  471MPD2    C5 7064   1.485   4.524  16.463  0.3754 -0.6441 -0.5732
  471MPD2     H 7065   1.436   4.168  16.593 -1.9694 -0.4822 -1.4100
  471MPD2    H1 7066   1.528   4.588  16.653  0.4798 -1.0420 -0.1108
  471MPD2    H2 7067   1.410   4.456  16.278  2.0143 -1.9266 -0.2512
  471MPD2    H3 7068   1.504   4.623  16.423 -0.2378 -0.5110 -0.5368
  471MPD2     N 7069   1.498   4.357  16.783 -0.0516 -0.3684 -0.3059
  471MPD2    H5 7070   1.538   4.435  16.835  1.1479 -1.2450  0.0906
  471MPD2    N1 7071   1.383   4.194  16.324 -0.8253 -0.1288  0.5791
  471MPD2    H7 7072   1.386   4.097  16.353 -2.2953 -0.3211  0.0601
  472TMC3    C1 7073   1.383   4.070  16.127 -0.5726  0.0985  0.0269
  472TMC3    C2 7074   1.295   4.045  16.025 -0.3851 -0.3064 -0.2883
  472TMC3    C3 7075   1.285   3.916  15.985  0.1248 -0.5401  0.1311
  472TMC3    C4 7076   1.469   3.976  16.175 -0.0169  0.4136 -0.0113
  472TMC3    C5 7077   1.476   3.852  16.115 -0.3889  0.2386  0.6260
  472TMC3    C6 7078   1.376   3.825  16.020 -0.2625  0.5333  0.0984
  472TMC3     C 7079   1.371   4.203  16.188  0.1719  0.2914  0.2464
  472TMC3     O 7080   1.312   4.298  16.129  0.0233  0.7567 -0.8263
  472TMC3     H 7081   1.218   4.107  15.982 -1.2766  0.3562  2.2315
  472TMC3    H1 7082   1.537   3.996  16.257 -0.2159  0.4029  0.1570
  472TMC3    H2 7083   1.372   3.729  15.970 -2.5787  0.6609  0.0442
  472TMC3    C7 7084   1.526   3.741  16.197 -0.0325 -0.3043  0.3710
  472TMC3    C8 7085   1.160   3.877  15.935 -0.3133  0.2063 -0.3598
  472TMC3    O1 7086   1.521   3.760  16.315 -0.1962  0.0227  0.2673
  472TMC3    O2 7087   1.141   3.859  15.813  0.3776 -0.3629  0.3367
  473MPD2     C 7088   1.574   1.196  13.905  0.6938  0.7115 -0.2887
  473MPD2    C1 7089   1.528   1.292  13.818  0.2643 -0.1278 -0.3237
  473MPD2    C2 7090   1.520   1.422  13.857  0.4593  0.1541 -0.2247
  473MPD2    C3 7091   1.574   1.457  13.980  0.1306  0.9746 -0.2485
  473MPD2    C4 7092   1.628   1.367  14.066  0.0766  0.5377 -0.4286
  473MPD2    C5 7093   1.613   1.237  14.026 -0.2592  0.7390 -0.1507
  473MPD2     H 7094   1.490   1.498  13.786  0.7113  1.3585  0.9572
  473MPD2    H1 7095   1.673   1.382  14.163 -3.4584 -1.4035  1.4812
  473MPD2    H2 7096   1.567   1.090  13.881 -2.6552  0.4827  1.6769
  473MPD2    H3 7097   1.629   1.159  14.100  0.9123  1.1528  0.0163
  473MPD2     N 7098   1.575   1.585  14.033  0.4852 -0.7056 -0.7016
  473MPD2    H5 7099   1.630   1.598  14.118 -0.1723  1.5460 -0.6269
  473MPD2    N1 7100   1.478   1.274  13.693  0.0657 -0.4459  0.0202
  473MPD2    H7 7101   1.437   1.356  13.650 -1.8940  0.2274  3.2071
  474TMC3    C1 7102   1.585   1.812  14.028 -0.0454  0.0095  0.2352
  474TMC3    C2 7103   1.588   1.938  13.960 -0.2801  0.1838 -0.4083
  474TMC3    C3 7104   1.667   2.040  14.011 -0.3930  0.1373  0.1315
  474TMC3    C4 7105   1.649   1.803  14.146  0.2885 -0.4939  0.1299
  474TMC3    C5 7106   1.724   1.907  14.194  0.3150  0.2493 -0.8945
  474TMC3    C6 7107   1.740   2.026  14.129  0.7599 -0.2835 -1.0871
  474TMC3     C 7108   1.531   1.694  13.965 -0.0370  0.0647 -0.1008
  474TMC3     O 7109   1.458   1.704  13.870 -0.2447  0.0540 -0.3136
  474TMC3     H 7110   1.544   1.948  13.861  1.5223 -1.4701 -1.3804
  474TMC3    H1 7111   1.619   1.725  14.214 -0.8416 -0.1461  0.0458
  474TMC3    H2 7112   1.804   2.098  14.179 -0.3526 -1.5543  2.1094
  474TMC3    C7 7113   1.817   1.873  14.301 -0.7801 -0.0333  0.3510
  474TMC3    C8 7114   1.635   2.172  13.950  0.3087 -0.8244  0.4848
  474TMC3    O1 7115   1.841   1.755  14.297 -0.1796  0.2187  0.1180
  474TMC3    O2 7116   1.554   2.179  13.856 -0.6731  0.2946 -0.4104
  475MPD2     C 7117   4.671   4.640  11.756 -0.0296 -0.2001  0.0129
  475MPD2    C1 7118   4.666   4.700  11.633 -0.0005  0.4185  0.5709
  475MPD2    C2 7119   4.552   0.030  11.590  0.2197  0.3374 -0.3645
  475MPD2    C3 7120   4.437   0.030  11.665  0.1946 -0.6001  0.3806
  475MPD2    C4 7121   4.441   4.698  11.786  0.4830 -1.1432  0.7748
  475MPD2    C5 7122   4.563   4.646  11.830  0.0698 -0.1021  0.1775
  475MPD2     H 7123   4.550   0.088  11.499  0.2831 -0.6701 -1.0031
  475MPD2    H1 7124   4.357   4.693  11.855  0.7563 -1.3328  1.0907
  475MPD2    H2 7125   0.022   4.590  11.797 -1.9494 -2.6992  1.0155
  475MPD2    H3 7126   4.560   4.600  11.928  0.2684 -0.6623 -0.0821
  475MPD2     N 7127   4.316   0.082  11.607 -0.5593 -0.1681 -0.1429
  475MPD2    H5 7128   4.324   0.131  11.518 -2.0660 -0.7948 -0.6169
  475MPD2    N1 7129   0.046   4.699  11.553 -0.0433 -0.2522 -0.6243
  475MPD2    H7 7130   0.048   0.024  11.472 -0.9408  0.0799 -0.3998
  476TMC3    C1 7131   0.219   4.613  11.443  0.2112  0.2385  0.7389
  476TMC3    C2 7132   0.212   4.502  11.364 -0.9802 -0.1656  0.6798
  476TMC3    C3 7133   0.230   4.523  11.227  0.3364 -0.3927  0.3283
  476TMC3    C4 7134   0.254   0.001  11.396 -0.6576  0.1322  0.1653
  476TMC3    C5 7135   0.284   0.013  11.267 -0.1370  0.6896  0.4896
  476TMC3    C6 7136   0.279   4.640  11.179  0.2060 -0.4055 -0.3632
  476TMC3     C 7137   0.141   4.608  11.560  0.6052  0.1028 -0.5372
  476TMC3     O 7138   0.139   4.501  11.617 -0.6381  0.3207  0.5017
  476TMC3     H 7139   0.190   4.404  11.405 -0.7511  0.3552  2.0608
  476TMC3    H1 7140   0.270   0.084  11.464  0.6981  0.1712 -0.1927
  476TMC3    H2 7141   0.331   4.652  11.085 -0.4862 -1.4407 -0.8719
  476TMC3    C7 7142   0.368   0.120  11.225 -0.2115  0.2277  0.9638
  476TMC3    C8 7143   0.118   4.473  11.149  0.2173 -0.0607 -0.7363
  476TMC3    O1 7144   0.479   0.091  11.182  0.2948 -0.3837  0.5849
  476TMC3    O2 7145   0.029   4.421  11.214 -0.7741  0.7952 -0.0577
  477MPD2     C 7146   2.651   1.496  11.934 -0.3318  0.3659  0.5784
  477MPD2    C1 7147   2.575   1.404  11.878  0.0379  0.0303  0.0957
  477MPD2    C2 7148   2.534   1.291  11.943 -0.3517 -1.0376 -0.4546
  477MPD2    C3 7149   2.584   1.261  12.072  1.0016  0.6107  0.7150
  477MPD2    C4 7150   2.654   1.366  12.136  0.8247 -0.0905  0.1362
  477MPD2    C5 7151   2.689   1.484  12.066  0.0533 -0.2070 -0.6908
  477MPD2     H 7152   2.471   1.224  11.885 -2.0810  0.6669 -0.5201
  477MPD2    H1 7153   2.692   1.358  12.237  1.7033 -2.1408 -0.3582
  477MPD2    H2 7154   2.673   1.591  11.887  2.0044  0.7820  2.5319
  477MPD2    H3 7155   2.739   1.563  12.121  0.6382 -0.7264 -0.4808
  477MPD2     N 7156   2.557   1.140  12.137  0.0013 -0.2835  0.5733
  477MPD2    H5 7157   2.507   1.071  12.082 -1.2095  0.5684  0.6091
  477MPD2    N1 7158   2.495   1.452  11.768 -0.1467 -0.1887 -1.2292
  477MPD2    H7 7159   2.522   1.547  11.744 -0.0498  0.1236  0.0591
  478TMC3    C1 7160   2.325   1.478  11.612 -0.1631  0.5797 -0.3334
  478TMC3    C2 7161   2.211   1.522  11.672  0.1527 -0.3477 -0.0624
  478TMC3    C3 7162   2.146   1.630  11.621  0.3401 -1.0344 -0.0798
  478TMC3    C4 7163   2.388   1.557  11.523  0.2371 -0.1219 -0.5129
  478TMC3    C5 7164   2.316   1.664  11.466  0.6817  0.3895  0.1847
  478TMC3    C6 7165   2.192   1.702  11.515 -0.2193  0.5393 -0.4365
  478TMC3     C 7166   2.401   1.386  11.695 -0.1433 -0.8507 -0.6900
  478TMC3     O 7167   2.357   1.274  11.709  0.3211 -0.2047 -0.7073
  478TMC3     H 7168   2.164   1.477  11.759  0.4691  0.2735  0.4279
  478TMC3    H1 7169   2.485   1.525  11.487  0.8560  2.0310 -0.7818
  478TMC3    H2 7170   2.150   1.798  11.484  1.5966  1.0819 -1.2401
  478TMC3    C7 7171   2.362   1.743  11.356  0.0468  0.0031 -0.6284
  478TMC3    C8 7172   2.078   1.706  11.728  0.6721 -0.6189  0.8388
  478TMC3    O1 7173   2.484   1.762  11.342 -0.0606  0.3637 -0.4117
  478TMC3    O2 7174   2.116   1.678  11.842  1.0267 -0.1614  0.5855
  479MPD2     C 7175   1.209   3.408  15.102 -0.4896 -0.4762  0.0451
  479MPD2    C1 7176   1.204   3.371  15.235  0.0590 -0.1238  0.1859
  479MPD2    C2 7177   1.279   3.437  15.333  0.1676 -0.2136  0.3213
  479MPD2    C3 7178   1.352   3.549  15.301  0.1724 -0.6186  0.1737
  479MPD2    C4 7179   1.362   3.582  15.168 -0.2691  0.1643 -0.0984
  479MPD2    C5 7180   1.300   3.506  15.070 -0.5540  0.4259  0.8583
  479MPD2     H 7181   1.279   3.406  15.437  4.6015 -2.6831 -0.4566
  479MPD2    H1 7182   1.431   3.660  15.138 -0.2741 -1.0386 -3.2068
  479MPD2    H2 7183   1.146   3.362  15.026 -0.2070 -1.1403  0.2115
  479MPD2    H3 7184   1.321   3.533  14.967 -0.0531 -0.4574  0.7251
  479MPD2     N 7185   1.433   3.626  15.390 -0.1535  0.1289 -1.0656
  479MPD2    H5 7186   1.502   3.686  15.346 -1.2094 -0.4276 -3.5080
  479MPD2    N1 7187   1.106   3.274  15.276 -0.7094  0.0556  0.2318
  479MPD2    H7 7188   1.042   3.245  15.202  0.2405 -0.2836 -0.4622
  480TMC3    C1 7189   1.172   3.546  15.769  0.1232 -0.9853  0.1372
  480TMC3    C2 7190   1.060   3.567  15.692  0.0603 -0.0785 -0.2430
  480TMC3    C3 7191   1.074   3.623  15.568 -0.2214 -1.0829  0.5832
  480TMC3    C4 7192   1.298   3.577  15.719 -0.3438 -0.4800  0.4035
  480TMC3    C5 7193   1.300   3.622  15.594  0.4599  0.3715 -0.1997
  480TMC3    C6 7194   1.193   3.663  15.515 -0.1930  0.4497  0.1995
  480TMC3     C 7195   1.168   3.485  15.900  0.1577  0.5235  0.4799
  480TMC3     O 7196   1.273   3.467  15.959  0.1961  0.0768 -0.4818
  480TMC3     H 7197   0.955   3.553  15.716 -0.1737 -0.9785 -1.8166
  480TMC3    H1 7198   1.389   3.557  15.774  1.1495  4.1941 -0.4016
  480TMC3    H2 7199   1.208   3.716  15.421 -0.7979 -0.6140 -0.5020
  480TMC3    C7 7200   1.434   3.629  15.529  0.6134 -0.0817  0.3781
  480TMC3    C8 7201   0.955   3.596  15.479  0.0660  0.1319  0.6126
  480TMC3    O1 7202   1.515   3.687  15.602 -0.0610  0.0320  0.0868
  480TMC3    O2 7203   0.862   3.527  15.514  0.2089 -0.2552 -0.4329
  481MPD2     C 7204   2.869   3.580  14.157  0.1979  1.0811  0.0915
  481MPD2    C1 7205   2.814   3.452  14.160 -0.6985 -0.2349  0.1697
  481MPD2    C2 7206   2.790   3.400  14.286  0.4876 -0.4151  0.1035
  481MPD2    C3 7207   2.824   3.462  14.405  0.2772 -0.3357  0.1555
  481MPD2    C4 7208   2.875   3.590  14.394  0.4477  1.1860 -0.5613
  481MPD2    C5 7209   2.894   3.647  14.271  0.8206 -0.5342 -0.1016
  481MPD2     H 7210   2.747   3.301  14.282  0.1982 -0.2369 -1.1219
  481MPD2    H1 7211   2.910   3.639  14.484  0.2552  0.5245 -0.1213
  481MPD2    H2 7212   2.904   3.637  14.073  0.1397  3.2969  1.5784
  481MPD2    H3 7213   2.954   3.737  14.263  1.7610 -1.2725 -1.5163
  481MPD2     N 7214   2.806   3.405  14.532 -0.5082 -0.0046 -0.7167
  481MPD2    H5 7215   2.848   3.456  14.609 -0.6028 -4.3590  2.2148
  481MPD2    N1 7216   2.781   3.394  14.041 -0.2278 -0.3539  0.3136
  481MPD2    H7 7217   2.803   3.440  13.953  1.8201  1.2964  1.6861
  482TMC3    C1 7218   2.714   3.229  13.890  0.4560 -0.0715  0.2677
  482TMC3    C2 7219   2.708   3.093  13.866  0.1331  0.0881  0.1929
  482TMC3    C3 7220   2.696   3.052  13.736 -0.5938 -0.1557  0.5961
  482TMC3    C4 7221   2.730   3.318  13.790  0.6597 -0.3389 -0.4156
  482TMC3    C5 7222   2.720   3.271  13.658  0.7478  0.1757 -0.5607
  482TMC3    C6 7223   2.711   3.137  13.629  0.3972  0.1737 -0.1311
  482TMC3     C 7224   2.734   3.269  14.029  0.8770 -0.5363 -0.6490
  482TMC3     O 7225   2.716   3.178  14.109 -0.0536  0.6166 -0.5079
  482TMC3     H 7226   2.693   3.025  13.950 -2.5261  0.3052 -0.0823
  482TMC3    H1 7227   2.732   3.424  13.811 -0.2946 -0.5452  0.7452
  482TMC3    H2 7228   2.692   3.105  13.527  0.5713  0.5584 -0.2837
  482TMC3    C7 7229   2.671   3.372  13.565  0.4916  0.3463 -0.2279
  482TMC3    C8 7230   2.601   2.944  13.719  0.0136  0.2717  0.2620
  482TMC3    O1 7231   2.587   3.445  13.611  0.5170  0.2915  0.1402
  482TMC3    O2 7232   2.622   2.851  13.797  0.0589 -0.2228  0.7041
  483TMC3    C1 7233   0.571   2.336   0.992 -0.2189 -0.0850  0.1259
  483TMC3    C2 7234   0.643   2.451   0.977  0.1225 -0.0163 -0.3736
  483TMC3    C3 7235   0.763   2.464   1.039  0.2900  0.4360  0.1292
  483TMC3    C4 7236   0.612   2.244   1.081 -0.5517 -0.0796 -0.2519
  483TMC3    C5 7237   0.732   2.259   1.143 -0.2943 -0.1345 -1.1580
  483TMC3    C6 7238   0.810   2.367   1.121 -0.2976 -0.8969 -0.1144
  483TMC3     C 7239   0.459   2.320   0.908  0.0085 -0.0716 -0.0536
  483TMC3     O 7240   0.425   2.411   0.835 -0.5162 -0.3825 -0.2654
  483TMC3     H 7241   0.610   2.533   0.914  0.0486 -0.0663 -0.3999
  483TMC3    H1 7242   0.557   2.155   1.107 -0.6198  0.5040  1.5873
  483TMC3    H2 7243   0.906   2.374   1.171  0.5558 -0.9857 -1.7660
  483TMC3    C7 7244   0.770   2.152   1.227  0.2405 -0.1845 -0.1009
  483TMC3    C8 7245   0.865   2.537   0.963 -0.1002 -0.1849 -0.0497
  483TMC3    O1 7246   0.819   2.184   1.331 -0.2176  0.1810 -0.0265
  483TMC3    O2 7247   0.851   2.531   0.844  0.4757  0.4384  0.9469
  484MPD2     C 7248   3.140   0.194  12.689 -0.3245 -0.9533 -0.5812
  484MPD2    C1 7249   3.169   0.071  12.737  0.5023  0.9639 -0.5894
  484MPD2    C2 7250   3.306   0.036  12.736  0.2136 -0.1080 -0.5951
  484MPD2    C3 7251   3.408   0.122  12.689 -0.5619  0.6157  0.3759
  484MPD2    C4 7252   3.375   0.248  12.644  0.0597  0.3943  0.3435
  484MPD2    C5 7253   3.240   0.282  12.646  0.2628 -0.3114 -0.0687
  484MPD2     H 7254   3.326   4.677  12.785 -1.3262 -0.8598 -1.4040
  484MPD2    H1 7255   3.446   0.325  12.617  1.5813 -0.5469  1.6150
  484MPD2    H2 7256   3.036   0.224  12.683 -0.1611 -0.1747  0.5705
  484MPD2    H3 7257   3.213   0.386  12.634  0.3044 -0.2762  0.1558
  484MPD2     N 7258   3.539   0.084  12.687 -0.1072 -0.3966  0.0330
  484MPD2    H5 7259   3.597   0.153  12.640 -0.7558  1.7882  2.4486
  484MPD2    N1 7260   3.073   4.716  12.795 -0.3119  0.5594  0.3732
  484MPD2    H7 7261   2.975   0.008  12.798 -0.1386  1.5816 -3.0861
  485TMC3    C1 7262   3.733   4.680  12.687  0.2880  0.0007 -0.2227
  485TMC3    C2 7263   3.805   4.599  12.773  0.2088 -0.1008  0.1947
  485TMC3    C3 7264   3.939   4.623  12.799  0.7924  0.0535  0.7275
  485TMC3    C4 7265   3.801   0.034  12.615 -0.2376  0.3489  0.5693
  485TMC3    C5 7266   3.936   0.054  12.643  0.8203  0.4373  0.4077
  485TMC3    C6 7267   3.998   4.721  12.743 -0.4367  0.1026  0.1691
  485TMC3     C 7268   3.589   4.699  12.719  0.7952  0.2020 -1.1243
  485TMC3     O 7269   3.532   4.604  12.775  0.3227  0.1673  0.3461
  485TMC3     H 7270   3.765   4.504  12.807 -0.8739  0.9680  1.9553
  485TMC3    H1 7271   3.751   0.091  12.538  3.1284  1.2032 -0.9751
  485TMC3    H2 7272   4.096   0.020  12.775  0.4261 -1.0764 -1.1781
  485TMC3    C7 7273   4.008   0.059  12.519 -0.2143  0.0555 -0.7309
  485TMC3    C8 7274   4.030   4.506  12.803  0.4688 -0.1257 -0.1233
  485TMC3    O1 7275   3.948   0.109  12.423 -0.2661  0.3150  0.3466
  485TMC3    O2 7276   4.132   4.527  12.735 -0.1234  0.3102 -0.0220
  486MPD2     C 7277   0.653   2.975  13.164  0.2134  0.0093  0.1727
  486MPD2    C1 7278   0.680   2.999  13.031 -0.9067  0.3023 -0.0158
  486MPD2    C2 7279   0.661   3.117  12.971  0.1220  0.3548 -0.4867
  486MPD2    C3 7280   0.619   3.227  13.041  0.4663  0.1426  0.0537
  486MPD2    C4 7281   0.587   3.202  13.177  0.2836 -0.8240  0.9959
  486MPD2    C5 7282   0.601   3.079  13.237  0.4119  0.8931  0.0074
  486MPD2     H 7283   0.658   3.129  12.864 -1.1732 -4.3853 -0.9941
  486MPD2    H1 7284   0.535   3.273  13.240 -1.6773 -1.4276  0.0460
  486MPD2    H2 7285   0.648   2.875  13.206  0.6921 -0.1517 -0.1521
  486MPD2    H3 7286   0.572   3.072  13.341 -0.4466 -1.0142 -0.3505
  486MPD2     N 7287   0.602   3.347  12.967  0.0815  0.1990 -0.1508
  486MPD2    H5 7288   0.638   3.347  12.872 -3.5573  2.0965 -1.5322
  486MPD2    N1 7289   0.708   2.879  12.968  0.2527 -0.4868 -0.1225
  486MPD2    H7 7290   0.715   2.796  13.024 -0.2814 -0.7009 -0.3700
  487TMC3    C1 7291   0.727   2.721  12.799 -0.4775  1.0584 -0.3929
  487TMC3    C2 7292   0.654   2.673  12.691 -0.1348 -0.0103  0.3571
  487TMC3    C3 7293   0.623   2.538  12.685  0.4389 -0.0002 -1.4094
  487TMC3    C4 7294   0.766   2.631  12.899  0.4213 -0.7100 -0.0935
  487TMC3    C5 7295   0.724   2.504  12.896 -0.2388 -0.7828 -0.5677
  487TMC3    C6 7296   0.668   2.450  12.783  0.8890  0.4000 -0.2051
  487TMC3     C 7297   0.715   2.859  12.831 -1.5589  0.1316 -0.0634
  487TMC3     O 7298   0.684   2.933  12.737 -0.2776  0.0294 -0.7063
  487TMC3     H 7299   0.613   2.751  12.628 -0.5382 -0.9148 -0.4894
  487TMC3    H1 7300   0.825   2.667  12.983  1.0383 -3.0824  0.4795
  487TMC3    H2 7301   0.634   2.348  12.794  0.1215  0.7019  0.2945
  487TMC3    C7 7302   0.684   2.462  13.028 -0.0339 -0.3005 -0.1842
  487TMC3    C8 7303   0.474   2.525  12.681  0.7699  0.4129  0.2746
  487TMC3    O1 7304   0.698   2.543  13.115  0.1922 -0.2692  0.5542
  487TMC3    O2 7305   0.411   2.603  12.752 -0.3898 -0.4988 -0.4559
  488MPD2     C 7306   0.946   0.586  16.190  0.3755 -0.4402 -0.2659
  488MPD2    C1 7307   1.018   0.644  16.294 -0.1161  0.1037 -0.1199
  488MPD2    C2 7308   1.020   0.589  16.422 -0.6018  0.3080 -0.8461
  488MPD2    C3 7309   0.940   0.479  16.442  0.6543  0.0234  0.2569
  488MPD2    C4 7310   0.864   0.431  16.342 -0.1413  0.4402 -0.5676
  488MPD2    C5 7311   0.864   0.481  16.215 -0.2312  0.2000 -0.0806
  488MPD2     H 7312   1.078   0.635  16.500 -2.3761  1.4349 -0.1947
  488MPD2    H1 7313   0.796   0.347  16.352 -0.7013  0.8330 -1.0572
  488MPD2    H2 7314   0.947   0.620  16.087  3.5238  1.4455  0.4061
  488MPD2    H3 7315   0.799   0.456  16.132  1.2044 -2.2257 -0.4858
  488MPD2     N 7316   0.943   0.432  16.577  1.1294  0.1058  0.5950
  488MPD2    H5 7317   0.996   0.486  16.645  1.8595  1.5748 -1.1332
  488MPD2    N1 7318   1.097   0.757  16.265 -0.2920 -0.0553 -0.4015
  488MPD2    H7 7319   1.136   0.801  16.348 -1.9254  0.8969 -0.1272
  489TMC3    C1 7320   0.857   0.335  16.763 -0.1597  0.1025  0.0242
  489TMC3    C2 7321   0.986   0.325  16.823 -0.1065  0.2592  0.2268
  489TMC3    C3 7322   0.986   0.304  16.956 -0.7692 -0.1410  0.2307
  489TMC3    C4 7323   0.741   0.311  16.831  0.1638 -0.1771  0.6000
  489TMC3    C5 7324   0.755   0.266  16.964 -0.5766  0.1710  0.1058
  489TMC3    C6 7325   0.876   0.269  17.029  0.4253  0.6212  0.0824
  489TMC3     C 7326   0.838   0.357  16.627  0.2287  0.6456  0.0505
  489TMC3     O 7327   0.729   0.327  16.580 -0.2981  0.2008 -0.7527
  489TMC3     H 7328   1.075   0.341  16.763  1.0386 -1.0302  1.5561
  489TMC3    H1 7329   0.640   0.338  16.800  0.8974  1.2022 -0.5906
  489TMC3    H2 7330   0.892   0.237  17.131  2.9454 -2.1604 -1.1618
  489TMC3    C7 7331   0.639   0.289  17.059 -0.2627 -0.3943 -0.0902
  489TMC3    C8 7332   1.068   0.410  17.002  0.0601 -0.4968 -0.5665
  489TMC3    O1 7333   0.676   0.324  17.170  0.4399 -0.1436 -0.2129
  489TMC3    O2 7334   1.176   0.437  16.953 -0.3240 -0.0094  0.4363
  490MPD2     C 7335   2.006   4.673  17.118  0.2366  0.1000  0.0986
  490MPD2    C1 7336   1.939   0.012  17.211 -0.5407  0.7031 -0.1252
  490MPD2    C2 7337   1.978   0.145  17.226 -0.3193  0.2638 -0.8986
  490MPD2    C3 7338   2.083   0.203  17.162  0.9832 -0.3125 -0.2408
  490MPD2    C4 7339   2.159   0.121  17.080  0.1137  0.4377  0.2266
  490MPD2    C5 7340   2.118   4.725  17.057 -0.8391  0.0541 -0.2782
  490MPD2     H 7341   1.908   0.198  17.289 -0.9750 -0.5425 -0.9450
  490MPD2    H1 7342   2.252   0.155  17.038  0.4854  0.2616  0.9100
  490MPD2    H2 7343   1.987   4.567  17.103 -1.2081  0.2359  0.9823
  490MPD2    H3 7344   2.180   4.656  17.000 -0.5990  1.6249 -1.9103
  490MPD2     N 7345   2.127   0.336  17.186  0.3255 -0.1629  0.6242
  490MPD2    H5 7346   2.220   0.353  17.149  0.4011 -2.6328 -0.3206
  490MPD2    N1 7347   1.836   4.697  17.294  0.2642  0.1525  0.2088
  490MPD2    H7 7348   1.789   0.031  17.353 -1.6467 -1.5763  0.7307
  491TMC3    C1 7349   1.660   4.569  17.375 -0.1184 -0.1595 -0.0133
  491TMC3    C2 7350   1.656   4.654  17.481 -0.0961  0.0541 -0.8259
  491TMC3    C3 7351   1.542   4.665  17.552 -0.3745 -0.4266 -0.4924
  491TMC3    C4 7352   1.556   4.482  17.352  0.1829 -0.4118  0.0965
  491TMC3    C5 7353   1.447   4.490  17.437 -0.5181 -0.0101  0.2036
  491TMC3    C6 7354   1.439   4.581  17.538 -0.0672 -0.9446  0.8953
  491TMC3     C 7355   1.769   4.577  17.287 -0.2589  0.3922  0.1944
  491TMC3     O 7356   1.771   4.491  17.204 -0.3866  0.2731  0.1335
  491TMC3     H 7357   1.739   4.716  17.514 -2.2871  1.6717  1.7053
  491TMC3    H1 7358   1.555   4.400  17.281  1.8002 -0.3194 -0.0188
  491TMC3    H2 7359   1.349   4.588  17.598 -0.7178 -2.2805  0.0673
  491TMC3    C7 7360   1.329   4.406  17.412 -0.9846  0.0870  0.7341
  491TMC3    C8 7361   1.548   4.716  17.683  0.3130  0.1955 -0.1128
  491TMC3    O1 7362   1.315   4.393  17.291  0.3040  0.0957 -0.7006
  491TMC3    O2 7363   1.512   4.642   0.030  0.2745 -0.3109 -0.2222
  492MPD2     C 7364   1.893   4.455  11.398 -0.5578  0.3009  0.3738
  492MPD2    C1 7365   1.786   4.408  11.324 -0.0123  0.7473 -0.1615
  492MPD2    C2 7366   1.723   4.298  11.370 -0.1273  0.4358  0.1774
  492MPD2    C3 7367   1.745   4.241  11.493 -0.1645  0.0696 -0.1002
  492MPD2    C4 7368   1.847   4.296  11.566 -1.1441 -0.5278  0.1128
  492MPD2    C5 7369   1.921   4.398  11.515  0.5982  0.0031 -0.0471
  492MPD2     H 7370   1.636   4.270  11.311 -0.5357 -0.5338  1.2313
  492MPD2    H1 7371   1.857   4.267  11.670  2.0475  1.4059  0.3217
  492MPD2    H2 7372   1.953   4.541  11.370 -1.5607  0.3414 -1.6491
  492MPD2    H3 7373   2.009   4.438  11.564  2.3813 -2.0796 -1.5490
  492MPD2     N 7374   1.671   4.135  11.552 -0.5314  0.3390  0.7888
  492MPD2    H5 7375   1.699   4.099  11.642 -0.8128 -0.2816  0.6287
  492MPD2    N1 7376   1.768   4.482  11.202 -0.1949 -0.2277 -0.5457
  492MPD2    H7 7377   1.812   4.573  11.197  0.8972 -0.6884  0.6602
  493TMC3    C1 7378   1.676   4.572  11.008  0.4485  0.2293 -0.6382
  493TMC3    C2 7379   1.784   4.649  10.987  0.7694 -0.1940  0.8032
  493TMC3    C3 7380   1.778   4.731  10.876 -0.3587 -0.6529 -0.2845
  493TMC3    C4 7381   1.572   4.571  10.924 -0.5762  0.8387  0.8846
  493TMC3    C5 7382   1.562   4.662  10.815  0.0742 -0.8497 -0.4667
  493TMC3    C6 7383   1.671   0.012  10.792 -0.0784  0.2351  0.4034
  493TMC3     C 7384   1.676   4.463  11.107 -0.0376 -0.6077  0.0352
  493TMC3     O 7385   1.592   4.375  11.098 -0.3330  0.0233 -0.0807
  493TMC3     H 7386   1.873   4.652  11.048 -0.5469 -1.9807  2.8136
  493TMC3    H1 7387   1.487   4.508  10.947 -1.3417  0.2429 -3.4805
  493TMC3    H2 7388   1.677   0.069  10.699  1.1656  2.0080  1.5677
  493TMC3    C7 7389   1.437   4.669  10.742  0.0371 -0.2074  0.3168
  493TMC3    C8 7390   1.862   0.112  10.874 -0.2715  0.0985  0.4533
  493TMC3    O1 7391   1.347   4.583  10.757 -0.5816 -0.2938 -0.2091
  493TMC3    O2 7392   1.869   0.174  10.770  0.0558  0.1573 -0.0915
  494TMC3    C1 7393   2.224   1.912   0.263 -0.1027 -0.9092  0.0175
  494TMC3    C2 7394   2.157   1.799   0.229  0.1807  0.1107 -0.4754
  494TMC3    C3 7395   2.226   1.718   0.135  0.1595 -0.0421 -0.2214
  494TMC3    C4 7396   2.339   1.949   0.203  0.4623  0.6240 -0.1658
  494TMC3    C5 7397   2.398   1.868   0.114  0.3158  0.3097  0.0469
  494TMC3    C6 7398   2.345   1.748   0.079  0.4150 -0.3802 -0.7873
  494TMC3     C 7399   2.185   1.986   0.386 -0.0288  0.7836 -0.3913
  494TMC3     O 7400   2.280   2.036   0.450  0.0273 -0.7358  0.0109
  494TMC3     H 7401   2.064   1.773   0.279 -0.5803  1.9371 -0.9844
  494TMC3    H1 7402   2.375   2.051   0.217 -0.4292  1.2374 -2.3763
  494TMC3    H2 7403   2.390   1.682   0.006 -2.2066  1.0088 -3.6237
  494TMC3    C7 7404   2.519   1.909   0.042 -0.3922  0.2350 -0.3477
  494TMC3    C8 7405   2.198   1.583   0.141  0.1968  0.1778 -0.4098
  494TMC3    O1 7406   2.585   1.823  17.732 -0.8692 -0.2643 -0.3404
  494TMC3    O2 7407   2.082   1.553   0.142 -0.0451 -0.7902  0.0466
  495TMC3    C1 7408   1.253   3.443  14.614 -0.5661 -1.0852 -0.4507
  495TMC3    C2 7409   1.279   3.526  14.506  0.5884 -0.1594 -0.1278
  495TMC3    C3 7410   1.235   3.652  14.511  0.6782  0.0614  0.2479
  495TMC3    C4 7411   1.194   3.492  14.726 -0.1972 -0.5419 -0.2086
  495TMC3    C5 7412   1.175   3.619  14.730 -1.1141  0.4659  0.3316
  495TMC3    C6 7413   1.196   3.703  14.625 -0.0240  0.2381 -0.0918
  495TMC3     C 7414   1.224   3.305  14.582  0.3620 -0.1061  0.1295
  495TMC3     O 7415   1.146   3.252  14.662  0.4560  0.2052  0.6306
  495TMC3     H 7416   1.324   3.490  14.414  0.6769 -0.7672  0.1559
  495TMC3    H1 7417   1.179   3.431  14.815 -0.4320 -0.2990 -0.0796
  495TMC3    H2 7418   1.160   3.805  14.633  1.3775  0.8802 -1.9351
  495TMC3    C7 7419   1.093   3.669  14.835  0.9534  0.1780  0.1857
  495TMC3    C8 7420   1.114   3.661  14.428 -0.9951 -0.2154 -0.9951
  495TMC3    O1 7421   1.137   3.768  14.889 -0.0169 -0.1067 -0.0874
  495TMC3    O2 7422   1.033   3.743  14.468 -1.1073  0.3496  0.0617
  496MPD2     C 7423   3.057   4.141  15.319 -0.5525  0.1846  0.3706
  496MPD2    C1 7424   3.108   4.100  15.443  0.5461 -0.1924 -0.2259
  496MPD2    C2 7425   3.027   4.040  15.542 -0.0101  0.2032  0.6530
  496MPD2    C3 7426   2.894   4.011  15.507 -0.4718  0.5940  0.6739
  496MPD2    C4 7427   2.842   4.035  15.381 -0.0601  0.1193 -0.6788
  496MPD2    C5 7428   2.922   4.106  15.294 -0.9456  0.5615 -0.1138
  496MPD2     H 7429   3.077   3.999  15.629  1.0871  1.6693  0.7041
  496MPD2    H1 7430   2.744   4.003  15.349  0.1527 -0.7259 -0.4679
  496MPD2    H2 7431   3.112   4.196  15.244 -2.1102 -0.0285 -0.9238
  496MPD2    H3 7432   2.879   4.131  15.197 -1.3270 -2.0054 -0.6217
  496MPD2     N 7433   2.817   3.927  15.592  0.3139 -0.2691  0.1063
  496MPD2    H5 7434   2.733   3.881  15.557  0.8567 -0.2688 -1.2089
  496MPD2    N1 7435   3.251   4.093  15.445  0.0761 -0.7399 -0.0499
  496MPD2    H7 7436   3.295   4.124  15.359  0.7292  0.2398  0.6370
  497TMC3    C1 7437   2.782   3.769  15.765 -0.2296  0.3863  0.6930
  497TMC3    C2 7438   2.746   3.669  15.674  0.1382 -0.9632  1.0070
  497TMC3    C3 7439   2.752   3.539  15.713 -0.2000  0.2765 -0.5711
  497TMC3    C4 7440   2.826   3.728  15.883 -0.6532 -0.2055  0.3374
  497TMC3    C5 7441   2.844   3.588  15.911 -0.3653  0.6205  0.6695
  497TMC3    C6 7442   2.811   3.494  15.822  0.3598  0.3608 -0.1977
  497TMC3     C 7443   2.854   3.879  15.718  0.4641  0.0247 -0.5364
  497TMC3     O 7444   2.938   3.921  15.800  0.0783 -0.2373  0.1045
  497TMC3     H 7445   2.726   3.686  15.569 -2.1822 -2.3237  1.2416
  497TMC3    H1 7446   2.848   3.798  15.963  0.3776 -0.5868  0.3941
  497TMC3    H2 7447   2.835   3.391  15.844  0.5233  0.1017 -1.5711
  497TMC3    C7 7448   2.906   3.551  16.032  0.6069  0.7016 -0.5394
  497TMC3    C8 7449   2.704   3.451  15.613  0.1828  0.5555 -0.1291
  497TMC3    O1 7450   2.885   3.433  16.067  0.5727  0.0076 -0.5802
  497TMC3    O2 7451   2.618   3.497  15.539  0.9240  0.4148  0.4280
  498MPD2     C 7452   4.164   0.032   9.582 -0.1761 -0.0112 -0.0331
  498MPD2    C1 7453   4.236   4.733   9.696 -0.4426  1.0078 -0.2001
  498MPD2    C2 7454   4.204   4.623   9.773  0.3045 -0.7762  0.6802
  498MPD2    C3 7455   4.099   4.545   9.739 -0.4579 -0.1901  0.0447
  498MPD2    C4 7456   4.039   4.573   9.616  0.4260 -0.1450 -0.4388
  498MPD2    C5 7457   4.062   4.688   9.543  0.2508  0.1379 -0.5519
  498MPD2     H 7458   4.265   4.603   9.860  1.9394 -1.5397 -0.6540
  498MPD2    H1 7459   3.961   4.512   9.571  1.1096 -2.2885  1.2652
  498MPD2    H2 7460   4.197   0.114   9.520 -0.3049  1.2462  1.5818
  498MPD2    H3 7461   4.017   4.704   9.445 -2.1875  1.2000  0.7421
  498MPD2     N 7462   4.069   4.434   9.811 -0.6819  0.1013 -0.2518
  498MPD2    H5 7463   4.130   4.409   9.887 -2.5032 -3.0959  0.1622
  498MPD2    N1 7464   4.358   0.061   9.734  0.4804 -0.2730 -0.1711
  498MPD2    H7 7465   4.406   0.022   9.815 -1.1350  1.6399  1.7106
  499TMC3    C1 7466   4.530   0.223   9.727  0.0423 -0.0961  0.7411
  499TMC3    C2 7467   4.625   0.127   9.723 -0.2671  0.5789  0.1349
  499TMC3    C3 7468   0.020   0.170   9.719  0.4469  0.1786  0.2757
  499TMC3    C4 7469   4.561   0.358   9.719  0.2102  0.0736  0.4338
  499TMC3    C5 7470   4.690   0.395   9.732 -0.2417  0.3937  0.9986
  499TMC3    C6 7471   0.055   0.303   9.729 -0.1239  0.5636  0.0178
  499TMC3     C 7472   4.396   0.182   9.677  0.3591 -0.0367 -0.8152
  499TMC3     O 7473   4.332   0.262   9.614 -0.0976 -0.2964  0.3077
  499TMC3     H 7474   4.608   0.024   9.697 -0.0723  0.3993  0.7137
  499TMC3    H1 7475   4.475   0.425   9.715  1.9367  2.2011 -0.8483
  499TMC3    H2 7476   0.155   0.340   9.750  1.2977 -3.2801  0.1391
  499TMC3    C7 7477   4.722   0.523   9.685  0.4682  0.4485 -0.9555
  499TMC3    C8 7478   0.128   0.073   9.732 -0.2188  0.5007  0.4080
  499TMC3    O1 7479   0.103   0.566   9.687  0.3768  0.0786 -0.0151
  499TMC3    O2 7480   0.112   4.718   9.810 -0.0421 -0.0622  0.5914
  500MPD2     C 7481   0.916   0.988  11.029  0.2094 -0.3805  0.3195
  500MPD2    C1 7482   1.006   0.965  10.920  0.6709  0.3272  0.0829
  500MPD2    C2 7483   0.968   0.959  10.784 -0.3337 -0.0384  1.0542
  500MPD2    C3 7484   0.837   0.964  10.751 -0.2160 -0.8882  0.5824
  500MPD2    C4 7485   0.748   0.990  10.857 -0.1930  0.5534 -0.6524
  500MPD2    C5 7486   0.788   0.999  10.994  0.0615 -0.6554  0.1790
  500MPD2     H 7487   1.045   0.961  10.707 -1.7073 -0.9530 -0.3424
  500MPD2    H1 7488   0.640   0.981  10.849 -0.3627  0.4989  1.5972
  500MPD2    H2 7489   0.935   0.991  11.136  0.8705  2.5753  0.1102
  500MPD2    H3 7490   0.721   0.996  11.080 -0.0915  1.4727  0.1357
  500MPD2     N 7491   0.775   0.946  10.622  0.2614  0.6082  0.2710
  500MPD2    H5 7492   0.674   0.943  10.623  0.3012 -1.3362 -0.7461
  500MPD2    N1 7493   1.147   0.948  10.951 -0.0539  0.7000 -0.4966
  500MPD2    H7 7494   1.211   0.945  10.873  0.6973  0.5579  0.1283
  501TMC3    C1 7495   1.350   0.921  11.063  0.2540  0.5658  0.3187
  501TMC3    C2 7496   1.407   0.993  10.962  0.0741 -0.3449 -0.7782
  501TMC3    C3 7497   1.542   1.007  10.961 -0.2384  0.9165 -0.9711
  501TMC3    C4 7498   1.422   0.862  11.160 -0.7504  0.6236  0.6275
  501TMC3    C5 7499   1.557   0.886  11.162 -0.1234  0.1658  0.4664
  501TMC3    C6 7500   1.623   0.955  11.060  0.2160  0.4433 -0.2312
  501TMC3     C 7501   1.207   0.940  11.079 -0.0164  1.3240  0.1242
  501TMC3     O 7502   1.156   0.921  11.191 -0.4209 -0.6690 -0.9184
  501TMC3     H 7503   1.343   1.055  10.899 -0.9446  0.8601  1.4379
  501TMC3    H1 7504   1.361   0.821  11.240 -0.7076 -0.0976  0.2886
  501TMC3    H2 7505   1.730   0.956  11.042  0.2699  0.3078  0.0817
  501TMC3    C7 7506   1.627   0.824  11.271 -0.3285 -0.0076  0.5726
  501TMC3    C8 7507   1.608   1.099  10.872 -0.3856 -0.0081  0.4504
  501TMC3    O1 7508   1.562   0.743  11.335 -0.0480 -0.3757 -0.3309
  501TMC3    O2 7509   1.709   1.155  10.910 -0.1951  0.0787 -0.0095
  502TMC3    C1 7510   0.762   4.235  15.092 -0.1356 -0.7601 -0.1306
  502TMC3    C2 7511   0.759   4.344  15.008 -0.6776 -0.6520 -0.3815
  502TMC3    C3 7512   0.651   4.424  14.995 -0.0956 -0.5141  0.5812
  502TMC3    C4 7513   0.642   4.207  15.150  0.0142 -0.2799 -0.3313
  502TMC3    C5 7514   0.534   4.285  15.130  0.3142  0.0121  0.3777
  502TMC3    C6 7515   0.528   4.395  15.047 -0.2190  0.2170  0.3957
  502TMC3     C 7516   0.875   4.243  15.182  0.0649 -0.0646 -0.1500
  502TMC3     O 7517   0.971   4.294  15.133 -0.2455  0.7514  0.0812
  502TMC3     H 7518   0.843   4.368  14.944 -1.8430  0.6004 -1.4307
  502TMC3    H1 7519   0.629   4.113  15.202  0.1713 -1.7741 -3.0173
  502TMC3    H2 7520   0.447   4.466  15.039 -2.3138 -1.8866  2.6613
  502TMC3    C7 7521   0.414   4.229  15.189 -0.1381  0.1627  0.8369
  502TMC3    C8 7522   0.684   4.568  15.004  0.2802  0.0685  0.2128
  502TMC3    O1 7523   0.421   4.119  15.246 -0.4148 -0.7687 -0.1172
  502TMC3    O2 7524   0.616   4.651  14.944  0.5451  0.0393 -0.3072
  503MPD2     C 7525   2.648   0.676  16.751  0.3003  0.9261  0.6406
  503MPD2    C1 7526   2.711   0.742  16.862  0.4524  0.5438  0.3702
  503MPD2    C2 7527   2.785   0.674  16.952  0.7163  0.1458 -0.2890
  503MPD2    C3 7528   2.798   0.537  16.936  0.9905  0.2585 -0.1670
  503MPD2    C4 7529   2.745   0.478  16.823  0.0501  0.1687  1.2982
  503MPD2    C5 7530   2.674   0.546  16.730  0.7859  0.4352 -0.0147
  503MPD2     H 7531   2.822   0.733  17.035 -1.6588  1.8864 -0.4349
  503MPD2    H1 7532   2.747   0.371  16.805 -2.5413 -0.0332  2.2409
  503MPD2    H2 7533   2.601   0.720  16.664 -1.0635  0.0854  0.9347
  503MPD2    H3 7534   2.628   0.500  16.643 -0.7454  1.9048  0.0180
  503MPD2     N 7535   2.845   0.463  17.050 -0.2612 -0.1651  0.3066
  503MPD2    H5 7536   2.861   0.524  17.128 -0.7476 -0.2021  0.4338
  503MPD2    N1 7537   2.691   0.882  16.894 -0.1259 -0.7811  0.0318
  503MPD2    H7 7538   2.736   0.920  16.977  1.4042  2.0212 -2.0943
  504TMC3    C1 7539   2.903   0.290  17.194  0.0728 -0.6166 -0.5546
  504TMC3    C2 7540   2.868   0.373  17.299 -0.3500 -0.0253 -0.6983
  504TMC3    C3 7541   2.942   0.363  17.419 -0.6728 -0.3802  0.3847
  504TMC3    C4 7542   3.005   0.206  17.205 -0.1447  0.2319  0.8680
  504TMC3    C5 7543   3.074   0.194  17.322 -0.1989  0.1937 -0.3977
  504TMC3    C6 7544   3.051   0.278  17.430  0.1567 -0.0597 -0.1450
  504TMC3     C 7545   2.854   0.328  17.064  0.4236  0.8996  0.1663
  504TMC3     O 7546   2.855   0.241  16.980 -0.8147 -0.1164  0.0035
  504TMC3     H 7547   2.786   0.442  17.288  1.5565  1.9256 -2.5875
  504TMC3    H1 7548   3.039   0.151  17.118 -0.3695  4.2994 -1.7596
  504TMC3    H2 7549   3.073   0.246  17.531  0.2814 -1.3739 -0.5921
  504TMC3    C7 7550   3.204   0.123  17.302 -0.1057  0.8980 -1.1908
  504TMC3    C8 7551   2.902   0.459  17.526  0.1289 -0.4327  0.0565
  504TMC3    O1 7552   3.215   0.053  17.202 -0.1934 -0.5089  0.0158
  504TMC3    O2 7553   2.817   0.543  17.495  0.7098 -0.0814 -0.4386
  505MPD2     C 7554   3.270   4.114  10.601  0.6002 -0.2720 -0.2623
  505MPD2    C1 7555   3.319   4.000  10.657  0.1767  0.2509 -0.6436
  505MPD2    C2 7556   3.426   4.011  10.746 -0.2568  0.2861  0.5847
  505MPD2    C3 7557   3.475   4.134  10.775  0.7448  0.7117 -0.5679
  505MPD2    C4 7558   3.418   4.247  10.723  0.1845 -0.4434  0.4067
  505MPD2    C5 7559   3.314   4.243  10.634 -0.3609  0.1658 -0.7458
  505MPD2     H 7560   3.469   3.925  10.797 -2.8468 -0.3944  1.6051
  505MPD2    H1 7561   3.450   4.343  10.762 -1.1053 -0.2128  0.8757
  505MPD2    H2 7562   3.207   4.098  10.514  0.7424 -1.4590 -0.1414
  505MPD2    H3 7563   3.268   4.335  10.599 -2.0625  0.2506  1.7599
  505MPD2     N 7564   3.576   4.144  10.874 -0.4567  0.6508  0.5279
  505MPD2    H5 7565   3.601   4.055  10.915  2.0512  1.8544  1.5974
  505MPD2    N1 7566   3.268   3.874  10.618 -0.4292  0.6559 -0.3982
  505MPD2    H7 7567   3.192   3.871  10.551  1.1273  0.3509 -2.1526
  506TMC3    C1 7568   3.258   3.635  10.603 -0.2725  0.2665  0.2741
  506TMC3    C2 7569   3.279   3.625  10.469  0.0544 -0.4739 -0.2970
  506TMC3    C3 7570   3.325   3.497  10.426  0.0219 -0.0753  0.4846
  506TMC3    C4 7571   3.279   3.532  10.687 -0.6052 -0.1096  0.7852
  506TMC3    C5 7572   3.325   3.412  10.637 -0.3390  0.2609 -0.1425
  506TMC3    C6 7573   3.345   3.387  10.505 -0.5160 -0.3191  0.1855
  506TMC3     C 7574   3.305   3.751  10.669  0.0111  0.0177 -0.0516
  506TMC3     O 7575   3.355   3.728  10.776 -0.4381  0.2318  0.1808
  506TMC3     H 7576   3.291   3.715  10.409 -0.2570 -0.0470  0.2788
  506TMC3    H1 7577   3.242   3.535  10.789 -0.1884 -1.7631  0.9755
  506TMC3    H2 7578   3.394   3.295  10.476  1.5118  1.0339 -0.6239
  506TMC3    C7 7579   3.428   3.354  10.722 -0.0466  0.1219  0.1070
  506TMC3    C8 7580   3.346   3.473  10.286 -0.2065 -0.0165  0.0706
  506TMC3    O1 7581   3.466   3.235  10.709 -0.1545 -0.0566 -0.3798
  506TMC3    O2 7582   3.360   3.359  10.244 -0.1402 -0.3740  0.3793
  507TMC3    C1 7583   3.984   0.163  14.926  0.3596 -0.1774  0.2542
  507TMC3    C2 7584   3.962   0.072  14.833 -0.5077 -0.3275  0.5459
  507TMC3    C3 7585   4.050   0.067  14.729 -0.6374 -0.0948 -0.1967
  507TMC3    C4 7586   4.090   0.244  14.925 -0.1878  0.1007  0.0653
  507TMC3    C5 7587   4.168   0.243  14.815  0.4267 -0.1439 -0.2801
  507TMC3    C6 7588   4.164   0.143  14.724 -0.3850  0.8952 -0.0236
  507TMC3     C 7589   3.876   0.210  15.016  0.0595 -0.1533  0.3931
  507TMC3     O 7590   3.923   0.246  15.121 -0.0446 -0.6427 -0.0501
  507TMC3     H 7591   3.887   4.729  14.830 -0.7398  0.0081 -3.3013
  507TMC3    H1 7592   4.076   0.330  14.990  3.3322 -0.0440  0.9966
  507TMC3    H2 7593   4.237   0.146  14.644 -0.5782 -1.3366 -0.2645
  507TMC3    C7 7594   4.182   0.369  14.743  0.4240  0.0830  0.1173
  507TMC3    C8 7595   3.965   0.068  14.610  0.1753 -0.3393 -0.4020
  507TMC3    O1 7596   4.171   0.363  14.620  0.5129  0.5882 -0.4012
  507TMC3    O2 7597   3.888   4.712  14.587 -0.1661  0.6460  0.2993
  508MPD2     C 7598   0.415   2.059  15.931 -0.4347  0.0319 -0.7023
  508MPD2    C1 7599   0.423   2.180  15.988 -0.5770 -0.4515  0.7220
  508MPD2    C2 7600   0.406   2.294  15.909 -0.6846 -0.4227 -0.4552
  508MPD2    C3 7601   0.386   2.288  15.771 -0.4745  0.0860 -0.9383
  508MPD2    C4 7602   0.394   2.165  15.713 -0.4051  0.3529 -0.0316
  508MPD2    C5 7603   0.408   2.054  15.795 -0.2185 -0.8278 -0.6077
  508MPD2     H 7604   0.398   2.392  15.954  1.8323 -0.5700  0.3326
  508MPD2    H1 7605   0.389   2.147  15.606  3.0925  0.5021 -0.2351
  508MPD2    H2 7606   0.436   1.970  15.990 -0.1679 -0.3308 -1.3429
  508MPD2    H3 7607   0.416   1.952  15.757 -2.8533 -0.4069 -2.2749
  508MPD2     N 7608   0.372   2.412  15.702  0.0287  0.1373 -0.1982
  508MPD2    H5 7609   0.390   2.501  15.747 -1.5563 -0.9476  2.5751
  508MPD2    N1 7610   0.454   2.203  16.122 -0.4585 -0.8121  0.5802
  508MPD2    H7 7611   0.429   2.296  16.152  1.7514 -0.4503  1.3179
  509TMC3    C1 7612   0.190   2.731  15.449 -0.2346 -0.1938  0.7148
  509TMC3    C2 7613   0.276   2.828  15.502  0.1433 -0.3573 -0.0570
  509TMC3    C3 7614   0.398   2.788  15.556  0.4960  0.4773 -0.3170
  509TMC3    C4 7615   0.210   2.597  15.476  0.2732 -0.3961  0.9021
  509TMC3    C5 7616   0.322   2.556  15.542  0.7926  0.0333 -1.3616
  509TMC3    C6 7617   0.416   2.651  15.586  0.5850  0.4923 -0.2047
  509TMC3     C 7618   0.065   2.763  15.384  0.7573 -0.8027  0.3870
  509TMC3     O 7619   4.729   2.674  15.342  0.0816  0.0647 -0.1621
  509TMC3     H 7620   0.266   2.928  15.462 -1.6900 -1.2639 -1.8650
  509TMC3    H1 7621   0.131   2.528  15.451 -0.0262  0.8660 -1.5678
  509TMC3    H2 7622   0.505   2.634  15.646  0.4814 -2.6686 -0.9572
  509TMC3    C7 7623   0.324   2.420  15.576  0.6814  0.0571  0.3329
  509TMC3    C8 7624   0.474   2.873  15.635  0.2046  0.4619 -0.0274
  509TMC3    O1 7625   0.276   2.335  15.500 -0.4048 -0.0325  0.7142
  509TMC3    O2 7626   0.587   2.837  15.662  0.9948 -0.5906 -0.1695
  510MPD2     C 7627   2.645   4.249  14.578 -0.0604 -0.0167  0.0714
  510MPD2    C1 7628   2.717   4.188  14.678 -0.0270  0.0761  0.7669
  510MPD2    C2 7629   2.857   4.191  14.681 -0.3382  0.9439  0.1536
  510MPD2    C3 7630   2.922   4.264  14.579 -1.1499  1.4487 -0.2771
  510MPD2    C4 7631   2.848   4.311  14.473  0.5066  0.2504  0.2439
  510MPD2    C5 7632   2.713   4.320  14.481 -0.2748  0.1407  0.8277
  510MPD2     H 7633   2.916   4.137  14.754 -0.5554  1.5647  0.7908
  510MPD2    H1 7634   2.884   4.364  14.386  0.4088 -0.6655 -0.3463
  510MPD2    H2 7635   2.538   4.266  14.583  0.0951  0.1488  2.7547
  510MPD2    H3 7636   2.660   4.367  14.399 -1.6723  2.8427  3.2711
  510MPD2     N 7637   3.063   4.242  14.571 -0.4367  0.5351  0.2036
  510MPD2    H5 7638   3.111   4.202  14.651  0.5733  1.0997 -0.1218
  510MPD2    N1 7639   2.648   4.124  14.781 -0.0818 -0.2325  0.5746
  510MPD2    H7 7640   2.549   4.111  14.764 -0.0167  0.3720 -0.2659
  511TMC3    C1 7641   2.572   4.040  14.972  0.0204 -0.6398 -0.6191
  511TMC3    C2 7642   2.565   4.078  15.105  0.4940  0.0781 -0.4741
  511TMC3    C3 7643   2.491   4.001  15.189  1.2242  0.1692  0.0391
  511TMC3    C4 7644   2.503   3.934  14.926 -0.3490 -0.0691  0.3422
  511TMC3    C5 7645   2.416   3.869  15.007 -0.1057 -0.2953  0.4932
  511TMC3    C6 7646   2.409   3.903  15.141  0.4335 -0.3486  0.2193
  511TMC3     C 7647   2.691   4.091  14.903 -0.0311  0.3192 -0.5600
  511TMC3     O 7648   2.782   4.137  14.966 -0.0794 -0.1281 -0.2458
  511TMC3     H 7649   2.619   4.160  15.151  0.8847 -0.3040 -0.2362
  511TMC3    H1 7650   2.515   3.901  14.824 -0.7714 -1.3351  0.7003
  511TMC3    H2 7651   2.347   3.845  15.207  1.3189 -0.9646  0.5022
  511TMC3    C7 7652   2.319   3.788  14.942 -0.7295 -0.0956 -0.1695
  511TMC3    C8 7653   2.475   4.048  15.324 -1.4108 -0.0221 -0.3035
  511TMC3    O1 7654   2.303   3.808  14.823 -0.0834 -0.3944 -0.1191
  511TMC3    O2 7655   2.508   4.164  15.354  0.3663  0.0850 -0.4748
  512TMC3    C1 7656   1.851   3.304  13.277  0.3925 -0.7361 -0.4732
  512TMC3    C2 7657   1.844   3.280  13.408 -0.0182 -0.2788  0.5384
  512TMC3    C3 7658   1.798   3.162  13.452 -1.0486  0.6260 -0.3988
  512TMC3    C4 7659   1.817   3.209  13.186 -0.0989 -0.5645 -0.5350
  512TMC3    C5 7660   1.777   3.085  13.235 -0.3143 -0.7895  0.4024
  512TMC3    C6 7661   1.772   3.059  13.367 -0.3097 -1.4075 -0.7929
  512TMC3     C 7662   1.922   3.427  13.227  0.1878  0.2613  0.2604
  512TMC3     O 7663   1.937   3.435  13.109  0.2506 -0.1581  0.0467
  512TMC3     H 7664   1.830   3.368  13.468 -0.4009 -0.0561  0.1184
  512TMC3    H1 7665   1.822   3.231  13.080  0.4478 -0.8128 -0.5579
  512TMC3    H2 7666   1.728   2.968  13.405 -2.2969  0.9577  2.5684
  512TMC3    C7 7667   1.699   3.008  13.138 -0.1668 -0.8876 -0.4773
  512TMC3    C8 7668   1.782   3.131  13.595  0.4398  1.1490  0.0818
  512TMC3    O1 7669   1.640   3.070  13.050 -0.2074 -0.2660  0.0037
  512TMC3    O2 7670   1.717   3.036  13.635 -0.4442  0.2491 -0.3916
  513MPD2     C 7671   3.069   3.128  13.669  0.5510  0.1264 -0.6349
  513MPD2    C1 7672   3.172   3.179  13.598 -0.4236  0.3980 -0.0402
  513MPD2    C2 7673   3.293   3.216  13.650 -0.4151  0.1667  0.1695
  513MPD2    C3 7674   3.314   3.217  13.781 -0.0625  0.2735  0.2021
  513MPD2    C4 7675   3.211   3.159  13.857  0.8284  0.3746 -0.1086
  513MPD2    C5 7676   3.094   3.115  13.800 -0.0360 -0.1581  0.1082
  513MPD2     H 7677   3.369   3.254  13.581 -2.3842  1.7631 -1.1348
  513MPD2    H1 7678   3.217   3.164  13.966 -0.2201  0.3587 -0.0534
  513MPD2    H2 7679   2.984   3.085  13.617  0.6661  2.2192 -2.5511
  513MPD2    H3 7680   3.024   3.061  13.862 -1.1073 -0.0630 -1.0287
  513MPD2     N 7681   3.430   3.274  13.826 -0.0148  0.2156  0.0762
  513MPD2    H5 7682   3.488   3.317  13.754 -1.5678  3.1358  0.5404
  513MPD2    N1 7683   3.170   3.185  13.458 -0.6291  0.6195 -0.7795
  513MPD2    H7 7684   3.260   3.200  13.412  0.1256  0.1473  0.5579
  514TMC3    C1 7685   3.100   3.171  13.237  0.0495 -0.2431  0.1989
  514TMC3    C2 7686   3.061   3.287  13.178 -0.4288  0.2147  0.7241
  514TMC3    C3 7687   3.138   3.340  13.087 -0.6069 -0.3203  0.9207
  514TMC3    C4 7688   3.215   3.111  13.205  0.4685 -0.4448 -0.4570
  514TMC3    C5 7689   3.304   3.184  13.134 -0.6664  0.6863  0.4498
  514TMC3    C6 7690   3.270   3.300  13.069 -0.0566 -0.7786  0.2634
  514TMC3     C 7691   3.058   3.159  13.376 -0.2653  0.5271  0.3361
  514TMC3     O 7692   2.943   3.190  13.408  0.3949 -0.3339 -0.2831
  514TMC3     H 7693   2.968   3.334  13.207 -1.0665 -1.2360  1.0232
  514TMC3    H1 7694   3.243   3.015  13.248 -0.5041  0.6329  2.5760
  514TMC3    H2 7695   3.335   3.375  13.026 -0.4176  1.5772  3.7823
  514TMC3    C7 7696   3.422   3.209  13.213 -0.7002  0.0403 -0.1463
  514TMC3    C8 7697   3.085   3.450  12.999 -0.5759 -0.3592 -0.0274
  514TMC3    O1 7698   3.422   3.157  13.322  0.3753  0.1052  0.3672
  514TMC3    O2 7699   2.976   3.502  13.021  0.0643 -0.3455  0.1312
  515MPD2     C 7700   1.436   0.485  15.401 -0.0251 -0.4677 -0.0757
  515MPD2    C1 7701   1.468   0.477  15.269 -0.9891 -0.1510 -0.3508
  515MPD2    C2 7702   1.544   0.585  15.223 -0.3158  0.2190  0.6072
  515MPD2    C3 7703   1.594   0.689  15.302  0.5162  0.1755  0.3453
  515MPD2    C4 7704   1.559   0.691  15.436  0.2822 -0.5243 -0.2377
  515MPD2    C5 7705   1.491   0.583  15.485 -0.4082  0.1156 -0.0456
  515MPD2     H 7706   1.567   0.579  15.118 -2.0057  0.5517  0.2043
  515MPD2    H1 7707   1.589   0.775  15.497 -1.8867 -0.9811  1.4412
  515MPD2    H2 7708   1.383   0.405  15.452 -1.0842 -0.8176 -1.7530
  515MPD2    H3 7709   1.463   0.575  15.589  0.1011  2.6720  0.2751
  515MPD2     N 7710   1.685   0.787  15.255 -0.0440 -0.0708 -0.5070
  515MPD2    H5 7711   1.722   0.845  15.330  0.8256 -1.9145  0.4795
  515MPD2    N1 7712   1.418   0.379  15.177 -0.4188 -0.7008 -0.0741
  515MPD2    H7 7713   1.436   0.392  15.078 -1.2370 -0.3369 -0.1810
  516TMC3    C1 7714   1.311   0.179  15.113  0.0598 -0.4830  0.4156
  516TMC3    C2 7715   1.279   0.210  14.989 -0.3322 -0.2034 -0.0368
  516TMC3    C3 7716   1.237   0.104  14.909 -0.4191  0.0663  0.4963
  516TMC3    C4 7717   1.320   0.050  15.157 -0.0438 -0.0497  0.4832
  516TMC3    C5 7718   1.292   4.682  15.068  0.1695  0.1814 -0.0644
  516TMC3    C6 7719   1.236   4.710  14.945 -0.0030 -0.0348  0.2252
  516TMC3     C 7720   1.340   0.280  15.218 -0.3802  0.5566 -0.2614
  516TMC3     O 7721   1.294   0.249  15.325 -0.1564  0.4649 -0.1546
  516TMC3     H 7722   1.273   0.311  14.951 -0.5599 -0.2560 -0.1411
  516TMC3    H1 7723   1.376   0.033  15.248  0.1355  0.8899  0.5433
  516TMC3    H2 7724   1.200   4.633  14.878 -2.3534  0.2866  1.1234
  516TMC3    C7 7725   1.320   4.551  15.114 -0.3699 -0.7413 -0.2615
  516TMC3    C8 7726   1.203   0.136  14.775  0.3508 -0.1581  0.0419
  516TMC3    O1 7727   1.360   4.544  15.232 -1.2747  0.0406  0.4217
  516TMC3    O2 7728   1.116   0.074  14.719  0.0894 -0.1791  0.8766
  517MPD2     C 7729   0.879   2.203  17.736  0.6860 -0.0421 -0.1712
  517MPD2    C1 7730   1.019   2.210  17.731  0.0492 -0.1516  0.1888
  517MPD2    C2 7731   1.078   2.320   0.047 -0.2927 -0.0149  0.0736
  517MPD2    C3 7732   1.002   2.429   0.092  0.0715  0.8912  0.7025
  517MPD2    C4 7733   0.867   2.423   0.083 -0.1343 -0.3009 -0.4275
  517MPD2    C5 7734   0.805   2.308   0.034 -0.9786  0.4232  0.1496
  517MPD2     H 7735   1.186   2.327   0.042 -0.1656 -1.0914  1.2530
  517MPD2    H1 7736   0.797   2.495   0.123  0.6404 -0.0685  0.5079
  517MPD2    H2 7737   0.823   2.123  17.689  0.2264 -0.4308  1.0229
  517MPD2    H3 7738   0.698   2.292   0.032 -1.3387  2.7138  0.6044
  517MPD2     N 7739   1.064   2.541   0.148 -0.3156  0.7726 -0.1246
  517MPD2    H5 7740   1.010   2.624   0.169  1.8569  2.1743 -0.1396
  517MPD2    N1 7741   1.099   2.104  17.688 -0.4664 -0.0967 -0.3044
  517MPD2    H7 7742   1.199   2.104  17.702  0.0289  1.2447 -3.8883
  518TMC3    C1 7743   1.165   1.889  17.598 -0.3253 -0.0575  0.2740
  518TMC3    C2 7744   1.139   1.753  17.629  0.0899  0.5028  0.1763
  518TMC3    C3 7745   1.247   1.669  17.606  0.0596 -0.3064 -0.1271
  518TMC3    C4 7746   1.285   1.939  17.566  0.1002  0.1539 -0.4636
  518TMC3    C5 7747   1.380   1.848  17.533  0.6365 -0.4892  0.1143
  518TMC3    C6 7748   1.371   1.712  17.562 -0.3551 -0.1208  0.4256
  518TMC3     C 7749   1.059   1.982  17.637  0.2645 -0.2044  0.4145
  518TMC3     O 7750   0.947   1.939  17.613 -1.0283  0.3574 -0.1773
  518TMC3     H 7751   1.039   1.719  17.654  0.7568 -1.1157  0.6097
  518TMC3    H1 7752   1.295   2.042  17.535  1.6390  0.8740  2.4185
  518TMC3    H2 7753   1.449   1.637  17.557 -1.6310 -1.2766 -2.2158
  518TMC3    C7 7754   1.476   1.886  17.431 -0.7399 -0.0866 -0.5583
  518TMC3    C8 7755   1.220   1.526  17.590 -0.2562 -1.2318  0.1439
  518TMC3    O1 7756   1.493   2.008  17.422 -0.5559  0.2033  0.3092
  518TMC3    O2 7757   1.313   1.457  17.549  0.1918 -0.7772  0.1210
  519MPD2     C 7758   2.673   0.366  14.569 -0.5727 -0.4048  0.2245
  519MPD2    C1 7759   2.689   0.385  14.435  0.0868 -0.2062  0.0365
  519MPD2    C2 7760   2.704   0.279  14.343 -1.1683  0.3646  0.3045
  519MPD2    C3 7761   2.747   0.156  14.397  0.5530  0.5097 -0.5764
  519MPD2    C4 7762   2.742   0.141  14.535  0.5897 -0.2317 -1.0438
  519MPD2    C5 7763   2.698   0.242  14.618 -0.3137 -0.1639  0.0679
  519MPD2     H 7764   2.692   0.292  14.236  1.0786  0.0457  0.0116
  519MPD2    H1 7765   2.768   0.049  14.585 -2.2184 -2.9939 -4.6604
  519MPD2    H2 7766   2.624   0.443  14.627 -0.3339 -0.4413  0.4768
  519MPD2    H3 7767   2.691   0.223  14.724  0.8302 -0.5588  0.0730
  519MPD2     N 7768   2.783   0.045  14.316 -0.0239 -0.9223 -0.2884
  519MPD2    H5 7769   2.757   0.059  14.219 -0.0938 -0.0170 -0.1326
  519MPD2    N1 7770   2.646   0.506  14.382  0.2626  0.3831 -0.0882
  519MPD2    H7 7771   2.592   0.567  14.442  2.0008 -0.0854  1.9481
  520TMC3    C1 7772   2.925   4.632  14.250  0.3840 -0.5932 -0.0590
  520TMC3    C2 7773   2.849   4.591  14.143 -0.1323 -0.4579 -0.6051
  520TMC3    C3 7774   2.923   4.552  14.032  0.0078  0.6909  0.2631
  520TMC3    C4 7775   3.063   4.628  14.258  0.8103 -0.3742  0.7615
  520TMC3    C5 7776   3.125   4.581  14.146 -0.0784  0.4761  0.7010
  520TMC3    C6 7777   3.062   4.544  14.026  0.6309 -0.6752  0.0045
  520TMC3     C 7778   2.863   4.686  14.361 -0.8841  0.3438  0.0911
  520TMC3     O 7779   2.915   4.662  14.467 -0.4027 -0.4379  0.4076
  520TMC3     H 7780   2.741   4.606  14.148  0.2565  2.8376 -1.6373
  520TMC3    H1 7781   3.120   4.635  14.351  0.4361 -0.1573  0.9735
  520TMC3    H2 7782   3.107   4.505  13.935  0.4294 -0.6238 -0.1170
  520TMC3    C7 7783   3.248   4.508  14.185 -0.7455  0.2711 -1.1512
  520TMC3    C8 7784   2.850   4.551  13.903  0.5510 -0.2282  0.0061
  520TMC3    O1 7785   3.300   4.519  14.298  0.1424 -0.4207 -0.5904
  520TMC3    O2 7786   2.915   4.534  13.803 -0.5412  0.5491  0.0594
  521MPD2     C 7787   3.744   2.583  17.447  0.3695  0.3165 -0.4767
  521MPD2    C1 7788   3.738   2.627  17.317  0.2288  0.5671  0.2857
  521MPD2    C2 7789   3.849   2.620  17.227  0.4509  0.2119  0.3377
  521MPD2    C3 7790   3.963   2.562  17.275  0.3471 -0.2178  0.1686
  521MPD2    C4 7791   3.970   2.528  17.410  0.8891 -0.0489  0.5328
  521MPD2    C5 7792   3.863   2.531  17.491 -0.1475 -0.3659  1.2128
  521MPD2     H 7793   3.847   2.668  17.130 -0.8006 -1.5610 -0.5412
  521MPD2    H1 7794   4.059   2.485  17.455  0.6520  0.3251  1.3627
  521MPD2    H2 7795   3.666   2.602  17.519  0.4236  2.5279 -0.9957
  521MPD2    H3 7796   3.871   2.499  17.594 -0.5059 -0.5193  1.1944
  521MPD2     N 7797   4.074   2.574  17.187 -0.3822  0.2760 -0.2198
  521MPD2    H5 7798   4.067   2.606  17.091 -2.3500 -0.0475 -0.1809
  521MPD2    N1 7799   3.611   2.679  17.284  0.0536  0.4158 -0.1515
  521MPD2    H7 7800   3.532   2.671  17.347 -0.2523  2.1032 -0.3231
  522TMC3    C1 7801   4.285   2.548  17.099  0.2743  0.1856  0.4863
  522TMC3    C2 7802   4.408   2.487  17.117  0.1196  0.4720  0.3223
  522TMC3    C3 7803   4.499   2.488  17.017 -0.1414  0.0123  0.4104
  522TMC3    C4 7804   4.261   2.629  16.987 -0.6050  0.3500 -0.5228
  522TMC3    C5 7805   4.361   2.638  16.892 -0.6997  0.1844  0.4224
  522TMC3    C6 7806   4.476   2.569  16.905  0.4532  0.4136 -0.6616
  522TMC3     C 7807   4.201   2.539  17.219  0.4312  0.6222  0.6924
  522TMC3     O 7808   4.231   2.479  17.321  0.3541  0.4030  0.2233
  522TMC3     H 7809   4.427   2.423  17.202 -0.2603 -0.8010 -0.5577
  522TMC3    H1 7810   4.164   2.678  16.979 -1.7373 -2.0728 -1.4335
  522TMC3    H2 7811   4.546   2.577  16.823  1.8065 -0.2062  0.4381
  522TMC3    C7 7812   4.367   2.765  16.819  0.1454 -0.4172 -0.5404
  522TMC3    C8 7813   4.630   2.433  17.049 -0.1874 -0.2982 -0.0848
  522TMC3    O1 7814   4.478   2.796  16.772 -0.1426  0.0037 -0.2524
  522TMC3    O2 7815   4.648   2.421  17.167  0.1713  0.2845 -0.4459
  523MPD2     C 7816   2.253   3.255  10.056 -0.0264  0.2041  0.0171
  523MPD2    C1 7817   2.132   3.195  10.022 -0.3162  0.0282  0.6203
  523MPD2    C2 7818   2.022   3.264   9.969 -0.2110  0.0308 -0.3823
  523MPD2    C3 7819   2.048   3.403   9.950 -0.1798 -0.8920  1.0775
  523MPD2    C4 7820   2.166   3.464   9.992 -0.1776  0.3036 -0.4258
  523MPD2    C5 7821   2.266   3.390  10.042 -0.1847 -0.5880  0.0764
  523MPD2     H 7822   1.925   3.218   9.954  1.7690 -3.0800 -3.5825
  523MPD2    H1 7823   2.182   3.571   9.999  1.5341 -0.0598  1.2392
  523MPD2    H2 7824   2.341   3.210  10.100  0.9241 -0.1669 -2.2765
  523MPD2    H3 7825   2.358   3.438  10.070  0.0899 -1.4833  0.7153
  523MPD2     N 7826   1.947   3.488   9.911  0.1200 -0.1277  0.3578
  523MPD2    H5 7827   1.955   3.588   9.922  0.9421 -0.0843 -0.5813
  523MPD2    N1 7828   2.122   3.058  10.059  0.7002 -0.1097  0.1429
  523MPD2    H7 7829   2.204   3.021  10.106  0.5197 -1.1151 -0.3434
  524TMC3    C1 7830   1.732   3.557   9.835 -0.9034  0.4028 -0.2912
  524TMC3    C2 7831   1.623   3.549   9.747 -0.4608  0.6442  0.1645
  524TMC3    C3 7832   1.536   3.656   9.742  0.2250  0.2339 -0.3934
  524TMC3    C4 7833   1.746   3.659   9.924 -0.1753  0.5590  0.2941
  524TMC3    C5 7834   1.652   3.761   9.923 -0.1547 -0.0608 -0.6609
  524TMC3    C6 7835   1.547   3.758   9.829 -0.3149 -0.2636 -0.1756
  524TMC3     C 7836   1.826   3.446   9.852 -0.6349  0.4797  0.3001
  524TMC3     O 7837   1.780   3.335   9.818 -0.4492  0.0967  0.0775
  524TMC3     H 7838   1.631   3.469   9.675 -1.5669 -2.0656  3.0470
  524TMC3    H1 7839   1.811   3.656  10.010 -1.2201  0.4410  1.0849
  524TMC3    H2 7840   1.463   3.826   9.832  0.1000  0.2602 -0.6962
  524TMC3    C7 7841   1.665   3.863  10.021 -0.2372  0.2132  1.1006
  524TMC3    C8 7842   1.424   3.651   9.651  0.2403 -0.5427 -0.0949
  524TMC3    O1 7843   1.729   3.836  10.117  0.1007 -0.4075 -0.1665
  524TMC3    O2 7844   1.382   3.757   9.608 -0.5293 -0.1288  0.3736
  525MPD2     C 7845   4.230   4.485  14.569 -0.9197 -0.1467 -0.6648
  525MPD2    C1 7846   4.349   4.491  14.645 -0.0869  0.0166 -0.2911
  525MPD2    C2 7847   4.443   4.586  14.607  0.2211  0.1946 -0.9846
  525MPD2    C3 7848   4.414   4.682  14.511  0.0747  0.4559 -0.8862
  525MPD2    C4 7849   4.296   4.671  14.446  0.2797  0.1444  0.1080
  525MPD2    C5 7850   4.205   4.576  14.477  0.1484 -1.1414  0.1209
  525MPD2     H 7851   4.539   4.587  14.656 -1.1319 -2.7979  1.7199
  525MPD2    H1 7852   4.254   0.010  14.380 -2.4161 -0.7155  0.8467
  525MPD2    H2 7853   4.156   4.407  14.582 -0.5327 -0.5734 -1.0305
  525MPD2    H3 7854   4.110   4.579  14.425 -1.1849  1.8811  2.7625
  525MPD2     N 7855   4.504   0.046  14.448 -0.1547 -0.6094  0.0582
  525MPD2    H5 7856   4.458   0.120  14.396  0.5100 -0.5491 -0.4479
  525MPD2    N1 7857   4.365   4.405  14.755 -0.7649 -0.0020 -0.0757
  525MPD2    H7 7858   4.459   4.406  14.795 -1.0204  2.6068  0.4685
  526TMC3    C1 7859   4.315   4.241  14.923  1.2595  0.1350  0.6027
  526TMC3    C2 7860   4.222   4.202  15.011 -0.9168 -0.6298  0.3597
  526TMC3    C3 7861   4.272   4.132  15.123  0.0794 -0.3872 -0.8311
  526TMC3    C4 7862   4.447   4.203  14.922  0.4169  0.1450 -0.0808
  526TMC3    C5 7863   4.491   4.138  15.035 -0.3201  0.0700  0.6669
  526TMC3    C6 7864   4.407   4.105  15.142 -0.6317 -0.7505  0.4435
  526TMC3     C 7865   4.266   4.335  14.822  0.7854  0.4963  0.5824
  526TMC3     O 7866   4.143   4.344  14.818  0.1380  0.7636  0.7070
  526TMC3     H 7867   4.121   4.241  15.003  0.0671  2.1354  1.2715
  526TMC3    H1 7868   4.501   4.219  14.830 -1.0468 -0.1739 -1.0083
  526TMC3    H2 7869   4.456   4.065  15.230  0.6400  0.9963  0.5246
  526TMC3    C7 7870   4.626   4.083  15.033  0.3410 -0.6329  0.5884
  526TMC3    C8 7871   4.194   4.123  15.243  0.4183 -0.7563 -0.2877
  526TMC3    O1 7872   4.644   3.978  15.099  0.2848 -0.5225  0.1964
  526TMC3    O2 7873   4.252   4.095  15.346  0.2284  0.0696 -0.3434
  527MPD2     C 7874   2.577   3.042   1.320 -0.0668 -0.0253  0.8533
  527MPD2    C1 7875   2.512   2.938   1.258  0.2358 -0.4004  0.8220
  527MPD2    C2 7876   2.585   2.840   1.200  0.0102  0.1709  0.3225
  527MPD2    C3 7877   2.727   2.836   1.208 -0.1739  0.9159 -0.2735
  527MPD2    C4 7878   2.791   2.945   1.263  0.4620 -0.6485 -0.4875
  527MPD2    C5 7879   2.718   3.046   1.318 -0.5037  0.2309 -0.4419
  527MPD2     H 7880   2.532   2.752   1.165 -1.1642  1.1411 -0.3159
  527MPD2    H1 7881   2.898   2.944   1.275  0.3304  1.4768  0.8069
  527MPD2    H2 7882   2.528   3.129   1.363  0.5033  0.4280  0.5860
  527MPD2    H3 7883   2.762   3.123   1.380 -1.0318 -0.3211  0.6096
  527MPD2     N 7884   2.796   2.734   1.145  0.5620 -0.1666  0.2063
  527MPD2    H5 7885   2.748   2.652   1.110 -0.0615 -0.8482  2.6194
  527MPD2    N1 7886   2.374   2.937   1.237 -0.1874 -0.6181  0.6551
  527MPD2    H7 7887   2.332   2.871   1.173  2.1565  0.0801 -1.5661
  528TMC3    C1 7888   2.153   2.991   1.294 -0.8437 -0.0895 -0.2772
  528TMC3    C2 7889   2.120   2.950   1.170  0.0034 -0.9896 -0.2838
  528TMC3    C3 7890   1.998   2.900   1.157  0.0529  0.2117  0.1880
  528TMC3    C4 7891   2.069   3.015   1.396  0.1419  0.3754 -0.3216
  528TMC3    C5 7892   1.942   2.969   1.378 -0.0614  0.1931  0.0216
  528TMC3    C6 7893   1.908   2.917   1.256  0.4142 -0.2294 -0.0335
  528TMC3     C 7894   2.290   3.013   1.314  0.6015 -0.9857 -0.2242
  528TMC3     O 7895   2.312   3.077   1.411  0.0997  0.0360 -0.0137
  528TMC3     H 7896   2.185   2.941   1.084 -0.7961 -2.4087 -0.7344
  528TMC3    H1 7897   2.099   3.059   1.490 -1.7559 -0.0006  0.4710
  528TMC3    H2 7898   1.807   2.883   1.238  1.4261 -2.7564 -0.9460
  528TMC3    C7 7899   1.848   2.966   1.485  0.1971 -0.1212  0.2449
  528TMC3    C8 7900   1.965   2.827   1.035 -0.6264 -0.0142 -0.5888
  528TMC3    O1 7901   1.730   2.971   1.460  0.2304 -0.0349  0.6090
  528TMC3    O2 7902   2.041   2.845   0.943 -0.6279  0.2628  0.2229
  529MPD2     C 7903   4.485   1.490   1.107 -0.0134 -0.7879 -0.3170
  529MPD2    C1 7904   4.516   1.378   1.036 -0.5352  0.1976  1.1472
  529MPD2    C2 7905   4.495   1.375   0.905  0.3814 -0.3746  0.4378
  529MPD2    C3 7906   4.451   1.487   0.836  0.0287 -0.9609  0.5734
  529MPD2    C4 7907   4.418   1.599   0.911 -0.1726  0.5522  0.7213
  529MPD2    C5 7908   4.427   1.590   1.043 -0.2520  0.6989 -0.8076
  529MPD2     H 7909   4.540   1.290   0.855 -0.9566 -0.2579 -0.9738
  529MPD2    H1 7910   4.368   1.687   0.871 -0.2333  1.4139  2.6660
  529MPD2    H2 7911   4.484   1.493   1.215  0.9013  0.3627 -0.3355
  529MPD2    H3 7912   4.374   1.670   1.093 -1.0259 -1.1244  1.2926
  529MPD2     N 7913   4.433   1.487   0.699  0.5417  0.0979  0.9300
  529MPD2    H5 7914   4.425   1.577   0.654 -0.0055 -2.1250 -3.3480
  529MPD2    N1 7915   4.592   1.275   1.100  0.6019  0.3355  0.6111
  529MPD2    H7 7916   4.650   1.218   1.040  1.4009  0.1065  1.6053
  530TMC3    C1 7917   4.685   1.152   1.289  0.4386  0.4552 -0.8098
  530TMC3    C2 7918   0.039   1.194   1.380  0.6359 -0.5822 -0.8906
  530TMC3    C3 7919   0.158   1.126   1.376  0.3607 -0.0763  1.3590
  530TMC3    C4 7920   4.701   1.045   1.207  0.0560  0.1941  0.8424
  530TMC3    C5 7921   0.082   0.974   1.223 -0.6126  0.8439 -0.2556
  530TMC3    C6 7922   0.184   1.019   1.296 -0.0075  0.1366  0.8376
  530TMC3     C 7923   4.598   1.257   1.236 -0.5627  0.1268 -0.2108
  530TMC3     O 7924   4.528   1.304   1.325 -0.7413 -0.3069 -0.3400
  530TMC3     H 7925   0.035   1.292   1.426 -0.5796 -1.3097  0.5951
  530TMC3    H1 7926   4.614   1.015   1.148  0.4231 -0.0830  0.4409
  530TMC3    H2 7927   0.273   0.958   1.285  0.1221  0.8711 -1.9659
  530TMC3    C7 7928   0.089   0.836   1.181  0.7670 -0.3602  0.5729
  530TMC3    C8 7929   0.243   1.159   1.486 -0.0875  1.0333 -0.6447
  530TMC3    O1 7930   0.200   0.792   1.168  0.8569 -0.5797  0.0936
  530TMC3    O2 7931   0.188   1.211   1.582 -0.1232  0.3137 -0.0869
  531MPD2     C 7932   3.909   3.340  13.312 -0.2515  0.1638  0.6571
  531MPD2    C1 7933   3.797   3.331  13.394  0.3441  0.8430 -0.6343
  531MPD2    C2 7934   3.674   3.305  13.338  0.1312 -0.4678 -0.1545
  531MPD2    C3 7935   3.656   3.277  13.202  0.9573  0.2299  0.6121
  531MPD2    C4 7936   3.772   3.282  13.124  0.2055 -0.8240  0.2849
  531MPD2    C5 7937   3.899   3.318  13.174 -0.3327 -0.1055  0.2383
  531MPD2     H 7938   3.587   3.310  13.402 -0.5621 -1.7433 -1.0141
  531MPD2    H1 7939   3.773   3.244  13.022 -0.6651 -0.1866  0.0398
  531MPD2    H2 7940   4.004   3.367  13.357 -0.8669  0.2965  1.8715
  531MPD2    H3 7941   3.986   3.313  13.109 -2.3825 -0.0491 -2.4771
  531MPD2     N 7942   3.532   3.257  13.145 -0.5784 -0.4376  0.0557
  531MPD2    H5 7943   3.519   3.276  13.046 -1.0146  0.5919  0.3186
  531MPD2    N1 7944   3.814   3.357  13.534 -0.1304 -0.5446 -0.2599
  531MPD2    H7 7945   3.906   3.355  13.576 -0.3469  1.9548  0.3357
  532TMC3    C1 7946   3.755   3.357  13.762 -0.1328  0.1282 -0.2411
  532TMC3    C2 7947   3.647   3.382  13.836  1.3279 -0.0746 -0.3681
  532TMC3    C3 7948   3.623   3.301  13.943  0.4348  0.3813  0.1390
  532TMC3    C4 7949   3.849   3.254  13.793  0.4562 -0.1795 -1.2753
  532TMC3    C5 7950   3.826   3.188  13.902  0.1160 -0.4630 -0.2309
  532TMC3    C6 7951   3.714   3.207  13.981  0.4980  0.2187 -0.2288
  532TMC3     C 7952   3.712   3.366  13.623 -0.2421 -0.2197  0.4002
  532TMC3     O 7953   3.587   3.361  13.614  0.5256  0.0322 -0.2169
  532TMC3     H 7954   3.581   3.463  13.808 -0.5223 -1.1522  0.9152
  532TMC3    H1 7955   3.932   3.231  13.727 -0.1265  0.6286 -2.2979
  532TMC3    H2 7956   3.687   3.148  14.067 -2.0526  1.4521 -0.1905
  532TMC3    C7 7957   3.919   3.089  13.961 -0.2019 -0.3929 -0.2680
  532TMC3    C8 7958   3.488   3.261  13.948  0.6397  0.0833 -0.4411
  532TMC3    O1 7959   3.883   3.052  14.071 -0.3932  0.1499  0.6065
  532TMC3    O2 7960   3.449   3.184  14.033 -0.1763  0.2680 -0.2003
  533TMC3    C1 7961   4.663   0.214  14.478 -0.6263  0.3722 -0.1634
  533TMC3    C2 7962   0.059   0.252  14.472 -0.3794 -0.3505  0.7000
  533TMC3    C3 7963   0.091   0.357  14.549  0.4384 -0.0554  0.5052
  533TMC3    C4 7964   4.573   0.287  14.555 -0.3910  0.2749  0.5937
  533TMC3    C5 7965   4.608   0.395  14.631 -0.8131  0.8419  0.0541
  533TMC3    C6 7966   0.003   0.434  14.621  0.3907 -0.5008 -0.5503
  533TMC3     C 7967   4.638   0.073  14.488  0.2897  0.0206  0.5268
  533TMC3     O 7968   4.702   0.003  14.561  0.0780  0.1468  0.2384
  533TMC3     H 7969   0.129   0.177  14.438  0.6689  0.5080  0.9743
  533TMC3    H1 7970   4.470   0.256  14.567 -0.6869  0.1761 -2.0794
  533TMC3    H2 7971   0.043   0.522  14.670 -2.4242  0.5973 -0.2134
  533TMC3    C7 7972   4.579   0.369  14.769  0.2870  0.2137 -0.2923
  533TMC3    C8 7973   0.231   0.394  14.561  0.3668  0.2220 -0.1479
  533TMC3    O1 7974   4.524   0.264  14.795  0.6824 -0.6337 -0.4524
  533TMC3    O2 7975   0.260   0.423  14.677 -0.6372  0.1322 -0.6205
  534MPD2     C 7976   2.642   1.218   0.896  0.2824  0.0133 -0.3748
  534MPD2    C1 7977   2.622   1.343   0.950  0.0235 -0.5199  0.1046
  534MPD2    C2 7978   2.491   1.396   0.961  1.1115  0.9601  0.2134
  534MPD2    C3 7979   2.386   1.322   0.925 -0.7998  0.2359  0.1461
  534MPD2    C4 7980   2.398   1.196   0.870 -0.4807  0.3695 -0.0304
  534MPD2    C5 7981   2.529   1.150   0.854 -0.5588  0.0066  0.0958
  534MPD2     H 7982   2.473   1.495   1.001  0.1066 -0.0316  2.1589
  534MPD2    H1 7983   2.316   1.136   0.835 -1.2696  0.5930  1.4463
  534MPD2    H2 7984   2.738   1.170   0.889 -0.1934 -1.4188  2.8505
  534MPD2    H3 7985   2.547   1.056   0.804 -0.7609  0.8457 -1.5546
  534MPD2     N 7986   2.253   1.361   0.955 -0.1102  0.4895 -0.8473
  534MPD2    H5 7987   2.180   1.321   0.897 -0.3359 -1.5780  0.8791
  534MPD2    N1 7988   2.731   1.419   1.000 -0.0858  0.5227 -0.8125
  534MPD2    H7 7989   2.697   1.506   1.040 -2.0519 -0.6991  0.1419
  535TMC3    C1 7990   2.084   1.502   1.023  0.4302 -0.2461 -0.0530
  535TMC3    C2 7991   1.994   1.523   1.128 -0.3463 -0.0895 -0.2975
  535TMC3    C3 7992   1.864   1.537   1.090  0.1112 -0.1939 -0.3164
  535TMC3    C4 7993   2.045   1.514   0.893 -0.2537 -0.5796  0.3311
  535TMC3    C5 7994   1.913   1.539   0.870 -0.0163 -0.0888 -0.2646
  535TMC3    C6 7995   1.822   1.553   0.965 -0.0842  0.0733 -0.0417
  535TMC3     C 7996   2.211   1.449   1.051 -0.2663  0.1935  0.2810
  535TMC3     O 7997   2.281   1.488   1.147  0.2813 -0.2378 -0.2735
  535TMC3     H 7998   2.028   1.519   1.231  0.4147  0.7105 -0.5086
  535TMC3    H1 7999   2.120   1.504   0.815  1.1152  1.0146  1.4334
  535TMC3    H2 8000   1.716   1.571   0.952  0.0435 -0.6994 -2.1467
  535TMC3    C7 8001   1.875   1.551   0.736  0.5630 -0.1581 -0.7014
  535TMC3    C8 8002   1.754   1.503   1.191 -1.2610  0.4481 -0.3627
  535TMC3    O1 8003   1.941   1.490   0.653  0.5871  0.3002 -0.5782
  535TMC3    O2 8004   1.650   1.461   1.147 -0.1077  0.1456  0.0619
  536MPD2     C 8005   1.028   4.447  16.514  0.1516 -0.2580  0.6421
  536MPD2    C1 8006   0.912   4.385  16.536  0.1756 -0.0216 -0.2915
  536MPD2    C2 8007   0.819   4.385  16.432 -0.3460  0.4548  0.6163
  536MPD2    C3 8008   0.844   4.456  16.313 -0.8699 -0.1841  0.3587
  536MPD2    C4 8009   0.968   4.512  16.291 -0.1650 -0.4835  0.1852
  536MPD2    C5 8010   1.057   4.501  16.395  0.0608  0.4402 -0.8787
  536MPD2     H 8011   0.729   4.325  16.436 -0.1177  0.1319  0.8631
  536MPD2    H1 8012   0.984   4.571  16.201 -0.8050  2.2869  1.9144
  536MPD2    H2 8013   1.099   4.460  16.595 -0.6100  0.3537  1.2114
  536MPD2    H3 8014   1.148   4.557  16.373  0.5303 -1.2167 -3.0907
  536MPD2     N 8015   0.753   4.468  16.205 -0.2078  0.1207 -0.1914
  536MPD2    H5 8016   0.795   4.505  16.120 -2.7686  2.0130 -0.6735
  536MPD2    N1 8017   0.884   4.319  16.660 -0.0105  0.2775 -0.6359
  536MPD2    H7 8018   0.948   4.335  16.737 -1.6708  3.6489  0.0577
  537TMC3    C1 8019   0.781   4.160  16.808  0.3961  0.3258  0.0675
  537TMC3    C2 8020   0.857   4.204  16.913 -0.0912 -0.6013  0.0731
  537TMC3    C3 8021   0.843   4.148  17.037 -0.2435  0.2339  0.5410
  537TMC3    C4 8022   0.693   4.060  16.830 -0.1039 -0.6001  0.1241
  537TMC3    C5 8023   0.685   4.001  16.955 -0.3833  0.6002 -0.8766
  537TMC3    C6 8024   0.758   4.038  17.058  0.2505  0.4283 -0.3943
  537TMC3     C 8025   0.777   4.232  16.679 -0.5928  0.0911  0.2991
  537TMC3     O 8026   0.682   4.192  16.610  0.1323 -0.0129  0.0243
  537TMC3     H 8027   0.924   4.289  16.910 -3.2135  1.9793  1.9331
  537TMC3    H1 8028   0.636   4.016  16.749 -1.4548  2.0439 -0.3596
  537TMC3    H2 8029   0.759   3.994  17.156 -1.3610 -0.8013 -0.9364
  537TMC3    C7 8030   0.571   3.921  16.979 -1.1182  0.4536 -0.5822
  537TMC3    C8 8031   0.912   4.206  17.150  0.7387  0.0988 -0.3976
  537TMC3    O1 8032   0.491   3.914  16.887 -0.9175 -0.1968  0.1826
  537TMC3    O2 8033   0.978   4.301  17.120  0.1393 -0.2238 -0.5155
  538TMC3    C1 8034   2.048   2.670  11.199  0.4416 -0.4025 -0.0261
  538TMC3    C2 8035   2.186   2.688  11.217 -0.1651  0.2245  0.5244
  538TMC3    C3 8036   2.265   2.710  11.108  0.1637 -0.6448 -0.4333
  538TMC3    C4 8037   1.999   2.678  11.077 -0.4086 -0.6106  0.4852
  538TMC3    C5 8038   2.083   2.707  10.971 -0.0154  0.0050  0.4497
  538TMC3    C6 8039   2.218   2.724  10.981  0.1145 -0.5112 -0.1370
  538TMC3     C 8040   1.951   2.676  11.313 -0.5979 -0.1207  0.6302
  538TMC3     O 8041   1.828   2.691  11.291  0.4678  0.0880 -0.0842
  538TMC3     H 8042   2.224   2.702  11.318 -2.6270 -0.9885  1.6298
  538TMC3    H1 8043   1.894   2.661  11.055 -1.2972  1.7629  2.7937
  538TMC3    H2 8044   2.284   2.722  10.895  0.2456  1.5108 -0.0662
  538TMC3    C7 8045   2.013   2.722  10.842 -0.4019 -0.6882  0.9590
  538TMC3    C8 8046   2.406   2.682  11.141  0.4580 -0.1540  0.2792
  538TMC3    O1 8047   1.910   2.656  10.822  0.2212  0.0946 -0.2189
  538TMC3    O2 8048   2.421   2.629  11.254 -0.0371 -0.0281 -0.5163
  539MPD2     C 8049   1.902   1.867  11.902  0.4987 -0.3390 -0.1394
  539MPD2    C1 8050   1.902   1.866  11.765  0.3483 -0.2414  0.2369
  539MPD2    C2 8051   1.832   1.963  11.704  0.5565 -0.0230 -0.1530
  539MPD2    C3 8052   1.764   2.065  11.775 -0.3254 -1.1530 -0.0936
  539MPD2    C4 8053   1.760   2.053  11.914 -0.5912 -0.4471  0.1364
  539MPD2    C5 8054   1.829   1.950  11.969 -0.0318 -0.4810 -0.4239
  539MPD2     H 8055   1.843   1.969  11.596  0.3621 -0.3667 -0.1884
  539MPD2    H1 8056   1.726   2.140  11.970 -1.2425 -0.9311  0.5003
  539MPD2    H2 8057   1.971   1.807  11.961 -2.3158 -2.9346  0.5513
  539MPD2    H3 8058   1.829   1.952  12.078 -0.2630  0.7664 -0.4388
  539MPD2     N 8059   1.713   2.176  11.715 -0.2189  0.1205  0.5785
  539MPD2    H5 8060   1.668   2.244  11.775 -0.8688  1.1146 -1.0591
  539MPD2    N1 8061   1.978   1.783  11.681  0.5426  0.1991  0.5951
  539MPD2    H7 8062   1.949   1.771  11.584  0.5079  1.8253  0.4050
  540TMC3    C1 8063   1.644   2.324  11.535 -0.1239  0.9096  0.5904
  540TMC3    C2 8064   1.652   2.348  11.400  0.0116 -0.3223 -0.5908
  540TMC3    C3 8065   1.554   2.439  11.357 -0.1684 -0.0713  0.2079
  540TMC3    C4 8066   1.529   2.351  11.607  0.5231  0.0856  0.7245
  540TMC3    C5 8067   1.446   2.446  11.558 -0.7998  0.1648  0.3489
  540TMC3    C6 8068   1.455   2.499  11.431  1.0491 -0.2149 -0.1357
  540TMC3     C 8069   1.721   2.206  11.575  0.3660  0.6331 -0.1485
  540TMC3     O 8070   1.766   2.141  11.482 -0.7399 -0.2909  0.4657
  540TMC3     H 8071   1.748   2.338  11.351 -0.7324 -0.8769 -1.9675
  540TMC3    H1 8072   1.518   2.315  11.709 -0.4449 -0.1004  0.5535
  540TMC3    H2 8073   1.380   2.554  11.376  0.6380 -0.9459 -0.3062
  540TMC3    C7 8074   1.315   2.460  11.623 -0.8404  0.0120  0.1185
  540TMC3    C8 8075   1.569   2.482  11.220  0.6483 -0.3100  0.0308
  540TMC3    O1 8076   1.277   2.378  11.709 -0.1858  0.0072  0.9503
  540TMC3    O2 8077   1.534   2.595  11.196  0.5052 -0.1196 -0.3668
  541MPD2     C 8078   0.088   2.946  13.414 -0.5105 -0.1666  0.0368
  541MPD2    C1 8079   0.109   2.863  13.306  0.0884 -0.1112 -0.2751
  541MPD2    C2 8080   0.181   2.906  13.195 -0.0615 -0.2043  0.1860
  541MPD2    C3 8081   0.222   3.037  13.192 -0.2143  0.1865  0.8067
  541MPD2    C4 8082   0.182   3.124  13.291 -0.5151 -0.0935  0.4406
  541MPD2    C5 8083   0.121   3.079  13.409 -0.0740  0.0010 -0.6959
  541MPD2     H 8084   0.214   2.835  13.120 -0.0919  0.8318 -0.8105
  541MPD2    H1 8085   0.211   3.227  13.278  1.3994 -0.9306 -1.8366
  541MPD2    H2 8086   0.037   2.908  13.502 -3.2133  1.3012 -0.8931
  541MPD2    H3 8087   0.088   3.144  13.490 -0.9206 -2.3132  0.8470
  541MPD2     N 8088   0.300   3.096  13.081  0.5171 -0.3184 -0.0622
  541MPD2    H5 8089   0.336   3.190  13.091  0.9966 -0.4028 -0.9942
  541MPD2    N1 8090   0.077   2.718  13.317 -0.0105  0.2206 -0.0282
  541MPD2    H7 8091   0.101   2.666  13.234 -2.5561  1.8189 -1.7794
  542TMC3    C1 8092   0.354   3.128  12.848 -0.1886 -0.4549  0.1350
  542TMC3    C2 8093   0.424   3.086  12.738  0.2552 -0.8938 -1.0362
  542TMC3    C3 8094   0.439   3.174  12.635  0.7441 -0.7156  0.4394
  542TMC3    C4 8095   0.296   3.251  12.851  0.0105  0.1844  0.4989
  542TMC3    C5 8096   0.313   3.330  12.743 -0.2556 -0.8100  0.2688
  542TMC3    C6 8097   0.395   3.301  12.641  0.6590 -0.8657 -0.7802
  542TMC3     C 8098   0.320   3.029  12.956 -0.7864  0.0565  0.2570
  542TMC3     O 8099   0.294   2.920  12.915 -0.0600  0.2158  0.9757
  542TMC3     H 8100   0.442   2.979  12.731  1.3317 -0.7797 -0.1692
  542TMC3    H1 8101   0.236   3.291  12.931  0.0113  0.8997  0.1506
  542TMC3    H2 8102   0.397   3.371  12.559 -0.4373 -0.0253 -0.0835
  542TMC3    C7 8103   0.206   3.431  12.742 -0.2161 -0.2379 -0.5750
  542TMC3    C8 8104   0.468   3.128  12.509 -0.6833  0.8621  0.3475
  542TMC3    O1 8105   0.091   3.404  12.777 -0.3767 -0.3478  0.0171
  542TMC3    O2 8106   0.418   3.194  12.420 -0.0377 -0.3325 -0.0468
  543TMC3    C1 8107   4.479   0.431  17.558 -0.0196 -0.1080  0.0397
  543TMC3    C2 8108   4.511   0.344  17.655  0.5850 -0.0631  0.5136
  543TMC3    C3 8109   4.464   0.357   0.048 -0.7943  0.2255  0.2690
  543TMC3    C4 8110   4.388   0.525  17.590 -0.2167  0.2114 -0.4588
  543TMC3    C5 8111   4.335   0.526  17.715 -0.1426 -0.1461  1.2719
  543TMC3    C6 8112   4.379   0.453   0.082 -0.6042  0.5780  0.1661
  543TMC3     C 8113   4.523   0.402  17.423 -0.2634  0.4248 -0.5372
  543TMC3     O 8114   4.563   0.287  17.413 -0.4751 -0.0354  0.6902
  543TMC3     H 8115   4.577   0.262  17.627 -0.3798 -0.5482 -0.3384
  543TMC3    H1 8116   4.353   0.599  17.520 -0.1176 -0.6670 -1.4350
  543TMC3    H2 8117   4.330   0.469   0.178  2.6488  1.1700  1.7373
  543TMC3    C7 8118   4.233   0.629   0.001 -0.4262  0.0933  0.2422
  543TMC3    C8 8119   4.496   0.244   0.132 -0.6692 -0.7235 -0.1836
  543TMC3    O1 8120   4.226   0.656   0.120  0.2047 -0.3960 -0.3215
  543TMC3    O2 8121   4.543   0.145   0.074  0.5597 -0.1869  0.0430
  544MPD2     C 8122   4.461   0.021   0.590 -0.5082 -0.0332  0.2676
  544MPD2    C1 8123   4.474   4.705   0.462 -0.0576 -0.2489  0.4868
  544MPD2    C2 8124   4.477   0.052   0.347  0.3149 -0.3980 -0.2243
  544MPD2    C3 8125   4.467   0.185   0.366  0.0765  0.8806 -0.0065
  544MPD2    C4 8126   4.453   0.237   0.495 -0.0111  0.3861  0.6986
  544MPD2    C5 8127   4.445   0.157   0.604 -0.0737 -0.0348  0.3532
  544MPD2     H 8128   4.484   0.001   0.252 -0.7832 -0.8982 -0.0420
  544MPD2    H1 8129   4.449   0.345   0.498  0.3627  0.4376 -0.7027
  544MPD2    H2 8130   4.451   4.695   0.679  1.1568  0.2756  0.6568
  544MPD2    H3 8131   4.442   0.205   0.702 -2.8687  0.0626  0.2173
  544MPD2     N 8132   4.476   0.277   0.262  0.4110  0.6943  0.0692
  544MPD2    H5 8133   4.463   0.376   0.281 -0.1555  0.7208 -0.4562
  544MPD2    N1 8134   4.485   4.565   0.455  0.3217 -0.4669  0.1261
  544MPD2    H7 8135   4.470   4.517   0.543 -0.8549 -3.0658 -1.5106
  545TMC3    C1 8136   4.541   4.348   0.386  0.1904 -0.5466  0.1843
  545TMC3    C2 8137   4.603   4.330   0.513 -0.2916  0.4316 -0.4114
  545TMC3    C3 8138   4.638   4.197   0.553  0.2822 -0.5760  0.4529
  545TMC3    C4 8139   4.523   4.247   0.298 -0.6884 -0.2963 -0.5211
  545TMC3    C5 8140   4.569   4.126   0.340  0.7715 -0.5719 -0.2256
  545TMC3    C6 8141   4.630   4.100   0.461 -0.1048  0.5515 -0.2208
  545TMC3     C 8142   4.503   4.484   0.347 -0.5273  0.1972 -1.3209
  545TMC3     O 8143   4.506   4.508   0.228 -0.4839  0.0988  0.2418
  545TMC3     H 8144   4.623   4.409   0.584  3.0619 -1.6262  0.8854
  545TMC3    H1 8145   4.469   4.260   0.205 -2.2009  2.1853  0.7080
  545TMC3    H2 8146   4.671   4.005   0.491 -0.3557  0.2045 -1.0001
  545TMC3    C7 8147   4.524   4.022   0.249 -0.3674 -0.0064 -0.2565
  545TMC3    C8 8148   0.001   4.198   0.656 -0.1063 -0.8467  0.1816
  545TMC3    O1 8149   4.476   4.052   0.139  0.1022 -0.4014 -0.1008
  545TMC3    O2 8150   4.719   4.266   0.759 -0.0719  0.2465 -0.0192
  546MPD2     C 8151   1.169   0.049  17.684 -0.0529 -0.2248  0.2203
  546MPD2    C1 8152   1.145   0.070  17.548  0.4565 -0.4318 -0.5936
  546MPD2    C2 8153   1.205   0.172  17.486  0.5296  0.4830 -0.4430
  546MPD2    C3 8154   1.276   0.268  17.550 -0.8506 -0.1662  0.2567
  546MPD2    C4 8155   1.299   0.245  17.689 -0.5715  0.8230 -0.0501
  546MPD2    C5 8156   1.245   0.136   0.011 -0.3795  0.5337  0.1811
  546MPD2     H 8157   1.176   0.184  17.382 -1.3383  1.7365  0.2101
  546MPD2    H1 8158   1.371   0.291   0.014 -1.6815 -0.8798  2.3669
  546MPD2    H2 8159   1.118   4.704  17.736 -1.3223  0.7492  0.4708
  546MPD2    H3 8160   1.268   0.120   0.116  1.1708  0.6272 -0.1469
  546MPD2     N 8161   1.299   0.394  17.509 -0.4170 -0.1970  0.1848
  546MPD2    H5 8162   1.322   0.456  17.586  0.8253 -1.8469  1.1286
  546MPD2    N1 8163   1.062   4.712  17.489  1.1704  0.8343 -0.3983
  546MPD2    H7 8164   1.038   4.631  17.546 -1.1980  0.3053 -2.1446
  547TMC3    C1 8165   0.876   4.643  17.365 -0.1480 -0.4439 -0.0669
  547TMC3    C2 8166   0.799   4.643  17.251 -0.2065  0.1823 -0.6123
  547TMC3    C3 8167   0.684   4.567  17.257 -0.0890 -0.2655 -0.0944
  547TMC3    C4 8168   0.836   4.568  17.474  0.8628 -0.2454  0.2320
  547TMC3    C5 8169   0.729   4.490  17.477 -1.1979  0.1955  0.3811
  547TMC3    C6 8170   0.658   4.480  17.361 -0.5327  0.3561 -0.4756
  547TMC3     C 8171   0.987   4.732  17.371  0.0945  0.3542 -1.0299
  547TMC3     O 8172   0.996   0.072  17.275  0.2946  0.0992  0.1432
  547TMC3     H 8173   0.817   4.717  17.174  0.5637  1.4568  0.8110
  547TMC3    H1 8174   0.903   4.552  17.558 -0.6163  1.4559  1.7704
  547TMC3    H2 8175   0.578   4.408  17.349 -1.2836  1.5019 -2.1608
  547TMC3    C7 8176   0.725   4.391  17.581  0.3198  0.2503  0.3586
  547TMC3    C8 8177   0.588   4.570  17.152  0.1089  0.2456  0.2827
  547TMC3    O1 8178   0.781   4.422  17.686  0.1700 -0.2829  0.6781
  547TMC3    O2 8179   0.478   4.526  17.181 -0.2354  0.3727  0.8194
  548MPD2     C 8180   0.659   0.178  12.709 -0.1455 -0.3276 -0.8082
  548MPD2    C1 8181   0.664   0.068  12.791 -0.3444 -0.2878  0.3010
  548MPD2    C2 8182   0.734   4.690  12.755 -0.8705 -0.5804 -0.9730
  548MPD2    C3 8183   0.813   4.691  12.645  0.2960 -0.0818  0.0513
  548MPD2    C4 8184   0.800   0.062  12.559 -0.5771  0.4128  0.8581
  548MPD2    C5 8185   0.723   0.172  12.591  0.2134 -0.4127  0.0227
  548MPD2     H 8186   0.732   4.598  12.812  0.0763  1.1844  1.9243
  548MPD2    H1 8187   0.850   0.063  12.463  0.3320  0.8140  1.3376
  548MPD2    H2 8188   0.596   0.266  12.722  0.0753  0.2010 -3.2502
  548MPD2    H3 8189   0.724   0.260  12.528 -0.0962 -0.4598 -0.0446
  548MPD2     N 8190   0.878   4.575  12.602  0.4278 -0.6239 -0.0471
  548MPD2    H5 8191   0.889   4.508  12.678  0.7825 -0.7535 -0.2120
  548MPD2    N1 8192   0.585   0.071  12.909 -0.0216 -0.2737  0.1705
  548MPD2    H7 8193   0.508   0.137  12.909 -0.1140 -0.3840  1.6912
  549TMC3    C1 8194   0.478   0.003  13.098  0.0779  0.0062  0.1614
  549TMC3    C2 8195   0.417   0.127  13.113 -0.2792 -0.2143  0.1860
  549TMC3    C3 8196   0.289   0.118  13.153  0.3371 -0.4927 -0.0536
  549TMC3    C4 8197   0.414   4.620  13.126 -0.1105  0.0330 -0.1978
  549TMC3    C5 8198   0.286   4.621  13.166 -0.7449 -0.4809  0.4823
  549TMC3    C6 8199   0.223   0.005  13.189  0.2449  0.3244  0.3425
  549TMC3     C 8200   0.596   4.723  13.020  0.1701 -0.1907  0.6680
  549TMC3     O 8201   0.660   4.623  13.037  0.4858 -0.0280 -0.4419
  549TMC3     H 8202   0.472   0.214  13.079 -0.4460  0.4824  1.6979
  549TMC3    H1 8203   0.472   4.530  13.113  0.9032  0.7604 -0.7640
  549TMC3    H2 8204   0.117   0.000  13.210 -0.3523  2.1018 -2.2200
  549TMC3    C7 8205   0.210   4.499  13.205  0.5754  0.2574 -0.8024
  549TMC3    C8 8206   0.206   0.220  13.096  0.0137 -0.3744 -0.2900
  549TMC3    O1 8207   0.145   4.502  13.312 -0.3488 -0.1258  0.3938
  549TMC3    O2 8208   0.088   0.189  13.077  0.6387  0.1888  0.3906
  550TMC3    C1 8209   4.044   2.839  12.187  0.3142 -0.0912 -0.1323
  550TMC3    C2 8210   4.065   2.775  12.303  0.3963  0.2156  0.1386
  550TMC3    C3 8211   4.029   2.839  12.417  0.5275  0.9627 -0.2598
  550TMC3    C4 8212   3.983   2.968  12.181  0.0277  0.4372 -0.1377
  550TMC3    C5 8213   3.953   3.023  12.306 -0.7670  0.6745  0.5466
  550TMC3    C6 8214   3.968   2.964  12.424 -0.4441  0.2966 -0.0503
  550TMC3     C 8215   4.071   2.762  12.066 -0.9759 -0.1562 -0.4760
  550TMC3     O 8216   4.116   2.648  12.082 -0.3222 -0.0969 -0.6075
  550TMC3     H 8217   4.112   2.678  12.314  0.9966  0.5413  0.4868
  550TMC3    H1 8218   3.974   3.022  12.087  0.1748 -2.1336 -1.6261
  550TMC3    H2 8219   3.945   3.008  12.521 -0.2248  1.5600 -0.5789
  550TMC3    C7 8220   3.928   3.168  12.321  0.0358  0.4343 -0.0919
  550TMC3    C8 8221   4.109   2.827  12.537 -0.3831 -0.0809 -0.1053
  550TMC3    O1 8222   3.831   3.216  12.262 -0.4873 -0.0073 -0.4136
  550TMC3    O2 8223   4.051   2.853  12.643  0.6593 -0.1718 -0.5914
  551TMC3    C1 8224   1.899   0.940  13.506  0.2211 -0.1193 -0.5068
  551TMC3    C2 8225   1.999   0.974  13.423 -1.6001 -0.1682  0.1452
  551TMC3    C3 8226   2.066   1.087  13.445  0.4625  0.3335  0.2730
  551TMC3    C4 8227   1.845   1.019  13.605 -0.3406  0.5515  0.1295
  551TMC3    C5 8228   1.910   1.139  13.615 -0.6606  0.4614 -0.0522
  551TMC3    C6 8229   2.017   1.177  13.540  1.2139 -0.3380  0.9042
  551TMC3     C 8230   1.813   0.837  13.450 -0.2865  0.1149  0.0250
  551TMC3     O 8231   1.858   0.770  13.357 -0.1764  0.3586  0.0482
  551TMC3     H 8232   2.017   0.915  13.334 -1.6506  0.5615 -0.3587
  551TMC3    H1 8233   1.762   0.987  13.667  0.0726  0.4045  0.6026
  551TMC3    H2 8234   2.062   1.274  13.556  0.7706 -0.0006  0.1020
  551TMC3    C7 8235   1.876   1.219  13.734  0.4955  0.8281  0.3796
  551TMC3    C8 8236   2.177   1.116  13.357  0.7054  0.2182 -0.0555
  551TMC3    O1 8237   1.885   1.159  13.840 -0.5947  0.0046  0.3035
  551TMC3    O2 8238   2.200   1.034  13.270 -0.2814  0.1943  0.0863
  552MPD2     C 8239   3.400   2.853  14.717 -0.2671  0.8537 -0.6360
  552MPD2    C1 8240   3.495   2.883  14.620 -0.0498 -0.0200  0.6824
  552MPD2    C2 8241   3.611   2.951  14.659  0.0970  0.5395  0.3541
  552MPD2    C3 8242   3.630   2.996  14.792  1.1607 -0.0989 -0.4897
  552MPD2    C4 8243   3.535   2.975  14.886 -0.2485 -0.3227  0.1264
  552MPD2    C5 8244   3.419   2.908  14.845  0.8301 -0.4051  1.5473
  552MPD2     H 8245   3.694   2.969  14.591  0.0434 -0.9710 -0.0932
  552MPD2    H1 8246   3.551   3.012  14.987 -2.3554 -0.6638  0.5907
  552MPD2    H2 8247   3.309   2.796  14.704 -0.1222  0.8996 -1.8706
  552MPD2    H3 8248   3.340   2.888  14.918 -2.2787 -3.0120 -2.5126
  552MPD2     N 8249   3.749   3.060  14.835 -0.0584 -0.3891  0.3182
  552MPD2    H5 8250   3.747   3.099  14.929  1.1695  1.3561 -0.4022
  552MPD2    N1 8251   3.485   2.842  14.483  0.3746 -0.1049 -0.3340
  552MPD2    H7 8252   3.563   2.852  14.419 -0.4015  1.7316 -0.9915
  553TMC3    C1 8253   3.423   2.701  14.312  0.0422 -0.3008 -0.0723
  553TMC3    C2 8254   3.522   2.753  14.234  0.0881 -0.2006  0.1324
  553TMC3    C3 8255   3.599   2.664  14.161 -0.7509 -0.0382  0.3399
  553TMC3    C4 8256   3.405   2.567  14.322  0.8882 -0.4642  0.1930
  553TMC3    C5 8257   3.486   2.482  14.257 -0.0865  0.2171 -0.0798
  553TMC3    C6 8258   3.580   2.529  14.171 -0.5020 -0.6169 -0.0576
  553TMC3     C 8259   3.390   2.761  14.439  0.4637  0.4289  0.3060
  553TMC3     O 8260   3.278   2.739  14.477 -0.5712  0.3177  0.0120
  553TMC3     H 8261   3.547   2.859  14.239  0.3382 -0.3610  2.2385
  553TMC3    H1 8262   3.334   2.530  14.395 -0.5979 -0.8954 -1.4623
  553TMC3    H2 8263   3.647   2.466  14.114 -0.8627  0.0406 -1.2189
  553TMC3    C7 8264   3.444   2.340  14.256  0.7491  0.0027  0.7108
  553TMC3    C8 8265   3.682   2.704  14.049 -0.1541 -0.0347  0.1261
  553TMC3    O1 8266   3.333   2.314  14.294  0.3016  0.2256 -0.4010
  553TMC3    O2 8267   3.774   2.626  14.025 -0.2485 -0.0322 -0.0453
  554TMC3    C1 8268   1.229   1.963  11.420 -0.0088 -0.0323 -0.1404
  554TMC3    C2 8269   1.190   1.881  11.320  0.2740  0.0542  0.1403
  554TMC3    C3 8270   1.161   1.945  11.192  0.2490 -0.5239  0.4975
  554TMC3    C4 8271   1.265   2.093  11.395 -0.2334 -0.7142  0.2187
  554TMC3    C5 8272   1.244   2.145  11.272  0.3340  0.5609 -0.2082
  554TMC3    C6 8273   1.182   2.077  11.171  0.0418  0.0356  0.5442
  554TMC3     C 8274   1.312   1.911  11.525  0.1183  0.1808  1.1869
  554TMC3     O 8275   1.413   1.974  11.556 -0.2599 -0.6089 -0.3455
  554TMC3     H 8276   1.178   1.775  11.342 -0.9699  0.7912  2.9781
  554TMC3    H1 8277   1.302   2.163  11.469 -2.9056  0.1146  0.7465
  554TMC3    H2 8278   1.155   2.126  11.078 -2.4434 -0.5817  0.9380
  554TMC3    C7 8279   1.244   2.282  11.251 -0.3132  0.1375 -0.2354
  554TMC3    C8 8280   1.119   1.873  11.070  0.0612  0.3268 -0.5931
  554TMC3    O1 8281   1.211   2.350  11.348  0.2016  0.2054  0.2145
  554TMC3    O2 8282   1.180   1.898  10.963 -0.1229 -0.7596 -0.4674
  555TMC3    C1 8283   4.445   1.884  15.657 -0.5392  0.4427  0.5708
  555TMC3    C2 8284   4.495   1.965  15.756 -0.6447  0.4472 -0.1254
  555TMC3    C3 8285   4.577   1.901  15.849  0.5513  0.0575 -0.7440
  555TMC3    C4 8286   4.479   1.749  15.646  0.6495 -0.2718 -0.6181
  555TMC3    C5 8287   4.555   1.695  15.738 -0.2226  0.4777  0.8296
  555TMC3    C6 8288   4.605   1.768  15.840 -0.0816 -0.0840 -0.7502
  555TMC3     C 8289   4.386   1.954  15.547 -0.9397 -0.3081 -0.5614
  555TMC3     O 8290   4.341   2.067  15.567 -0.4366  0.5471  0.2976
  555TMC3     H 8291   4.470   2.070  15.766  1.0311  1.0391 -2.0631
  555TMC3    H1 8292   4.426   1.680  15.581  0.7492 -0.3962 -0.5668
  555TMC3    H2 8293   4.634   1.713  15.929  1.9637 -1.0126 -1.9937
  555TMC3    C7 8294   4.574   1.551  15.731 -0.7554 -0.5645  0.2912
  555TMC3    C8 8295   4.642   1.979  15.957  0.3967 -0.4699 -0.4199
  555TMC3    O1 8296   4.494   1.480  15.672 -0.0584 -0.0563  0.3123
  555TMC3    O2 8297   4.584   2.082  15.988 -0.3720  0.0086  0.2968
  556MPD2     C 8298   2.934   3.468  10.655  0.1331 -0.0460  0.3137
  556MPD2    C1 8299   3.000   3.400  10.748 -0.5019  0.2725  0.1206
  556MPD2    C2 8300   3.037   3.270  10.719 -0.2745 -0.6941  0.0655
  556MPD2    C3 8301   3.035   3.217  10.589  0.5299  0.4504 -0.4896
  556MPD2    C4 8302   2.970   3.289  10.491 -0.2097  0.7195 -0.1400
  556MPD2    C5 8303   2.930   3.421  10.528 -0.3492 -0.2726  0.5478
  556MPD2     H 8304   3.082   3.216  10.801 -0.4328  2.2299  2.1121
  556MPD2    H1 8305   2.954   3.263  10.387  2.1616 -1.6271  0.0808
  556MPD2    H2 8306   2.895   3.566  10.675 -1.0533 -0.4449 -0.0580
  556MPD2    H3 8307   2.878   3.483  10.457 -1.6907  0.1131  1.8798
  556MPD2     N 8308   3.084   3.087  10.567 -0.3649  0.3623 -0.3333
  556MPD2    H5 8309   3.129   3.045  10.648 -0.9276 -1.5213 -1.0039
  556MPD2    N1 8310   3.014   3.431  10.881  0.2828  0.4139  0.3581
  556MPD2    H7 8311   3.056   3.362  10.942  0.2566  0.8268  0.8459
  557TMC3    C1 8312   3.093   2.874  10.469  0.6616 -0.7969  0.1201
  557TMC3    C2 8313   3.121   2.800  10.365  0.1713  0.1711  0.1472
  557TMC3    C3 8314   3.129   2.666  10.378 -0.1795 -0.1878 -0.1464
  557TMC3    C4 8315   3.057   2.818  10.587  0.1107 -0.6341  1.3418
  557TMC3    C5 8316   3.063   2.687  10.602  0.3363 -0.0666  1.4903
  557TMC3    C6 8317   3.103   2.603  10.497 -0.1528  0.1278  0.3951
  557TMC3     C 8318   3.067   3.017  10.449 -0.6184  0.6513  0.6435
  557TMC3     O 8319   3.033   3.057  10.340 -0.6925 -0.2073  0.2854
  557TMC3     H 8320   3.150   2.855  10.276 -2.3361  0.0652 -0.7355
  557TMC3    H1 8321   2.996   2.881  10.651 -4.0044  0.7248 -3.8572
  557TMC3    H2 8322   3.101   2.495  10.505  0.5801  0.0732 -0.1183
  557TMC3    C7 8323   3.013   2.616  10.720  0.2925  0.6183  1.0696
  557TMC3    C8 8324   3.135   2.592  10.254 -0.4513  0.1662  0.9069
  557TMC3    O1 8325   3.048   2.500  10.740  0.4902  0.5647  0.1848
  557TMC3    O2 8326   3.157   2.467  10.254  0.0069 -0.4225 -0.6721
  558TMC3    C1 8327   0.751   0.903  10.391 -0.4837 -0.7266  0.0180
  558TMC3    C2 8328   0.625   0.855  10.422  0.0710  0.0190  0.9111
  558TMC3    C3 8329   0.536   0.863  10.312 -0.1394 -0.3132 -0.4628
  558TMC3    C4 8330   0.798   0.950  10.275  0.2351 -0.3533 -0.4418
  558TMC3    C5 8331   0.710   0.940  10.170 -0.3813 -0.0220  0.7583
  558TMC3    C6 8332   0.578   0.904  10.189 -0.2841  0.0323  0.0468
  558TMC3     C 8333   0.839   0.917  10.504  0.2378  0.0287 -0.7148
  558TMC3     O 8334   0.959   0.925  10.484  0.0147  0.1081 -0.4187
  558TMC3     H 8335   0.609   0.805  10.517  0.3899  0.0337  0.9741
  558TMC3    H1 8336   0.899   0.987  10.267  0.5221 -0.5745  2.0745
  558TMC3    H2 8337   0.501   0.895  10.114 -1.9102  1.4935  1.5700
  558TMC3    C7 8338   0.768   0.971  10.038  0.2850  0.3037  0.8205
  558TMC3    C8 8339   0.396   0.832  10.341 -0.3395  0.3583 -0.0474
  558TMC3    O1 8340   0.866   1.045  10.039  0.0257  0.0008  0.4709
  558TMC3    O2 8341   0.313   0.769  10.275  0.0944 -0.2576  0.6902
  559MPD2     C 8342   0.711   1.349  10.238  0.0740  0.2049 -1.0822
  559MPD2    C1 8343   0.662   1.300  10.354  0.2647 -0.1624  0.1969
  559MPD2    C2 8344   0.752   1.280  10.458 -0.4119 -0.4239  0.0331
  559MPD2    C3 8345   0.885   1.310  10.441  0.5338  0.2400 -0.1609
  559MPD2    C4 8346   0.935   1.348  10.325  1.7137  0.3609 -0.1409
  559MPD2    C5 8347   0.841   1.368  10.224  0.7862 -0.2066 -0.3790
  559MPD2     H 8348   0.720   1.244  10.555 -1.5885 -1.7422 -0.8410
  559MPD2    H1 8349   1.039   1.370  10.304  1.4630  0.0118 -1.7693
  559MPD2    H2 8350   0.641   1.383  10.162 -1.9639  0.8136  1.0433
  559MPD2    H3 8351   0.882   1.408  10.132  0.0960 -0.2309 -0.6909
  559MPD2     N 8352   0.962   1.303  10.557 -0.1716 -0.1003  0.3339
  559MPD2    H5 8353   0.905   1.282  10.638  1.6750 -1.3145  1.3531
  559MPD2    N1 8354   0.523   1.280  10.363  0.1002 -0.3949 -0.3616
  559MPD2    H7 8355   0.459   1.324  10.297  0.5156 -0.0885 -0.5573
  560TMC3    C1 8356   1.146   1.345  10.707 -0.2858 -0.3194  0.0903
  560TMC3    C2 8357   1.063   1.300  10.799  0.3933 -0.4953 -1.1219
  560TMC3    C3 8358   1.088   1.335  10.934 -0.5632  0.3703  0.0961
  560TMC3    C4 8359   1.247   1.429  10.746 -0.1759 -0.9298 -0.2741
  560TMC3    C5 8360   1.266   1.469  10.873 -0.2287  0.1485  0.2370
  560TMC3    C6 8361   1.175   1.437  10.969 -0.2371 -0.0931  0.7593
  560TMC3     C 8362   1.086   1.357  10.572  1.7374  0.4874 -0.1482
  560TMC3     O 8363   1.165   1.387  10.489 -0.6064 -0.0819 -0.0637
  560TMC3     H 8364   0.985   1.229  10.775 -1.3620  1.8236 -2.2362
  560TMC3    H1 8365   1.324   1.457  10.675  0.1542 -0.2248  0.3684
  560TMC3    H2 8366   1.192   1.477  11.068 -1.6013  2.0811  0.1203
  560TMC3    C7 8367   1.393   1.472  10.935 -0.6054  0.3905 -0.0813
  560TMC3    C8 8368   0.971   1.313  11.016 -0.1408 -0.0915  0.1568
  560TMC3    O1 8369   1.412   1.377  11.011  0.0724  0.0225  0.2862
  560TMC3    O2 8370   0.869   1.301  10.952  0.1467  0.7007 -0.1149
  561TMC3    C1 8371   3.231   0.461  11.375 -0.0666  1.0360 -0.8300
  561TMC3    C2 8372   3.108   0.424  11.421  0.1152 -0.1945 -1.1701
  561TMC3    C3 8373   3.075   0.484  11.545 -1.1949  0.5324  0.5193
  561TMC3    C4 8374   3.299   0.564  11.432  0.3443  0.1168  0.3637
  561TMC3    C5 8375   3.263   0.617  11.554  0.0465  0.4502 -0.7252
  561TMC3    C6 8376   3.152   0.575  11.611  0.0530  0.1986 -0.4581
  561TMC3     C 8377   3.292   0.386  11.270 -0.6352  0.2558 -0.3078
  561TMC3     O 8378   3.219   0.338  11.187 -0.5049 -0.0013  0.6321
  561TMC3     H 8379   3.039   0.368  11.359 -0.4802 -0.4017 -0.3237
  561TMC3    H1 8380   3.383   0.602  11.375 -1.3540 -0.6101 -2.6555
  561TMC3    H2 8381   3.122   0.622  11.703  0.0672  0.9032 -0.8083
  561TMC3    C7 8382   3.333   0.721  11.625 -0.0573 -0.0022  0.2039
  561TMC3    C8 8383   2.950   0.438  11.602  0.4662 -0.2648  0.3247
  561TMC3    O1 8384   3.333   0.726  11.745  0.1502 -0.0876 -0.2988
  561TMC3    O2 8385   2.902   0.338  11.547  0.1256  0.3926  0.1309
  562TMC3    C1 8386   4.726   2.014  16.652 -0.3782  0.6193 -0.3432
  562TMC3    C2 8387   4.687   2.150  16.653 -0.4527 -0.0394 -0.4437
  562TMC3    C3 8388   4.591   2.198  16.566  0.0129  0.2588  0.0394
  562TMC3    C4 8389   4.677   1.933  16.556  0.2603  0.0782  0.3130
  562TMC3    C5 8390   4.589   1.985  16.464  0.2616 -0.6001 -0.7837
  562TMC3    C6 8391   4.544   2.117  16.472  0.1961  0.5130  0.2952
  562TMC3     C 8392   0.038   1.949  16.773 -0.3149 -0.1234  0.8001
  562TMC3     O 8393   0.034   1.827  16.769  0.0518 -0.4124  0.1777
  562TMC3     H 8394   4.724   2.222  16.725 -1.3052 -0.1220  0.0824
  562TMC3    H1 8395   4.696   1.826  16.551  2.0754  0.2712  2.9419
  562TMC3    H2 8396   4.467   2.139  16.399  0.3311  0.7557  0.2259
  562TMC3    C7 8397   4.537   1.900  16.350  0.1209 -0.0353  1.0447
  562TMC3    C8 8398   4.562   2.340  16.560  0.4741  0.7196 -0.4296
  562TMC3    O1 8399   4.463   1.951  16.268 -0.7899  0.0530 -0.3600
  562TMC3    O2 8400   4.608   2.411  16.649 -0.1583  0.4537  0.2754
  563MPD2     C 8401   2.128   3.618  15.874  0.4372 -0.7551 -0.3672
  563MPD2    C1 8402   2.184   3.656  15.998  0.1886  0.3418 -0.0274
  563MPD2    C2 8403   2.295   3.591  16.035 -0.2551 -0.1685 -0.5859
  563MPD2    C3 8404   2.352   3.505  15.955  0.2280  0.4843  0.2569
  563MPD2    C4 8405   2.301   3.469  15.834 -0.6851  0.1930  0.7291
  563MPD2    C5 8406   2.183   3.532  15.790  0.1273 -0.0681  0.2667
  563MPD2     H 8407   2.339   3.611  16.132 -1.5009 -4.2503  0.8025
  563MPD2    H1 8408   2.357   3.411  15.761  0.2238 -1.6885  2.9009
  563MPD2    H2 8409   2.039   3.665  15.834  1.3458  0.8662 -0.4658
  563MPD2    H3 8410   2.143   3.515  15.691  0.7899 -5.0633  0.8648
  563MPD2     N 8411   2.470   3.431  15.999  0.2782 -0.1978 -0.5914
  563MPD2    H5 8412   2.504   3.445  16.093  3.2305  2.8688 -2.1376
  563MPD2    N1 8413   2.102   3.733  16.088  0.3373  0.0454 -0.1081
  563MPD2    H7 8414   2.008   3.748  16.051  1.0043 -0.3471 -1.9417
  564TMC3    C1 8415   2.046   3.770  16.311 -0.0429 -0.0939  0.5211
  564TMC3    C2 8416   1.936   3.704  16.281 -0.5665  0.3640  0.4290
  564TMC3    C3 8417   1.884   3.608  16.366  0.4208  0.4181 -0.4369
  564TMC3    C4 8418   2.112   3.750  16.433 -0.2153  0.1338 -0.7625
  564TMC3    C5 8419   2.064   3.656  16.516  0.3105  0.1573  0.3910
  564TMC3    C6 8420   1.940   3.597  16.492  0.2046  0.5727 -0.0127
  564TMC3     C 8421   2.145   3.772  16.214 -0.5967 -0.3271  0.4611
  564TMC3     O 8422   2.260   3.777  16.252 -0.0895 -0.2237 -0.2085
  564TMC3     H 8423   1.887   3.736  16.190  2.0984 -1.6680 -1.7084
  564TMC3    H1 8424   2.197   3.814  16.454 -0.8765  0.1965  1.6339
  564TMC3    H2 8425   1.913   3.513  16.554  0.7888  1.1250  1.0023
  564TMC3    C7 8426   2.169   3.582  16.580 -0.3585  0.5266 -0.2487
  564TMC3    C8 8427   1.871   3.478  16.304  0.0835  0.3074  0.4263
  564TMC3    O1 8428   2.254   3.637  16.649 -0.3452  0.9845 -0.1692
  564TMC3    O2 8429   1.893   3.382  16.378  0.0771  0.3319 -0.9928
  565TMC3    C1 8430   2.414   0.017  10.279  0.3792  1.2380  0.3354
  565TMC3    C2 8431   2.369   4.636  10.336 -0.2914 -0.8049  0.4227
  565TMC3    C3 8432   2.269   4.570  10.269  0.0970  0.5510  0.1228
  565TMC3    C4 8433   2.370   0.061  10.157 -0.2120 -0.7642  0.8207
  565TMC3    C5 8434   2.262   4.730  10.108  0.0478  0.7231 -0.5684
  565TMC3    C6 8435   2.205   4.620  10.162 -0.0337  0.2612 -1.0867
  565TMC3     C 8436   2.524   0.086  10.337 -0.0592 -0.0522 -0.5436
  565TMC3     O 8437   2.592   0.157  10.264 -0.7745  0.3842  0.0882
  565TMC3     H 8438   2.411   4.596  10.428 -1.5590 -2.0862  0.4442
  565TMC3    H1 8439   2.400   0.156  10.113 -2.0809 -0.7359 -0.3975
  565TMC3    H2 8440   2.106   4.579  10.143  1.5266 -1.6169 -5.0158
  565TMC3    C7 8441   2.208   0.059   9.993  0.1561  0.3888 -0.5047
  565TMC3    C8 8442   2.217   4.459  10.346  0.9311  0.0020  0.3630
  565TMC3    O1 8443   2.254   0.161   9.949 -0.0176 -0.7967 -0.2366
  565TMC3    O2 8444   2.235   4.452  10.469  0.0612 -0.2666  0.9047
  566MPD2     C 8445   4.331   1.396  14.156  0.5254 -0.0124  0.0285
  566MPD2    C1 8446   4.357   1.261  14.122 -0.2739  0.4845  0.2988
  566MPD2    C2 8447   4.259   1.197  14.055 -0.5879 -0.0614 -0.2084
  566MPD2    C3 8448   4.141   1.259  14.012 -0.2577 -0.1389 -1.1720
  566MPD2    C4 8449   4.113   1.383  14.056  0.0588 -0.7059  0.2998
  566MPD2    C5 8450   4.208   1.442  14.133  0.3846  0.0849 -0.0245
  566MPD2     H 8451   4.265   1.089  14.052  0.2851 -0.0195  0.0410
  566MPD2    H1 8452   4.015   1.427  14.043 -0.7571 -2.6108 -0.0948
  566MPD2    H2 8453   4.405   1.451  14.213 -1.2587  2.0597  0.3193
  566MPD2    H3 8454   4.198   1.537  14.184  1.2213 -1.0850  2.3025
  566MPD2     N 8455   4.037   1.195  13.933  0.6797  0.4540  0.2032
  566MPD2    H5 8456   3.944   1.234  13.948  0.3198  0.7014 -2.6268
  566MPD2    N1 8457   4.472   1.195  14.170  0.6237  0.4250 -1.0681
  566MPD2    H7 8458   4.541   1.236  14.233 -2.7352  1.3017  2.0789
  567TMC3    C1 8459   4.607   1.021  14.223  0.0849 -0.1055 -0.0532
  567TMC3    C2 8460   4.715   1.082  14.167 -0.4152  0.7236 -0.0296
  567TMC3    C3 8461   0.085   1.102  14.249 -0.3725 -0.6915  0.2055
  567TMC3    C4 8462   4.607   0.992  14.357 -0.0248 -1.1887  0.4124
  567TMC3    C5 8463   4.716   1.018  14.437 -0.4897  0.8417  1.0060
  567TMC3    C6 8464   0.095   1.065  14.379 -0.1635 -0.3839 -0.2529
  567TMC3     C 8465   4.480   1.062  14.174  0.1464 -0.4957  0.6258
  567TMC3     O 8466   4.410   0.967  14.143 -0.1335  0.7415 -0.0093
  567TMC3     H 8467   4.716   1.112  14.063 -3.6257 -0.6828 -0.4532
  567TMC3    H1 8468   4.514   0.950  14.395 -0.9730 -0.3192 -0.9431
  567TMC3    H2 8469   0.187   1.078  14.435  0.2397  1.6309 -1.3714
  567TMC3    C7 8470   4.712   1.029  14.581  0.9198 -0.2602 -0.5931
  567TMC3    C8 8471   0.180   1.199  14.191  0.8494 -0.0121  0.1036
  567TMC3    O1 8472   0.086   1.021  14.635  0.1357  0.1516 -0.6581
  567TMC3    O2 8473   0.167   1.231  14.073 -0.0012  0.6290  0.1664
  568MPD2     C 8474   1.612   2.052  16.289  0.5636  0.1193  0.3344
  568MPD2    C1 8475   1.699   2.080  16.388  0.3293 -0.1334  0.0627
  568MPD2    C2 8476   1.775   2.190  16.376 -0.2616  0.0053 -0.1592
  568MPD2    C3 8477   1.779   2.261  16.260  0.3421  0.2759  0.0581
  568MPD2    C4 8478   1.717   2.218  16.145 -0.3149  0.2064  0.3090
  568MPD2    C5 8479   1.629   2.113  16.169 -0.6454 -0.5114 -0.3299
  568MPD2     H 8480   1.834   2.232  16.457 -3.0332  1.1692  1.2426
  568MPD2    H1 8481   1.718   2.265  16.047 -1.7934  0.4044  0.3833
  568MPD2    H2 8482   1.542   1.969  16.285  0.6564 -0.0488  2.4013
  568MPD2    H3 8483   1.568   2.076  16.088 -2.5326  3.0937 -0.5565
  568MPD2     N 8484   1.862   2.379  16.260 -0.1155 -0.3995 -0.7807
  568MPD2    H5 8485   1.923   2.389  16.341  1.4100 -0.5776 -1.8971
  568MPD2    N1 8486   1.703   2.019  16.514  0.0405 -0.4359 -0.9332
  568MPD2    H7 8487   1.786   2.036  16.571 -1.3234 -1.1207  1.2255
  569TMC3    C1 8488   1.937   2.597  16.206  0.1235 -0.1889 -0.3086
  569TMC3    C2 8489   1.938   2.630  16.336  0.4015 -0.2621 -0.1913
  569TMC3    C3 8490   2.002   2.747  16.378  0.3344 -0.0509  0.2140
  569TMC3    C4 8491   1.994   2.683  16.109 -0.3825  0.1736  0.0095
  569TMC3    C5 8492   2.047   2.801  16.161  0.5842  0.8990  0.2345
  569TMC3    C6 8493   2.063   2.836  16.292 -0.3522  0.1010  0.2556
  569TMC3     C 8494   1.865   2.475  16.160  0.1753  0.1651 -0.5995
  569TMC3     O 8495   1.810   2.480  16.053  0.6512 -0.4780  0.6242
  569TMC3     H 8496   1.872   2.580  16.405  2.1208  0.1777  1.7934
  569TMC3    H1 8497   2.006   2.647  16.008 -0.4469 -1.9736  0.7448
  569TMC3    H2 8498   2.120   2.922  16.327  0.1296 -0.7883  1.6531
  569TMC3    C7 8499   2.052   2.909  16.064 -0.3877  0.5724  0.2709
  569TMC3    C8 8500   1.951   2.804  16.500 -0.0092  0.4248  0.1588
  569TMC3    O1 8501   2.075   2.883  15.949  0.7356 -0.5874 -0.4936
  569TMC3    O2 8502   1.847   2.749  16.539  1.1199  0.1820 -0.0193
  570TMC3    C1 8503   1.188   0.936  16.163 -0.0652 -0.6259  0.3389
  570TMC3    C2 8504   1.250   0.987  16.051  0.3440 -0.2925 -0.1451
  570TMC3    C3 8505   1.301   1.114  16.058  0.0312 -0.0419  0.5327
  570TMC3    C4 8506   1.173   1.004  16.280 -0.3572  0.2741  0.6457
  570TMC3    C5 8507   1.215   1.138  16.283 -1.3292 -0.3062  1.0666
  570TMC3    C6 8508   1.275   1.195  16.174 -0.5212 -0.9039 -0.1928
  570TMC3     C 8509   1.121   0.816  16.144  0.0646  0.0076 -0.5855
  570TMC3     O 8510   1.117   0.772  16.029  0.7455  0.5226 -0.7678
  570TMC3     H 8511   1.267   0.924  15.965  2.5392  2.7448 -1.9367
  570TMC3    H1 8512   1.124   0.968  16.369 -3.6942 -0.5944 -1.5226
  570TMC3    H2 8513   1.315   1.296  16.181 -2.5216 -0.1656  0.7783
  570TMC3    C7 8514   1.177   1.220  16.401 -1.1505  1.2269 -0.5084
  570TMC3    C8 8515   1.349   1.193  15.943  0.1252  0.3007 -0.2741
  570TMC3    O1 8516   1.159   1.145  16.497 -0.5623  0.0722  0.0737
  570TMC3    O2 8517   1.387   1.310  15.961  0.2764 -0.1110  0.2257
  571MPD2     C 8518   4.369   2.826   0.457  0.4452 -0.6659 -0.3324
  571MPD2    C1 8519   4.433   2.821   0.580 -0.0731  0.4308 -0.2946
  571MPD2    C2 8520   4.420   2.929   0.667 -0.1769 -0.1018  0.2984
  571MPD2    C3 8521   4.367   3.043   0.617  0.3439  0.5935 -0.5043
  571MPD2    C4 8522   4.324   3.057   0.489 -0.1460  0.3037  0.2267
  571MPD2    C5 8523   4.327   2.948   0.406  0.7120  0.0968  0.0572
  571MPD2     H 8524   4.464   2.924   0.766  1.9071  0.7879 -0.5711
  571MPD2    H1 8525   4.313   3.154   0.442 -0.9612  0.0893 -0.0254
  571MPD2    H2 8526   4.372   2.743   0.388  2.2660 -1.1763  0.3671
  571MPD2    H3 8527   4.314   2.966   0.300 -2.4377 -0.7078  0.3100
  571MPD2     N 8528   4.366   3.164   0.692  0.3441 -0.1960 -0.2049
  571MPD2    H5 8529   4.331   3.245   0.641 -0.1095 -0.8254 -0.9020
  571MPD2    N1 8530   4.497   2.699   0.621  0.1742  0.7273 -0.1753
  571MPD2    H7 8531   4.480   2.611   0.573  1.7053  0.9196 -1.0844
  572TMC3    C1 8532   4.392   3.307   0.877  0.1116  0.2856 -0.2132
  572TMC3    C2 8533   4.490   3.327   0.973  0.2420  0.2631  0.2139
  572TMC3    C3 8534   4.480   3.444   1.033 -0.1848 -0.2961 -0.0486
  572TMC3    C4 8535   4.313   3.410   0.819 -0.2452 -0.2208 -0.7769
  572TMC3    C5 8536   4.333   3.531   0.873  0.3798  0.1049 -0.3312
  572TMC3    C6 8537   4.421   3.556   0.979 -0.1846 -0.4880 -0.0571
  572TMC3     C 8538   4.397   3.172   0.828  0.4059 -0.0238 -0.2560
  572TMC3     O 8539   4.426   3.087   0.908 -0.2229  0.0511  0.0449
  572TMC3     H 8540   4.545   3.238   1.002 -1.2568 -0.6516  0.2941
  572TMC3    H1 8541   4.229   3.394   0.753  0.0351  0.5134 -1.3144
  572TMC3    H2 8542   4.457   3.654   1.007 -1.4468  0.0379 -0.2670
  572TMC3    C7 8543   4.268   3.637   0.801 -0.2924  0.1254 -0.5392
  572TMC3    C8 8544   4.545   3.472   1.155  0.4959  0.9206 -0.3145
  572TMC3    O1 8545   4.168   3.603   0.737  0.1724  0.5266  0.5348
  572TMC3    O2 8546   4.590   3.585   1.174 -1.0272 -0.1258 -0.7696
  573MPD2     C 8547   0.186   3.032   1.213  0.3080  0.0775  0.5293
  573MPD2    C1 8548   0.186   3.149   1.154  0.2611  0.2950 -0.1348
  573MPD2    C2 8549   0.119   3.170   1.031  0.1047 -0.0402 -0.3179
  573MPD2    C3 8550   0.070   3.061   0.962 -0.3452  0.1364  0.4274
  573MPD2    C4 8551   0.080   2.936   1.023 -0.3169 -0.7292 -0.3358
  573MPD2    C5 8552   0.122   2.922   1.153 -0.1147  0.5246  0.7448
  573MPD2     H 8553   0.110   3.271   0.992  1.6735  0.4725  0.6486
  573MPD2    H1 8554   0.037   2.852   0.970  0.9142 -1.7618  0.3076
  573MPD2    H2 8555   0.233   3.018   1.310  2.1250 -0.0273 -0.3744
  573MPD2    H3 8556   0.119   2.823   1.198  1.9010 -0.8624 -2.1666
  573MPD2     N 8557   0.027   3.055   0.826  0.2978 -0.2033  0.1270
  573MPD2    H5 8558   0.006   2.960   0.797  1.4769 -1.3868  3.0896
  573MPD2    N1 8559   0.253   3.249   1.228  0.3267  0.0461 -0.6126
  573MPD2    H7 8560   0.308   3.219   1.307 -0.6286  0.4252  0.1887
  574TMC3    C1 8561   4.697   3.125   0.609  0.0083 -0.6878 -0.8961
  574TMC3    C2 8562   4.636   3.227   0.535  0.0306 -1.2071 -0.7405
  574TMC3    C3 8563   4.614   3.195   0.402  0.1566 -0.1504  0.2385
  574TMC3    C4 8564   4.731   3.002   0.557 -0.3372 -1.4238  0.1747
  574TMC3    C5 8565   4.697   2.970   0.422  0.3099 -0.3931 -0.2030
  574TMC3    C6 8566   4.644   3.071   0.353 -0.1764  0.5978 -0.1412
  574TMC3     C 8567   0.022   3.164   0.738 -1.0036  0.4904  0.7604
  574TMC3     O 8568   0.058   3.280   0.758  0.6406  0.6751 -0.2397
  574TMC3     H 8569   4.586   3.310   0.584  0.5022 -0.0364 -2.2332
  574TMC3    H1 8570   0.041   2.924   0.617 -0.7556 -2.2303 -0.5470
  574TMC3    H2 8571   4.636   3.056   0.246  2.7756  2.4050 -0.6035
  574TMC3    C7 8572   4.725   2.841   0.361  0.1358  0.3611  0.9212
  574TMC3    C8 8573   4.550   3.289   0.314 -0.3703 -0.2958  0.0762
  574TMC3    O1 8574   4.668   2.813   0.254  0.5516 -0.4529  0.5618
  574TMC3    O2 8575   4.501   3.244   0.217 -0.2465 -0.6156 -0.1552
  575TMC3    C1 8576   2.251   3.892  11.002 -0.2071 -0.3612 -0.1726
  575TMC3    C2 8577   2.142   3.809  11.025 -0.3920  0.4894  0.5865
  575TMC3    C3 8578   2.051   3.794  10.924  0.2163  0.3215  0.2775
  575TMC3    C4 8579   2.266   3.975  10.894 -0.3257 -0.6391  0.7241
  575TMC3    C5 8580   2.167   3.951  10.790  0.3158  0.2559  0.8511
  575TMC3    C6 8581   2.055   3.867  10.804 -0.2468 -0.1353  0.1759
  575TMC3     C 8582   2.359   3.872  11.098 -0.3507  0.3003 -0.2655
  575TMC3     O 8583   2.339   3.790  11.188  0.3726 -0.2607 -0.4134
  575TMC3     H 8584   2.152   3.737  11.105 -0.7906  0.7710  0.8897
  575TMC3    H1 8585   2.346   4.047  10.883 -0.3586 -0.5674  0.9488
  575TMC3    H2 8586   1.990   3.837  10.722  0.5678 -1.2182 -0.0881
  575TMC3    C7 8587   2.189   4.023  10.670  0.7275  0.4695 -0.4946
  575TMC3    C8 8588   1.941   3.710  10.959  0.8447 -0.2716  0.2920
  575TMC3    O1 8589   2.285   4.095  10.660 -0.2776 -0.3529 -0.2945
  575TMC3    O2 8590   1.965   3.629  11.047  0.6686  0.2734  0.5485
  576MPD2     C 8591   2.139   0.798  12.779 -0.1123 -0.1754  0.1132
  576MPD2    C1 8592   2.205   0.908  12.731 -0.0514  0.1301 -0.5670
  576MPD2    C2 8593   2.168   1.030  12.785  0.2331 -0.0598 -0.3346
  576MPD2    C3 8594   2.089   1.038  12.895  0.1431  0.4848 -0.0095
  576MPD2    C4 8595   2.013   0.925  12.934  0.5426  0.1455 -0.3826
  576MPD2    C5 8596   2.040   0.804  12.875  0.7203  0.4458 -0.1494
  576MPD2     H 8597   2.204   1.123  12.741  1.4764 -1.3953 -2.0964
  576MPD2    H1 8598   1.937   0.929  13.012  0.7314  0.7215 -0.2266
  576MPD2    H2 8599   2.155   0.696  12.748  0.7959  1.0679 -3.4788
  576MPD2    H3 8600   2.001   0.713  12.918 -2.5368  2.9674  2.2975
  576MPD2     N 8601   2.076   1.165  12.953 -0.0187 -0.9351  0.8603
  576MPD2    H5 8602   2.130   1.239  12.912  3.0791 -2.3214  2.4128
  576MPD2    N1 8603   2.296   0.917  12.627 -0.2443 -0.3116  1.0547
  576MPD2    H7 8604   2.326   1.008  12.593 -1.8312 -0.1639  0.0548
  577TMC3    C1 8605   2.430   0.829  12.456  0.0970  0.5791  0.1315
  577TMC3    C2 8606   2.451   0.726  12.365  0.3779 -0.2890  0.5013
  577TMC3    C3 8607   2.504   0.755  12.246 -0.2460 -0.2626 -0.1908
  577TMC3    C4 8608   2.461   0.960  12.425 -0.4388 -0.2046  0.3923
  577TMC3    C5 8609   2.530   0.979  12.307  0.8225  0.0355  0.4357
  577TMC3    C6 8610   2.558   0.877  12.215  0.0065 -0.5529  0.0402
  577TMC3     C 8611   2.343   0.800  12.570  0.1531 -0.0005 -0.2472
  577TMC3     O 8612   2.329   0.677  12.592  0.1915  0.1649 -0.2203
  577TMC3     H 8613   2.416   0.628  12.396  2.4630 -0.9009  0.9272
  577TMC3    H1 8614   2.446   1.044  12.492 -1.7201  0.1357 -0.3363
  577TMC3    H2 8615   2.618   0.891  12.125  0.5870  5.3753  1.3872
  577TMC3    C7 8616   2.566   1.115  12.276  0.3093 -0.0313  0.0335
  577TMC3    C8 8617   2.511   0.636  12.158 -0.3755 -0.2654  0.3271
  577TMC3    O1 8618   2.576   1.186  12.373 -0.3875  0.0134 -1.0096
  577TMC3    O2 8619   2.427   0.549  12.171  0.0915  0.2395 -0.5414
  578MPD2     C 8620   0.300   1.592   1.519 -0.1626  0.2921  0.2230
  578MPD2    C1 8621   0.340   1.512   1.412  0.3273 -0.0688  0.3394
  578MPD2    C2 8622   0.466   1.455   1.413  0.1707  0.0804 -0.1299
  578MPD2    C3 8623   0.552   1.471   1.517 -0.8412  0.1909  0.7311
  578MPD2    C4 8624   0.513   1.550   1.618 -0.3786  0.1353  0.1858
  578MPD2    C5 8625   0.392   1.609   1.619  0.1832 -0.0856 -0.8471
  578MPD2     H 8626   0.505   1.397   1.330  0.4858  1.4864 -0.9518
  578MPD2    H1 8627   0.574   1.557   1.708 -0.8986  1.5558  0.4251
  578MPD2    H2 8628   0.204   1.642   1.525  1.4454  3.2151  1.8618
  578MPD2    H3 8629   0.370   1.667   1.707  1.0369  0.5402 -1.0489
  578MPD2     N 8630   0.678   1.407   1.516 -0.0724 -0.0720 -0.0100
  578MPD2    H5 8631   0.699   1.351   1.435  0.6570 -0.0903  0.1893
  578MPD2    N1 8632   0.245   1.492   1.309  0.4570 -0.0014  0.6810
  578MPD2    H7 8633   0.161   1.544   1.333  0.5257 -0.6280  2.2729
  579TMC3    C1 8634   0.896   1.355   1.565 -0.3822 -0.5124  0.3468
  579TMC3    C2 8635   1.020   1.402   1.617  0.4614  0.1846 -0.3346
  579TMC3    C3 8636   1.137   1.346   1.566  0.1772 -0.7682  1.2324
  579TMC3    C4 8637   0.897   1.255   1.472  0.5533  0.3188 -1.0242
  579TMC3    C5 8638   1.019   1.194   1.436  0.5827 -0.6856  1.1780
  579TMC3    C6 8639   1.135   1.235   1.488 -0.1178  0.2695 -0.0732
  579TMC3     C 8640   0.777   1.423   1.614 -0.1300 -0.9841  0.3824
  579TMC3     O 8641   0.788   1.505   1.707  0.6450 -1.0393 -0.4728
  579TMC3     H 8642   1.012   1.485   1.686 -0.4017  0.0041 -0.2166
  579TMC3    H1 8643   0.809   1.202   1.439  1.3851 -0.6737 -1.6356
  579TMC3    H2 8644   1.225   1.203   1.436  0.1531  0.5791  0.2074
  579TMC3    C7 8645   1.017   1.085   1.340 -0.8781 -0.3677  0.1751
  579TMC3    C8 8646   1.254   1.418   1.606  0.6228 -0.9549 -0.0302
  579TMC3    O1 8647   1.119   1.015   1.354  0.0888 -0.0211  0.3421
  579TMC3    O2 8648   1.237   1.521   1.673 -0.3688  0.1827 -0.3660
  580TMC3    C1 8649   0.242   4.487  12.292 -0.1215  0.6956  0.1887
  580TMC3    C2 8650   0.305   4.603  12.319  0.1172  0.1372  0.5001
  580TMC3    C3 8651   0.443   4.612  12.299  0.0212 -0.6001 -0.9850
  580TMC3    C4 8652   0.300   4.375  12.273 -0.2036  0.2706  0.0777
  580TMC3    C5 8653   0.437   4.381  12.272 -0.3717 -0.0385  0.1778
  580TMC3    C6 8654   0.512   4.495  12.278  0.0418  0.0512  0.3438
  580TMC3     C 8655   0.099   4.497  12.257 -0.2012 -0.0948  0.8223
  580TMC3     O 8656   0.053   4.453  12.149 -0.8732  0.6266 -0.1688
  580TMC3     H 8657   0.246   4.692  12.334 -0.9029  0.0274 -3.0133
  580TMC3    H1 8658   0.239   4.287  12.256  2.3647 -1.5514  0.2809
  580TMC3    H2 8659   0.620   4.484  12.284  0.0349 -0.3713 -0.3079
  580TMC3    C7 8660   0.498   4.253  12.307 -0.5343  0.5215  0.1604
  580TMC3    C8 8661   0.494   0.015  12.253  0.0703  0.7100  0.2811
  580TMC3    O1 8662   0.563   4.265  12.412  0.0463 -0.0034 -0.3176
  580TMC3    O2 8663   0.421   0.106  12.220 -0.0006 -0.5015 -0.2044
  581MPD2     C 8664   2.885   4.689  14.877  0.1844 -0.0258  0.5988
  581MPD2    C1 8665   2.889   0.050  14.977  0.2085  0.4667  0.2330
  581MPD2    C2 8666   2.762   0.088  15.027 -0.1983 -0.6021  0.2187
  581MPD2    C3 8667   2.644   0.035  14.986 -0.5053  0.1707 -0.2926
  581MPD2    C4 8668   2.638   4.673  14.887  0.1642 -0.6013  0.0445
  581MPD2    C5 8669   2.761   4.635  14.834 -1.0091  0.9297 -0.1298
  581MPD2     H 8670   2.753   0.168  15.099 -0.7082  1.4585 -2.1190
  581MPD2    H1 8671   2.549   4.626  14.849 -0.1889  0.2371 -0.1691
  581MPD2    H2 8672   2.974   4.649  14.829  0.0832 -1.7687  1.8470
  581MPD2    H3 8673   2.775   4.547  14.771 -0.5118 -0.3370  1.7500
  581MPD2     N 8674   2.528   0.098  15.037 -0.4489  1.0046  0.3789
  581MPD2    H5 8675   2.543   0.191  15.075  1.4953  0.2330  1.4679
  581MPD2    N1 8676   3.016   0.080  15.036 -0.2783  0.5486  0.0246
  581MPD2    H7 8677   3.093   0.057  14.974 -0.1753 -1.4535  0.9040
  582TMC3    C1 8678   3.178   0.129  15.198  0.1495 -0.3614  0.1918
  582TMC3    C2 8679   3.197   0.191  15.323 -0.1163 -0.1219 -0.5164
  582TMC3    C3 8680   3.291   0.133  15.410 -0.3877  0.6686 -0.2317
  582TMC3    C4 8681   3.240   0.009  15.168 -0.2378 -0.2107 -0.4428
  582TMC3    C5 8682   3.309   4.683  15.266 -0.1172  0.5545 -1.1508
  582TMC3    C6 8683   3.341   0.008  15.384  0.4139  0.4434 -0.2498
  582TMC3     C 8684   3.038   0.142  15.149 -0.1649  0.2971  0.0012
  582TMC3     O 8685   2.954   0.192  15.224  0.0298 -0.0195 -0.5249
  582TMC3     H 8686   3.163   0.293  15.340  0.2471  0.0198 -0.6341
  582TMC3    H1 8687   3.205   4.685  15.084 -0.7198  0.1732 -0.5157
  582TMC3    H2 8688   3.389   4.676  15.455  1.4346  0.5107 -0.8748
  582TMC3    C7 8689   3.343   4.543  15.258  0.5066  0.0156  0.8416
  582TMC3    C8 8690   3.306   0.199  15.541 -0.7266 -0.2888  0.1593
  582TMC3    O1 8691   3.455   4.516  15.293 -0.3724  0.4847  0.2820
  582TMC3    O2 8692   3.223   0.284  15.581 -0.2714 -0.3407 -0.2202
  583MPD2     C 8693   3.015   1.336  16.596 -0.4525  0.2281 -0.2000
  583MPD2    C1 8694   3.038   1.465  16.542  0.5335  0.1795  0.8108
  583MPD2    C2 8695   3.011   1.580  16.614  1.0212 -0.1842 -0.1780
  583MPD2    C3 8696   2.949   1.570  16.741 -0.1401  0.4803  0.0896
  583MPD2    C4 8697   2.942   1.441  16.794 -0.1864 -0.6889  0.1819
  583MPD2    C5 8698   2.961   1.324  16.718  1.0155 -0.5868 -0.2974
  583MPD2     H 8699   3.008   1.681  16.574 -0.0672 -0.1032  0.0958
  583MPD2    H1 8700   2.908   1.427  16.897  0.7032 -0.5937  0.4845
  583MPD2    H2 8701   3.048   1.250  16.539  1.4641  0.1146  1.0789
  583MPD2    H3 8702   2.942   1.226  16.760 -1.5749 -0.3579 -0.9330
  583MPD2     N 8703   2.909   1.693  16.803 -0.3452 -0.0109  0.0071
  583MPD2    H5 8704   2.928   1.779  16.754  0.7614 -0.0720  0.3091
  583MPD2    N1 8705   3.097   1.489  16.416 -0.1918 -0.0386 -0.6967
  583MPD2    H7 8706   3.111   1.585  16.389 -3.0426  0.5172 -0.2335
  584TMC3    C1 8707   2.787   1.828  16.963 -0.1442 -0.6978 -0.5421
  584TMC3    C2 8708   2.721   1.910  16.873  0.8018 -0.0149  0.5743
  584TMC3    C3 8709   2.700   2.035  16.928 -0.7825 -0.1241  0.0131
  584TMC3    C4 8710   2.801   1.859  17.099  0.6064  0.0540 -0.7742
  584TMC3    C5 8711   2.758   1.978  17.150  0.7587  0.2480 -0.8431
  584TMC3    C6 8712   2.717   2.075  17.058 -0.0768 -0.3636  0.2515
  584TMC3     C 8713   2.841   1.699  16.927  0.0993  0.2727 -0.3657
  584TMC3     O 8714   2.821   1.615  17.011  0.1678 -0.2871  0.0464
  584TMC3     H 8715   2.717   1.882  16.768  0.4282 -0.2555  0.6543
  584TMC3    H1 8716   2.847   1.787  17.165 -3.0340  0.4546  2.2117
  584TMC3    H2 8717   2.683   2.172  17.093  0.5180 -0.4094  0.9714
  584TMC3    C7 8718   2.753   1.988  17.295 -0.1581  0.0735 -0.6377
  584TMC3    C8 8719   2.704   2.142  16.830 -0.4076 -0.0881 -0.3726
  584TMC3    O1 8720   2.746   1.879  17.349  0.6376 -0.2763  0.0938
  584TMC3    O2 8721   2.685   2.108  16.714 -0.4467 -0.3187 -0.5527
  585MPD2     C 8722   1.780   0.997   0.076 -0.3440  0.5052  0.0541
  585MPD2    C1 8723   1.837   1.076  17.714 -0.3491  0.2110  0.8758
  585MPD2    C2 8724   1.938   1.012  17.638  0.0208  0.2534  0.6459
  585MPD2    C3 8725   1.975   0.880  17.654 -0.1965  0.3066 -0.1520
  585MPD2    C4 8726   1.915   0.807   0.014  0.0264  0.0336 -0.6267
  585MPD2    C5 8727   1.823   0.867   0.092  0.1105 -0.7739  0.0304
  585MPD2     H 8728   1.991   1.061  17.558 -1.0438 -0.1632 -0.3113
  585MPD2    H1 8729   1.959   0.716   0.051 -1.3323 -0.6114 -0.6043
  585MPD2    H2 8730   1.702   1.036   0.140  0.3253  1.2026  0.4456
  585MPD2    H3 8731   1.786   0.802   0.171 -4.1795  1.1633 -0.3903
  585MPD2     N 8732   2.067   0.815  17.570 -0.3168  0.1486  0.7375
  585MPD2    H5 8733   2.072   0.714  17.579 -3.3761 -0.2983 -2.6133
  585MPD2    N1 8734   1.798   1.212  17.701  0.2399 -0.1175  0.3182
  585MPD2    H7 8735   1.722   1.244   0.018 -1.7459 -0.2388 -2.2316
  586TMC3    C1 8736   2.176   0.758  17.374 -0.6159 -0.9622  0.6799
  586TMC3    C2 8737   2.293   0.765  17.304 -0.3244  0.0728 -0.8985
  586TMC3    C3 8738   2.316   0.675  17.198 -0.5855 -0.0852 -0.1335
  586TMC3    C4 8739   2.114   0.631  17.378 -0.1253  0.2685  0.5026
  586TMC3    C5 8740   2.132   0.550  17.272  0.5462 -0.1855  0.5685
  586TMC3    C6 8741   2.236   0.568  17.185  0.4564 -0.0358  0.0479
  586TMC3     C 8742   2.140   0.863  17.465  0.2158 -0.9097  0.4354
  586TMC3     O 8743   2.156   0.973  17.411 -0.3209  0.1859 -0.0987
  586TMC3     H 8744   2.351   0.855  17.319  0.1559 -0.4576  0.5130
  586TMC3    H1 8745   2.022   0.627  17.435 -1.1989  3.0313 -1.0112
  586TMC3    H2 8746   2.244   0.502  17.100  1.4564 -0.6355  0.6109
  586TMC3    C7 8747   2.056   0.428  17.264 -0.0829 -0.2226  0.0633
  586TMC3    C8 8748   2.437   0.694  17.129 -0.9263 -0.3795  0.2970
  586TMC3    O1 8749   1.950   0.422  17.324  0.2556  0.1373 -0.4361
  586TMC3    O2 8750   2.465   0.812  17.105  0.1591 -0.1613 -0.1301
  587TMC3    C1 8751   4.517   4.098  16.289  0.2899  0.1346  0.0825
  587TMC3    C2 8752   4.514   4.131  16.424 -0.0394  0.2590  0.4215
  587TMC3    C3 8753   4.621   4.187  16.481 -0.2349  0.0553  0.3721
  587TMC3    C4 8754   4.619   4.140  16.206 -0.0548 -0.0300  0.0360
  587TMC3    C5 8755   4.725   4.186  16.269  0.8720 -0.2254  0.9515
  587TMC3    C6 8756   4.735   4.198  16.409  0.1120 -0.0662  0.8022
  587TMC3     C 8757   4.398   4.042  16.223 -0.4444 -0.2002  0.2600
  587TMC3     O 8758   4.408   3.998  16.108 -0.8243  0.1935 -0.1088
  587TMC3     H 8759   4.432   4.094  16.484  1.4125 -2.5645  0.6962
  587TMC3    H1 8760   4.622   4.110  16.102  1.0891 -0.0894  0.0852
  587TMC3    H2 8761   0.090   4.244  16.447  0.1217  0.1950  0.4687
  587TMC3    C7 8762   0.108   4.222  16.193  0.2548  0.3509 -0.1427
  587TMC3    C8 8763   4.629   4.248  16.610  0.4870  0.1787 -0.4677
  587TMC3    O1 8764   0.214   4.247  16.252 -0.1052 -0.7584 -0.0286
  587TMC3    O2 8765   0.001   4.247  16.666  0.0220 -1.0024 -0.3389
  588TMC3    C1 8766   2.237   1.838  10.008  0.4654 -0.2121  0.5030
  588TMC3    C2 8767   2.179   1.715   9.977 -0.4241  0.0053 -0.3237
  588TMC3    C3 8768   2.236   1.600  10.014  0.0966  0.1087  0.2724
  588TMC3    C4 8769   2.359   1.841  10.074  0.0101 -0.2243 -0.1150
  588TMC3    C5 8770   2.419   1.722  10.107 -0.4873  0.0488 -0.6513
  588TMC3    C6 8771   2.359   1.598  10.089  0.0343  0.6682  0.0318
  588TMC3     C 8772   2.175   1.967   9.986 -0.2182  0.1632  0.9464
  588TMC3     O 8773   2.051   1.978   9.982 -0.7239 -0.1230 -0.2407
  588TMC3     H 8774   2.080   1.726   9.934 -0.7338  2.6007  1.0893
  588TMC3    H1 8775   2.390   1.926  10.133 -0.8270  0.3685 -0.5198
  588TMC3    H2 8776   2.409   1.508  10.124  0.5612  0.2943 -1.7012
  588TMC3    C7 8777   2.541   1.729  10.192 -0.6719 -0.2764 -1.4171
  588TMC3    C8 8778   2.152   1.483  10.008 -0.3201 -0.5495 -0.0634
  588TMC3    O1 8779   2.549   1.639  10.281  0.1637  0.0809 -0.7173
  588TMC3    O2 8780   2.037   1.493   9.958 -0.3537  0.0912  0.0983
  589TMC3    C1 8781   0.946   4.291   1.451  0.2491 -0.3893 -0.4229
  589TMC3    C2 8782   1.046   4.270   1.548 -0.1011 -0.2830  0.4471
  589TMC3    C3 8783   1.124   4.160   1.536  0.3263 -0.2112 -0.9049
  589TMC3    C4 8784   0.932   4.201   1.345  0.3020 -0.9028  0.4010
  589TMC3    C5 8785   1.010   4.089   1.347 -0.5240  0.2496  0.2920
  589TMC3    C6 8786   1.104   4.068   1.445  0.5750 -0.5849 -0.0502
  589TMC3     C 8787   0.885   4.419   1.418  0.4655 -0.3180  0.3973
  589TMC3     O 8788   0.807   4.429   1.323 -0.4688  0.4201 -0.1513
  589TMC3     H 8789   1.093   4.351   1.602  0.1784 -1.1016  1.4229
  589TMC3    H1 8790   0.850   4.209   1.274 -2.8809  0.5876  4.3029
  589TMC3    H2 8791   1.183   3.995   1.444 -0.3244 -1.5513 -0.8969
  589TMC3    C7 8792   0.995   3.982   1.247  0.3576  0.0947  0.6733
  589TMC3    C8 8793   1.258   4.158   1.594  0.5368  0.1681 -0.1193
  589TMC3    O1 8794   1.025   3.866   1.283 -0.4187 -0.3330  0.6567
  589TMC3    O2 8795   1.345   4.227   1.539 -0.4150 -0.2711 -0.3331
  590MPD2     C 8796   1.049   2.314  16.784  0.1064  0.3958 -0.3744
  590MPD2    C1 8797   0.991   2.362  16.670 -0.6342  0.8493  0.1573
  590MPD2    C2 8798   1.048   2.479  16.610  0.2435 -0.4943 -0.2653
  590MPD2    C3 8799   1.170   2.527  16.644 -0.4139 -0.2053  0.0946
  590MPD2    C4 8800   1.234   2.466  16.754  0.3722 -0.3165  0.3323
  590MPD2    C5 8801   1.166   2.373  16.825 -0.0738 -0.4615  0.1807
  590MPD2     H 8802   0.992   2.524  16.529  0.0801  1.2647  0.8025
  590MPD2    H1 8803   1.333   2.487  16.795  0.2240  0.0954  0.4725
  590MPD2    H2 8804   0.987   2.253  16.849 -2.1061  2.6111 -0.4145
  590MPD2    H3 8805   1.218   2.324  16.906  2.7916  2.1306 -0.1103
  590MPD2     N 8806   1.225   2.636  16.577 -0.2066 -0.2595 -0.2195
  590MPD2    H5 8807   1.178   2.672  16.495 -1.0069 -1.6689 -0.3803
  590MPD2    N1 8808   0.878   2.292  16.625 -0.0203  0.6658  0.1258
  590MPD2    H7 8809   0.824   2.239  16.693  1.0311 -1.5472 -0.7861
  591TMC3    C1 8810   1.385   2.798  16.507  0.2468  0.3566 -0.0076
  591TMC3    C2 8811   1.481   2.773  16.412 -0.5604 -0.2853  0.0142
  591TMC3    C3 8812   1.475   2.830  16.286 -0.3077  0.7301 -0.9803
  591TMC3    C4 8813   1.279   2.871  16.468  0.3317  0.1124 -0.2254
  591TMC3    C5 8814   1.271   2.922  16.340 -0.3711 -0.6767  0.1385
  591TMC3    C6 8815   1.370   2.904  16.244 -0.3442 -0.2917  0.3055
  591TMC3     C 8816   1.351   2.694  16.605 -0.6435 -0.2883  0.4823
  591TMC3     O 8817   1.437   2.663  16.685 -0.5665 -0.0652 -0.0673
  591TMC3     H 8818   1.567   2.715  16.443 -1.1134 -0.8897  0.3910
  591TMC3    H1 8819   1.199   2.889  16.539 -0.4606 -0.6283 -0.9205
  591TMC3    H2 8820   1.354   2.928  16.139  1.9012  3.2636  0.7711
  591TMC3    C7 8821   1.147   2.983  16.304 -0.1470  0.4581 -0.1403
  591TMC3    C8 8822   1.580   2.799  16.185 -0.6017 -0.2669 -0.4665
  591TMC3    O1 8823   1.054   2.974  16.385  0.0794  0.4309 -0.3030
  591TMC3    O2 8824   1.636   2.695  16.196 -0.0988 -0.3439  0.3000
  592MPD2     C 8825   1.074   3.878  11.616 -0.1302  0.3961  0.0818
  592MPD2    C1 8826   1.042   3.914  11.742  0.6432 -0.3133 -0.4208
  592MPD2    C2 8827   0.986   3.826  11.835  0.8006 -0.1894 -0.0353
  592MPD2    C3 8828   0.958   3.698  11.794  0.0505  0.3806  0.8206
  592MPD2    C4 8829   0.984   3.657  11.661  1.2193  0.2632 -0.0874
  592MPD2    C5 8830   1.050   3.751  11.571 -0.2276  0.0935 -0.0339
  592MPD2     H 8831   0.977   3.854  11.940  1.9334  0.8417 -0.2201
  592MPD2    H1 8832   0.962   3.557  11.626 -0.1683  0.8641 -0.9074
  592MPD2    H2 8833   1.132   3.942  11.552  0.8875 -4.1636 -3.5919
  592MPD2    H3 8834   1.065   3.724  11.467  0.2473 -1.0983  0.3402
  592MPD2     N 8835   0.909   3.610  11.889  0.1375 -0.1782 -0.0703
  592MPD2    H5 8836   0.901   3.655  11.979  0.9967  0.4412 -0.2970
  592MPD2    N1 8837   1.092   4.041  11.777 -0.1379  0.0548 -0.0087
  592MPD2    H7 8838   1.151   4.084  11.707 -0.9395  2.2679  0.6560
  593TMC3    C1 8839   1.140   4.229  11.919 -0.9611 -0.6800 -0.5031
  593TMC3    C2 8840   1.112   4.303  12.031 -1.3694 -0.4834  0.2881
  593TMC3    C3 8841   1.206   4.384  12.090  0.0282 -0.4237 -0.0857
  593TMC3    C4 8842   1.265   4.239  11.856  0.4196 -0.7614 -0.7085
  593TMC3    C5 8843   1.357   4.315  11.928 -0.1413  0.2342 -0.7898
  593TMC3    C6 8844   1.337   4.390  12.042  0.4655  0.0565 -0.3333
  593TMC3     C 8845   1.062   4.105  11.900  0.2294  0.0431  0.4644
  593TMC3     O 8846   0.991   4.068  11.992  0.6874  0.2453  0.1349
  593TMC3     H 8847   1.012   4.303  12.071 -1.5713 -0.3118 -0.2175
  593TMC3    H1 8848   1.304   4.174  11.779 -1.5465 -0.3690 -2.0369
  593TMC3    H2 8849   1.422   4.448  12.077  1.3045 -0.5957 -1.3210
  593TMC3    C7 8850   1.466   4.361  11.847  0.5977 -0.4739  0.0558
  593TMC3    C8 8851   1.168   4.491  12.172  0.8395  0.2619  0.0690
  593TMC3    O1 8852   1.564   4.411  11.899 -0.2126  0.0201  0.0881
  593TMC3    O2 8853   1.060   4.535  12.145  0.8271 -0.6068 -0.0358
  594MPD2     C 8854   4.623   2.901  14.675  0.4198  0.3690 -0.4248
  594MPD2    C1 8855   4.558   3.008  14.727  0.1672  0.8003 -0.3479
  594MPD2    C2 8856   4.630   3.130  14.722 -0.1702  0.5098  0.2088
  594MPD2    C3 8857   0.028   3.129  14.699 -0.8932 -0.0184 -0.7625
  594MPD2    C4 8858   0.093   3.006  14.683 -0.3623  0.0582 -0.3926
  594MPD2    C5 8859   0.022   2.894  14.667 -0.0404  0.1664  0.3146
  594MPD2     H 8860   4.586   3.227  14.744 -0.0661  0.9508 -1.4704
  594MPD2    H1 8861   0.200   2.997  14.671  0.1258  1.3069  2.9528
  594MPD2    H2 8862   4.578   2.802  14.672  0.1353  0.4996 -0.4345
  594MPD2    H3 8863   0.077   2.803  14.644 -2.4590 -0.6859 -2.0291
  594MPD2     N 8864   0.097   3.251  14.699  0.1188 -0.2021  0.6366
  594MPD2    H5 8865   0.056   3.334  14.740 -4.3237 -2.3594  0.4637
  594MPD2    N1 8866   4.424   3.000  14.766  0.6409 -0.3097  0.0192
  594MPD2    H7 8867   4.390   2.907  14.786 -0.0869 -0.5383 -2.2122
  595TMC3    C1 8868   0.461   3.529  14.625  0.1535  0.3952  0.3180
  595TMC3    C2 8869   0.408   3.406  14.617 -0.1853 -0.1918  0.2814
  595TMC3    C3 8870   0.284   3.395  14.672 -0.4507 -0.2912 -0.1418
  595TMC3    C4 8871   0.410   3.634  14.697  0.1295 -0.2719 -0.0395
  595TMC3    C5 8872   0.278   3.622  14.745 -0.2899  0.0508  0.3007
  595TMC3    C6 8873   0.212   3.500  14.736  0.0332  0.3964 -0.0203
  595TMC3     C 8874   0.591   3.560  14.558  0.4607 -0.2462 -0.1277
  595TMC3     O 8875   0.637   3.671  14.582 -0.5830 -0.1551 -0.1852
  595TMC3     H 8876   0.448   3.321  14.563  1.2682  1.0150 -0.5402
  595TMC3    H1 8877   0.441   3.738  14.696  2.0016 -0.8326 -0.9173
  595TMC3    H2 8878   0.106   3.498  14.755  0.0500 -2.2903 -0.3051
  595TMC3    C7 8879   0.218   3.722  14.839 -0.0931 -0.0970  0.5469
  595TMC3    C8 8880   0.220   3.268  14.638  0.4999  0.3743 -0.0162
  595TMC3    O1 8881   0.106   3.700  14.882  0.5393 -0.0555 -0.4356
  595TMC3    O2 8882   0.265   3.201  14.544  0.1151  0.0256  0.1158
  596MPD2     C 8883   3.772   1.400  16.630  0.5147  0.0551  0.1546
  596MPD2    C1 8884   3.768   1.521  16.561  0.0566 -0.0359 -0.1060
  596MPD2    C2 8885   3.784   1.524  16.423  0.2122 -0.3914  0.2175
  596MPD2    C3 8886   3.808   1.410  16.352 -0.4263  0.8513  0.4107
  596MPD2    C4 8887   3.815   1.294  16.417  0.1061 -0.4230 -0.7909
  596MPD2    C5 8888   3.786   1.287  16.551  0.9723  0.1472 -0.1120
  596MPD2     H 8889   3.764   1.614  16.366  0.4422  0.6784  1.8354
  596MPD2    H1 8890   3.848   1.204  16.368  2.8816 -0.1471  0.6104
  596MPD2    H2 8891   3.763   1.384  16.736 -0.6441  1.0934  0.2167
  596MPD2    H3 8892   3.812   1.192  16.597 -0.3378  0.0510  0.4169
  596MPD2     N 8893   3.806   1.407  16.206  0.2038 -0.0453 -0.0481
  596MPD2    H5 8894   3.784   1.318  16.163  0.9231 -0.4647  0.4586
  596MPD2    N1 8895   3.758   1.649  16.621  1.2772 -0.0058 -0.0621
  596MPD2    H7 8896   3.771   1.730  16.561  2.7406 -0.3088 -0.1518
  597TMC3    C1 8897   3.699   1.811  16.775  0.3075  0.2437 -0.0232
  597TMC3    C2 8898   3.788   1.895  16.714  0.5928  0.3676 -0.0151
  597TMC3    C3 8899   3.786   2.024  16.763 -0.1436  0.0363 -0.5949
  597TMC3    C4 8900   3.614   1.839  16.879  0.4855  0.3918 -0.6001
  597TMC3    C5 8901   3.621   1.968  16.923  0.2576  0.6985  0.2104
  597TMC3    C6 8902   3.697   2.065  16.861  0.0139  0.7387 -0.3315
  597TMC3     C 8903   3.712   1.671  16.747 -0.5659  0.3237 -0.7580
  597TMC3     O 8904   3.645   1.589  16.813 -0.2159 -0.0625 -0.2090
  597TMC3     H 8905   3.854   1.874  16.630  0.7291  0.5923  0.0351
  597TMC3    H1 8906   3.550   1.764  16.926  2.0796 -0.6150 -0.0428
  597TMC3    H2 8907   3.715   2.167  16.895  0.7355 -0.1163  1.8267
  597TMC3    C7 8908   3.546   1.998  17.044  0.3699 -0.3132  0.7833
  597TMC3    C8 8909   3.829   2.130  16.670  0.3486 -0.1623  0.3951
  597TMC3    O1 8910   3.508   1.904  17.111 -0.3682  0.1780  0.2809
  597TMC3    O2 8911   3.774   2.239  16.676  0.2186  0.0903 -0.3389
  598TMC3    C1 8912   2.093   2.917  15.285  0.0846 -0.5021 -0.7569
  598TMC3    C2 8913   1.984   2.842  15.308 -0.1701 -0.8956  0.1808
  598TMC3    C3 8914   1.860   2.888  15.268 -0.0981  0.0140  0.6860
  598TMC3    C4 8915   2.086   3.039  15.230 -1.0142 -0.6392  0.1749
  598TMC3    C5 8916   1.960   3.078  15.187  0.2796  0.3566 -0.4757
  598TMC3    C6 8917   1.844   3.006  15.202  0.2357 -0.0005 -0.2254
  598TMC3     C 8918   2.223   2.861  15.306  0.1761 -0.1264 -0.3443
  598TMC3     O 8919   2.307   2.900  15.233  0.0306  0.2506  0.8036
  598TMC3     H 8920   1.989   2.743  15.353 -0.0902 -0.4189  1.1979
  598TMC3    H1 8921   2.172   3.102  15.209 -1.1489 -1.1786 -1.9568
  598TMC3    H2 8922   1.750   3.056  15.180  0.6739  0.8013 -0.2746
  598TMC3    C7 8923   1.948   3.184  15.098 -0.6212  0.4064  0.2868
  598TMC3    C8 8924   1.761   2.788  15.254 -0.0451  0.5183 -0.1324
  598TMC3    O1 8925   1.844   3.175  15.026 -0.4667  0.2512 -0.7396
  598TMC3    O2 8926   1.773   2.673  15.295 -0.1718  0.1092 -0.1515
  599MPD2     C 8927   2.048   0.562  15.593 -0.0465 -0.2160 -0.0614
  599MPD2    C1 8928   2.021   0.443  15.652  0.3593 -1.2773 -0.2530
  599MPD2    C2 8929   1.898   0.417  15.708 -0.0284 -0.1090 -0.9052
  599MPD2    C3 8930   1.813   0.521  15.720 -0.3350 -0.1032  0.2637
  599MPD2    C4 8931   1.837   0.644  15.655 -0.0084  0.0376  0.7435
  599MPD2    C5 8932   1.957   0.663  15.589 -0.4897 -0.6035 -0.5734
  599MPD2     H 8933   1.875   0.323  15.756 -1.7371  0.6836 -0.1656
  599MPD2    H1 8934   1.761   0.722  15.650 -1.2804 -1.3279 -0.9577
  599MPD2    H2 8935   2.148   0.586  15.557  0.0762  1.2376  1.2587
  599MPD2    H3 8936   1.988   0.760  15.551  1.0877 -1.1252 -0.6118
  599MPD2     N 8937   1.698   0.519  15.800  0.2747  0.4070 -0.0536
  599MPD2    H5 8938   1.645   0.605  15.812 -0.2383 -0.0236  0.7812
  599MPD2    N1 8939   2.128   0.354  15.673  0.0977 -0.0255 -0.5935
  599MPD2    H7 8940   2.216   0.385  15.633  0.3002 -2.2614 -1.8709
  600TMC3    C1 8941   1.535   0.469  15.953  0.5616 -0.1714 -0.4877
  600TMC3    C2 8942   1.434   0.381  15.985 -0.0626  0.5756 -0.3416
  600TMC3    C3 8943   1.359   0.401  16.097  0.1457 -0.3055  0.2061
  600TMC3    C4 8944   1.562   0.579  16.036  0.1890 -0.5317 -0.3062
  600TMC3    C5 8945   1.486   0.589  16.151 -0.0097 -0.8151  0.8128
  600TMC3    C6 8946   1.378   0.509  16.180  0.0686 -0.5454 -0.1189
  600TMC3     C 8947   1.645   0.414  15.874 -0.3680  0.2483  0.2268
  600TMC3     O 8948   1.667   0.292  15.883 -0.0872  0.6173 -0.0819
  600TMC3     H 8949   1.425   0.289  15.928  1.9491 -0.0093  0.2614
  600TMC3    H1 8950   1.655   0.631  16.022 -0.2348  0.3148  0.0360
  600TMC3    H2 8951   1.321   0.529  16.271 -0.3219  0.3191 -0.5490
  600TMC3    C7 8952   1.519   0.702  16.245  0.7037 -0.2911  0.0243
  600TMC3    C8 8953   1.278   0.294  16.151  0.1292  0.4046 -0.1006
  600TMC3    O1 8954   1.448   0.700  16.342 -0.8546 -0.5614 -0.4670
  600TMC3    O2 8955   1.198   0.236  16.081  0.2080 -0.2196 -0.0071
  601MPD2     C 8956   4.275   4.106   0.597  0.1693 -0.1733 -0.1579
  601MPD2    C1 8957   4.232   3.984   0.552 -0.2998 -0.7305  0.3308
  601MPD2    C2 8958   4.249   3.875   0.633  0.4132  0.1866 -0.1682
  601MPD2    C3 8959   4.301   3.885   0.759  0.2486  0.1771 -0.8985
  601MPD2    C4 8960   4.335   4.008   0.811 -0.2042 -0.7884  0.8207
  601MPD2    C5 8961   4.334   4.119   0.719 -0.2027  0.5650 -0.4635
  601MPD2     H 8962   4.219   3.782   0.586  0.2058 -0.9548  2.2382
  601MPD2    H1 8963   4.387   4.021   0.905  1.7413  0.6480 -0.4643
  601MPD2    H2 8964   4.262   4.198   0.541  2.0016 -0.0092 -0.3106
  601MPD2    H3 8965   4.361   4.215   0.761 -2.8047  2.0780 -2.2729
  601MPD2     N 8966   4.324   3.762   0.828  0.0632 -0.6101 -0.2271
  601MPD2    H5 8967   4.387   3.765   0.908 -1.1585 -1.8021  0.7844
  601MPD2    N1 8968   4.175   3.965   0.423  0.3930 -0.1931 -0.0916
  601MPD2    H7 8969   4.162   3.867   0.400 -1.7040  0.1991 -0.6513
  602TMC3    C1 8970   4.102   4.004   0.206 -0.1871 -0.2805  0.7624
  602TMC3    C2 8971   4.139   4.069   0.094 -0.0661 -0.8238  0.0642
  602TMC3    C3 8972   4.105   4.010  17.712 -0.6926 -0.1068  0.8761
  602TMC3    C4 8973   4.009   3.903   0.211  0.1745 -0.1430 -0.6905
  602TMC3    C5 8974   3.956   3.865   0.092  0.0374 -0.5570 -0.4368
  602TMC3    C6 8975   4.011   3.909  17.714  0.6126 -0.4379  0.0656
  602TMC3     C 8976   4.144   4.060   0.332  0.0394 -0.5938  0.5502
  602TMC3     O 8977   4.166   4.181   0.334  0.1819  0.1786 -0.0437
  602TMC3     H 8978   4.209   4.151   0.101 -0.2281 -0.7461  0.7594
  602TMC3    H1 8979   3.957   3.869   0.299  1.9206  1.7078  1.0590
  602TMC3    H2 8980   3.983   3.871  17.617 -0.0416 -1.4781  0.6659
  602TMC3    C7 8981   3.816   3.883   0.092  0.3410 -0.0693 -0.3894
  602TMC3    C8 8982   4.070   4.102  17.609 -0.3874  0.9060 -0.1973
  602TMC3    O1 8983   3.754   3.811   0.171 -0.1541  0.2883  0.8325
  602TMC3    O2 8984   3.957   4.091  17.563 -0.2994  0.3894 -0.2394
  603TMC3    C1 8985   1.729   3.899  11.159 -0.3227 -0.3332  0.0872
  603TMC3    C2 8986   1.809   3.879  11.273 -0.7760  0.2015  0.5588
  603TMC3    C3 8987   1.914   3.968  11.299 -0.1100  0.1129 -0.0066
  603TMC3    C4 8988   1.763   3.994  11.067 -0.4554  0.0710  0.1344
  603TMC3    C5 8989   1.872   4.073  11.097 -0.2498  0.1979 -0.0753
  603TMC3    C6 8990   1.943   4.074  11.215  0.1380  0.2850 -0.4973
  603TMC3     C 8991   1.600   3.828  11.147 -0.5099 -0.1578 -0.3237
  603TMC3     O 8992   1.583   3.727  11.220  0.1255  0.0554  0.3607
  603TMC3     H 8993   1.777   3.822  11.359  1.7671 -1.2127  0.5640
  603TMC3    H1 8994   1.712   3.987  10.972  0.3451 -1.3168 -0.1917
  603TMC3    H2 8995   2.036   4.129  11.218  0.1382  0.3741 -2.0080
  603TMC3    C7 8996   1.915   4.177  11.000  0.4446  0.1917  0.0607
  603TMC3    C8 8997   2.008   3.918  11.403  0.8596 -0.1435 -0.1101
  603TMC3    O1 8998   2.025   4.228  11.007  1.1011  0.4962  0.2951
  603TMC3    O2 8999   2.022   3.795  11.410 -0.2652 -0.1047  0.0735
  604MPD2     C 9000   3.296   3.027  16.793  0.2546 -0.5132  0.7825
  604MPD2    C1 9001   3.170   2.976  16.778  0.7675 -0.3970 -0.1241
  604MPD2    C2 9002   3.146   2.902  16.668 -0.0405 -0.5466  0.0230
  604MPD2    C3 9003   3.247   2.879  16.574 -0.1937  0.1434 -0.0631
  604MPD2    C4 9004   3.368   2.941  16.586  0.1078  0.0269  0.6431
  604MPD2    C5 9005   3.391   3.016  16.699  0.3432 -1.1047 -0.6673
  604MPD2     H 9006   3.052   2.847  16.663 -1.0230  1.1963 -0.3928
  604MPD2    H1 9007   3.450   2.929  16.516 -0.8252 -2.4820 -0.0257
  604MPD2    H2 9008   3.317   3.091  16.878 -0.3702 -0.1218  0.6403
  604MPD2    H3 9009   3.490   3.054  16.721 -0.7474  0.7871  1.0216
  604MPD2     N 9010   3.211   2.816  16.452 -0.4639  0.6205  0.4189
  604MPD2    H5 9011   3.111   2.811  16.434  0.2850  0.5128 -3.7242
  604MPD2    N1 9012   3.077   3.027  16.877 -0.0477  0.3699  1.1058
  604MPD2    H7 9013   3.102   3.096  16.947  1.3852 -1.4811  2.3932
  605TMC3    C1 9014   2.860   3.079  16.951  0.0275 -0.2477 -0.0497
  605TMC3    C2 9015   2.932   3.154  17.041 -0.1964  0.1226 -0.4291
  605TMC3    C3 9016   2.914   3.288  17.035  1.8500 -0.1833  0.2988
  605TMC3    C4 9017   2.749   3.121  16.888  0.2172  0.3404 -0.5645
  605TMC3    C5 9018   2.728   3.261  16.898 -0.0523 -0.1013  0.3246
  605TMC3    C6 9019   2.820   3.348  16.949 -0.5190  0.4690  0.0088
  605TMC3     C 9020   2.945   3.000  16.862 -0.0756  0.1411  0.3016
  605TMC3     O 9021   2.884   2.939  16.774 -0.1752  0.4330  0.0260
  605TMC3     H 9022   2.988   3.113  17.124  1.6812  1.5939 -0.9490
  605TMC3    H1 9023   2.691   3.051  16.829 -1.3959 -1.7579  3.4838
  605TMC3    H2 9024   2.805   3.455  16.941 -0.1226  0.6314  1.3622
  605TMC3    C7 9025   2.617   3.319  16.818 -0.1294  0.3505  0.5016
  605TMC3    C8 9026   3.044   3.346  17.026  0.5673 -0.8659 -0.0707
  605TMC3    O1 9027   2.593   3.438  16.834  0.1446  0.2839 -0.1360
  605TMC3    O2 9028   3.131   3.259  17.017  0.8295 -1.4177  0.9104
  606TMC3    C1 9029   3.893   1.547  17.128  0.0326 -0.7082 -0.5705
  606TMC3    C2 9030   3.911   1.554  17.267 -0.3265  0.3786  0.1316
  606TMC3    C3 9031   3.864   1.446  17.338  0.2138  0.0761  0.2220
  606TMC3    C4 9032   3.816   1.452  17.061 -0.3813  0.2809 -0.9230
  606TMC3    C5 9033   3.782   1.342  17.136  0.1278  0.6802  0.0692
  606TMC3    C6 9034   3.822   1.329  17.269 -0.1665  0.1261  0.5336
  606TMC3     C 9035   3.963   1.650  17.051 -0.4717 -0.0512 -0.7852
  606TMC3     O 9036   3.988   1.753  17.107  0.0511 -1.1083 -0.2149
  606TMC3     H 9037   3.975   1.627  17.315  0.8873 -1.0148  0.6280
  606TMC3    H1 9038   3.779   1.459  16.960  0.1121  1.3738 -1.0177
  606TMC3    H2 9039   3.823   1.232  17.317 -0.1142 -0.1125  0.0465
  606TMC3    C7 9040   3.730   1.222  17.068 -0.3391 -0.1999 -0.2849
  606TMC3    C8 9041   3.921   1.436  17.469  0.3827 -0.0098 -0.8755
  606TMC3    O1 9042   3.761   1.205  16.951 -0.1828  0.4556  0.3573
  606TMC3    O2 9043   4.019   1.501  17.494  0.3681 -0.1173  0.3601
  607MPD2     C 9044   1.229   3.350  11.567 -0.1899  1.3271 -0.5384
  607MPD2    C1 9045   1.263   3.426  11.677 -0.4166 -0.2549  1.0825
  607MPD2    C2 9046   1.244   3.380  11.803  0.0067 -0.0240  0.4445
  607MPD2    C3 9047   1.206   3.249  11.825  0.0927 -0.1437 -0.3641
  607MPD2    C4 9048   1.170   3.173  11.717  0.1998  0.9340  0.3622
  607MPD2    C5 9049   1.169   3.226  11.585  0.4852 -0.7709  0.2021
  607MPD2     H 9050   1.245   3.450  11.886  0.7464 -0.9288  1.2161
  607MPD2    H1 9051   1.146   3.069  11.738 -0.9288  1.1427  0.0823
  607MPD2    H2 9052   1.235   3.394  11.468  1.2936 -0.1447 -1.1106
  607MPD2    H3 9053   1.120   3.172  11.504  1.1095 -0.4675 -0.3787
  607MPD2     N 9054   1.190   3.221  11.961 -0.4258 -0.3194 -0.0509
  607MPD2    H5 9055   1.205   3.300  12.022  1.4690  1.3576 -2.7293
  607MPD2    N1 9056   1.308   3.560  11.682  0.1106  0.7105  0.2488
  607MPD2    H7 9057   1.347   3.594  11.770  0.8037 -0.3383  0.3474
  608TMC3    C1 9058   1.384   3.779  11.619  0.0170 -0.1226  0.7864
  608TMC3    C2 9059   1.378   3.811  11.752  0.1030  0.6714 -0.0671
  608TMC3    C3 9060   1.443   3.915  11.804  0.3653 -0.3458  0.5524
  608TMC3    C4 9061   1.450   3.860  11.532 -0.0370 -0.3436 -0.2524
  608TMC3    C5 9062   1.501   3.974  11.584  0.0888 -0.1428  0.6275
  608TMC3    C6 9063   1.500   4.014  11.722  0.6068  0.0018  0.1980
  608TMC3     C 9064   1.321   3.646  11.572 -0.5058  0.0333  0.9073
  608TMC3     O 9065   1.312   3.633  11.451  0.3261  0.0539 -0.3761
  608TMC3     H 9066   1.310   3.761  11.820 -0.5684  1.1426 -0.3918
  608TMC3    H1 9067   1.465   3.825  11.431  0.0417 -0.2303 -0.2806
  608TMC3    H2 9068   1.551   4.104  11.752 -1.0365  1.3921 -1.2082
  608TMC3    C7 9069   1.569   4.062  11.490 -0.1263 -0.4535  0.4761
  608TMC3    C8 9070   1.434   3.933  11.943 -0.0127  0.2312 -0.5174
  608TMC3    O1 9071   1.537   4.054  11.369 -0.2401 -0.4448  0.3469
  608TMC3    O2 9072   1.434   4.049  11.980  0.5194 -0.5557 -0.2577
  609TMC3    C1 9073   0.161   3.747   9.570 -0.6345 -0.2261 -0.0200
  609TMC3    C2 9074   0.073   3.712   9.471 -0.1613  0.4041 -0.3578
  609TMC3    C3 9075   0.130   3.651   9.363  0.3715  0.0436 -0.5174
  609TMC3    C4 9076   0.289   3.710   9.579  0.1830 -0.2641  0.0733
  609TMC3    C5 9077   0.342   3.640   9.473  0.4772 -0.3898 -0.0585
  609TMC3    C6 9078   0.264   3.624   9.362 -0.2828  0.2547 -0.4305
  609TMC3     C 9079   0.102   3.834   9.674 -0.3824 -0.1344 -0.0386
  609TMC3     O 9080   4.716   3.825   9.692 -0.5468  0.1603 -0.0963
  609TMC3     H 9081   4.700   3.718   9.475 -0.2784 -1.4785 -0.3399
  609TMC3    H1 9082   0.352   3.724   9.666  2.3159  2.5582 -1.9026
  609TMC3    H2 9083   0.302   3.578   9.271 -1.7744 -0.0562 -0.8922
  609TMC3    C7 9084   0.463   3.553   9.493 -0.2304  0.0347  0.2728
  609TMC3    C8 9085   0.038   3.617   9.257  0.6076  0.2996  1.0199
  609TMC3    O1 9086   0.539   3.588   9.578  0.1041  0.2901 -0.1592
  609TMC3    O2 9087   4.656   3.577   9.277 -0.1219  0.1475  0.3743
  610TMC3    C1 9088   1.636   3.682  12.591 -0.0547 -0.7216  0.7257
  610TMC3    C2 9089   1.661   3.781  12.496 -0.0376 -0.0715 -0.6795
  610TMC3    C3 9090   1.743   3.738  12.390 -0.4679  0.2002  0.1418
  610TMC3    C4 9091   1.692   3.558  12.597  0.4590  0.1574  0.3409
  610TMC3    C5 9092   1.787   3.529  12.499  0.4799 -0.3752 -0.4010
  610TMC3    C6 9093   1.812   3.616  12.396  0.4947 -0.2031 -0.4887
  610TMC3     C 9094   1.532   3.711  12.698  0.5756 -0.7248  0.7715
  610TMC3     O 9095   1.473   3.611  12.749 -0.0995  0.5468 -0.5968
  610TMC3     H 9096   1.591   3.864  12.489 -0.7517 -0.5448  0.6982
  610TMC3    H1 9097   1.672   3.488  12.677 -0.7338 -0.6396 -0.6545
  610TMC3    H2 9098   1.882   3.577  12.323 -0.2438  1.8158 -2.2731
  610TMC3    C7 9099   1.889   3.418  12.516 -0.8007 -0.9233 -0.3079
  610TMC3    C8 9100   1.743   3.819  12.268  0.1778 -0.9177 -0.5328
  610TMC3    O1 9101   2.003   3.455  12.486 -0.0297  0.0787  0.2864
  610TMC3    O2 9102   1.726   3.941  12.285  0.0034 -0.0490  0.1765
  611MPD2     C 9103   0.784   4.010  10.643  0.2517  1.0099  1.2293
  611MPD2    C1 9104   0.855   3.955  10.540 -0.3150  0.0549  0.3427
  611MPD2    C2 9105   0.955   4.034  10.492 -0.5551 -0.5870  1.0036
  611MPD2    C3 9106   0.984   4.160  10.535 -0.0056 -0.0537 -0.0485
  611MPD2    C4 9107   0.911   4.213  10.641 -0.0267 -0.4270 -0.3045
  611MPD2    C5 9108   0.817   4.128  10.695  0.3175 -0.1275 -0.6181
  611MPD2     H 9109   1.018   3.995  10.413  1.4642  0.8832  1.8731
  611MPD2    H1 9110   0.923   4.313  10.682 -0.6916  0.1167 -1.4460
  611MPD2    H2 9111   0.707   3.947  10.687  0.4404 -0.7776 -0.9968
  611MPD2    H3 9112   0.758   4.166  10.778 -1.2514 -0.2035 -1.6923
  611MPD2     N 9113   1.074   4.248  10.477 -0.2990  0.8472 -0.3491
  611MPD2    H5 9114   1.075   4.344  10.510 -1.1275  0.9231 -0.5354
  611MPD2    N1 9115   0.825   3.827  10.480  0.3766  0.2642  0.3499
  611MPD2    H7 9116   0.743   3.781  10.519 -0.7735  0.8424 -1.3820
  612TMC3    C1 9117   1.219   4.354  10.347 -0.2951  0.2928 -0.5540
  612TMC3    C2 9118   1.321   4.373  10.435  0.4446 -1.0059  1.1097
  612TMC3    C3 9119   1.406   4.477  10.409  0.7422  0.3077  0.0251
  612TMC3    C4 9120   1.200   4.432  10.241 -0.6061 -0.2736 -0.0683
  612TMC3    C5 9121   1.278   4.543  10.231 -0.2994  0.3047  0.1365
  612TMC3    C6 9122   1.391   4.564  10.308  0.7616 -0.3551  0.0951
  612TMC3     C 9123   1.145   4.236  10.356  0.1031  0.6540 -0.3044
  612TMC3     O 9124   1.129   4.161  10.262  1.0802 -0.4897  0.5713
  612TMC3     H 9125   1.351   4.293  10.502  0.5914 -2.6289 -0.9272
  612TMC3    H1 9126   1.113   4.417  10.179 -1.2797 -0.6653  0.9629
  612TMC3    H2 9127   1.450   4.654  10.301  0.9911 -0.3956  1.5308
  612TMC3    C7 9128   1.227   4.656  10.151  0.5747  0.6230 -0.1411
  612TMC3    C8 9129   1.534   4.492  10.470 -0.7487 -0.4728  0.2026
  612TMC3    O1 9130   1.137   4.621  10.081 -0.2942  0.0285 -0.0343
  612TMC3    O2 9131   1.592   4.595  10.443  0.5559  0.2023  0.6875
  613MPD2     C 9132   0.501   1.120  16.920  0.7498 -0.3346 -0.3620
  613MPD2    C1 9133   0.420   1.213  16.856 -0.0373 -0.3109  0.3308
  613MPD2    C2 9134   0.328   1.157  16.766 -0.2464 -0.2935 -0.5626
  613MPD2    C3 9135   0.346   1.025  16.720 -0.3560  0.8186  0.2919
  613MPD2    C4 9136   0.423   0.938  16.790 -0.2110  0.1806 -1.0439
  613MPD2    C5 9137   0.497   0.985  16.896 -0.0690  0.5210  0.6370
  613MPD2     H 9138   0.265   1.228  16.712 -1.5176 -0.3298  0.8971
  613MPD2    H1 9139   0.415   0.835  16.757  1.0288 -0.7683  1.6318
  613MPD2    H2 9140   0.573   1.159  16.992  0.3021 -0.1442 -0.0197
  613MPD2    H3 9141   0.559   0.916  16.953 -0.8694 -1.6368 -1.0800
  613MPD2     N 9142   0.280   0.973  16.602  0.0270  0.1905  0.3094
  613MPD2    H5 9143   0.309   0.881  16.572 -0.2339  0.9287 -2.1588
  613MPD2    N1 9144   0.434   1.354  16.865  0.0703  0.3334 -0.4003
  613MPD2    H7 9145   0.524   1.383  16.902  0.6085 -2.8628  0.7447
  614TMC3    C1 9146   0.463   1.537  16.708 -0.9071  0.1174  0.1692
  614TMC3    C2 9147   0.513   1.456  16.609  0.0715 -0.2726 -0.2844
  614TMC3    C3 9148   0.521   1.504  16.480  0.8783 -0.1558 -0.4330
  614TMC3    C4 9149   0.413   1.661  16.675 -0.0240  0.0729 -0.0889
  614TMC3    C5 9150   0.432   1.709  16.546  0.5614 -0.0610  0.2110
  614TMC3    C6 9151   0.490   1.633  16.445 -0.3096  0.4972 -0.0136
  614TMC3     C 9152   0.371   1.448  16.786 -0.1440  0.6629 -0.3112
  614TMC3     O 9153   0.253   1.447  16.752 -0.8615  0.7185 -0.2163
  614TMC3     H 9154   0.532   1.351  16.627  0.1238  0.0210  1.4241
  614TMC3    H1 9155   0.368   1.721  16.753  0.4932 -0.1486  0.3824
  614TMC3    H2 9156   0.486   1.665  16.341  1.6610 -1.2181 -0.6380
  614TMC3    C7 9157   0.366   1.832  16.512 -0.5281 -0.3610 -0.3741
  614TMC3    C8 9158   0.504   1.404  16.378 -0.1513 -0.3723  0.0325
  614TMC3    O1 9159   0.355   1.917  16.601 -0.2064  0.1480 -0.9671
  614TMC3    O2 9160   0.460   1.298  16.423 -0.0592  0.4769 -1.0188
  615MPD2     C 9161   4.620   2.470  15.690 -0.2150  0.5358 -0.3022
  615MPD2    C1 9162   4.577   2.556  15.791 -0.2006 -0.8087  0.4409
  615MPD2    C2 9163   4.506   2.667  15.761  0.5565 -0.1766  0.3760
  615MPD2    C3 9164   4.466   2.692  15.628 -0.5844  1.0269 -0.2286
  615MPD2    C4 9165   4.501   2.601  15.534 -0.4308 -0.1478  0.0532
  615MPD2    C5 9166   4.580   2.493  15.562 -0.1162 -0.7236 -0.1704
  615MPD2     H 9167   4.479   2.729  15.845  0.8462 -1.2872  1.2867
  615MPD2    H1 9168   4.466   2.614  15.432  0.7817  0.9734 -0.2124
  615MPD2    H2 9169   4.683   2.384  15.712  0.0926  0.9036  0.2523
  615MPD2    H3 9170   4.613   2.419  15.490  2.2953 -1.6327  1.8296
  615MPD2     N 9171   4.385   2.799  15.589 -0.3389 -0.2769  0.3680
  615MPD2    H5 9172   4.349   2.793  15.495 -0.4188  1.3113  0.3001
  615MPD2    N1 9173   4.618   2.545  15.925 -0.5047 -0.0957 -0.6827
  615MPD2    H7 9174   4.582   2.618  15.987  1.1940  1.2550 -1.2834
  616TMC3    C1 9175   0.003   2.481  16.118 -0.0370  0.0832 -0.0352
  616TMC3    C2 9176   0.138   2.478  16.133  0.3494 -0.0896  0.1657
  616TMC3    C3 9177   0.196   2.584  16.213  0.2270  0.7032 -0.4619
  616TMC3    C4 9178   4.653   2.577  16.177 -0.0581 -0.0092 -0.2987
  616TMC3    C5 9179   4.716   2.680  16.252 -0.2342  0.0218 -0.2817
  616TMC3    C6 9180   0.115   2.679  16.274 -0.0586 -0.5387 -0.8460
  616TMC3     C 9181   4.698   2.449  15.982  0.5189  0.2753 -0.0738
  616TMC3     O 9182   0.034   2.368  15.929  0.2435  0.6171 -0.2367
  616TMC3     H 9183   0.202   2.400  16.093 -1.4019 -0.8818 -1.0864
  616TMC3    H1 9184   4.546   2.565  16.169 -0.2411  2.5588 -1.7906
  616TMC3    H2 9185   0.168   2.752  16.335 -1.6420 -0.0408 -0.0626
  616TMC3    C7 9186   4.646   2.811  16.246 -0.4147 -0.2240 -0.3585
  616TMC3    C8 9187   0.339   2.578  16.236 -0.1332 -0.2434  0.3138
  616TMC3    O1 9188   4.577   2.830  16.147 -0.2899 -0.6217 -0.1775
  616TMC3    O2 9189   0.385   2.469  16.210  0.0323  0.3458 -0.7683
  617MPD2     C 9190   2.888   1.055  13.706  0.1858  0.5114  0.7275
  617MPD2    C1 9191   2.898   0.994  13.827  0.4077 -0.2417 -0.6725
  617MPD2    C2 9192   2.785   0.984  13.901  0.2104  0.6462  0.0245
  617MPD2    C3 9193   2.666   1.041  13.852  0.4253 -1.0803  0.3339
  617MPD2    C4 9194   2.660   1.091  13.724 -0.4653 -0.2368 -0.8058
  617MPD2    C5 9195   2.774   1.101  13.655 -0.0950  0.4250  0.3327
  617MPD2     H 9196   2.789   0.941  14.001  1.0374 -0.5407 -0.5238
  617MPD2    H1 9197   2.570   1.134  13.682  0.8622  2.6069 -0.7108
  617MPD2    H2 9198   2.969   1.054  13.635  0.7831  0.8861  1.4041
  617MPD2    H3 9199   2.770   1.141  13.554  0.4452 -0.3202  0.0131
  617MPD2     N 9200   2.549   1.051  13.934 -0.2239  0.0854 -0.5219
  617MPD2    H5 9201   2.470   1.100  13.891 -0.4371 -0.0727 -0.3135
  617MPD2    N1 9202   3.025   0.947  13.867 -0.4484 -0.4190  0.4980
  617MPD2    H7 9203   3.026   0.886  13.947 -0.8151 -1.5310 -0.3476
  618TMC3    C1 9204   3.268   0.904  13.852 -0.1537 -0.0639  0.2535
  618TMC3    C2 9205   3.236   0.779  13.899 -0.3582  0.3262  0.0618
  618TMC3    C3 9206   3.348   0.702  13.926  0.1193 -0.2120  0.4431
  618TMC3    C4 9207   3.393   0.960  13.836 -0.4853 -0.5502 -0.2265
  618TMC3    C5 9208   3.493   0.873  13.846  0.2700 -0.3214 -0.1815
  618TMC3    C6 9209   3.478   0.745  13.907 -0.6186  0.2366 -0.3114
  618TMC3     C 9210   3.150   0.987  13.819 -0.2006  0.6159  0.5105
  618TMC3     O 9211   3.176   1.091  13.766 -0.1585 -0.4687 -0.3731
  618TMC3     H 9212   3.141   0.728  13.889  0.7414 -1.6575 -0.3699
  618TMC3    H1 9213   3.390   1.066  13.814 -0.9539 -0.6961 -0.8839
  618TMC3    H2 9214   3.568   0.688  13.929 -1.7367 -0.8199  1.5604
  618TMC3    C7 9215   3.626   0.935  13.851 -0.2487  0.1978 -0.0001
  618TMC3    C8 9216   3.314   0.565  13.973  0.1143  0.1041  0.2951
  618TMC3    O1 9217   3.628   1.049  13.894 -0.2020  0.2020 -0.4555
  618TMC3    O2 9218   3.198   0.531  13.987  0.0070 -0.0954 -0.7330
  619MPD2     C 9219   4.183   2.281  13.862  0.6385  0.2462 -0.1601
  619MPD2    C1 9220   4.117   2.306  13.748  0.5817 -0.5816  0.2671
  619MPD2    C2 9221   3.990   2.252  13.729  0.3987  0.4267 -0.1196
  619MPD2    C3 9222   3.927   2.182  13.829  0.3185  0.4176 -0.4127
  619MPD2    C4 9223   3.998   2.141  13.938  0.5712  0.2879  0.2030
  619MPD2    C5 9224   4.123   2.194  13.953  0.9497 -0.0063  0.4580
  619MPD2     H 9225   3.929   2.275  13.642  2.1773  2.6296 -0.7922
  619MPD2    H1 9226   3.963   2.075  14.016  3.6623 -0.0318  1.3473
  619MPD2    H2 9227   4.286   2.309  13.883  0.1081 -0.1047  2.8195
  619MPD2    H3 9228   4.175   2.168  14.045  0.6760  0.3053  0.6976
  619MPD2     N 9229   3.787   2.152  13.822 -0.3084 -0.2595  0.8668
  619MPD2    H5 9230   3.745   2.090  13.891  1.0027 -0.6678  1.3052
  619MPD2    N1 9231   4.168   2.394  13.650  0.0050  0.8037  0.2215
  619MPD2    H7 9232   4.107   2.405  13.569 -3.2225 -2.7465  2.1706
  620TMC3    C1 9233   4.273   2.580  13.553  0.6824  0.0278 -0.2358
  620TMC3    C2 9234   4.150   2.640  13.537  0.6478 -0.0479 -0.0568
  620TMC3    C3 9235   4.144   2.769  13.489 -0.3581  0.0986 -0.2729
  620TMC3    C4 9236   4.384   2.665  13.545  0.4951 -0.0081 -0.0927
  620TMC3    C5 9237   4.364   2.800  13.515  0.3549 -0.8592  0.3663
  620TMC3    C6 9238   4.249   2.847  13.465  0.2416 -0.5394 -0.3640
  620TMC3     C 9239   4.279   2.477  13.657 -0.5059  0.4392 -0.2596
  620TMC3     O 9240   4.371   2.481  13.742 -0.3386 -0.3703  0.1597
  620TMC3     H 9241   4.060   2.585  13.564  0.5384 -0.8881 -2.1002
  620TMC3    H1 9242   4.482   2.620  13.561  0.2961  0.0703  1.3337
  620TMC3    H2 9243   4.232   2.954  13.459  1.1849 -0.3138  1.0416
  620TMC3    C7 9244   4.417   2.886  13.612 -0.6331  0.9215 -0.5865
  620TMC3    C8 9245   4.023   2.843  13.517  0.1222 -0.1569  0.1903
  620TMC3    O1 9246   4.416   3.005  13.594 -0.1553 -0.0714 -0.5116
  620TMC3    O2 9247   3.996   2.937  13.445 -0.4847 -0.0747  0.3016
  621MPD2     C 9248   4.476   2.943  10.047 -0.3638 -0.5364 -0.7545
  621MPD2    C1 9249   4.573   2.843  10.040 -0.2149  0.0650  0.1798
  621MPD2    C2 9250   4.688   2.869   9.967 -0.4130 -0.2571  0.7516
  621MPD2    C3 9251   4.712   2.994   9.908  0.2462 -0.1664 -0.1454
  621MPD2    C4 9252   4.604   3.084   9.902 -0.7888 -0.0066 -0.2599
  621MPD2    C5 9253   4.490   3.063   9.981 -0.4833 -0.5133 -0.3327
  621MPD2     H 9254   0.029   2.793   9.965 -0.5496 -0.3883  0.4745
  621MPD2    H1 9255   4.627   3.183   9.863  2.6587 -2.2018 -3.6942
  621MPD2    H2 9256   4.379   2.935  10.095 -0.4266  4.1062 -0.1664
  621MPD2    H3 9257   4.408   3.133   9.980 -0.8481 -0.9834 -1.9406
  621MPD2     N 9258   0.106   3.025   9.858 -0.0769 -0.1953 -0.5183
  621MPD2    H5 9259   0.179   2.966   9.895  0.3344  1.5331  1.4327
  621MPD2    N1 9260   4.550   2.719  10.104 -0.1560 -0.0039  0.3903
  621MPD2    H7 9261   4.473   2.709  10.169 -0.4801 -0.9403 -0.1423
  622TMC3    C1 9262   4.580   2.512  10.191  0.8572  0.4103 -0.6988
  622TMC3    C2 9263   4.513   2.549  10.306  0.0862  0.0771 -0.4647
  622TMC3    C3 9264   4.501   2.454  10.407  0.1498  0.1554  0.5437
  622TMC3    C4 9265   4.614   2.376  10.165 -1.0593  0.2560 -0.3326
  622TMC3    C5 9266   4.581   2.286  10.261  0.2858  0.2322 -0.3482
  622TMC3    C6 9267   4.537   2.322  10.386  0.5123 -0.1745 -0.5384
  622TMC3     C 9268   4.629   2.610  10.103  0.1856 -0.0685 -0.7688
  622TMC3     O 9269   4.713   2.576  10.017  0.4713 -0.2844  0.2955
  622TMC3     H 9270   4.497   2.653  10.330 -0.5738 -0.9877  3.6552
  622TMC3    H1 9271   4.647   2.343  10.067 -1.9945 -0.8010 -0.2899
  622TMC3    H2 9272   4.514   2.256  10.468  0.2671  0.4176 -0.1301
  622TMC3    C7 9273   4.515   2.161  10.220 -0.4275  0.4534  0.5345
  622TMC3    C8 9274   4.458   2.501  10.542  0.0095 -0.0410 -0.4625
  622TMC3    O1 9275   4.481   2.087  10.311 -0.9964 -0.0291 -0.1421
  622TMC3    O2 9276   4.508   2.448  10.640 -0.3998 -0.6356  0.2617
  623MPD2     C 9277   3.230   3.069  15.942 -0.1426 -0.4483 -0.2558
  623MPD2    C1 9278   3.163   3.091  16.060 -0.6440  0.0250 -0.4705
  623MPD2    C2 9279   3.234   3.117  16.177 -0.1915  0.8216 -0.2484
  623MPD2    C3 9280   3.369   3.126  16.180 -0.1466  0.5234 -0.4141
  623MPD2    C4 9281   3.433   3.097  16.063 -0.6258  0.6164 -0.7818
  623MPD2    C5 9282   3.365   3.065  15.949  0.3237  0.7887  0.3978
  623MPD2     H 9283   3.179   3.150  16.265  1.2312  0.9314  0.6006
  623MPD2    H1 9284   3.541   3.099  16.054 -0.3561  0.6511  2.5149
  623MPD2    H2 9285   3.182   3.057  15.846  0.4978 -0.6761 -0.5483
  623MPD2    H3 9286   3.422   3.040  15.860 -0.2557 -0.9200  0.5210
  623MPD2     N 9287   3.438   3.161  16.300 -0.3888  0.2467 -0.0840
  623MPD2    H5 9288   3.391   3.184  16.387  0.2628  1.4852 -0.0643
  623MPD2    N1 9289   3.023   3.085  16.081  0.0047 -0.1467 -0.1034
  623MPD2    H7 9290   2.991   3.113  16.173  0.6070 -3.8118  1.2469
  624TMC3    C1 9291   3.761   3.308  16.595 -0.6492  0.0698  0.1630
  624TMC3    C2 9292   3.676   3.394  16.656 -0.1642 -0.4770 -0.3318
  624TMC3    C3 9293   3.549   3.401  16.612 -0.3736 -0.0872  0.7836
  624TMC3    C4 9294   3.728   3.224  16.492  0.0994 -0.3158 -0.5014
  624TMC3    C5 9295   3.599   3.237  16.444  0.0707 -0.3917  0.2180
  624TMC3    C6 9296   3.507   3.324  16.502  0.2928 -0.4691 -1.1955
  624TMC3     C 9297   3.890   3.296  16.650  0.5380  0.7636  0.2694
  624TMC3     O 9298   3.943   3.391  16.709  0.0653 -0.0564  0.3919
  624TMC3     H 9299   3.709   3.466  16.731  1.8209 -0.5836 -1.1130
  624TMC3    H1 9300   3.789   3.146  16.448  1.1081  0.0972  0.1746
  624TMC3    H2 9301   3.417   3.346  16.445 -0.9290  0.9727  1.2853
  624TMC3    C7 9302   3.575   3.179  16.312  0.6087  0.1238  0.1392
  624TMC3    C8 9303   3.440   3.429  16.705 -0.4058  0.4264 -1.0542
  624TMC3    O1 9304   3.670   3.149  16.238  0.1951  0.9056 -0.5767
  624TMC3    O2 9305   3.338   3.356  16.688 -0.4376 -0.2932 -0.4117
  625MPD2     C 9306   3.702   0.094   0.852 -0.3529  0.0150  1.0143
  625MPD2    C1 9307   3.718   0.228   0.846 -0.7164 -0.1911 -0.4781
  625MPD2    C2 9308   3.825   0.280   0.907 -0.2460 -0.2194 -0.1207
  625MPD2    C3 9309   3.906   0.197   0.982 -0.2786 -0.1544 -0.6900
  625MPD2    C4 9310   3.880   0.062   0.996  0.2272  0.3355 -0.2438
  625MPD2    C5 9311   3.779   0.011   0.930  0.3332 -0.2529 -0.9758
  625MPD2     H 9312   3.837   0.388   0.903  0.0368 -0.3130 -1.7072
  625MPD2    H1 9313   3.942   4.732   1.056  0.7452  1.0948  0.0454
  625MPD2    H2 9314   3.613   0.050   0.810 -0.8106 -0.0247  2.0361
  625MPD2    H3 9315   3.745   4.646   0.952  0.4240  0.0171  0.4573
  625MPD2     N 9316   4.014   0.259   1.059  0.6068  0.1039  0.2692
  625MPD2    H5 9317   4.031   0.358   1.045 -0.3442  0.2922  0.3890
  625MPD2    N1 9318   3.639   0.320   0.769 -0.6896  0.3469 -0.0054
  625MPD2    H7 9319   3.658   0.420   0.779  0.5158  0.1382 -0.1382
  626TMC3    C1 9320   3.460   0.394   0.646  0.9406 -1.1881 -0.3090
  626TMC3    C2 9321   3.403   0.387   0.525  1.0622 -0.1080 -0.1838
  626TMC3    C3 9322   3.289   0.461   0.502  0.2378  0.3461 -0.4808
  626TMC3    C4 9323   3.389   0.450   0.752  0.0120 -0.2302  0.1431
  626TMC3    C5 9324   3.271   0.510   0.731  0.0160  0.3858  0.5619
  626TMC3    C6 9325   3.215   0.511   0.605 -0.2062  0.5308  0.3788
  626TMC3     C 9326   3.546   0.283   0.674 -0.6548 -0.0395  0.7822
  626TMC3     O 9327   3.522   0.176   0.619 -0.0250  0.1286  0.0105
  626TMC3     H 9328   3.453   0.335   0.444 -1.8610 -2.2166 -0.6624
  626TMC3    H1 9329   3.427   0.442   0.853 -1.0310  1.2692  0.6624
  626TMC3    H2 9330   3.120   0.563   0.595 -0.2498  0.8409  2.5673
  626TMC3    C7 9331   3.183   0.527   0.844  0.5630 -0.0014  0.1949
  626TMC3    C8 9332   3.228   0.446   0.368  0.0937  0.2641  0.3036
  626TMC3    O1 9333   3.235   0.556   0.951 -0.1569  0.0475  0.1355
  626TMC3    O2 9334   3.276   0.360   0.292  0.6805 -0.0570 -0.2475
  627MPD2     C 9335   1.657   0.043  14.867 -0.5353  0.1569  1.2592
  627MPD2    C1 9336   1.770   4.715  14.919  0.3249  0.2892 -0.3282
  627MPD2    C2 9337   1.756   4.577  14.944 -0.9920 -0.2758 -0.0333
  627MPD2    C3 9338   1.643   4.503  14.912 -0.7486 -0.0698  0.2413
  627MPD2    C4 9339   1.542   4.567  14.847  0.0650  0.7798  0.2474
  627MPD2    C5 9340   1.552   4.704  14.827 -0.2425 -0.2355  0.2282
  627MPD2     H 9341   1.840   4.526  14.990  0.2718  0.9291 -1.0064
  627MPD2    H1 9342   1.453   4.520  14.808 -0.5064  0.2707  2.1699
  627MPD2    H2 9343   1.656   0.149  14.841 -2.1579 -0.5943 -1.7225
  627MPD2    H3 9344   1.472   0.022  14.776  2.0753 -0.1058 -3.2814
  627MPD2     N 9345   1.644   4.361  14.934  0.4180  0.2503 -0.8294
  627MPD2    H5 9346   1.720   4.330  14.994 -0.5567  0.2268  0.4117
  627MPD2    N1 9347   1.900   0.037  14.920  0.6494 -0.4072  0.4208
  627MPD2    H7 9348   1.973   4.704  14.933  1.4694  0.0372 -1.6949
  628TMC3    C1 9349   2.074   0.207  14.921  0.1085  0.4667  0.1775
  628TMC3    C2 9350   2.163   0.116  14.981  0.5637 -0.2776 -0.2133
  628TMC3    C3 9351   2.294   0.157  15.011  1.0866  0.0989 -0.2184
  628TMC3    C4 9352   2.108   0.336  14.902 -0.1320 -0.7697 -0.1997
  628TMC3    C5 9353   2.234   0.372  14.939 -0.2436  0.4443 -0.5344
  628TMC3    C6 9354   2.328   0.285  14.987 -1.0987  0.5817 -0.7336
  628TMC3     C 9355   1.928   0.170  14.908  0.4016  0.4938 -0.3200
  628TMC3     O 9356   1.842   0.260  14.914 -0.1588  0.2297 -0.2239
  628TMC3     H 9357   2.134   0.020  15.021  0.1936  0.5152  1.4388
  628TMC3    H1 9358   2.037   0.409  14.865 -0.4082 -1.4792 -1.0691
  628TMC3    H2 9359   2.421   0.328  15.023 -0.4429 -0.3180 -1.3432
  628TMC3    C7 9360   2.265   0.514  14.936  0.1097  0.1397 -0.2844
  628TMC3    C8 9361   2.401   0.061  14.986 -0.4181  0.0275  0.2527
  628TMC3    O1 9362   2.356   0.548  15.011  0.1716 -0.0098  0.1053
  628TMC3    O2 9363   2.368   4.695  14.929  0.8034 -0.4913  0.3385
  629MPD2     C 9364   0.799   2.790  16.367  0.0354  0.0526 -0.3394
  629MPD2    C1 9365   0.698   2.887  16.356  0.4575 -0.3905  0.3480
  629MPD2    C2 9366   0.570   2.850  16.315 -0.3672  0.2612 -0.4995
  629MPD2    C3 9367   0.536   2.721  16.285  0.4051  0.2883 -0.5102
  629MPD2    C4 9368   0.638   2.622  16.280  0.2151  0.0739  0.4563
  629MPD2    C5 9369   0.764   2.664  16.321 -0.4069 -0.1217 -0.0222
  629MPD2     H 9370   0.490   2.922  16.308 -0.5572 -0.2986 -3.9302
  629MPD2    H1 9371   0.619   2.520  16.251  2.2792  0.6890 -3.0767
  629MPD2    H2 9372   0.900   2.822  16.391  0.0543  0.1666 -0.5715
  629MPD2    H3 9373   0.842   2.589  16.309  1.0589  1.2256  1.1340
  629MPD2     N 9374   0.399   2.693  16.263  0.4613  0.2833 -0.3389
  629MPD2    H5 9375   0.340   2.775  16.249  2.2408  1.6974  0.4711
  629MPD2    N1 9376   0.724   3.013  16.411  0.2884  0.5183 -0.2303
  629MPD2    H7 9377   0.801   3.035  16.473  0.8288 -0.0921 -0.6819
  630TMC3    C1 9378   0.682   3.235  16.469  0.3311 -0.4672 -0.0768
  630TMC3    C2 9379   0.678   3.357  16.412 -0.6971  0.8177  0.0678
  630TMC3    C3 9380   0.740   3.458  16.470 -0.1221  0.0660 -0.6129
  630TMC3    C4 9381   0.750   3.211  16.585 -0.2622  0.9699  0.1181
  630TMC3    C5 9382   0.800   3.319  16.657  0.2973  0.5155  0.6525
  630TMC3    C6 9383   0.810   3.437  16.592  0.2865 -0.5546  0.3209
  630TMC3     C 9384   0.635   3.121  16.390  0.5511 -0.7479  0.2384
  630TMC3     O 9385   0.552   3.136  16.305 -1.2839  0.3632 -0.0045
  630TMC3     H 9386   0.612   3.370  16.326 -2.1014  1.8810  1.2996
  630TMC3    H1 9387   0.719   3.121  16.636 -1.2840 -0.1221 -2.4190
  630TMC3    H2 9388   0.839   3.523  16.651  1.6158  1.0152 -2.5960
  630TMC3    C7 9389   0.854   3.299  16.790 -0.4142  0.5348  0.6402
  630TMC3    C8 9390   0.815   3.549  16.382  0.4563 -0.4914 -0.6391
  630TMC3    O1 9391   0.803   3.211  16.854  0.2149 -0.4085  0.1475
  630TMC3    O2 9392   0.900   3.624  16.433 -0.4907  0.4862 -0.2648
  631MPD2     C 9393   3.593   3.476  15.870 -0.1451 -0.0493  0.5467
  631MPD2    C1 9394   3.609   3.477  15.734  0.4026 -0.5179  0.2574
  631MPD2    C2 9395   3.681   3.377  15.673 -0.5129  0.0355 -0.1124
  631MPD2    C3 9396   3.736   3.277  15.746  0.1325 -0.5476 -0.0478
  631MPD2    C4 9397   3.708   3.261  15.885  0.0996  0.4258  0.2394
  631MPD2    C5 9398   3.639   3.366  15.944  0.2852 -0.2736 -0.1006
  631MPD2     H 9399   3.732   3.398  15.580  2.5986 -0.4914  1.4749
  631MPD2    H1 9400   3.748   3.180  15.945 -0.8103 -0.2568 -0.0769
  631MPD2    H2 9401   3.539   3.555  15.919 -0.7612 -1.2631  1.8117
  631MPD2    H3 9402   3.627   3.367  16.052 -1.1599  0.7021 -0.2645
  631MPD2     N 9403   3.827   3.193  15.678 -0.3725 -0.4805 -1.1864
  631MPD2    H5 9404   3.818   3.202  15.577 -2.5376  3.8442 -0.6291
  631MPD2    N1 9405   3.564   3.594  15.666  0.2855 -0.1616  0.0213
  631MPD2    H7 9406   3.546   3.668  15.734  1.2807  0.5590 -0.5035
  632TMC3    C1 9407   3.527   3.741  15.474  0.0149 -0.3639 -0.4042
  632TMC3    C2 9408   3.474   3.836  15.551 -0.6525  0.6294  0.3041
  632TMC3    C3 9409   3.442   3.959  15.500 -0.9341 -0.0696 -0.5689
  632TMC3    C4 9410   3.585   3.772  15.353 -0.0962  0.8174 -0.5635
  632TMC3    C5 9411   3.556   3.899  15.311  0.3051  0.0819 -0.0285
  632TMC3    C6 9412   3.481   3.991  15.375  0.2220  0.4397 -0.0450
  632TMC3     C 9413   3.570   3.610  15.530 -0.3041 -0.1936  0.0025
  632TMC3     O 9414   3.601   3.531  15.445 -0.3715 -0.1562  0.7349
  632TMC3     H 9415   3.426   3.812  15.646 -0.5987  0.5459  0.3100
  632TMC3    H1 9416   3.635   3.698  15.291 -1.4628 -2.1963  1.9536
  632TMC3    H2 9417   3.475   4.092  15.335 -1.7759 -0.0823 -1.0227
  632TMC3    C7 9418   3.622   3.940  15.188  0.1686  0.4859  0.2280
  632TMC3    C8 9419   3.322   4.021  15.543  0.2665 -0.2261  1.0406
  632TMC3    O1 9420   3.552   3.988  15.096  0.6451  0.0654 -1.0411
  632TMC3    O2 9421   3.299   4.014  15.660 -0.2165  0.5765 -0.0594
  633MPD2     C 9422   3.328   1.421  17.548 -0.0189  0.9240  0.1059
  633MPD2    C1 9423   3.290   1.354  17.432 -0.0881  0.3346 -0.2449
  633MPD2    C2 9424   3.220   1.242  17.453  0.4068 -0.4999  0.0666
  633MPD2    C3 9425   3.202   1.184  17.578 -0.3370 -0.2746  0.4470
  633MPD2    C4 9426   3.241   1.251  17.691  0.2346  0.2692 -0.0418
  633MPD2    C5 9427   3.298   1.380  17.674  0.3769  0.2178 -0.3957
  633MPD2     H 9428   3.176   1.188  17.369 -1.0226 -1.7317  1.6207
  633MPD2    H1 9429   3.232   1.209   0.050  0.5870  2.6840  1.0107
  633MPD2    H2 9430   3.380   1.516  17.540  2.4059 -0.4336 -0.1980
  633MPD2    H3 9431   3.325   1.440   0.019 -2.9495 -1.9478  2.1368
  633MPD2     N 9432   3.145   1.055  17.591 -0.3056  0.3738  0.6569
  633MPD2    H5 9433   3.142   1.015  17.684  0.2598 -2.5452 -0.5661
  633MPD2    N1 9434   3.320   1.394  17.297 -0.4053  0.3972  0.0455
  633MPD2    H7 9435   3.280   1.333  17.227 -0.4469  0.2080  0.2325
  634TMC3    C1 9436   3.377   1.530  17.119 -1.3357 -0.0222  0.3739
  634TMC3    C2 9437   3.395   1.421  17.035 -1.1360  0.0190  0.2996
  634TMC3    C3 9438   3.367   1.436  16.901  0.0624 -0.3806  0.2862
  634TMC3    C4 9439   3.329   1.646  17.067  0.2671  0.5550  0.1331
  634TMC3    C5 9440   3.289   1.647  16.940  0.5115  0.0366  0.1734
  634TMC3    C6 9441   3.310   1.550  16.848 -0.4678  0.4067 -0.8934
  634TMC3     C 9442   3.382   1.511  17.262  0.1536  0.7980  0.6694
  634TMC3     O 9443   3.402   1.611  17.335  0.4635 -0.1106 -0.4196
  634TMC3     H 9444   3.425   1.324  17.074 -1.8871 -1.2966 -2.4016
  634TMC3    H1 9445   3.329   1.737  17.125  0.5623 -1.6172  3.5709
  634TMC3    H2 9446   3.254   1.545  16.755  0.3289 -2.8548 -1.1935
  634TMC3    C7 9447   3.261   1.774  16.878  0.0567  0.8366  0.0447
  634TMC3    C8 9448   3.382   1.319  16.818 -0.0343  0.1792 -0.1244
  634TMC3    O1 9449   3.292   1.790  16.765 -0.7787  0.6274  0.0854
  634TMC3    O2 9450   3.412   1.212  16.870  0.1355  0.3311  0.6207
  635TMC3    C1 9451   4.629   2.563   0.767  0.3346 -0.3030  0.7300
  635TMC3    C2 9452   4.558   2.457   0.724 -0.1602 -0.1799 -0.0589
  635TMC3    C3 9453   4.563   2.340   0.807  0.0028 -0.3100 -0.1810
  635TMC3    C4 9454   4.720   2.554   0.875  0.2947 -0.2014  0.1212
  635TMC3    C5 9455   4.726   2.436   0.942  0.1465 -0.2993  0.0593
  635TMC3    C6 9456   4.645   2.331   0.915 -0.0723 -0.3754 -0.0712
  635TMC3     C 9457   4.595   2.699   0.720  0.3619 -0.4858 -0.5485
  635TMC3     O 9458   4.654   2.794   0.772 -0.0128 -0.5112 -0.2094
  635TMC3     H 9459   4.496   2.454   0.635  0.5167 -0.9204 -0.5110
  635TMC3    H1 9460   0.030   2.644   0.916 -0.4037 -0.4538  1.4574
  635TMC3    H2 9461   4.642   2.236   0.969 -0.2550 -0.6489 -0.5575
  635TMC3    C7 9462   0.091   2.433   1.046 -0.3951 -0.1979  0.5542
  635TMC3    C8 9463   4.484   2.227   0.780 -0.2736 -0.0370 -0.1803
  635TMC3    O1 9464   0.169   2.527   1.054  0.0896 -0.0294  0.5222
  635TMC3    O2 9465   4.424   2.174   0.871  0.1414 -0.1204  0.0546
  636MPD2     C 9466   4.455   1.668  16.160  0.4614 -0.2681 -0.0146
  636MPD2    C1 9467   4.547   1.666  16.265  0.6264  0.0298 -0.1429
  636MPD2    C2 9468   4.617   1.554  16.286 -0.0761  0.6042 -0.2743
  636MPD2    C3 9469   4.597   1.440  16.207 -0.6140 -0.0522  0.3836
  636MPD2    C4 9470   4.503   1.437  16.109 -0.1767 -0.2425  0.3816
  636MPD2    C5 9471   4.431   1.556  16.085  0.0641  0.1757 -0.3063
  636MPD2     H 9472   4.703   1.555  16.352  0.7036  1.7184 -1.3181
  636MPD2    H1 9473   4.497   1.359  16.034 -1.7165  0.0048  0.2605
  636MPD2    H2 9474   4.404   1.762  16.141  0.7303 -0.2160 -0.4880
  636MPD2    H3 9475   4.359   1.547  16.004  0.1528 -0.4207 -0.3150
  636MPD2     N 9476   4.679   1.327  16.238  0.3303  0.2533  0.0301
  636MPD2    H5 9477   0.001   1.337  16.321 -0.4393  1.0401  0.4694
  636MPD2    N1 9478   4.581   1.769  16.354 -0.5835 -0.6304 -0.2629
  636MPD2    H7 9479   4.652   1.745  16.422  1.6815  1.5261 -1.8635
  637TMC3    C1 9480   0.056   1.123  16.221 -0.3702  0.1846 -0.0542
  637TMC3    C2 9481   0.050   1.092  16.348  0.6072 -0.8089  0.2637
  637TMC3    C3 9482   0.153   1.013  16.401 -0.3289 -0.5362  0.4135
  637TMC3    C4 9483   0.156   1.083  16.131  0.7327  0.2259  0.0312
  637TMC3    C5 9484   0.257   1.013  16.193  0.7883  0.1929 -0.1476
  637TMC3    C6 9485   0.257   0.970  16.324 -0.3257 -0.3142  0.3412
  637TMC3     C 9486   4.692   1.208  16.165  0.1497 -0.1273 -0.7856
  637TMC3     O 9487   4.637   1.171  16.061  0.3086 -0.1256 -0.7634
  637TMC3     H 9488   4.709   1.135  16.410  0.0125 -2.4141  0.6372
  637TMC3    H1 9489   0.161   1.116  16.028  1.7190 -1.5044 -0.4658
  637TMC3    H2 9490   0.330   0.898  16.360  2.5308  1.4568 -1.9218
  637TMC3    C7 9491   0.353   0.942  16.112  0.4665 -0.0531 -0.7468
  637TMC3    C8 9492   0.181   1.047  16.540 -0.2396 -0.1571  0.0109
  637TMC3    O1 9493   0.347   0.822  16.128  0.0967  0.6083  0.1887
  637TMC3    O2 9494   0.091   1.119  16.585 -0.0158 -0.2824 -0.0774
  638MPD2     C 9495   4.679   0.553  15.073 -0.3356 -0.0336  0.1260
  638MPD2    C1 9496   4.620   0.451  15.001 -0.7300  0.6634  0.1466
  638MPD2    C2 9497   4.569   0.339  15.066  0.1519  0.2884  0.8551
  638MPD2    C3 9498   4.592   0.323  15.200 -0.2240 -0.7053 -0.1538
  638MPD2    C4 9499   4.662   0.418  15.271  0.4888 -0.6335 -0.4763
  638MPD2    C5 9500   4.705   0.530  15.204  0.5598 -0.2152 -0.0791
  638MPD2     H 9501   4.523   0.254  15.017 -0.1099  0.9339 -0.0235
  638MPD2    H1 9502   4.684   0.407  15.376 -1.8336  1.2575  0.2082
  638MPD2    H2 9503   4.714   0.635  15.012  0.1887  1.1963  2.0858
  638MPD2    H3 9504   0.037   0.603  15.248 -0.3424  1.1589 -0.9745
  638MPD2     N 9505   4.536   0.219  15.271  0.3216 -0.0308 -0.1116
  638MPD2    H5 9506   4.577   0.193  15.360  1.7037 -1.8210 -1.2705
  638MPD2    N1 9507   4.609   0.472  14.856  0.0270  0.1633  0.1323
  638MPD2    H7 9508   4.659   0.552  14.821  0.8217  0.5981  2.2469
  639TMC3    C1 9509   4.360   0.055  15.310  0.1413  0.3103 -0.4579
  639TMC3    C2 9510   4.229   0.027  15.297  0.3754 -0.4476  0.4729
  639TMC3    C3 9511   4.186   4.635  15.330  0.3414  0.2110 -0.5450
  639TMC3    C4 9512   4.453   4.698  15.354 -0.5432 -0.1301  0.4211
  639TMC3    C5 9513   4.404   4.577  15.394  0.6970 -0.5143  0.0334
  639TMC3    C6 9514   4.271   4.546  15.383  0.0387  0.0325 -0.1969
  639TMC3     C 9515   4.406   0.169  15.229 -0.0178 -0.1342 -0.7713
  639TMC3     O 9516   4.321   0.219  15.155 -0.6703 -0.0469 -0.4748
  639TMC3     H 9517   4.159   0.096  15.251  1.9556  0.7779 -0.0557
  639TMC3    H1 9518   4.555   4.727  15.375 -0.0581  0.9198 -3.4213
  639TMC3    H2 9519   4.242   4.442  15.391  1.7514 -0.4297  0.0328
  639TMC3    C7 9520   4.491   4.467  15.413  0.0537  0.3169  0.2392
  639TMC3    C8 9521   4.107   4.575  15.229 -0.3917 -0.4513  0.6888
  639TMC3    O1 9522   4.451   4.387  15.498 -0.3744  0.1254 -0.1483
  639TMC3    O2 9523   4.149   4.469  15.177  0.2936 -0.4773 -0.1506
  640MPD2     C 9524   0.707   4.150  10.291 -0.0111 -0.6823  0.0616
  640MPD2    C1 9525   0.704   4.242  10.196 -0.1151 -0.8691  0.7898
  640MPD2    C2 9526   0.586   4.309  10.190 -0.1453 -0.0115 -0.1537
  640MPD2    C3 9527   0.482   4.280  10.270 -0.4490  0.6199  0.2362
  640MPD2    C4 9528   0.486   4.189  10.368 -0.7754 -0.1648 -0.0819
  640MPD2    C5 9529   0.600   4.120  10.380  0.1955 -0.6206  0.1709
  640MPD2     H 9530   0.573   4.377  10.106 -0.0121  0.7609  0.4425
  640MPD2    H1 9531   0.403   4.166  10.433  0.4470 -1.3833  1.0353
  640MPD2    H2 9532   0.801   4.098  10.310  1.3561  1.4925 -0.8198
  640MPD2    H3 9533   0.613   4.038  10.449  0.4710 -1.9298 -1.4549
  640MPD2     N 9534   0.354   4.344  10.263  0.3052  0.5385 -1.0456
  640MPD2    H5 9535   0.289   4.313  10.336  1.8336 -0.9689 -0.3073
  640MPD2    N1 9536   0.820   4.257  10.115  0.3020 -0.1398 -0.2433
  640MPD2    H7 9537   0.897   4.191  10.126  1.6316  1.5275  0.5605
  641TMC3    C1 9538   0.944   4.319   9.927  0.1281  0.7945  0.7031
  641TMC3    C2 9539   1.050   4.244   9.962 -0.1355 -0.0509 -0.4230
  641TMC3    C3 9540   1.144   4.199   9.868  0.0468  0.4198 -0.7330
  641TMC3    C4 9541   0.944   4.375   9.806 -0.4656  0.5180 -0.0111
  641TMC3    C5 9542   1.046   4.337   9.715 -0.3160 -0.1360  0.1338
  641TMC3    C6 9543   1.144   4.253   9.746  1.1604  0.1780  0.6169
  641TMC3     C 9544   0.828   4.342  10.007 -0.5141 -0.6704 -0.5552
  641TMC3     O 9545   0.763   4.442   9.984  0.2612  0.0878 -0.6904
  641TMC3     H 9546   1.032   4.177  10.045 -0.8835  1.7473  0.8607
  641TMC3    H1 9547   0.864   4.444   9.782 -3.5820 -2.7825  0.7769
  641TMC3    H2 9548   1.212   4.218   9.669 -2.0270  1.0334 -2.5306
  641TMC3    C7 9549   1.043   4.415   9.595  0.2226  0.3770 -1.0049
  641TMC3    C8 9550   1.211   4.074   9.887 -0.1084 -0.7346  0.2617
  641TMC3    O1 9551   0.935   4.455   9.554  0.2534  0.5042  0.0652
  641TMC3    O2 9552   1.260   4.020   9.789  0.1941  0.2594 -0.1862
  642TMC3    C1 9553   0.997   4.447  12.455 -0.3815  0.3533 -0.2131
  642TMC3    C2 9554   1.107   4.456  12.538  0.2060 -0.2021 -0.0717
  642TMC3    C3 9555   1.202   4.358  12.542  0.2699  0.4335 -0.3631
  642TMC3    C4 9556   0.968   4.330  12.395 -0.4257 -0.0484  0.0397
  642TMC3    C5 9557   1.060   4.225  12.409 -0.3108  0.3040  1.3788
  642TMC3    C6 9558   1.181   4.239  12.477 -0.0162  0.8166  0.4245
  642TMC3     C 9559   0.897   4.537  12.469  0.1580 -0.2285 -0.1749
  642TMC3     O 9560   0.829   4.567  12.375 -0.0111  0.0427  0.4358
  642TMC3     H 9561   1.138   4.556  12.565  0.7956 -0.3963 -0.0354
  642TMC3    H1 9562   0.868   4.314  12.357 -0.8465 -1.4333  1.7378
  642TMC3    H2 9563   1.250   4.160  12.501 -1.0001  0.3935  1.8520
  642TMC3    C7 9564   1.006   4.090  12.390 -0.6405 -0.2324 -0.6264
  642TMC3    C8 9565   1.335   4.381  12.598  0.4061  0.1329  0.4602
  642TMC3    O1 9566   0.921   4.064  12.309  0.0750 -0.1477 -0.0938
  642TMC3    O2 9567   1.430   4.319  12.555 -0.2207 -0.2309  0.6385
  643TMC3    C1 9568   0.514   4.399   0.567 -0.1136  0.4454  1.3105
  643TMC3    C2 9569   0.390   4.415   0.510  0.2953  0.3192  0.4639
  643TMC3    C3 9570   0.349   4.316   0.420 -0.0654  0.4210 -0.1156
  643TMC3    C4 9571   0.604   4.301   0.526 -0.6040 -0.0402 -0.3537
  643TMC3    C5 9572   0.566   4.207   0.438  0.3103  0.2548  0.2686
  643TMC3    C6 9573   0.430   4.206   0.390  0.8461  0.3498 -0.1689
  643TMC3     C 9574   0.562   4.506   0.643 -0.1145 -0.4692 -0.2289
  643TMC3     O 9575   0.498   4.613   0.632  0.6111 -0.7373  0.5143
  643TMC3     H 9576   0.327   4.492   0.554 -0.7716 -0.2334 -0.1153
  643TMC3    H1 9577   0.712   4.310   0.538 -0.5635 -1.3540  0.2603
  643TMC3    H2 9578   0.416   4.163   0.291 -1.4235  0.1027  0.2618
  643TMC3    C7 9579   0.670   4.174   0.339  0.7673  0.1432 -1.3047
  643TMC3    C8 9580   0.309   4.387   0.300 -0.0097 -0.3562 -0.6437
  643TMC3    O1 9581   0.744   4.264   0.309 -0.5157 -0.1022  0.7307
  643TMC3    O2 9582   0.263   4.328   0.202 -0.2412  0.2185  0.1977
  644MPD2     C 9583   1.170   0.178   9.328 -0.5085  0.2310  0.1420
  644MPD2    C1 9584   1.149   0.103   9.445  0.0421  0.7169  0.4059
  644MPD2    C2 9585   1.033   0.037   9.452  0.5145  0.1125  0.2882
  644MPD2    C3 9586   0.939   0.033   9.345 -0.0632  0.0920  0.2665
  644MPD2    C4 9587   0.964   0.102   9.233  0.3926  0.4231 -0.5499
  644MPD2    C5 9588   1.082   0.175   9.220 -0.2484 -0.4943  0.2106
  644MPD2     H 9589   1.013   4.701   9.531  0.3940 -0.5242 -0.3272
  644MPD2    H1 9590   0.896   0.099   9.149  0.1140  1.0283 -0.3469
  644MPD2    H2 9591   1.256   0.241   9.310  0.5189 -1.0321  0.6571
  644MPD2    H3 9592   1.096   0.213   9.120  0.9639 -0.4979  0.3842
  644MPD2     N 9593   0.824   4.688   9.362 -0.0790  0.5699 -1.0750
  644MPD2    H5 9594   0.835   4.623   9.439  0.4523  1.0239 -0.7700
  644MPD2    N1 9595   1.252   0.093   9.538  0.1840  0.2817 -0.2315
  644MPD2    H7 9596   1.341   0.135   9.512 -0.0068 -0.5620 -2.2180
  645TMC3    C1 9597   0.611   4.600   9.335 -0.1048  0.5096  0.8519
  645TMC3    C2 9598   0.478   4.630   9.314 -0.0891 -0.2193  0.1156
  645TMC3    C3 9599   0.381   4.539   9.336  0.3316 -0.2667  0.1863
  645TMC3    C4 9600   0.652   4.473   9.372 -0.2783  1.8608 -0.1529
  645TMC3    C5 9601   0.547   4.387   9.397  0.4150 -0.0972 -0.3444
  645TMC3    C6 9602   0.416   4.412   9.370 -0.0872 -0.0826  0.2445
  645TMC3     C 9603   0.706   4.697   9.294  1.0742 -0.1646  0.8731
  645TMC3     O 9604   0.670   0.035   9.204 -0.7175  0.3155  0.4401
  645TMC3     H 9605   0.455   4.731   9.281  1.6870 -0.4788 -1.9553
  645TMC3    H1 9606   0.752   4.455   9.410 -0.6595 -2.1147 -1.0177
  645TMC3    H2 9607   0.339   4.337   9.387 -2.1794  2.1367  0.6178
  645TMC3    C7 9608   0.575   4.282   9.482 -0.2224 -0.9454 -0.5765
  645TMC3    C8 9609   0.240   4.567   9.349 -0.2276 -0.5529 -0.1258
  645TMC3    O1 9610   0.484   4.234   9.548 -0.3733 -0.3269  0.0955
  645TMC3    O2 9611   0.155   4.474   9.348  0.4085  0.2861  0.4002
  646MPD2     C 9612   4.599   3.869  14.725  0.5728  0.5158  1.0247
  646MPD2    C1 9613   4.502   3.832  14.818 -0.4620  0.5183 -0.3436
  646MPD2    C2 9614   4.372   3.880  14.815 -0.5512 -0.4477  0.1044
  646MPD2    C3 9615   4.333   3.972  14.711  0.0280 -0.5855 -0.6141
  646MPD2    C4 9616   4.436   4.016  14.630 -1.0461 -0.5797 -0.4962
  646MPD2    C5 9617   4.563   3.962  14.633 -0.8519  0.8330 -0.0551
  646MPD2     H 9618   4.297   3.869  14.892  0.0156  0.6336  0.8077
  646MPD2    H1 9619   4.421   4.090  14.553 -3.6430 -0.7666 -0.1798
  646MPD2    H2 9620   4.706   3.852  14.733  0.6114  0.6884  0.8830
  646MPD2    H3 9621   4.642   3.996  14.567  1.1911  0.0379  1.9557
  646MPD2     N 9622   4.196   4.001  14.693 -0.7171 -0.1567 -0.3701
  646MPD2    H5 9623   4.126   3.975  14.762  0.2309  2.0838  1.4485
  646MPD2    N1 9624   4.555   3.753  14.922  0.1951 -0.0315  0.0978
  646MPD2    H7 9625   4.654   3.731  14.922  0.3035  0.4580  1.4128
  647TMC3    C1 9626   4.566   3.650  15.134 -0.2470 -0.4885  0.0827
  647TMC3    C2 9627   4.507   3.563  15.224  0.3510 -0.2514  0.0566
  647TMC3    C3 9628   4.574   3.532  15.337  0.0432  0.3024 -0.0625
  647TMC3    C4 9629   4.703   3.673  15.136  0.1328 -0.1316 -0.0573
  647TMC3    C5 9630   0.027   3.647  15.249  0.1199 -1.6815  0.2179
  647TMC3    C6 9631   4.694   3.587  15.351  0.0270  0.2647  0.2134
  647TMC3     C 9632   4.489   3.718  15.038  0.2439  0.2148 -0.0265
  647TMC3     O 9633   4.369   3.719  15.058  0.1472  0.2262  0.0643
  647TMC3     H 9634   4.401   3.537  15.221  0.1655  0.5122 -0.0506
  647TMC3    H1 9635   0.011   3.747  15.071 -0.7369  0.7696  0.3791
  647TMC3    H2 9636   0.015   3.567  15.442 -0.6185  1.1321  0.8170
  647TMC3    C7 9637   0.154   3.575  15.233 -0.6656 -0.2571 -0.5169
  647TMC3    C8 9638   4.583   3.388  15.360 -0.2200  0.3120 -0.1757
  647TMC3    O1 9639   0.220   3.577  15.334 -0.3602  0.4203  0.4542
  647TMC3    O2 9640   4.661   3.349  15.446 -0.3554 -0.7680  0.4468
  648TMC3    C1 9641   3.814   1.523  15.988  0.0101 -0.2043 -0.5712
  648TMC3    C2 9642   3.809   1.408  15.912 -0.0288  0.6068  0.2920
  648TMC3    C3 9643   3.785   1.427  15.780 -0.2558 -0.2955 -0.0792
  648TMC3    C4 9644   3.795   1.649  15.935 -0.1539  0.1669  0.0119
  648TMC3    C5 9645   3.762   1.664  15.809 -0.1313  0.4289 -0.0569
  648TMC3    C6 9646   3.761   1.554  15.728 -0.4040 -0.6800 -0.1516
  648TMC3     C 9647   3.846   1.519  16.130 -0.0641  0.6290 -0.4686
  648TMC3     O 9648   3.894   1.625  16.178 -0.2287 -0.1963  0.3435
  648TMC3     H 9649   3.840   1.313  15.953  0.1506  0.9790  1.0295
  648TMC3    H1 9650   3.800   1.738  15.997  0.1851  0.9947 -1.2003
  648TMC3    H2 9651   3.740   1.561  15.622  0.6952  2.9568 -0.1126
  648TMC3    C7 9652   3.698   1.784  15.756 -0.2557  0.1512 -0.3856
  648TMC3    C8 9653   3.786   1.315  15.684  0.5722  0.1447 -0.4395
  648TMC3    O1 9654   3.705   1.806  15.636 -0.2698  0.2783  0.2032
  648TMC3    O2 9655   3.725   1.330  15.579 -0.3494  0.0388  0.1441
  649TMC3    C1 9656   3.143   2.464  13.237 -0.3192  0.5911 -0.2347
  649TMC3    C2 9657   3.264   2.408  13.253  0.0276 -0.3107 -0.7621
  649TMC3    C3 9658   3.278   2.309  13.340  0.1332 -0.3023 -0.0683
  649TMC3    C4 9659   3.031   2.418  13.299  0.1104 -0.1930  0.4397
  649TMC3    C5 9660   3.050   2.315  13.388  0.5605 -0.5444  0.0087
  649TMC3    C6 9661   3.173   2.266  13.413  0.9643 -0.2635 -0.3803
  649TMC3     C 9662   3.140   2.561  13.129  0.1594 -0.6456  0.2172
  649TMC3     O 9663   3.029   2.582  13.072  0.4566  0.2418  0.1760
  649TMC3     H 9664   3.345   2.444  13.192  1.6689 -2.7917 -0.0468
  649TMC3    H1 9665   2.944   2.483  13.297 -0.6261 -1.1512  1.1160
  649TMC3    H2 9666   3.191   2.195  13.493 -1.2470  1.1426  1.3554
  649TMC3    C7 9667   2.947   2.292  13.492  0.0259 -0.3100 -0.0951
  649TMC3    C8 9668   3.392   2.223  13.352 -0.4865 -0.9722 -0.0724
  649TMC3    O1 9669   2.856   2.374  13.492  0.4389 -0.0336 -0.0520
  649TMC3    O2 9670   3.402   2.156  13.453  0.0883  0.5518 -0.8067
  650TMC3    C1 9671   0.533   3.577  12.944 -1.2730 -0.1112 -1.0238
  650TMC3    C2 9672   0.471   3.687  12.997 -0.4426  0.1146 -0.4599
  650TMC3    C3 9673   0.459   3.801  12.924  0.0083 -0.4200 -0.1475
  650TMC3    C4 9674   0.582   3.581  12.821  0.1594 -0.0630  1.0130
  650TMC3    C5 9675   0.588   3.702  12.753  0.5988  0.5272  0.1736
  650TMC3    C6 9676   0.525   3.814  12.805  0.4401 -0.0525 -0.0542
  650TMC3     C 9677   0.543   3.455  13.033 -0.5789  0.5151 -0.2002
  650TMC3     O 9678   0.480   3.460  13.137 -0.0461  0.0114 -0.4513
  650TMC3     H 9679   0.427   3.685  13.097 -0.7031  0.0445 -0.5752
  650TMC3    H1 9680   0.617   3.491  12.771  1.2879  0.8621  0.1179
  650TMC3    H2 9681   0.512   3.897  12.736  1.8076 -1.7096 -2.2806
  650TMC3    C7 9682   0.585   3.691  12.606  0.0164 -0.0798 -0.2865
  650TMC3    C8 9683   0.421   3.931  12.980 -0.4732 -0.2797  0.2673
  650TMC3    O1 9684   0.519   3.591  12.568 -0.2038  0.2943 -0.3670
  650TMC3    O2 9685   0.475   4.032  12.930 -0.5236  0.3414  0.0911
  651MPD2     C 9686   4.517   1.184  11.189  0.0532  0.5042  0.0171
  651MPD2    C1 9687   4.440   1.184  11.071  0.0352 -0.6416 -0.1921
  651MPD2    C2 9688   4.508   1.192  10.955  0.1455  0.7302 -0.2679
  651MPD2    C3 9689   4.645   1.213  10.944  0.1620  0.0300 -0.0932
  651MPD2    C4 9690   4.716   1.234  11.060  0.0952  0.1382  0.1111
  651MPD2    C5 9691   4.647   1.217  11.181  0.8631  0.5693 -0.4120
  651MPD2     H 9692   4.452   1.181  10.863 -2.2218  1.3819  1.1123
  651MPD2    H1 9693   0.088   1.251  11.067 -0.3244  2.4014  0.9319
  651MPD2    H2 9694   4.468   1.171  11.285  0.2720  1.3479  0.2437
  651MPD2    H3 9695   4.705   1.218  11.273  2.0259  0.9534 -1.1492
  651MPD2     N 9696   4.712   1.217  10.816 -0.0664 -0.1901  0.6010
  651MPD2    H5 9697   4.654   1.199  10.735  0.0994  0.7137  0.2813
  651MPD2    N1 9698   4.306   1.163  11.067 -0.0392 -0.2349  0.1970
  651MPD2    H7 9699   4.269   1.135  10.977  0.3928 -0.4853  0.0958
  652TMC3    C1 9700   0.324   1.249  10.489 -0.5842  0.2454 -0.1413
  652TMC3    C2 9701   0.278   1.234  10.620 -0.0899  0.6767 -0.2252
  652TMC3    C3 9702   0.141   1.258  10.648  0.3794  0.0946 -0.4054
  652TMC3    C4 9703   0.234   1.291  10.399  0.6758 -0.0160  0.5128
  652TMC3    C5 9704   0.102   1.321  10.427 -0.3192  0.5860 -0.2223
  652TMC3    C6 9705   0.056   1.299  10.554  0.2008 -0.0416  0.6279
  652TMC3     C 9706   0.468   1.225  10.476  0.1492  0.7098  0.4426
  652TMC3     O 9707   0.516   1.129  10.536  1.0136  0.0799 -0.1628
  652TMC3     H 9708   0.348   1.211  10.700 -0.2149 -2.7963 -1.0915
  652TMC3    H1 9709   0.265   1.293  10.295 -0.5396  0.5001  0.1711
  652TMC3    H2 9710   4.696   1.340  10.584 -1.0106 -2.0875 -0.4666
  652TMC3    C7 9711   0.028   1.421  10.353  0.0041  0.1004  0.1020
  652TMC3    C8 9712   0.109   1.252  10.791  0.1291  0.3247 -0.3614
  652TMC3    O1 9713   4.640   1.419  10.356  0.1168 -0.5560 -0.0319
  652TMC3    O2 9714   0.197   1.260  10.875 -0.1107  0.6887 -0.0728
  653MPD2     C 9715   2.916   1.467  17.590 -0.2347  0.9351  0.8045
  653MPD2    C1 9716   2.880   1.573  17.506 -0.1956 -0.5209  0.4916
  653MPD2    C2 9717   2.834   1.548  17.376  0.1702  0.3444 -0.1133
  653MPD2    C3 9718   2.825   1.416  17.334  0.2058  0.8462 -0.0149
  653MPD2    C4 9719   2.878   1.311  17.415 -0.6101  0.1399  0.4853
  653MPD2    C5 9720   2.916   1.343  17.539  0.2548 -0.0841  0.1287
  653MPD2     H 9721   2.807   1.634  17.315  1.3795  0.6310 -0.2470
  653MPD2    H1 9722   2.878   1.205  17.392  1.0202  0.1177  0.5866
  653MPD2    H2 9723   2.942   1.477  17.695 -0.9325  0.6079  1.0049
  653MPD2    H3 9724   2.941   1.258  17.601  1.6955  2.3113  2.8589
  653MPD2     N 9725   2.776   1.392  17.202 -0.0342 -0.5504  0.2853
  653MPD2    H5 9726   2.737   1.471  17.151 -1.0817 -1.3908 -0.1924
  653MPD2    N1 9727   2.878   1.709  17.552  0.0027 -0.1952  0.0396
  653MPD2    H7 9728   2.863   1.776  17.477 -0.2304 -2.0096 -1.5538
  654TMC3    C1 9729   2.715   1.264  17.008  0.2431  0.7309  0.2599
  654TMC3    C2 9730   2.623   1.361  16.982  0.6450  0.5011  0.1935
  654TMC3    C3 9731   2.527   1.329  16.891  0.0051  0.3715 -0.2701
  654TMC3    C4 9732   2.710   1.133  16.966  0.4303  0.4415  0.6017
  654TMC3    C5 9733   2.605   1.100  16.887 -0.3814  0.0361 -0.1106
  654TMC3    C6 9734   2.512   1.203  16.851 -0.1146  0.3142  0.2963
  654TMC3     C 9735   2.781   1.272  17.139 -0.8696  0.4411  0.6934
  654TMC3     O 9736   2.828   1.164  17.171  0.0041  1.0299  0.2827
  654TMC3     H 9737   2.633   1.464  17.015 -0.4656 -0.2580  2.9160
  654TMC3    H1 9738   2.797   1.069  16.978  0.5273  0.6231  0.8741
  654TMC3    H2 9739   2.428   1.174  16.789 -0.5124  0.6191  0.6963
  654TMC3    C7 9740   2.600   0.965  16.826 -0.2157 -0.3988 -0.4010
  654TMC3    C8 9741   2.412   1.424  16.865 -0.1818  0.2704 -0.4381
  654TMC3    O1 9742   2.523   0.945  16.733  0.1960 -0.1914 -0.1809
  654TMC3    O2 9743   2.330   1.381  16.784  0.6151 -0.5023 -0.1537
  655MPD2     C 9744   4.116   1.620  15.709  0.4059 -0.6410  0.3742
  655MPD2    C1 9745   4.091   1.735  15.631  0.6412  0.0965  0.4389
  655MPD2    C2 9746   4.089   1.719  15.496  0.2371  0.0383  0.1987
  655MPD2    C3 9747   4.114   1.597  15.438 -0.0643 -0.0455 -0.6461
  655MPD2    C4 9748   4.146   1.488  15.517 -0.3245 -0.6109  0.3223
  655MPD2    C5 9749   4.136   1.497  15.657  0.2663 -0.7423 -0.0266
  655MPD2     H 9750   4.074   1.812  15.441 -1.5566 -1.2793 -1.5588
  655MPD2    H1 9751   4.172   1.389  15.481  1.0565  0.7206 -2.2995
  655MPD2    H2 9752   4.120   1.627  15.817 -0.6772 -1.3600  0.4610
  655MPD2    H3 9753   4.147   1.407  15.716  2.7285 -0.3439  0.0944
  655MPD2     N 9754   4.125   1.576  15.300  0.8335 -0.1896  0.3052
  655MPD2    H5 9755   4.138   1.479  15.272 -0.8417 -0.6862  1.2362
  655MPD2    N1 9756   4.077   1.869  15.674 -0.1516 -0.1950  0.0673
  655MPD2    H7 9757   4.037   1.939  15.614  0.4321 -0.0269 -0.1180
  656TMC3    C1 9758   4.073   2.035  15.842  0.4746  0.0728  0.0457
  656TMC3    C2 9759   4.059   2.045  15.982 -0.1291 -0.5560 -0.7252
  656TMC3    C3 9760   3.951   2.117  16.027  1.1925 -0.6493 -0.0757
  656TMC3    C4 9761   4.016   2.117  15.751  0.1763  0.6387  1.0164
  656TMC3    C5 9762   3.917   2.193  15.803 -0.4223  0.0687  0.2485
  656TMC3    C6 9763   3.883   2.192  15.937 -0.0713 -0.6387  0.1129
  656TMC3     C 9764   4.129   1.908  15.801 -0.3405 -0.3515 -0.0109
  656TMC3     O 9765   4.189   1.836  15.880  0.1414  0.1711 -0.3859
  656TMC3     H 9766   4.121   1.980  16.042 -0.7250 -0.7479 -0.3233
  656TMC3    H1 9767   4.041   2.119  15.646 -1.1787  1.2712  0.7060
  656TMC3    H2 9768   3.797   2.239  15.983 -1.3040 -2.5574 -0.2632
  656TMC3    C7 9769   3.857   2.296  15.720 -0.1370  0.4024  0.3392
  656TMC3    C8 9770   3.870   2.040  16.108 -0.2335 -0.0039 -0.2888
  656TMC3    O1 9771   3.871   2.295  15.599  0.2321  0.0510 -0.1776
  656TMC3    O2 9772   3.898   1.920  16.117  0.1668 -0.0339  0.1887
  657TMC3    C1 9773   3.172   1.194  14.649 -0.4576  0.7651  0.5754
  657TMC3    C2 9774   3.151   1.234  14.783  0.1063  0.8463  1.0480
  657TMC3    C3 9775   3.043   1.314  14.812  0.3033  0.1485  0.2796
  657TMC3    C4 9776   3.090   1.231  14.553 -0.0651 -0.1333 -0.4966
  657TMC3    C5 9777   2.986   1.313  14.589 -0.2966  0.5212  0.0591
  657TMC3    C6 9778   2.965   1.366  14.709  0.2058 -0.7034  0.0929
  657TMC3     C 9779   3.219   1.064  14.624  0.3535  0.9250  0.0809
  657TMC3     O 9780   3.148   1.002  14.549  0.3481  0.1752 -0.7836
  657TMC3     H 9781   3.223   1.211  14.861  0.7155  0.1370  0.2800
  657TMC3    H1 9782   3.120   1.211  14.451  0.6772 -0.4867 -0.2076
  657TMC3    H2 9783   2.881   1.426  14.741  0.7168  0.3886 -0.6289
  657TMC3    C7 9784   2.892   1.343  14.480  0.1698 -0.1293  0.1787
  657TMC3    C8 9785   3.042   1.375  14.940  0.2052 -0.0763  0.0109
  657TMC3    O1 9786   2.889   1.265  14.386  0.4660 -0.5407 -0.2655
  657TMC3    O2 9787   2.975   1.479  14.948 -0.1194 -0.3840 -0.3637
  658MPD2     C 9788   4.499   1.135  15.023  0.3580  0.6475 -0.9616
  658MPD2    C1 9789   4.412   1.189  14.936  0.3670  0.0320  0.7056
  658MPD2    C2 9790   4.441   1.154  14.802 -0.2635 -0.2085 -0.1028
  658MPD2    C3 9791   4.562   1.088  14.772 -0.2340  0.0848 -0.8963
  658MPD2    C4 9792   4.644   1.046  14.868  0.4579 -0.0390 -0.0946
  658MPD2    C5 9793   4.606   1.067  14.992 -0.1117 -0.5697  0.2095
  658MPD2     H 9794   4.383   1.192  14.719 -2.1457  0.6285  1.5634
  658MPD2    H1 9795   4.730   0.982  14.851  1.1556  1.0440 -0.6685
  658MPD2    H2 9796   4.481   1.144  15.130  1.9364  2.3354 -0.8413
  658MPD2    H3 9797   4.672   1.022  15.065 -0.5433  0.8929  1.5197
  658MPD2     N 9798   4.590   1.067  14.633 -0.1330  0.5111 -1.0273
  658MPD2    H5 9799   4.521   1.088  14.562 -0.6494  2.6269  0.0956
  658MPD2    N1 9800   4.314   1.279  14.972  0.4496  0.4799 -0.0603
  658MPD2    H7 9801   4.318   1.314  15.067 -0.2732  0.8134 -0.1579
  659TMC3    C1 9802   4.117   1.422  14.934  0.0718  0.0164  0.2673
  659TMC3    C2 9803   4.154   1.491  15.045 -0.6084 -0.1999  0.1481
  659TMC3    C3 9804   4.075   1.600  15.077 -0.3527 -0.6576  0.2110
  659TMC3    C4 9805   4.006   1.450  14.856 -0.5809  0.4348  0.7161
  659TMC3    C5 9806   3.928   1.559  14.896  0.1014  0.3965  0.1648
  659TMC3    C6 9807   3.966   1.632  14.999 -0.9564  0.4452 -0.9060
  659TMC3     C 9808   4.215   1.324  14.883  0.4783 -0.1340 -0.5826
  659TMC3     O 9809   4.176   1.274  14.777  0.1189  0.3018 -0.2224
  659TMC3     H 9810   4.244   1.479  15.104  0.0670  0.5905 -0.7220
  659TMC3    H1 9811   3.998   1.411  14.755  2.8536  2.2601 -0.2509
  659TMC3    H2 9812   3.909   1.716  15.037  0.7272  0.3995  1.6771
  659TMC3    C7 9813   3.794   1.572  14.840  0.5348  0.7304 -0.7183
  659TMC3    C8 9814   4.083   1.664  15.207  0.4615 -0.5139  0.1756
  659TMC3    O1 9815   3.735   1.676  14.859 -0.0134  0.0236  0.2514
  659TMC3    O2 9816   4.044   1.780  15.208  0.1352 -0.3613  0.1080
  660MPD2     C 9817   2.401   4.733  12.526  0.2742 -0.5806  0.8561
  660MPD2    C1 9818   2.273   0.018  12.576  0.0306  0.2525 -0.7679
  660MPD2    C2 9819   2.245   4.710  12.707  0.7152  0.5474 -0.2041
  660MPD2    C3 9820   2.345   4.656  12.789  0.5432 -0.4387  1.1236
  660MPD2    C4 9821   2.472   4.647  12.741 -0.0947 -0.3073  0.6084
  660MPD2    C5 9822   2.496   4.677  12.610 -0.3584 -0.2346 -0.6306
  660MPD2     H 9823   2.145   4.725  12.748  0.4848 -1.7309  0.0840
  660MPD2    H1 9824   2.556   4.595  12.786  1.6102  2.0028  0.1245
  660MPD2    H2 9825   2.424   0.014  12.421 -0.5288  1.5867  1.0103
  660MPD2    H3 9826   2.584   4.636  12.563 -1.1659  1.4858 -3.6732
  660MPD2     N 9827   2.312   4.604  12.916  0.7971  0.4702 -0.1274
  660MPD2    H5 9828   2.392   4.584  12.975  0.6056 -0.0744 -0.0516
  660MPD2    N1 9829   2.174   0.072  12.494  0.0530  0.1757 -0.2299
  660MPD2    H7 9830   2.202   0.110  12.404  1.8577 -1.8343 -0.5396
  661TMC3    C1 9831   1.960   0.167  12.443 -0.1385 -0.7472 -0.3465
  661TMC3    C2 9832   2.014   0.247  12.344 -0.7764 -0.2666  0.1160
  661TMC3    C3 9833   1.931   0.335  12.282 -0.1187  0.3510 -0.4378
  661TMC3    C4 9834   1.828   0.166  12.467  0.0105 -0.5327  0.0551
  661TMC3    C5 9835   1.754   0.256  12.401  0.0283 -0.1931 -0.7668
  661TMC3    C6 9836   1.798   0.348  12.311  1.3575  0.9731 -0.2921
  661TMC3     C 9837   2.043   0.085  12.527 -0.7017  0.9465 -0.2787
  661TMC3     O 9838   1.976   0.033  12.618  0.2320 -0.0532 -0.7730
  661TMC3     H 9839   2.106   0.219  12.293  1.0217  3.4911  1.2775
  661TMC3    H1 9840   1.784   0.099  12.541 -1.2135  1.7419  1.3876
  661TMC3    H2 9841   1.728   0.416  12.264 -0.2502  0.2543  1.0565
  661TMC3    C7 9842   1.610   0.253  12.412  0.3963 -0.1549  0.5267
  661TMC3    C8 9843   1.992   0.400  12.173 -0.5703  0.3062 -0.8377
  661TMC3    O1 9844   1.549   0.358  12.381  0.1814 -0.3631 -0.9825
  661TMC3    O2 9845   2.105   0.379  12.142 -0.1488  0.2831 -0.2047
  662MPD2     C 9846   2.500   0.188  17.181 -0.1663 -0.4612  0.0626
  662MPD2    C1 9847   2.458   0.278  17.276  0.1489  0.4439 -0.2640
  662MPD2    C2 9848   2.466   0.413  17.245  0.6835  0.5769  0.3955
  662MPD2    C3 9849   2.479   0.452  17.112  0.2279 -0.5540 -0.5200
  662MPD2    C4 9850   2.509   0.356  17.017 -0.1693 -0.4366  0.0238
  662MPD2    C5 9851   2.533   0.227  17.059 -0.8213 -0.5545  0.3754
  662MPD2     H 9852   2.458   0.490  17.321  1.4298  0.2205  0.8343
  662MPD2    H1 9853   2.539   0.384  16.916 -0.9921  1.6344  0.3622
  662MPD2    H2 9854   2.501   0.083  17.207 -0.0623  0.3403  3.3370
  662MPD2    H3 9855   2.579   0.153  16.994  0.0428 -2.5354  3.2490
  662MPD2     N 9856   2.484   0.583  17.059  0.2655 -0.1353  0.2241
  662MPD2    H5 9857   2.519   0.599  16.965 -0.9812  2.2700  0.1714
  662MPD2    N1 9858   2.401   0.238  17.407 -0.2066  0.6476 -0.2695
  662MPD2    H7 9859   2.351   0.305  17.466  0.6099 -0.2850  1.4908
  663TMC3    C1 9860   2.297   0.091  17.560  0.3541  0.2292  0.1442
  663TMC3    C2 9861   2.260   0.213  17.610 -0.1353 -0.0884  0.1788
  663TMC3    C3 9862   2.130   0.218  17.657 -0.0039  0.2444  0.7841
  663TMC3    C4 9863   2.204   4.729  17.531  0.1454  0.2111  0.1807
  663TMC3    C5 9864   2.079   4.732  17.593  0.7946  0.4867 -0.6422
  663TMC3    C6 9865   2.050   0.110  17.662  0.2246 -0.6794 -0.6556
  663TMC3     C 9866   2.391   0.103  17.451  0.0570 -0.2996 -0.5204
  663TMC3     O 9867   2.429   0.001  17.400 -0.6049  0.2328 -0.0040
  663TMC3     H 9868   2.331   0.282  17.655  0.1819  0.1831 -0.7328
  663TMC3    H1 9869   2.233   4.633  17.490  2.2189  0.7739  0.3033
  663TMC3    H2 9870   1.945   0.124  17.685  0.9448  3.8792 -0.1787
  663TMC3    C7 9871   2.012   4.616  17.647 -0.5304  0.2456 -0.1610
  663TMC3    C8 9872   2.103   0.313   0.015 -0.0348  0.3955 -1.2649
  663TMC3    O1 9873   1.924   4.643  17.728  0.3346  0.4840  0.0673
  663TMC3    O2 9874   2.140   0.428  17.729  0.6792 -0.5843  0.4907
  664MPD2     C 9875   0.374   2.937   0.055 -0.3254 -0.3236 -0.4251
  664MPD2    C1 9876   0.453   3.041   0.096 -0.6064 -0.0471 -0.5451
  664MPD2    C2 9877   0.457   3.069   0.230  0.3325  0.3162  0.2649
  664MPD2    C3 9878   0.383   3.009   0.325  0.2005 -0.7698 -0.5744
  664MPD2    C4 9879   0.315   2.893   0.286  0.2446 -0.9139  0.5883
  664MPD2    C5 9880   0.307   2.858   0.149  0.4984 -0.3013  0.5094
  664MPD2     H 9881   0.515   3.158   0.251 -0.4997  0.6917  0.9688
  664MPD2    H1 9882   0.279   2.822   0.360  1.3558 -3.6234 -1.4466
  664MPD2    H2 9883   0.354   2.915  17.691  0.9785 -1.2531 -0.4785
  664MPD2    H3 9884   0.240   2.781   0.113  2.5461 -0.9653 -1.7693
  664MPD2     N 9885   0.404   3.052   0.455  0.3070  0.2274  0.0139
  664MPD2    H5 9886   0.463   3.132   0.478 -1.1296  1.5784 -1.0792
  664MPD2    N1 9887   0.516   3.120  17.736 -0.3728 -0.3838 -0.1658
  664MPD2    H7 9888   0.564   3.199   0.036 -0.3900 -1.2488  1.5413
  665TMC3    C1 9889   0.390   3.062   0.686  0.8084 -0.1760 -0.5974
  665TMC3    C2 9890   0.410   2.997   0.801 -0.2398  0.2552 -0.0292
  665TMC3    C3 9891   0.419   3.064   0.920 -0.6408 -0.7049 -0.2772
  665TMC3    C4 9892   0.382   3.208   0.686 -0.3988 -0.2301 -0.2495
  665TMC3    C5 9893   0.384   3.269   0.808 -0.8098 -0.3747 -0.0226
  665TMC3    C6 9894   0.418   3.200   0.920  0.9028  0.1077 -0.5978
  665TMC3     C 9895   0.347   2.995   0.567  0.2988 -0.1893  0.1217
  665TMC3     O 9896   0.277   2.892   0.581  0.5500 -0.6859  0.3330
  665TMC3     H 9897   0.402   2.889   0.798  2.0210  0.0395  1.6532
  665TMC3    H1 9898   0.347   3.267   0.602 -2.4744  2.7380  2.6826
  665TMC3    H2 9899   0.433   3.254   1.012  0.1517  2.6998 -2.0021
  665TMC3    C7 9900   0.395   3.420   0.808 -0.4621  0.9600  0.6372
  665TMC3    C8 9901   0.473   3.006   1.042 -0.1229  0.2883  0.3158
  665TMC3    O1 9902   0.337   3.478   0.718 -0.1053 -0.1802 -0.6046
  665TMC3    O2 9903   0.527   3.086   1.119 -0.2883 -0.0894 -0.1178
  666TMC3    C1 9904   0.275   3.170   9.761 -0.8686 -0.0380 -0.8059
  666TMC3    C2 9905   0.366   3.100   9.831  0.0764  0.5847 -0.0794
  666TMC3    C3 9906   0.489   3.155   9.857 -0.0061 -0.6334 -0.5689
  666TMC3    C4 9907   0.306   3.294   9.716  0.3677 -0.9669  0.1141
  666TMC3    C5 9908   0.419   3.356   9.765 -0.3500  0.3165 -0.5213
  666TMC3    C6 9909   0.515   3.289   9.835  0.2895 -0.3154  0.0745
  666TMC3     C 9910   0.130   3.135   9.771 -0.5609 -0.3574 -0.2001
  666TMC3     O 9911   0.049   3.196   9.700  0.5792 -0.5104 -0.2906
  666TMC3     H 9912   0.342   2.996   9.854  0.3544  0.4587 -0.3616
  666TMC3    H1 9913   0.229   3.356   9.670  0.4906 -1.1555 -0.3467
  666TMC3    H2 9914   0.608   3.328   9.873  0.0114  0.5409 -0.1355
  666TMC3    C7 9915   0.389   3.485   9.830 -0.2227 -0.6159 -0.0466
  666TMC3    C8 9916   0.576   3.106   9.960  0.7163  0.6385 -0.0560
  666TMC3    O1 9917   0.271   3.519   9.830 -0.0430  0.2131 -0.2448
  666TMC3    O2 9918   0.684   3.157   9.982  0.5509  0.5689 -0.2484
  667MPD2     C 9919   1.663   2.986  14.660  0.5690  0.1633 -0.1065
  667MPD2    C1 9920   1.542   3.042  14.688  0.3067  0.7589  0.1498
  667MPD2    C2 9921   1.429   2.958  14.669 -0.3135 -1.0303 -0.0555
  667MPD2    C3 9922   1.434   2.844  14.595 -0.3747  0.2727  0.3036
  667MPD2    C4 9923   1.558   2.793  14.559  0.2347  0.1885  0.0738
  667MPD2    C5 9924   1.670   2.860  14.600 -0.1706  0.7099  0.1461
  667MPD2     H 9925   1.332   2.989  14.707  0.2298 -0.7495  1.0858
  667MPD2    H1 9926   1.570   2.693  14.519 -0.1008  0.1473  0.0747
  667MPD2    H2 9927   1.755   3.032  14.696  1.2393 -1.2273 -0.0751
  667MPD2    H3 9928   1.766   2.818  14.575 -0.1504  1.7417 -1.5468
  667MPD2     N 9929   1.322   2.761  14.557  1.0425 -0.3301  0.5696
  667MPD2    H5 9930   1.341   2.681  14.498 -1.5401 -1.5673  1.3943
  667MPD2    N1 9931   1.521   3.163  14.757  0.6302  0.1512 -0.3637
  667MPD2    H7 9932   1.429   3.171  14.799  0.8508  0.9367 -0.0416
  668TMC3    C1 9933   1.596   3.324  14.919 -0.1704 -0.6612 -0.2757
  668TMC3    C2 9934   1.671   3.434  14.941 -0.3988  0.1248 -0.6589
  668TMC3    C3 9935   1.700   3.457  15.071 -0.1262 -1.0879 -0.4855
  668TMC3    C4 9936   1.535   3.250  15.018  0.6586  0.2285 -0.4654
  668TMC3    C5 9937   1.558   3.288  15.145 -0.8545 -0.5277 -0.1209
  668TMC3    C6 9938   1.655   3.377  15.169  0.1693  0.5059  0.6764
  668TMC3     C 9939   1.627   3.251  14.798  0.2710 -0.3234 -0.2521
  668TMC3     O 9940   1.729   3.280  14.735  0.1973 -0.0837  0.1964
  668TMC3     H 9941   1.702   3.499  14.860  1.5323  0.0332  0.0081
  668TMC3    H1 9942   1.487   3.156  14.992  0.6845  0.8036 -2.5567
  668TMC3    H2 9943   1.666   3.400  15.275 -0.4567  0.2217  0.8045
  668TMC3    C7 9944   1.533   3.194  15.250 -0.0593 -0.1084 -0.3818
  668TMC3    C8 9945   1.765   3.577  15.114 -0.1530 -0.1342 -0.5006
  668TMC3    O1 9946   1.590   3.208  15.359  0.9815  0.4685 -0.2683
  668TMC3    O2 9947   1.788   3.582  15.235  0.2959  0.1988 -0.2720
  669TMC3    C1 9948   4.097   2.953  15.003 -0.4337 -0.1243 -0.0332
  669TMC3    C2 9949   3.981   3.024  14.973  0.2314  0.2344  0.5348
  669TMC3    C3 9950   3.981   3.103  14.858 -0.0475  0.4820 -0.0246
  669TMC3    C4 9951   4.209   2.971  14.933 -0.2537  1.0714  0.0367
  669TMC3    C5 9952   4.209   3.072  14.837  0.1563 -0.1638  0.1156
  669TMC3    C6 9953   4.096   3.138  14.789 -0.7133 -0.6113  0.7113
  669TMC3     C 9954   4.085   2.851  15.110 -0.4938 -0.6658 -0.5922
  669TMC3     O 9955   4.015   2.889  15.201 -0.5506  0.1161 -0.2251
  669TMC3     H 9956   3.891   3.016  15.034 -0.3600 -2.5185 -0.6776
  669TMC3    H1 9957   4.305   2.930  14.963 -0.7563 -0.2388 -0.1321
  669TMC3    H2 9958   4.092   3.178  14.689 -0.8701 -0.9086  0.5975
  669TMC3    C7 9959   4.336   3.105  14.775  0.2751  0.2810  0.2495
  669TMC3    C8 9960   3.878   3.056  14.776  0.4055  1.5922  0.3570
  669TMC3    O1 9961   4.346   3.222  14.736 -0.3482  0.1036  0.3392
  669TMC3    O2 9962   3.917   3.012  14.674 -0.3576  0.2004  0.3635
  670MPD2     C 9963   2.764   0.479  13.402  0.8084  0.9987 -0.4010
  670MPD2    C1 9964   2.855   0.461  13.510 -0.3904  0.8112 -0.7676
  670MPD2    C2 9965   2.824   0.506  13.641  0.4086 -0.7191  0.2471
  670MPD2    C3 9966   2.698   0.550  13.660  0.0841  0.0624 -0.2731
  670MPD2    C4 9967   2.612   0.571  13.556  0.6908  0.1300 -0.2711
  670MPD2    C5 9968   2.642   0.536  13.431 -0.1971 -0.8674  1.0173
  670MPD2     H 9969   2.887   0.487  13.727 -1.4284  0.1150  1.7819
  670MPD2    H1 9970   2.515   0.618  13.570  1.5424  1.7648  0.0960
  670MPD2    H2 9971   2.785   0.439  13.303 -0.8320 -0.9513  0.0500
  670MPD2    H3 9972   2.558   0.548  13.363  1.3540  0.5969 -0.6308
  670MPD2     N 9973   2.674   0.589  13.798 -0.5945 -0.2108  0.3398
  670MPD2    H5 9974   2.738   0.555  13.870  1.4447  0.9219 -0.9597
  670MPD2    N1 9975   2.985   0.411  13.487  0.4338  0.1612  0.7022
  670MPD2    H7 9976   3.044   0.394  13.568  0.5352  1.7880  0.9731
  671TMC3    C1 9977   2.532   0.673  13.968  0.0248 -0.4228 -0.3795
  671TMC3    C2 9978   2.624   0.648  14.061 -0.2983 -0.2829  0.5213
  671TMC3    C3 9979   2.581   0.630  14.187 -0.5636  0.3391  0.5442
  671TMC3    C4 9980   2.396   0.660  13.992  0.1378 -0.1956 -0.1259
  671TMC3    C5 9981   2.352   0.630  14.117 -0.3546 -0.5355 -0.0030
  671TMC3    C6 9982   2.446   0.611  14.217  0.4089  0.3284 -0.2120
  671TMC3     C 9983   2.566   0.666  13.833 -0.9939 -0.1328  0.3291
  671TMC3     O 9984   2.485   0.716  13.761 -0.3923 -0.1710 -0.9164
  671TMC3     H 9985   2.721   0.690  14.037  0.3866 -2.5404 -0.6638
  671TMC3    H1 9986   2.325   0.671  13.911  0.7371  3.0962 -0.2219
  671TMC3    H2 9987   2.425   0.572  14.316  0.0619 -0.4297 -0.5854
  671TMC3    C7 9988   2.247   0.531  14.122  0.2684  0.0263 -0.3254
  671TMC3    C8 9989   2.674   0.545  14.255  0.6810  0.3429  0.4689
  671TMC3    O1 9990   2.271   0.443  14.044  0.5749  0.3011 -0.2234
  671TMC3    O2 9991   2.774   0.507  14.189  0.2999 -0.5822 -0.3571
  672MPD2     C 9992   2.946   1.684   0.673 -0.6468  1.1371  0.5101
  672MPD2    C1 9993   3.036   1.574   0.667 -0.4584 -0.6543 -0.4497
  672MPD2    C2 9994   3.173   1.601   0.655 -0.0772 -1.0256 -0.1758
  672MPD2    C3 9995   3.211   1.730   0.660 -0.3737  0.1278 -0.8152
  672MPD2    C4 9996   3.129   1.828   0.697 -0.0556  0.1194 -0.3853
  672MPD2    C5 9997   2.996   1.804   0.709  0.0981 -0.2323  0.2895
  672MPD2     H 9998   3.249   1.525   0.642  0.0651 -0.8363 -0.4304
  672MPD2    H1 9999   3.163   1.926   0.730 -3.9893  0.4159  2.8700
  672MPD2    H210000   2.838   1.676   0.675 -0.4028 -2.2056  0.4782
  672MPD2    H310001   2.934   1.886   0.744 -0.2939 -0.1986 -0.4871
  672MPD2     N10002   3.354   1.759   0.652 -0.0298 -0.3153  0.5417
  672MPD2    H510003   3.384   1.855   0.670 -1.2930 -0.1352  1.6897
  672MPD2    N110004   2.990   1.445   0.636  0.0482  0.2477  0.3932
  672MPD2    H710005   3.063   1.375   0.625 -0.4836 -0.5804  2.1711
  673TMC3    C110006   2.859   1.255   0.598 -0.4487  0.4585 -0.3413
  673TMC3    C210007   2.978   1.182   0.576 -0.2085  0.0356  0.2840
  673TMC3    C310008   2.962   1.058   0.522  0.1731 -0.4919  0.0848
  673TMC3    C410009   2.735   1.213   0.560  0.4331  0.4195 -0.0587
  673TMC3    C510010   2.730   1.090   0.511  0.3558 -0.6745 -0.8826
  673TMC3    C610011   2.842   1.010   0.485 -0.8874  0.5998 -0.0326
  673TMC3     C10012   2.863   1.402   0.613  0.1359  0.4429  0.2467
  673TMC3     O10013   2.758   1.464   0.620 -0.0209 -0.0819  0.0825
  673TMC3     H10014   3.078   1.224   0.584  0.4272 -1.3938 -0.0772
  673TMC3    H110015   2.643   1.259   0.592  0.1438  1.6117 -2.5689
  673TMC3    H210016   2.831   0.911   0.443  0.4966  0.5353 -0.2521
  673TMC3    C710017   2.621   1.065   0.418 -0.8973  0.5898  0.3595
  673TMC3    C810018   3.073   0.963   0.499 -0.0547 -0.4252  0.1039
  673TMC3    O110019   2.600   0.953   0.377 -0.5195  0.6398  0.0611
  673TMC3    O210020   3.071   0.908   0.390 -0.3911 -0.0006 -0.5312
  674MPD2     C10021   2.494   1.652  17.514 -0.8274 -0.4269 -0.3528
  674MPD2    C110022   2.432   1.526  17.529  0.0824  0.2948 -0.7843
  674MPD2    C210023   2.294   1.519  17.534 -0.3229 -0.2275  0.2313
  674MPD2    C310024   2.215   1.633  17.506  0.7282  0.0501  0.4806
  674MPD2    C410025   2.267   1.756  17.489 -0.0574  0.2240  0.3980
  674MPD2    C510026   2.407   1.762  17.488  0.2795  0.3336  0.0976
  674MPD2     H10027   2.243   1.428  17.563  0.1548 -1.1816 -1.9692
  674MPD2    H110028   2.216   1.850  17.469  2.6022  1.3058 -1.3428
  674MPD2    H210029   2.598   1.676  17.496 -0.7345 -0.7284 -0.2078
  674MPD2    H310030   2.451   1.860  17.471 -0.1860  0.8206  1.6946
  674MPD2     N10031   2.077   1.613  17.529  0.2132 -0.2975 -0.1342
  674MPD2    H510032   2.053   1.514  17.535  0.6501 -0.5372 -2.3947
  674MPD2    N110033   2.511   1.414  17.551 -0.3134  0.3036  0.1767
  674MPD2    H710034   2.609   1.422  17.574 -0.5377  3.5337 -0.0782
  675TMC3    C110035   2.550   1.185  17.622  0.7374 -0.0847 -0.2127
  675TMC3    C210036   2.492   1.056  17.635 -0.3551  0.0904 -0.2270
  675TMC3    C310037   2.553   0.966  17.720 -0.3555 -0.0229  0.0033
  675TMC3    C410038   2.653   1.223  17.698 -0.0245  0.1869 -0.1288
  675TMC3    C510039   2.710   1.128   0.035  0.1639 -0.6201  0.0689
  675TMC3    C610040   2.657   1.008   0.063 -0.7668  0.2065  0.7932
  675TMC3     C10041   2.463   1.284  17.553  0.5132  0.0947  0.3489
  675TMC3     O10042   2.361   1.247  17.501  0.2119 -0.2902 -0.3885
  675TMC3     H10043   2.405   1.027  17.576 -2.0647  2.3987  1.1497
  675TMC3    H110044   2.705   1.317  17.680 -1.6278  0.5357 -2.8019
  675TMC3    H210045   2.695   0.950   0.145  0.8992  0.2590  0.0474
  675TMC3    C710046   2.830   1.154   0.115  0.4377 -0.8945 -0.3273
  675TMC3    C810047   2.520   0.828  17.715  0.4558 -0.7175 -0.9632
  675TMC3    O110048   2.889   1.059   0.159 -0.3562  0.4912  0.1447
  675TMC3    O210049   2.480   0.777  17.610 -0.4326 -0.6775  0.2345
  676MPD2     C10050   0.838   3.558  11.375 -0.7846  0.2287  0.2464
  676MPD2    C110051   0.736   3.503  11.453 -0.1445 -0.5012 -0.4908
  676MPD2    C210052   0.704   3.368  11.436  0.2387  1.1725  0.1930
  676MPD2    C310053   0.780   3.292  11.341 -0.0916 -0.2159  1.1899
  676MPD2    C410054   0.894   3.347  11.283  0.2775 -0.5155 -0.0137
  676MPD2    C510055   0.918   3.482  11.298 -0.2251  0.3582  0.0716
  676MPD2     H10056   0.617   3.328  11.487 -0.8261 -0.8367 -3.1348
  676MPD2    H110057   0.944   3.313  11.194  0.4856 -0.3733  0.0493
  676MPD2    H210058   0.869   3.662  11.378 -2.0800  0.5707  1.6094
  676MPD2    H310059   0.988   3.524  11.227  0.1701  2.5321  1.7742
  676MPD2     N10060   0.751   3.160  11.297 -0.0445 -0.0919 -0.2219
  676MPD2    H510061   0.805   3.134  11.216  2.5783  3.1121  0.5263
  676MPD2    N110062   0.649   3.578  11.533 -1.0041 -0.2916 -0.5409
  676MPD2    H710063   0.593   3.527  11.601 -0.6764 -0.4350 -0.3796
  677TMC3    C110064   0.573   3.770  11.651 -0.4416 -0.7045  0.4518
  677TMC3    C210065   0.453   3.712  11.668  0.5607 -0.6149 -0.7000
  677TMC3    C310066   0.367   3.767  11.762  0.1847 -0.0238  0.3869
  677TMC3    C410067   0.613   3.874  11.731  0.1652  0.0504  0.1612
  677TMC3    C510068   0.513   3.937  11.807 -0.1053 -0.0211 -1.1137
  677TMC3    C610069   0.393   3.882  11.831  0.1539 -0.3320 -0.0353
  677TMC3     C10070   0.659   3.717  11.549 -0.0078  0.3578 -0.0439
  677TMC3     O10071   0.749   3.790  11.513  0.7464 -0.1789  0.0848
  677TMC3     H10072   0.415   3.627  11.612 -0.3636 -0.4918 -0.2704
  677TMC3    H110073   0.706   3.926  11.712 -0.2639  1.4691  1.9134
  677TMC3    H210074   0.326   3.928  11.902 -1.3083 -0.5694 -1.2604
  677TMC3    C710075   0.519   4.073  11.850  0.1596 -0.1700  0.8756
  677TMC3    C810076   0.280   3.673  11.823  0.3573 -0.5969 -0.8375
  677TMC3    O110077   0.418   4.117  11.896  0.2461  0.2921  0.2336
  677TMC3    O210078   0.262   3.564  11.766 -0.0755  0.5909 -0.4678
  678MPD2     C10079   1.617   3.883   1.838  0.8778 -0.6538 -0.0333
  678MPD2    C110080   1.600   3.926   1.704 -0.4238  0.6441 -0.5495
  678MPD2    C210081   1.491   4.001   1.661  0.1848  0.1018 -0.1614
  678MPD2    C310082   1.381   4.013   1.742 -0.1109  1.1086 -0.6450
  678MPD2    C410083   1.395   3.975   1.873 -0.2846  0.4812  0.1883
  678MPD2    C510084   1.508   3.909   1.918  0.1309  0.2843  0.5487
  678MPD2     H10085   1.485   4.025   1.555 -0.0904  0.3045 -0.0986
  678MPD2    H110086   1.324   3.989   1.954 -0.6033  1.0391 -0.1915
  678MPD2    H210087   1.694   3.824   1.886  0.6277  0.0126  1.1986
  678MPD2    H310088   1.507   3.864   2.016 -2.4703  0.1610  0.4658
  678MPD2     N10089   1.264   4.071   1.697 -0.0506 -0.5253 -0.4417
  678MPD2    H510090   1.178   4.058   1.750  0.1593 -0.0535  0.0128
  678MPD2    N110091   1.693   3.904   1.602  0.1357  0.0693 -0.0275
  678MPD2    H710092   1.683   3.943   1.509 -2.2283 -0.2696  0.0862
  679TMC3    C110093   2.056   3.737   1.373  0.3219 -0.1612  0.2129
  679TMC3    C210094   1.958   3.718   1.463  0.7593 -0.0194  0.2304
  679TMC3    C310095   1.874   3.819   1.486  0.4170 -0.2247  0.3492
  679TMC3    C410096   2.043   3.839   1.288 -0.2665 -0.7388  0.2397
  679TMC3    C510097   1.958   3.943   1.311  0.1753 -0.5595 -0.2206
  679TMC3    C610098   1.873   3.936   1.414  0.8168 -0.6407 -0.7331
  679TMC3     C10099   2.122   3.619   1.322  0.4053 -0.3945  0.2890
  679TMC3     O10100   2.243   3.623   1.307 -0.1836 -0.5568  0.7123
  679TMC3     H10101   1.964   3.630   1.526 -0.2137 -1.2916 -1.4561
  679TMC3    H110102   2.115   3.842   1.208 -0.1666  1.2296  0.3908
  679TMC3    H210103   1.809   4.020   1.439  0.2539 -1.5613  0.8464
  679TMC3    C710104   1.943   4.049   1.210 -0.4874 -0.1073 -0.0965
  679TMC3    C810105   1.792   3.812   1.609 -0.4390 -0.9653  0.0412
  679TMC3    O110106   1.902   4.158   1.250 -0.4512 -0.0919 -0.4543
  679TMC3    O210107   1.817   3.732   1.692 -0.7683  0.3460 -0.3987
  680MPD2     C10108   2.145   2.757  13.632 -0.2057  1.1042 -0.1571
  680MPD2    C110109   2.251   2.698  13.692 -1.1312  0.1442 -0.2123
  680MPD2    C210110   2.370   2.771  13.696 -0.5034  0.5078 -0.2050
  680MPD2    C310111   2.375   2.899  13.634  0.0647 -0.9722  0.1988
  680MPD2    C410112   2.259   2.951  13.578 -0.5512 -0.3953  0.0825
  680MPD2    C510113   2.143   2.880  13.573  0.3767  0.3633 -0.0295
  680MPD2     H10114   2.457   2.726  13.741  0.0489  1.4110 -0.3704
  680MPD2    H110115   2.274   3.038  13.514  1.5244 -0.4045  0.5498
  680MPD2    H210116   2.052   2.705  13.614  0.4342 -1.1226  2.8641
  680MPD2    H310117   2.070   2.913  13.500 -1.3163 -1.1083  1.0196
  680MPD2     N10118   2.490   2.974  13.643 -0.5093 -0.5129  1.0709
  680MPD2    H510119   2.481   3.057  13.584  0.3854 -1.2908 -0.1591
  680MPD2    N110120   2.256   2.564  13.743 -0.2403 -0.0394 -0.3092
  680MPD2    H710121   2.337   2.522  13.786 -2.2981 -1.3990  2.2505
  681TMC3    C110122   2.165   2.359  13.819  0.1645  0.2143 -0.5103
  681TMC3    C210123   2.077   2.331  13.919 -0.4411  0.3305 -0.4002
  681TMC3    C310124   2.113   2.243  14.016  0.0228  0.8965  0.2573
  681TMC3    C410125   2.283   2.297  13.810 -0.0863  0.1793 -0.2891
  681TMC3    C510126   2.315   2.204  13.909 -0.2942 -0.7364 -0.0482
  681TMC3    C610127   2.238   2.182  14.024 -0.3572  0.3637 -0.1043
  681TMC3     C10128   2.146   2.484  13.747 -0.5295 -0.9040 -0.2240
  681TMC3     O10129   2.038   2.496  13.698 -0.5790  0.2049 -0.1390
  681TMC3     H10130   2.002   2.406  13.943  0.1097  0.7488  0.0219
  681TMC3    H110131   2.341   2.313  13.719  0.2364 -0.3662 -0.1784
  681TMC3    H210132   2.285   2.127  14.105 -1.7217  1.6221  1.5091
  681TMC3    C710133   2.435   2.123  13.900 -0.4368  0.5994  0.1500
  681TMC3    C810134   2.056   2.267  14.149  0.4841  0.2768  0.4382
  681TMC3    O110135   2.432   2.014  13.955 -0.6994 -0.5316 -0.3635
  681TMC3    O210136   1.938   2.296  14.154  0.6766 -0.4682 -0.4723
  682MPD2     C10137   0.114   4.097  11.043 -0.3412 -0.3399 -0.0128
  682MPD2    C110138   4.730   4.059  10.977  0.2934 -0.3221  0.4209
  682MPD2    C210139   4.611   4.053  11.041 -0.4472 -0.3592 -0.2231
  682MPD2    C310140   4.602   4.104  11.171  0.1912 -0.1722 -0.2930
  682MPD2    C410141   4.717   4.119  11.242 -0.4181  0.4478 -1.2788
  682MPD2    C510142   0.104   4.131  11.171 -1.0148  0.0085  0.1491
  682MPD2     H10143   4.524   4.024  10.985 -0.0994 -1.9606  0.0831
  682MPD2    H110144   4.720   4.134  11.349  3.1929 -3.0044 -0.8879
  682MPD2    H210145   0.211   4.090  10.994 -0.3826  2.1684 -0.4529
  682MPD2    H310146   0.192   4.155  11.229 -0.7101  0.6420 -0.5785
  682MPD2     N10147   4.482   4.109  11.245  0.1477  0.1923 -0.1119
  682MPD2    H510148   4.486   4.127  11.345  1.0672  2.4531 -0.5691
  682MPD2    N110149   4.735   4.019  10.839 -0.2745  0.3597 -0.5445
  682MPD2    H710150   4.643   4.010  10.795  0.8203 -4.1088 -1.8374
  683TMC3    C110151   4.176   4.095  11.530 -0.5877 -0.3768 -0.2961
  683TMC3    C210152   4.043   4.102  11.496  0.7694  0.3413 -0.2379
  683TMC3    C310153   4.019   4.061  11.363 -0.0293 -0.5759 -0.7667
  683TMC3    C410154   4.279   4.086  11.436 -0.4312 -0.2472 -0.0512
  683TMC3    C510155   4.245   4.080  11.299 -0.3680 -0.6636  0.5805
  683TMC3    C610156   4.110   4.057  11.263  0.6143  0.2408  0.5934
  683TMC3     C10157   4.207   4.068  11.672 -0.6043 -0.3794 -0.2149
  683TMC3     O10158   4.122   4.099  11.753 -0.2127  0.1793 -0.9860
  683TMC3     H10159   3.960   4.091  11.565 -0.0638  0.2944 -1.2432
  683TMC3    H110160   4.380   4.082  11.475 -0.7139  0.3366  0.7282
  683TMC3    H210161   4.097   4.017  11.163  0.6081 -1.9890  1.4686
  683TMC3    C710162   4.351   4.075  11.198 -0.4098  0.2122  0.2419
  683TMC3    C810163   3.890   4.005  11.337  0.5490 -1.1003  0.5489
  683TMC3    O110164   4.315   4.059  11.085  0.7513 -0.6685  0.0010
  683TMC3    O210165   3.789   4.069  11.354  0.2226  0.3680  0.4217
  684MPD2     C10166   2.866   3.372  16.570  0.0096 -0.0854 -0.0343
  684MPD2    C110167   2.814   3.428  16.455  0.2047 -0.1009 -0.2086
  684MPD2    C210168   2.808   3.564  16.437  0.2867  0.0684 -0.3592
  684MPD2    C310169   2.892   3.646  16.519  0.3794  0.5064 -0.5194
  684MPD2    C410170   2.937   3.587  16.634  0.1082 -0.1871  1.1489
  684MPD2    C510171   2.929   3.451  16.661 -0.0349 -0.4279  0.2502
  684MPD2     H10172   2.761   3.595  16.344 -0.9640 -1.6099 -0.2726
  684MPD2    H110173   2.989   3.637  16.714  1.3294  0.6221 -0.1387
  684MPD2    H210174   2.860   3.267  16.596 -0.5733  0.9761  4.0985
  684MPD2    H310175   2.961   3.401  16.752  1.1152 -1.3586 -0.6778
  684MPD2     N10176   2.914   3.786  16.501  0.2664 -0.1739  0.2876
  684MPD2    H510177   2.970   3.836  16.569  0.7855  0.7482 -0.8331
  684MPD2    N110178   2.736   3.354  16.362  0.1478 -0.7301 -0.2172
  684MPD2    H710179   2.704   3.396  16.275  1.1680  0.3430 -0.0799
  685TMC3    C110180   2.686   3.179  16.224 -0.4472  0.5918  0.5222
  685TMC3    C210181   2.607   3.262  16.154  1.0360  0.1840  1.0275
  685TMC3    C310182   2.627   3.263  16.021 -0.5322 -0.1254  0.0882
  685TMC3    C410183   2.779   3.093  16.171 -0.0012  0.1254  0.7543
  685TMC3    C510184   2.798   3.107  16.039 -0.5197  0.1316  0.3446
  685TMC3    C610185   2.715   3.182  15.961 -0.0648 -0.3055 -0.2747
  685TMC3     C10186   2.716   3.220  16.363 -0.3029  0.2200  0.2479
  685TMC3     O10187   2.763   3.134  16.436  0.2462  0.5616  0.2238
  685TMC3     H10188   2.528   3.315  16.205  0.2581 -1.4763  1.5477
  685TMC3    H110189   2.837   3.025  16.231 -0.9109 -2.5229 -1.3555
  685TMC3    H210190   2.731   3.174  15.855 -1.7764 -1.5840 -0.4270
  685TMC3    C710191   2.929   3.073  15.985  0.1481 -0.9404 -0.0725
  685TMC3    C810192   2.538   3.334  15.931 -0.5661  0.1845  0.0425
  685TMC3    O110193   2.943   3.068  15.868  0.5581  0.4938 -0.4229
  685TMC3    O210194   2.535   3.303  15.813 -0.3399  0.4386 -0.5092
  686MPD2     C10195   3.962   3.565  15.599  0.1280 -0.3737 -0.0342
  686MPD2    C110196   4.053   3.477  15.639  0.3291  0.2314 -0.0650
  686MPD2    C210197   4.113   3.402  15.538  0.0261 -0.3830 -0.6764
  686MPD2    C310198   4.083   3.415  15.402  0.2974  0.2108  0.3333
  686MPD2    C410199   3.993   3.516  15.366  0.1608  0.3224 -0.1947
  686MPD2    C510200   3.934   3.587  15.467 -0.2225 -1.0123  0.6356
  686MPD2     H10201   4.188   3.331  15.570  0.3328  0.5313  0.6428
  686MPD2    H110202   3.962   3.529  15.263  1.1344  0.1653 -0.5032
  686MPD2    H210203   3.914   3.635  15.667  0.6989  0.9602 -1.0184
  686MPD2    H310204   3.853   3.657  15.448  0.2766 -0.2458  1.3677
  686MPD2     N10205   4.120   3.317  15.305 -0.1207  0.3302 -0.4908
  686MPD2    H510206   4.111   3.350  15.209 -3.8709 -0.2492 -0.3438
  686MPD2    N110207   4.065   3.457  15.777 -0.0801 -0.2614 -0.4094
  686MPD2    H710208   4.002   3.504  15.841  2.5721  1.0319  1.2511
  687TMC3    C110209   4.146   3.105  15.446  0.0774  0.0577 -0.4551
  687TMC3    C210210   4.026   3.122  15.510  0.1985  0.2027 -0.1501
  687TMC3    C310211   4.017   3.069  15.635  1.0432  0.2706  0.2567
  687TMC3    C410212   4.245   3.021  15.492  0.0757 -0.8008  0.2222
  687TMC3    C510213   4.227   2.967  15.614 -0.1047 -0.0105  0.8759
  687TMC3    C610214   4.117   2.986  15.686 -0.1756 -0.4463 -0.5466
  687TMC3     C10215   4.170   3.187  15.321  0.1139  0.2502  0.3677
  687TMC3     O10216   4.225   3.115  15.235  0.5366 -0.2765  0.2136
  687TMC3     H10217   3.961   3.200  15.472  0.0515  0.7285  1.1738
  687TMC3    H110218   4.338   3.015  15.437  0.9357  1.7373  1.4168
  687TMC3    H210219   4.112   2.946  15.786  1.5596 -0.5710 -0.5088
  687TMC3    C710220   4.340   2.896  15.676  0.0898 -1.0036  0.5374
  687TMC3    C810221   3.917   3.104  15.726 -0.2496  0.4381 -0.4680
  687TMC3    O110222   4.367   2.909  15.796  0.0662 -0.6869 -0.6237
  687TMC3    O210223   3.906   3.044  15.832  0.4138  0.0792  0.0088
  688MPD2     C10224   3.268   2.312  17.332  0.2845  0.3418 -0.7283
  688MPD2    C110225   3.289   2.174  17.342 -0.5649  0.2680 -0.3591
  688MPD2    C210226   3.376   2.114  17.258  0.4977 -1.0123 -0.0717
  688MPD2    C310227   3.447   2.187  17.163 -0.2952 -0.4893  0.6874
  688MPD2    C410228   3.430   2.327  17.157  0.2097 -0.7776  0.0735
  688MPD2    C510229   3.343   2.388  17.246 -0.2888 -0.0928 -0.2948
  688MPD2     H10230   3.395   2.009  17.272 -0.5516 -1.0009  1.5044
  688MPD2    H110231   3.481   2.391  17.086  1.0933 -0.3152  1.1255
  688MPD2    H210232   3.190   2.365  17.385 -0.2921 -2.5611  1.2828
  688MPD2    H310233   3.325   2.495  17.237 -0.0437 -0.0200  0.0375
  688MPD2     N10234   3.528   2.130  17.063 -0.0707  0.2467 -0.0497
  688MPD2    H510235   3.568   2.200  17.002  2.1221 -0.1103  1.0036
  688MPD2    N110236   3.220   2.102  17.441 -0.0161  0.2249 -0.1387
  688MPD2    H710237   3.239   2.002  17.451  1.8670  0.3610 -2.4005
  689TMC3    C110238   3.087   2.071  17.643  0.0677 -0.1248  0.4426
  689TMC3    C210239   3.064   2.126   0.029  0.1988  0.8104 -0.9004
  689TMC3    C310240   2.990   2.051   0.119 -0.4529 -0.6410  0.0753
  689TMC3    C410241   3.006   1.969  17.601 -0.1985  0.4447  0.4409
  689TMC3    C510242   2.941   1.890  17.696 -0.1155  0.5314  0.0888
  689TMC3    C610243   2.926   1.934   0.088 -0.4698 -0.0292 -0.3485
  689TMC3     C10244   3.159   2.164  17.555 -0.8172  0.5058 -0.3710
  689TMC3     O10245   3.176   2.276  17.600 -0.9192 -0.6057 -0.8747
  689TMC3     H10246   3.121   2.211   0.066 -0.7168  1.1957 -0.3545
  689TMC3    H110247   2.998   1.952  17.494 -0.5903  4.1195 -0.0985
  689TMC3    H210248   2.858   1.882   0.154  3.2478 -2.5417  1.4901
  689TMC3    C710249   2.902   1.749  17.679  0.6513 -0.3609 -0.0893
  689TMC3    C810250   2.964   2.108   0.246 -0.0740 -0.5769 -0.6880
  689TMC3    O110251   2.900   1.679   0.038 -0.3702  0.3057  0.1500
  689TMC3    O210252   3.047   2.184   0.291 -0.1338 -0.2852  0.2392
  690MPD2     C10253   0.748   4.085  16.093 -0.2942 -1.0060 -0.4972
  690MPD2    C110254   0.705   4.037  15.976 -0.3665  0.3017  0.3610
  690MPD2    C210255   0.771   4.070  15.858  0.2138  0.1421  0.0019
  690MPD2    C310256   0.887   4.138  15.870  0.3507  0.4669  0.4064
  690MPD2    C410257   0.930   4.189  15.993 -0.5647  0.1124 -1.1953
  690MPD2    C510258   0.858   4.165  16.105 -0.0728  0.0099  0.3911
  690MPD2     H10259   0.731   4.032  15.765  0.4567 -0.9865  0.3562
  690MPD2    H110260   1.029   4.231  16.005 -0.8862  0.2188  1.0492
  690MPD2    H210261   0.689   4.057  16.180  0.7224  0.9506  0.8184
  690MPD2    H310262   0.892   4.189  16.205 -0.4484  1.7161  0.1052
  690MPD2     N10263   0.977   4.138  15.762  0.2050  0.4233 -0.5700
  690MPD2    H510264   0.959   4.073  15.686 -2.0308 -0.9981  1.2104
  690MPD2    N110265   0.587   3.965  15.959  0.3019  0.3840  0.3150
  690MPD2    H710266   0.555   3.941  15.866 -2.8373  0.2965  1.4193
  691TMC3    C110267   0.398   3.820  16.008 -0.2834 -0.2182 -0.1279
  691TMC3    C210268   0.330   3.855  15.895 -0.1456  0.0084  0.3062
  691TMC3    C310269   0.265   3.750  15.833  1.0610 -0.5199 -0.5344
  691TMC3    C410270   0.395   3.706  16.063 -0.2480 -1.0348 -0.0883
  691TMC3    C510271   0.326   3.601  16.000 -0.9322  0.4719 -0.1915
  691TMC3    C610272   0.259   3.629  15.885  0.3251  0.9873  0.9587
  691TMC3     C10273   0.505   3.907  16.057 -0.1418 -0.7723 -0.1909
  691TMC3     O10274   0.527   3.908  16.178 -0.3893  0.5644 -0.3769
  691TMC3     H10275   0.334   3.954  15.850  1.7593 -0.1393  0.1777
  691TMC3    H110276   0.457   3.689  16.150  0.6252 -0.4667 -0.5999
  691TMC3    H210277   0.203   3.554  15.830  1.1737  0.9505  0.1528
  691TMC3    C710278   0.382   3.469  16.033  0.5692 -0.2597  0.0179
  691TMC3    C810279   0.151   3.775  15.744 -0.0693  0.0907 -0.4418
  691TMC3    O110280   0.456   3.470  16.133  0.7338  0.1397 -0.0410
  691TMC3    O210281   0.142   3.689  15.655  0.3890  0.2102  0.0734
  692TMC3    C110282   2.256   0.192  15.761 -0.8186  0.0197 -0.1641
  692TMC3    C210283   2.337   0.272  15.827  0.1404  0.1430  0.1699
  692TMC3    C310284   2.452   0.216  15.875 -0.2512 -0.3368 -0.2346
  692TMC3    C410285   2.281   0.060  15.738  0.0698 -0.5865 -0.5142
  692TMC3    C510286   2.400   0.012  15.786 -1.3723 -0.3229  0.1319
  692TMC3    C610287   2.498   0.093  15.842 -0.4690  0.6581 -0.0200
  692TMC3     C10288   2.126   0.231  15.733 -0.1970  0.2221 -0.1588
  692TMC3     O10289   2.038   0.149  15.763  0.4155 -0.7874  0.2066
  692TMC3     H10290   2.287   0.359  15.869  0.5251  0.9998 -1.1430
  692TMC3    H110291   2.199   4.729  15.714  0.2834 -0.5071 -1.4566
  692TMC3    H210292   2.586   0.053  15.890 -1.4030  0.5183  1.5726
  692TMC3    C710293   2.427   4.601  15.762 -0.4025 -0.4509  0.8055
  692TMC3    C810294   2.545   0.323  15.926 -0.4096 -0.4880 -0.1527
  692TMC3    O110295   2.354   4.539  15.686  0.0281  0.2184 -0.0128
  692TMC3    O210296   2.650   0.291  15.983 -1.1684 -0.2932 -0.3415
  693MPD2     C10297   1.878   3.024  10.460  0.7226  0.1782 -0.4935
  693MPD2    C110298   1.836   2.893  10.479  0.3270  0.1128  0.3095
  693MPD2    C210299   1.902   2.826  10.582 -0.0048 -0.2188  0.1375
  693MPD2    C310300   2.011   2.876  10.648 -0.1220  0.1107 -0.3160
  693MPD2    C410301   2.061   2.995  10.608 -0.5266  0.4181 -0.5598
  693MPD2    C510302   1.993   3.068  10.515  0.1322  0.3736  0.1845
  693MPD2     H10303   1.853   2.732  10.605 -0.8196  0.4948  1.3136
  693MPD2    H110304   2.135   3.035  10.676 -0.2631  1.9953 -1.7797
  693MPD2    H210305   1.831   3.084  10.382 -1.4219 -3.4937 -2.0134
  693MPD2    H310306   2.030   3.167  10.491 -1.4226  0.4340 -1.9830
  693MPD2     N10307   2.074   2.816  10.765  0.5597  0.9864 -0.3064
  693MPD2    H510308   2.154   2.868  10.799 -0.7045  3.1223 -0.5231
  693MPD2    N110309   1.712   2.843  10.427  0.0247  0.1502  0.1361
  693MPD2    H710310   1.646   2.903  10.378  1.7954  0.4073 -1.9690
  694TMC3    C110311   1.542   2.689  10.402 -0.8715  1.1070  0.2149
  694TMC3    C210312   1.503   2.562  10.364  0.4101  0.9515  0.5743
  694TMC3    C310313   1.381   2.512  10.397  0.0505 -0.5533 -0.6251
  694TMC3    C410314   1.467   2.749  10.504  0.8315  0.1778  0.5023
  694TMC3    C510315   1.356   2.690  10.541  0.1410 -0.4727  0.1596
  694TMC3    C610316   1.298   2.581  10.477  0.3656 -0.4623  0.1001
  694TMC3     C10317   1.684   2.711  10.417 -0.4087  0.0863 -0.1177
  694TMC3     O10318   1.756   2.611  10.437  0.0251 -0.5801  0.5198
  694TMC3     H10319   1.574   2.505  10.306 -1.8748 -0.3979 -0.9056
  694TMC3    H110320   1.508   2.829  10.565  0.3840  0.1725  0.8065
  694TMC3    H210321   1.204   2.538  10.509 -0.2074  1.3159  0.7865
  694TMC3    C710322   1.299   2.727  10.669  0.6771 -0.6977  0.4922
  694TMC3    C810323   1.341   2.382  10.361  0.5355 -0.2169 -0.3802
  694TMC3    O110324   1.290   2.848  10.699  0.4245  0.7617  0.3207
  694TMC3    O210325   1.225   2.351  10.381 -0.0827 -0.2056 -0.2555
  695MPD2     C10326   2.674   4.569  13.666 -0.0830 -0.2347  0.1338
  695MPD2    C110327   2.639   4.607  13.796 -0.0412 -0.0192  0.6173
  695MPD2    C210328   2.512   4.658  13.816  0.5958  0.5472  0.1398
  695MPD2    C310329   2.419   4.679  13.722 -0.4285 -0.2041 -0.8858
  695MPD2    C410330   2.451   4.639  13.590  0.2979 -0.4717 -0.0168
  695MPD2    C510331   2.575   4.580  13.570 -0.4187 -0.0994  0.2910
  695MPD2     H10332   2.486   4.672  13.920 -0.0760 -2.5173  0.3685
  695MPD2    H110333   2.384   4.649  13.505  0.4174 -2.1841 -0.3237
  695MPD2    H210334   2.761   4.510  13.642 -0.8380 -1.0375 -0.6386
  695MPD2    H310335   2.595   4.540  13.471 -2.6224 -1.3881  0.3630
  695MPD2     N10336   2.295   4.727  13.767  0.5194 -0.1674 -0.3856
  695MPD2    H510337   2.288   0.015  13.866  4.1425  1.2458 -0.4848
  695MPD2    N110338   2.719   4.592  13.912  0.1042  0.6892  0.3368
  695MPD2    H710339   2.679   4.613  14.004 -0.8047  0.5348 -0.0234
  696TMC3    C110340   2.070   0.069  13.744  0.3672 -0.6363 -0.2857
  696TMC3    C210341   2.040   0.003  13.863 -0.4633  0.0759 -0.2047
  696TMC3    C310342   1.925   0.048  13.925  0.5206  0.2424  0.1664
  696TMC3    C410343   1.993   0.172  13.692 -0.3649 -0.0989  0.2126
  696TMC3    C510344   1.878   0.201  13.757 -0.1661 -0.2313 -0.4648
  696TMC3    C610345   1.832   0.137  13.870  0.4536 -1.2077 -0.7124
  696TMC3     C10346   2.190   0.028  13.682  0.1870 -0.8950 -0.7248
  696TMC3     O10347   2.205   0.070  13.566  0.3509 -0.3417 -0.3451
  696TMC3     H10348   2.101   4.664  13.913  1.3165  1.4671 -0.2907
  696TMC3    H110349   2.013   0.221  13.597 -0.9573  1.4020  0.8643
  696TMC3    H210350   1.744   0.177  13.920  0.5299 -0.1237 -1.4404
  696TMC3    C710351   1.818   0.330  13.737 -0.0238  0.4282 -0.1626
  696TMC3    C810352   1.973   0.090  14.059 -0.4133 -0.5710  0.2225
  696TMC3    O110353   1.700   0.332  13.708  0.1077 -0.1343 -0.8096
  696TMC3    O210354   2.086   0.086  14.103  0.7014  0.8728 -0.4172
  697MPD2     C10355   2.137   2.100  15.656 -0.2191  0.3909 -0.0927
  697MPD2    C110356   2.067   2.039  15.558  0.4062  0.4916  0.2342
  697MPD2    C210357   2.068   2.107  15.433  0.2207  0.7919 -0.6437
  697MPD2    C310358   2.141   2.219  15.401 -0.0112  0.2404 -0.2264
  697MPD2    C410359   2.223   2.269  15.494  0.4733 -0.2016  0.0346
  697MPD2    C510360   2.216   2.205  15.618  0.1023 -0.5963 -0.1857
  697MPD2     H10361   2.010   2.056  15.357  1.2642 -0.2827 -0.7242
  697MPD2    H110362   2.299   2.344  15.477  0.5484 -0.7817 -2.2907
  697MPD2    H210363   2.142   2.055  15.755  1.6077  0.2844 -0.2337
  697MPD2    H310364   2.293   2.243  15.684  1.9487  0.5150 -2.9815
  697MPD2     N10365   2.136   2.261  15.264  0.8372 -0.3303 -0.7440
  697MPD2    H510366   2.089   2.202  15.196 -0.4096 -0.2153  0.0212
  697MPD2    N110367   1.999   1.913  15.567  0.1312  0.4086 -0.4736
  697MPD2    H710368   1.968   1.870  15.481  1.3190 -0.7997 -0.2900
  698TMC3    C110369   2.135   2.422  15.094 -0.5281 -0.7283 -0.3767
  698TMC3    C210370   2.094   2.551  15.082 -0.0679 -0.2912  0.0449
  698TMC3    C310371   1.988   2.573  15.000 -0.0594  0.2148  0.0436
  698TMC3    C410372   2.082   2.318  15.018  0.2409 -0.6480  0.6699
  698TMC3    C510373   1.991   2.354  14.925  1.0658  0.1201 -0.2763
  698TMC3    C610374   1.929   2.476  14.934 -0.1419 -0.2520  0.1225
  698TMC3     C10375   2.172   2.394  15.228  0.2084 -0.3569 -0.0232
  698TMC3     O10376   2.189   2.493  15.302 -0.0683 -0.0652  0.3690
  698TMC3     H10377   2.148   2.626  15.138 -0.7750  0.1323  0.1417
  698TMC3    H110378   2.126   2.219  15.014 -2.6848 -1.9291 -0.3115
  698TMC3    H210379   1.844   2.493  14.870  0.0052 -1.3056 -0.3563
  698TMC3    C710380   1.928   2.261  14.838 -0.0377  0.6350  0.2779
  698TMC3    C810381   1.965   2.706  14.945 -1.7000  0.6107 -0.3129
  698TMC3    O110382   1.842   2.303  14.761 -0.5256 -0.2444 -0.0002
  698TMC3    O210383   1.854   2.738  14.905 -0.1561 -0.2099  0.1484
  699TMC3    C110384   2.182   4.574  13.119 -0.3665  0.7119  0.0831
  699TMC3    C210385   2.273   4.499  13.188 -0.2838  0.4239 -0.6414
  699TMC3    C310386   2.253   4.488  13.323 -0.1636 -0.0250 -0.5898
  699TMC3    C410387   2.063   4.619  13.176  0.1638 -0.3274  0.2486
  699TMC3    C510388   2.052   4.594  13.314 -0.7638  0.1341 -0.4004
  699TMC3    C610389   2.136   4.523  13.392 -0.1686 -0.3235  0.3879
  699TMC3     C10390   2.186   4.603  12.977  0.1856  0.0961  0.6890
  699TMC3     O10391   2.075   4.636  12.939  0.2837 -0.0025  0.3822
  699TMC3     H10392   2.371   4.475  13.146 -0.3142  2.1869 -1.7024
  699TMC3    H110393   1.996   4.692  13.131  0.2193  0.6870  1.8110
  699TMC3    H210394   2.112   4.519  13.497 -1.1121  3.5603  0.3298
  699TMC3    C710395   1.924   4.631  13.373  0.2696 -0.1481 -1.1890
  699TMC3    C810396   2.340   4.393  13.388  0.3840  0.3383 -1.0933
  699TMC3    O110397   1.917   4.642  13.495  0.1520 -0.1199  0.5339
  699TMC3    O210398   2.447   4.367  13.330 -0.3629  0.3942  0.0283
  700TMC3    C110399   0.794   2.368  17.078 -0.5251 -0.6721  0.2597
  700TMC3    C210400   0.841   2.242  17.046  0.5017  0.0051 -0.4387
  700TMC3    C310401   0.937   2.192  17.125 -0.1198 -0.0296  0.9562
  700TMC3    C410402   0.824   2.436  17.194 -0.0489 -0.1648  0.0945
  700TMC3    C510403   0.918   2.369  17.272  0.3131  0.4064  0.6208
  700TMC3    C610404   0.980   2.249  17.242  0.6193 -0.0221  0.6533
  700TMC3     C10405   0.776   2.457  16.964  0.1492  0.1167 -0.0361
  700TMC3     O10406   0.702   2.407  16.879  0.1423  0.0670  0.6067
  700TMC3     H10407   0.796   2.200  16.957 -1.5352  0.3895  0.4140
  700TMC3    H110408   0.775   2.529  17.222 -1.0009 -1.1655  1.6975
  700TMC3    H210409   1.057   2.219  17.312  0.3741  1.6965  1.6597
  700TMC3    C710410   0.974   2.446  17.381  0.5345  0.7412  0.4253
  700TMC3    C810411   0.999   2.068  17.080  0.6727 -0.4186 -0.2335
  700TMC3    O110412   1.095   2.435  17.402 -0.0019  0.5190 -0.0529
  700TMC3    O210413   1.011   2.055  16.958  0.4033 -0.1797 -0.4560
  701TMC3    C110414   1.135   1.421  15.633  0.3318 -0.0911  0.0202
  701TMC3    C210415   1.108   1.400  15.505  0.5818  0.3066 -0.1477
  701TMC3    C310416   1.161   1.493  15.416  0.1851  0.6227  0.0376
  701TMC3    C410417   1.218   1.518  15.675 -0.3936  0.0114  0.4843
  701TMC3    C510418   1.257   1.614  15.588 -0.1802  0.5975 -0.5807
  701TMC3    C610419   1.240   1.596  15.451 -0.4277  0.4740  0.4985
  701TMC3     C10420   1.066   1.340  15.735  0.1393  0.4103  0.4737
  701TMC3     O10421   1.057   1.391  15.845  0.2150  0.1774  0.0383
  701TMC3     H10422   1.039   1.325  15.469  0.2580  1.7294 -2.4824
  701TMC3    H110423   1.245   1.507  15.779  0.4018  1.7207  0.4611
  701TMC3    H210424   1.280   1.666  15.379  2.0533  1.2041  2.5494
  701TMC3    C710425   1.350   1.720  15.624 -0.1099  0.2861 -0.3255
  701TMC3    C810426   1.135   1.485  15.278 -0.2289  0.3718  0.0265
  701TMC3    O110427   1.350   1.819  15.554 -0.1540 -0.2461 -0.1355
  701TMC3    O210428   1.140   1.592  15.224  0.3688 -0.1681 -0.1654
  702MPD2     C10429   0.956   2.902  10.687 -0.0352  0.0539 -0.4939
  702MPD2    C110430   0.858   2.997  10.720 -0.1309  0.3600 -0.8352
  702MPD2    C210431   0.826   3.103  10.646 -0.0815 -0.2275  0.9146
  702MPD2    C310432   0.891   3.123  10.527 -0.0569  0.1783  0.7357
  702MPD2    C410433   0.983   3.028  10.489 -0.3753  0.6631 -0.2700
  702MPD2    C510434   1.012   2.918  10.567 -0.0083  0.1295 -0.4691
  702MPD2     H10435   0.760   3.178  10.690 -0.2414  0.3240 -0.2720
  702MPD2    H110436   1.029   3.026  10.390 -0.6185  1.8564 -0.3973
  702MPD2    H210437   0.970   2.807  10.737 -1.9460 -0.1557 -0.3770
  702MPD2    H310438   1.080   2.840  10.534 -0.4152 -0.6787  0.5992
  702MPD2     N10439   0.862   3.239  10.453 -0.0800  0.8104 -0.0854
  702MPD2    H510440   0.797   3.304  10.497 -1.5878  0.5130 -1.8920
  702MPD2    N110441   0.790   2.990  10.844  0.5090  0.6822 -0.3321
  702MPD2    H710442   0.746   3.076  10.878  1.6510  0.6889  1.1226
  703TMC3    C110443   0.904   3.401  10.287 -0.2425  0.9300  0.2233
  703TMC3    C210444   0.774   3.391  10.262  1.0293 -0.2924  0.2262
  703TMC3    C310445   0.690   3.496  10.265  0.6170  0.2931  0.4151
  703TMC3    C410446   0.946   3.527  10.336 -0.1030 -0.0123 -0.0987
  703TMC3    C510447   0.854   3.625  10.359 -0.0961  0.2873 -0.3817
  703TMC3    C610448   0.725   3.611  10.324 -0.2910 -0.2503 -1.3998
  703TMC3     C10449   0.946   3.288  10.348 -0.3557 -0.7654  0.8121
  703TMC3     O10450   1.045   3.235  10.296  0.1338  0.0456 -0.0141
  703TMC3     H10451   0.740   3.295  10.225 -0.4905  1.3324 -2.6628
  703TMC3    H110452   1.053   3.542  10.350 -0.0485 -0.5262  0.0225
  703TMC3    H210453   0.649   3.688  10.335 -0.3698 -0.6259  0.6030
  703TMC3    C710454   0.899   3.758  10.395  0.1243  0.8280  0.7316
  703TMC3    C810455   0.543   3.463  10.274  0.4416  0.6525  0.3601
  703TMC3    O110456   1.010   3.789  10.350  0.0208  0.4178  0.4394
  703TMC3    O210457   0.497   3.389  10.190  0.4400 -0.2580 -0.6278
  704TMC3    C110458   3.146   1.705  12.772 -0.6674  0.4321 -0.1011
  704TMC3    C210459   3.224   1.714  12.666 -0.0570 -0.1174  0.8627
  704TMC3    C310460   3.340   1.636  12.665 -0.0530  0.0518 -0.0809
  704TMC3    C410461   3.180   1.617  12.872  0.4272  0.2874 -0.0852
  704TMC3    C510462   3.308   1.557  12.877 -0.4492  1.1861  0.2257
  704TMC3    C610463   3.388   1.568  12.778  0.4218  0.0575 -0.4466
  704TMC3     C10464   3.044   1.813  12.799 -0.4916  0.0632  0.1134
  704TMC3     O10465   3.001   1.827  12.913 -0.6258 -0.0753  0.4069
  704TMC3     H10466   3.196   1.767  12.576  1.4486 -0.3126  0.2750
  704TMC3    H110467   3.108   1.607  12.953 -1.1019  0.0280 -1.4727
  704TMC3    H210468   3.483   1.517  12.772 -0.4172 -1.4360 -1.2505
  704TMC3    C710469   3.323   1.433  12.955  0.5362 -0.1466 -0.2213
  704TMC3    C810470   3.350   1.563  12.536 -0.3079 -0.7137  0.4012
  704TMC3    O110471   3.222   1.384  12.992 -0.0645 -0.1879  0.2094
  704TMC3    O210472   3.247   1.549  12.471 -0.7218  0.0070  0.0714
  705MPD2     C10473   2.510   0.127  16.645 -0.1557 -0.3325 -0.4938
  705MPD2    C110474   2.511   0.236  16.554 -0.4739 -0.6940 -0.2475
  705MPD2    C210475   2.391   0.301  16.535 -0.5225 -0.1567 -0.2390
  705MPD2    C310476   2.268   0.238  16.573 -0.0956 -0.0288 -0.1972
  705MPD2    C410477   2.278   0.112  16.631  0.5971 -0.4639  0.7507
  705MPD2    C510478   2.394   0.066  16.680 -0.4919  0.1837  0.3826
  705MPD2     H10479   2.400   0.385  16.466  0.8223  0.9629  1.3126
  705MPD2    H110480   2.191   0.057  16.664  0.5667 -0.1826  1.1435
  705MPD2    H210481   2.603   0.089  16.684 -0.6825 -0.3287  0.7836
  705MPD2    H310482   2.404   4.721  16.751 -1.8278  0.6184  1.0468
  705MPD2     N10483   2.145   0.293  16.539  0.0086  0.2252  0.3809
  705MPD2    H510484   2.069   0.227  16.553 -0.3882  0.3213 -1.2554
  705MPD2    N110485   2.630   0.295  16.495  0.0580  0.0145  0.1701
  705MPD2    H710486   2.622   0.380  16.441 -0.4451 -0.0476  0.1388
  706TMC3    C110487   3.017   0.269  16.239 -0.1217 -0.9757 -0.3875
  706TMC3    C210488   2.996   0.402  16.201 -0.1904 -1.1596  0.1277
  706TMC3    C310489   2.912   0.480  16.282  0.0829  0.1053 -0.2279
  706TMC3    C410490   2.938   0.224  16.343  0.1652  0.2058  0.7865
  706TMC3    C510491   2.849   0.301  16.413  0.1266  0.0388  0.9265
  706TMC3    C610492   2.840   0.427  16.392  0.7630  0.2868 -0.0054
  706TMC3     C10493   3.123   0.183  16.181 -0.2730 -0.7762  0.0231
  706TMC3     O10494   3.157   0.087  16.252 -0.2680 -0.0688  0.1066
  706TMC3     H10495   3.067   0.456  16.139 -0.8367 -0.8193 -0.3170
  706TMC3    H110496   2.944   0.117  16.359  0.5339 -0.0964 -1.4507
  706TMC3    H210497   2.765   0.492  16.435  0.0120 -0.8406  0.3729
  706TMC3    C710498   2.756   0.236  16.500 -0.3160 -0.3583  0.0270
  706TMC3    C810499   2.938   0.625  16.274  0.4045  0.2995 -0.4775
  706TMC3    O110500   2.795   0.150  16.579  0.3169  0.0365  0.0668
  706TMC3    O210501   2.991   0.677  16.174 -0.6210 -0.4852 -0.1793
  707TMC3    C110502   0.172   4.191   1.707 -1.0014 -0.4581  0.1324
  707TMC3    C210503   0.258   4.169   1.810 -0.0900  0.2166  0.0829
  707TMC3    C310504   0.211   4.088   1.910 -0.0314 -0.1636  0.1867
  707TMC3    C410505   0.047   4.148   1.701 -0.6467 -0.8512 -0.7777
  707TMC3    C510506   0.008   4.068   1.806  0.2502  0.4814  0.1017
  707TMC3    C610507   0.084   4.037   1.915 -0.6806 -0.1642 -0.2654
  707TMC3     C10508   0.211   4.311   1.632  0.2973  0.3892 -0.5661
  707TMC3     O10509   0.238   4.414   1.689  0.2307 -0.2380  0.1508
  707TMC3     H10510   0.356   4.216   1.808 -0.1186  0.3545  1.5083
  707TMC3    H110511   4.717   4.179   1.621 -0.7653 -0.5833 -0.5742
  707TMC3    H210512   0.046   3.963   1.985 -1.2027  1.1133  0.8015
  707TMC3    C710513   4.605   4.006   1.809  0.2081 -0.0668  0.7681
  707TMC3    C810514   0.312   4.027   1.990 -0.2482  0.4794  0.3938
  707TMC3    O110515   4.580   3.909   1.885  0.0247 -0.4942  0.8521
  707TMC3    O210516   0.418   4.087   2.011 -0.6070  0.5510 -0.7660
  708MPD2     C10517   0.425   2.362  14.251  0.1831  0.5938 -0.0647
  708MPD2    C110518   0.488   2.458  14.169 -0.2913  0.5327  0.5977
  708MPD2    C210519   0.498   2.581  14.228  0.2419  0.7130  0.1653
  708MPD2    C310520   0.441   2.613  14.347 -0.1591  0.2690  0.5141
  708MPD2    C410521   0.387   2.509  14.429  0.1063  0.6184 -0.2336
  708MPD2    C510522   0.396   2.379  14.384 -0.1827  0.5293 -0.3688
  708MPD2     H10523   0.545   2.658  14.169  2.5473  1.2963  2.7560
  708MPD2    H110524   0.361   2.522  14.533 -0.7116 -0.9230 -0.2494
  708MPD2    H210525   0.447   2.258  14.231 -0.9062 -0.0449  2.0040
  708MPD2    H310526   0.374   2.294  14.448 -0.8757  0.6994 -0.3788
  708MPD2     N10527   0.460   2.745  14.393 -0.3476 -0.1119  0.0314
  708MPD2    H510528   0.509   2.812  14.335  2.5326 -1.2155  1.1832
  708MPD2    N110529   0.517   2.429  14.037 -0.4633  0.5065 -0.1899
  708MPD2    H710530   0.470   2.346  14.004 -0.0417  0.0138  0.4505
  709TMC3    C110531   0.532   2.507  13.813 -1.0063  0.2613  0.1932
  709TMC3    C210532   0.450   2.410  13.761 -0.0827  0.1166 -0.3352
  709TMC3    C310533   0.365   2.442  13.655 -0.3109 -0.1491  0.3444
  709TMC3    C410534   0.541   2.630  13.751 -0.2722 -0.8189 -0.1474
  709TMC3    C510535   0.452   2.661  13.650  0.7342  0.1536 -0.5811
  709TMC3    C610536   0.366   2.570  13.603  0.1181 -0.3228 -0.6286
  709TMC3     C10537   0.582   2.514  13.951 -0.6170  0.0291  0.7549
  709TMC3     O10538   0.649   2.613  13.977  0.2302  0.3512 -0.0057
  709TMC3     H10539   0.452   2.311  13.805 -0.1408 -0.8466 -2.4907
  709TMC3    H110540   0.589   2.714  13.801 -0.8593 -1.6090  1.7683
  709TMC3    H210541   0.288   2.603  13.534 -0.6303  1.9896  1.3508
  709TMC3    C710542   0.402   2.795  13.670  0.0368 -0.9117  0.6841
  709TMC3    C810543   0.342   2.336  13.567 -0.2464  0.2942 -0.4046
  709TMC3    O110544   0.486   2.881  13.692  0.0560 -0.2159  0.1424
  709TMC3    O210545   0.289   2.230  13.606  0.2679 -0.1776  0.1724
  710TMC3    C110546   1.758   0.104   0.939  0.3649 -0.2005  0.4900
  710TMC3    C210547   1.786   0.162   0.817  0.0036 -0.0960  0.2149
  710TMC3    C310548   1.859   0.075   0.736 -0.5598  0.0879 -0.2076
  710TMC3    C410549   1.792   4.717   0.979 -0.3871 -1.0014  0.0852
  710TMC3    C510550   1.874   4.644   0.902 -0.0478  0.1190  0.0204
  710TMC3    C610551   1.897   4.688   0.776  0.5511 -0.2759  0.5381
  710TMC3     C10552   1.663   0.169   1.026  0.8915 -0.3012  0.0241
  710TMC3     O10553   1.610   0.101   1.119  0.0700  0.0283  0.4092
  710TMC3     H10554   1.728   0.243   0.774  1.2137  0.4177 -0.4563
  710TMC3    H110555   1.756   4.674   1.072 -0.1117 -0.6466  0.3579
  710TMC3    H210556   1.973   4.631   0.722  0.8552  0.0064  0.6677
  710TMC3    C710557   1.884   4.505   0.939 -0.1384 -0.0801  0.1758
  710TMC3    C810558   1.918   0.119   0.612 -0.0019  0.0083  0.6167
  710TMC3    O110559   1.892   4.469   1.058 -0.2223  0.1544  0.5637
  710TMC3    O210560   1.952   0.034   0.532 -0.1079 -0.0146 -0.3069
  711TMC3    C110561   1.857   0.886  15.134 -0.5783  0.5259 -0.3990
  711TMC3    C210562   1.855   0.978  15.238 -0.2985 -0.5241  0.0306
  711TMC3    C310563   1.967   0.988  15.313 -0.5693  0.6767  0.6029
  711TMC3    C410564   1.973   0.813  15.103  0.6600 -0.8264 -1.0617
  711TMC3    C510565   2.080   0.828  15.181  0.1520 -0.2598 -0.0414
  711TMC3    C610566   2.075   0.904  15.294 -0.1613 -0.7571  0.1554
  711TMC3     C10567   1.754   0.780  15.136 -0.2663  0.3916 -0.3115
  711TMC3     O10568   1.766   0.684  15.059  0.5075  0.0065 -0.3050
  711TMC3     H10569   1.768   1.036  15.265 -0.8869 -1.0619 -0.7122
  711TMC3    H110570   1.979   0.751  15.015 -1.7636 -0.1508 -1.7237
  711TMC3    H210571   2.150   0.894  15.371  1.2183 -0.3718 -1.1398
  711TMC3    C710572   2.140   0.699  15.214 -0.1424  0.2878  0.4668
  711TMC3    C810573   1.947   1.073  15.431 -0.8250  0.2686 -0.0570
  711TMC3    O110574   2.238   0.697  15.289 -0.3168  0.1176 -0.2045
  711TMC3    O210575   1.833   1.113  15.452 -0.1721 -0.5493 -0.1667
  712MPD2     C10576   3.380   1.384  13.779 -0.0109  0.0197  0.0247
  712MPD2    C110577   3.289   1.457  13.858 -0.6235 -0.0426 -0.0187
  712MPD2    C210578   3.301   1.600  13.858  0.7284 -0.2149 -0.1619
  712MPD2    C310579   3.413   1.658  13.801  0.3295 -0.3245  0.5110
  712MPD2    C410580   3.513   1.571  13.754 -0.4073 -0.0953 -0.0491
  712MPD2    C510581   3.495   1.437  13.748  0.7838  0.1808 -0.5551
  712MPD2     H10582   3.226   1.663  13.905  0.6917 -0.6033  0.3068
  712MPD2    H110583   3.606   1.610  13.716 -0.3758 -2.0742 -1.9900
  712MPD2    H210584   3.374   1.278  13.757  2.6767  0.0197 -0.7611
  712MPD2    H310585   3.581   1.383  13.708  0.2541  0.4550 -2.0705
  712MPD2     N10586   3.433   1.797  13.790  0.7418 -0.8476  0.2838
  712MPD2    H510587   3.527   1.819  13.759  0.0109 -0.7554 -1.8405
  712MPD2    N110588   3.177   1.385  13.906 -1.0706  1.1791  0.1955
  712MPD2    H710589   3.156   1.294  13.866 -0.2338  1.0419  0.0712
  713TMC3    C110590   3.390   2.031  13.812 -0.0403 -0.1835 -0.4791
  713TMC3    C210591   3.525   2.052  13.792  0.0236 -0.4824 -0.5638
  713TMC3    C310592   3.562   2.179  13.755 -0.0773 -0.3000  0.6095
  713TMC3    C410593   3.297   2.135  13.795  0.3958  0.6725  0.0912
  713TMC3    C510594   3.343   2.261  13.759  0.0293  0.5523 -0.5602
  713TMC3    C610595   3.480   2.280  13.729 -0.1218  0.2987  0.2819
  713TMC3     C10596   3.334   1.896  13.815  0.0861 -0.1100  0.0252
  713TMC3     O10597   3.213   1.891  13.820  0.1645 -0.1169  0.4574
  713TMC3     H10598   3.605   1.984  13.820  1.7164  1.0592 -1.6251
  713TMC3    H110599   3.192   2.111  13.789  0.7553 -1.3472  1.8011
  713TMC3    H210600   3.519   2.378  13.703  3.2555 -0.6505  1.8152
  713TMC3    C710601   3.244   2.358  13.723 -0.2677  0.3039  0.5244
  713TMC3    C810602   3.699   2.207  13.733  0.1333 -0.2045 -0.5490
  713TMC3    O110603   3.132   2.344  13.779 -0.1097 -0.8021 -0.6293
  713TMC3    O210604   3.719   2.300  13.658  0.1213 -0.5311  0.3546
  714MPD2     C10605   0.669   1.125   1.767 -0.3160  0.7007 -0.0220
  714MPD2    C110606   0.680   1.046   1.657  0.0309 -0.3198  0.1946
  714MPD2    C210607   0.581   1.033   1.561  0.0031 -0.4132  0.1760
  714MPD2    C310608   0.462   1.099   1.578 -0.3429  0.0763  0.4266
  714MPD2    C410609   0.447   1.183   1.687 -0.5785 -0.1286 -0.2274
  714MPD2    C510610   0.551   1.201   1.778 -0.9150 -0.0632  0.1569
  714MPD2     H10611   0.594   0.969   1.474 -0.4748  2.2608 -1.8501
  714MPD2    H110612   0.367   1.256   1.694 -1.2737 -0.8802 -0.3549
  714MPD2    H210613   0.752   1.148   1.833  0.3041 -1.0392 -0.1918
  714MPD2    H310614   0.541   1.276   1.856  2.6606  0.5555  0.0203
  714MPD2     N10615   0.366   1.099   1.478  0.5717  0.3592 -0.4330
  714MPD2    H510616   0.391   1.054   1.391 -0.6883 -1.2473  0.0390
  714MPD2    N110617   0.811   0.985   1.648 -1.0324  0.0951  0.0420
  714MPD2    H710618   0.872   1.006   1.726  0.2127 -2.0605 -0.3356
  715TMC3    C110619   0.984   0.837   1.564 -0.0874  0.2425 -0.7983
  715TMC3    C210620   1.012   0.711   1.517 -0.4322  0.0852 -0.7034
  715TMC3    C310621   1.141   0.665   1.535 -0.3557  0.2560  0.0058
  715TMC3    C410622   1.081   0.909   1.629 -1.3449  0.1228  0.7819
  715TMC3    C510623   1.213   0.865   1.620 -0.2506  0.2064  0.4513
  715TMC3    C610624   1.245   0.739   1.579  0.5058 -0.2746  0.1437
  715TMC3     C10625   0.847   0.884   1.556 -0.5291 -0.1343 -0.1195
  715TMC3     O10626   0.770   0.814   1.493  0.1352 -0.1337  0.4027
  715TMC3     H10627   0.932   0.647   1.481  0.2080 -0.4177 -1.2442
  715TMC3    H110628   1.076   1.017   1.642 -0.3345  0.2055  0.4638
  715TMC3    H210629   1.350   0.721   1.560  0.3896 -1.2758  0.4125
  715TMC3    C710630   1.325   0.950   1.678 -0.0181 -0.7868 -0.0630
  715TMC3    C810631   1.155   0.529   1.505  0.2029  0.2258 -0.0912
  715TMC3    O110632   1.434   0.941   1.624  0.5756  0.6799  0.6710
  715TMC3    O210633   1.068   0.459   1.458 -0.1147  0.5777 -0.0034
  716MPD2     C10634   1.304   3.887  10.185  0.1621 -0.4131  0.2119
  716MPD2    C110635   1.253   3.906  10.055 -0.2270  0.3208  0.6986
  716MPD2    C210636   1.224   3.795   9.982 -0.8196 -0.6345 -0.1917
  716MPD2    C310637   1.247   3.669  10.039  0.4031  0.3230 -0.4749
  716MPD2    C410638   1.301   3.657  10.167  0.7470 -0.4453 -0.2287
  716MPD2    C510639   1.331   3.763  10.246  0.3098 -0.0268  0.2513
  716MPD2     H10640   1.182   3.812   9.883 -1.5002  0.5538  0.3018
  716MPD2    H110641   1.315   3.558  10.209 -1.3305 -0.2209  1.0267
  716MPD2    H210642   1.318   3.978  10.243  0.7271 -0.5861  0.3453
  716MPD2    H310643   1.357   3.749  10.351 -1.9771 -4.5132  0.2136
  716MPD2     N10644   1.219   3.558   9.957  0.4341 -0.5620 -0.0793
  716MPD2    H510645   1.188   3.577   9.863 -2.0863 -0.0897  0.8269
  716MPD2    N110646   1.225   4.043  10.019  0.1081  0.1020  0.1569
  716MPD2    H710647   1.220   4.108  10.096 -1.6476 -0.7066  0.7274
  717TMC3    C110648   1.187   3.329   9.898 -0.0167  0.7409  0.3111
  717TMC3    C210649   1.056   3.355   9.860 -0.3874  0.4600 -0.5925
  717TMC3    C310650   0.984   3.255   9.805  0.0498 -0.0489  0.5002
  717TMC3    C410651   1.250   3.210   9.873  0.7455  0.1337 -0.4570
  717TMC3    C510652   1.171   3.110   9.822  0.1320  0.0066 -0.6892
  717TMC3    C610653   1.046   3.133   9.786 -0.4989  0.3193  0.1819
  717TMC3     C10654   1.248   3.422   9.985 -0.6198  0.0147 -0.4827
  717TMC3     O10655   1.328   3.377  10.064 -0.1930  0.3020 -0.2612
  717TMC3     H10656   1.008   3.450   9.882 -0.6879  0.6904 -2.2845
  717TMC3    H110657   1.353   3.193   9.902  0.2416  1.8962  2.3683
  717TMC3    H210658   1.003   3.055   9.725  1.0968 -0.9773  0.7239
  717TMC3    C710659   1.243   2.987   9.779  0.3403 -0.6666  0.7899
  717TMC3    C810660   0.857   3.299   9.740 -0.3016  0.4637  0.2377
  717TMC3    O110661   1.350   3.011   9.729  0.0418  0.6080  0.3233
  717TMC3    O210662   0.825   3.415   9.756  0.5633 -0.3427 -0.0367
  718MPD2     C10663   3.995   2.358  12.472 -0.3612 -0.1966  0.2059
  718MPD2    C110664   4.039   2.237  12.420 -0.4060 -0.5040  0.1963
  718MPD2    C210665   4.113   2.158  12.510  0.2520  0.3058  0.2444
  718MPD2    C310666   4.146   2.191  12.634  0.8730 -0.1841 -0.1968
  718MPD2    C410667   4.092   2.308  12.687  0.0551 -0.5930 -0.3706
  718MPD2    C510668   4.025   2.390  12.602  0.4922 -0.3108  0.6848
  718MPD2     H10669   4.161   2.071  12.466 -2.9159 -0.4178 -1.7940
  718MPD2    H110670   4.108   2.337  12.790  2.1955  0.2956 -0.9572
  718MPD2    H210671   3.950   2.436  12.412  1.8512  1.1325  0.2670
  718MPD2    H310672   3.983   2.483  12.639  2.8328  0.1803  2.1006
  718MPD2     N10673   4.214   2.092  12.709 -1.1759 -0.4958 -0.5832
  718MPD2    H510674   4.256   2.022  12.649  1.4292  0.9978 -0.4882
  718MPD2    N110675   4.040   2.206  12.283  0.3155  0.1728  0.2104
  718MPD2    H710676   4.017   2.276  12.213  0.7863  1.0049  0.8876
  719TMC3    C110677   4.094   2.048  12.108  0.4272 -0.0108  0.1715
  719TMC3    C210678   4.093   1.916  12.078  0.1082 -0.4611 -0.5287
  719TMC3    C310679   4.212   1.855  12.049 -0.9874 -0.9269 -0.1281
  719TMC3    C410680   4.200   2.132  12.075  0.1661  0.5320 -0.4749
  719TMC3    C510681   4.308   2.074  12.019 -0.3530  0.2619 -0.2373
  719TMC3    C610682   4.312   1.936  12.002 -0.4863 -0.6543 -1.1693
  719TMC3     C10683   4.045   2.079  12.240  0.7000 -0.3319 -0.3823
  719TMC3     O10684   3.994   1.987  12.299 -0.5116 -0.4230 -0.4981
  719TMC3     H10685   4.024   1.854  12.134  0.6018 -0.7081 -0.1826
  719TMC3    H110686   4.209   2.234  12.110 -0.6480 -0.1230  1.6101
  719TMC3    H210687   4.400   1.877  11.978  1.2397  1.2446  0.5007
  719TMC3    C710688   4.421   2.147  11.977 -0.2411  0.4349  0.9567
  719TMC3    C810689   4.258   1.766  12.154 -0.5505  0.4579  0.3725
  719TMC3    O110690   4.513   2.074  11.942 -0.1365  0.0138  0.2294
  719TMC3    O210691   4.365   1.798  12.206 -0.5559 -0.2344 -0.0130
  720MPD2     C10692   3.137   3.417  14.089 -0.5866 -0.0786  0.5548
  720MPD2    C110693   3.221   3.486  14.004  0.2361 -0.2704 -0.1262
  720MPD2    C210694   3.334   3.552  14.055 -0.6125  0.5191 -0.1579
  720MPD2    C310695   3.364   3.544  14.187  0.0252 -0.6450 -0.1113
  720MPD2    C410696   3.286   3.464  14.270  0.3165 -0.0927  0.3572
  720MPD2    C510697   3.173   3.407  14.219 -0.0720  0.0175 -0.1092
  720MPD2     H10698   3.397   3.617  13.995  1.1669 -0.9219  0.1456
  720MPD2    H110699   3.298   3.452  14.377 -0.9304 -0.2874  0.4815
  720MPD2    H210700   3.047   3.372  14.049 -1.4516  1.8676  0.3309
  720MPD2    H310701   3.100   3.358  14.282 -0.9537  0.7315 -0.5897
  720MPD2     N10702   3.483   3.605  14.231 -0.1921 -0.0210  0.0041
  720MPD2    H510703   3.538   3.654  14.161 -1.4105  1.6048  0.1772
  720MPD2    N110704   3.194   3.508  13.871  0.3708 -0.2818 -0.4256
  720MPD2    H710705   3.271   3.539  13.812  1.7487 -1.5041  0.7274
  721TMC3    C110706   3.659   3.677  14.368 -0.6117  0.0925  0.0376
  721TMC3    C210707   3.696   3.735  14.487 -0.3133 -0.4579  0.5041
  721TMC3    C310708   3.816   3.804  14.485 -0.6597  0.1884  0.0059
  721TMC3    C410709   3.744   3.667  14.261 -1.2657  0.3240 -0.8156
  721TMC3    C510710   3.862   3.730  14.269 -0.6688 -0.9919  0.0292
  721TMC3    C610711   3.900   3.809  14.369 -0.0365 -0.4212 -0.2958
  721TMC3     C10712   3.532   3.602  14.362 -0.3507 -0.2441  0.1636
  721TMC3     O10713   3.483   3.570  14.471  0.0984  0.3430 -0.1677
  721TMC3     H10714   3.627   3.743  14.570 -1.2097 -0.9787 -0.1946
  721TMC3    H110715   3.708   3.610  14.175 -1.4331 -1.1945  0.2598
  721TMC3    H210716   3.996   3.858  14.370  0.9031 -2.3193  2.0648
  721TMC3    C710717   3.972   3.681  14.192  0.4749  0.9709  0.3123
  721TMC3    C810718   3.902   3.798  14.604  0.3505 -0.2612  0.1425
  721TMC3    O110719   4.039   3.769  14.139  0.5868  0.0833 -0.2353
  721TMC3    O210720   4.019   3.779  14.594  0.7595 -0.3917 -0.0258
  722MPD2     C10721   2.296   2.140  13.519 -0.3455 -0.6709  0.5932
  722MPD2    C110722   2.231   2.255  13.475  0.3467  0.0578  0.3998
  722MPD2    C210723   2.101   2.245  13.417  0.3016 -0.5422  0.2033
  722MPD2    C310724   2.034   2.124  13.402  0.4127  0.1065  0.5513
  722MPD2    C410725   2.100   2.013  13.459 -0.0894 -0.2568 -0.2333
  722MPD2    C510726   2.225   2.023  13.510  0.2000 -0.1223  0.1009
  722MPD2     H10727   2.059   2.334  13.373 -1.7912 -0.6121  2.0747
  722MPD2    H110728   2.064   1.911  13.455  0.5083 -0.4705 -0.1389
  722MPD2    H210729   2.401   2.141  13.546  0.1230  0.6330 -1.2359
  722MPD2    H310730   2.282   1.934  13.539 -0.4822 -0.5471  0.1352
  722MPD2     N10731   1.926   2.115  13.310 -0.3002 -0.1635 -0.1276
  722MPD2    H510732   1.899   2.202  13.264 -0.0784 -1.8299 -3.3944
  722MPD2    N110733   2.294   2.378  13.452  0.3175 -0.8582 -0.3036
  722MPD2    H710734   2.226   2.450  13.428 -0.2895 -0.9034  1.2816
  723TMC3    C110735   1.773   2.032  13.158  0.0121  0.9424  0.3019
  723TMC3    C210736   1.763   1.927  13.071  0.4880  0.3187 -0.3529
  723TMC3    C310737   1.716   1.963  12.948 -0.0005  0.2778 -0.2589
  723TMC3    C410738   1.734   2.163  13.138 -0.0042  0.5369  0.0043
  723TMC3    C510739   1.685   2.192  13.016  0.9623  0.5045 -0.7698
  723TMC3    C610740   1.678   2.094  12.918 -0.6056 -0.1763 -0.6119
  723TMC3     C10741   1.861   2.003  13.267 -0.5277 -0.0128  0.5460
  723TMC3     O10742   1.886   1.890  13.301  0.0454  0.7339 -0.6243
  723TMC3     H10743   1.829   1.842  13.083 -0.0358 -0.5398 -3.5171
  723TMC3    H110744   1.727   2.244  13.208 -0.2708  1.3941 -1.0133
  723TMC3    H210745   1.617   2.108  12.829  0.4877 -1.4486 -1.5731
  723TMC3    C710746   1.620   2.315  12.986  0.4495 -0.2173  0.5278
  723TMC3    C810747   1.722   1.874  12.826 -0.3452  1.0543  0.2959
  723TMC3    O110748   1.544   2.317  12.892  0.6777 -0.1868  0.1459
  723TMC3    O210749   1.728   1.936  12.716  0.9307  0.3815  0.6547
  724TMC3    C110750   2.339   0.405  10.594  0.1551  0.0242  0.3190
  724TMC3    C210751   2.417   0.423  10.484  0.4186  0.7118  0.6316
  724TMC3    C310752   2.527   0.505  10.490  0.6216  0.3928 -0.2548
  724TMC3    C410753   2.388   0.436  10.714  0.4922  0.3389 -0.1006
  724TMC3    C510754   2.508   0.510  10.728  0.1242 -0.3920 -0.1526
  724TMC3    C610755   2.572   0.546  10.614  0.3918 -0.7147 -0.2685
  724TMC3     C10756   2.252   0.290  10.596 -0.3979  0.1938  0.9470
  724TMC3     O10757   2.258   0.222  10.698  0.2158  0.3889  0.4617
  724TMC3     H10758   2.378   0.388  10.389 -0.1844 -0.5762  1.3577
  724TMC3    H110759   2.326   0.426  10.802  0.1589 -1.2623 -0.5172
  724TMC3    H210760   2.667   0.597  10.622  2.0468 -4.0557  1.4725
  724TMC3    C710761   2.535   0.592  10.846  0.8441 -0.4747 -0.8800
  724TMC3    C810762   2.573   0.555  10.366  0.0437 -0.7489 -0.1389
  724TMC3    O110763   2.598   0.696  10.834  0.0841 -0.5100  0.0238
  724TMC3    O210764   2.539   0.498  10.264  0.2056  0.6891  0.2362
  725TMC3    C110765   4.319   3.570  12.959 -0.0592  0.2641 -0.5769
  725TMC3    C210766   4.202   3.648  12.952 -0.0733 -0.3581  0.3377
  725TMC3    C310767   4.093   3.588  12.894  1.0068  0.6419  0.0511
  725TMC3    C410768   4.324   3.437  12.932 -0.1518 -0.0242 -0.3340
  725TMC3    C510769   4.206   3.389  12.881  0.0963  0.2646 -0.0712
  725TMC3    C610770   4.095   3.460  12.850  0.5633 -0.4339  0.1424
  725TMC3     C10771   4.431   3.630  13.038  0.0970 -0.8550 -0.1097
  725TMC3     O10772   4.418   3.740  13.084 -0.4236 -0.1360 -0.1877
  725TMC3     H10773   4.195   3.754  12.975 -0.1555 -0.6970  1.8708
  725TMC3    H110774   4.404   3.370  12.961 -0.2473 -0.9534 -2.2445
  725TMC3    H210775   4.014   3.422  12.790 -0.1853  0.6467  0.4707
  725TMC3    C710776   4.215   3.267  12.801  0.4971  0.4243  0.5495
  725TMC3    C810777   3.980   3.673  12.870  0.9501  0.3445 -0.4865
  725TMC3    O110778   4.114   3.210  12.774  0.1789 -0.0330  0.4978
  725TMC3    O210779   3.869   3.623  12.876  0.0452  0.0755 -0.0954
  726MPD2     C10780   1.705   0.678  10.823  0.2182 -0.3453 -0.1220
  726MPD2    C110781   1.618   0.725  10.721  0.3601 -0.4692 -0.0268
  726MPD2    C210782   1.483   0.695  10.739 -0.1494  0.2539  0.2009
  726MPD2    C310783   1.433   0.621  10.850  0.8386  0.0304 -0.3214
  726MPD2    C410784   1.521   0.565  10.942  0.2031 -0.2789  0.4589
  726MPD2    C510785   1.652   0.603  10.934  0.3704  0.1304 -0.9441
  726MPD2     H10786   1.416   0.744  10.669 -1.1711 -1.4085  0.0099
  726MPD2    H110787   1.492   0.498  11.023 -0.8431  0.0872  0.3875
  726MPD2    H210788   1.809   0.707  10.817  0.0130  0.4215  0.0307
  726MPD2    H310789   1.721   0.570  11.010 -0.1502  0.0720 -0.4927
  726MPD2     N10790   1.295   0.583  10.856 -0.5829 -0.4864 -0.9945
  726MPD2    H510791   1.256   0.520  10.924  0.6741  1.1389  1.2345
  726MPD2    N110792   1.650   0.803  10.605 -0.4278 -0.1561 -1.0071
  726MPD2    H710793   1.577   0.808  10.535 -1.0992 -1.3875 -0.3779
  727TMC3    C110794   1.770   0.976  10.491 -0.8575 -0.1002 -0.0664
  727TMC3    C210795   1.857   1.081  10.517 -0.0806 -0.2474  0.2536
  727TMC3    C310796   1.855   1.185  10.432 -0.8833 -0.9331 -0.8714
  727TMC3    C410797   1.700   0.968  10.376  0.7097  0.7843 -0.1038
  727TMC3    C510798   1.708   1.070  10.283  0.4017  0.2539  0.2534
  727TMC3    C610799   1.779   1.182  10.311 -0.1431 -0.1524 -0.2719
  727TMC3     C10800   1.767   0.874  10.589 -0.1410  0.5833  0.0912
  727TMC3     O10801   1.865   0.886  10.659  0.0685 -0.4424  0.3166
  727TMC3     H10802   1.916   1.092  10.607 -0.8958  0.9076  0.6350
  727TMC3    H110803   1.646   0.876  10.356  2.8137 -0.0866 -1.7278
  727TMC3    H210804   1.776   1.255  10.231  0.2944  2.2353  1.9158
  727TMC3    C710805   1.613   1.063  10.172 -0.0743 -0.1306  0.6282
  727TMC3    C810806   1.969   1.279  10.428 -0.1703 -0.8837  0.2651
  727TMC3    O110807   1.638   1.135  10.077 -0.1569 -0.5551 -0.2345
  727TMC3    O210808   2.057   1.249  10.506  0.0189 -0.5199 -0.1307
  728TMC3    C110809   1.193   4.153  15.651 -0.0888 -0.5170  0.6751
  728TMC3    C210810   1.327   4.148  15.695 -0.2595  0.2214 -0.9096
  728TMC3    C310811   1.408   4.062  15.632  0.6252 -0.0919 -0.0112
  728TMC3    C410812   1.146   4.070  15.555  0.5597 -0.5090 -0.2225
  728TMC3    C510813   1.225   3.976  15.503  0.3638 -0.3017  0.2911
  728TMC3    C610814   1.363   3.972  15.537  0.4746  0.2030 -0.4670
  728TMC3     C10815   1.091   4.210  15.747 -0.0671 -0.5373 -0.3233
  728TMC3     O10816   1.124   4.310  15.810 -0.5789 -0.1312  0.1818
  728TMC3     H10817   1.367   4.208  15.776 -0.2383  0.4844 -1.1135
  728TMC3    H110818   1.052   4.090  15.505  1.1937  0.3261 -1.0666
  728TMC3    H210819   1.427   3.907  15.478  0.4466 -1.3160  1.1797
  728TMC3    C710820   1.218   3.965  15.364 -0.2915 -0.1245  0.3346
  728TMC3    C810821   1.534   4.030  15.688  0.3028 -0.6974  0.6684
  728TMC3    O110822   1.135   3.890  15.313 -0.2058  0.0892  0.2102
  728TMC3    O210823   1.543   4.075  15.801  0.2110 -0.1320  0.0262
  729MPD2     C10824   3.160   0.885  16.814 -0.1667  0.1050 -0.0001
  729MPD2    C110825   3.196   0.755  16.841 -0.5311 -0.1146  0.3291
  729MPD2    C210826   3.140   0.694  16.954  0.4417  0.3906  0.2484
  729MPD2    C310827   3.098   0.781  17.057 -0.4365 -0.0500 -0.2270
  729MPD2    C410828   3.067   0.912  17.031 -1.1677  0.0441 -0.2065
  729MPD2    C510829   3.094   0.961  16.907 -1.5167 -0.2803 -0.2539
  729MPD2     H10830   3.151   0.588  16.974 -1.2565  0.2500  0.4279
  729MPD2    H110831   3.041   0.982  17.110 -4.4587 -1.5223  0.1131
  729MPD2    H210832   3.184   0.941  16.724  0.0385  0.6985  0.4272
  729MPD2    H310833   3.067   1.064  16.891 -0.7055  0.4063  2.9779
  729MPD2     N10834   3.074   0.741  17.186  0.5152  0.4304  0.2471
  729MPD2    H510835   3.041   0.818  17.242  0.8157  1.2752 -0.7413
  729MPD2    N110836   3.266   0.690  16.734 -0.0287 -0.5974 -0.2315
  729MPD2    H710837   3.265   0.738  16.644 -1.1296 -0.4179 -0.1229
  730TMC3    C110838   3.128   0.639  17.389  0.8257 -0.4811  0.3278
  730TMC3    C210839   3.258   0.618  17.423 -0.5690  0.3561  0.2235
  730TMC3    C310840   3.316   0.710  17.502 -0.0209 -0.3241  0.0698
  730TMC3    C410841   3.061   0.745  17.444 -0.4513 -0.5695  0.6895
  730TMC3    C510842   3.123   0.834  17.533 -0.2357 -0.6694 -0.7077
  730TMC3    C610843   3.253   0.812  17.569 -0.1741  0.1001  0.0335
  730TMC3     C10844   3.120   0.626  17.241 -0.1157  0.8148 -0.2494
  730TMC3     O10845   3.188   0.539  17.184  0.0015  0.2957 -0.5784
  730TMC3     H10846   3.318   0.544  17.373  0.2578  0.5865  0.8693
  730TMC3    H110847   2.959   0.767  17.415  0.1708  0.7666 -0.5363
  730TMC3    H210848   3.312   0.869  17.639  2.3909 -1.8714 -0.5331
  730TMC3    C710849   3.104   0.971  17.499  0.0819 -0.3107 -0.3530
  730TMC3    C810850   3.422   0.787  17.435 -0.0402 -0.1781 -0.0927
  730TMC3    O110851   3.059   0.990  17.383  0.1414 -0.0410  0.1208
  730TMC3    O210852   3.470   0.883  17.486 -0.0684  0.2225  0.5391
  731MPD2     C10853   3.111   3.762  12.593  0.5290 -0.2706 -0.8473
  731MPD2    C110854   3.242   3.710  12.621  0.0076  0.0663  0.2136
  731MPD2    C210855   3.252   3.612  12.716 -0.7617 -0.5053 -0.7818
  731MPD2    C310856   3.145   3.571  12.791  0.3854  0.5010 -0.1107
  731MPD2    C410857   3.020   3.624  12.771  0.0506  0.2558 -0.4855
  731MPD2    C510858   3.005   3.710  12.666 -0.0889  0.0719 -0.7908
  731MPD2     H10859   3.346   3.558  12.725 -0.9788 -0.7141  0.1444
  731MPD2    H110860   2.926   3.598  12.818  0.5792 -0.0290  0.4276
  731MPD2    H210861   3.091   3.820  12.504 -1.0863  0.6957  0.1543
  731MPD2    H310862   2.907   3.752  12.644 -0.4145  0.7982  2.1133
  731MPD2     N10863   3.169   3.489  12.898  0.3879 -0.1284  0.4551
  731MPD2    H510864   3.258   3.442  12.884  0.3741 -0.7110  2.3033
  731MPD2    N110865   3.350   3.761  12.543 -0.0272  0.4437 -0.5805
  731MPD2    H710866   3.323   3.834  12.477  1.5482 -1.0293 -2.8280
  732TMC3    C110867   3.561   3.813  12.470 -0.0715 -0.0481  0.2764
  732TMC3    C210868   3.529   3.853  12.350 -0.0745 -0.7156  0.0289
  732TMC3    C310869   3.607   3.933  12.274  0.5845  0.0944  0.2294
  732TMC3    C410870   3.691   3.808  12.500  0.0319 -0.1181  0.4175
  732TMC3    C510871   3.775   3.886  12.420  0.0868  0.0029  0.1961
  732TMC3    C610872   3.733   3.960  12.312 -0.5417 -0.4890  0.4475
  732TMC3     C10873   3.480   3.719  12.548  0.4232  0.2314 -0.0782
  732TMC3     O10874   3.529   3.628  12.616  0.6740  0.6804  0.5588
  732TMC3     H10875   3.428   3.834  12.316 -0.3370  0.8372 -0.0687
  732TMC3    H110876   3.723   3.787  12.601  0.8538  0.6218  0.3091
  732TMC3    H210877   3.803   4.018  12.253 -1.4277  0.4527  0.3186
  732TMC3    C710878   3.907   3.828  12.418  0.6072 -0.3109  0.0059
  732TMC3    C810879   3.582   3.961  12.130  0.5749 -0.8292 -0.3825
  732TMC3    O110880   4.011   3.891  12.391 -0.6061 -0.0662 -0.4056
  732TMC3    O210881   3.673   4.006  12.059 -0.1504  0.2664 -0.6848
  733TMC3    C110882   4.335   1.815  13.065  0.4249  0.4054  0.5975
  733TMC3    C210883   4.297   1.944  13.021  0.6768 -0.1528  0.3194
  733TMC3    C310884   4.290   1.962  12.885  0.8007  0.8305 -0.0959
  733TMC3    C410885   4.363   1.713  12.984  0.1682 -0.0597 -0.3329
  733TMC3    C510886   4.359   1.736  12.848  0.1124  1.0177  0.1235
  733TMC3    C610887   4.317   1.856  12.800  0.2086 -0.4181  0.4052
  733TMC3     C10888   4.270   1.774  13.184  0.1704  0.0023  0.1195
  733TMC3     O10889   4.204   1.674  13.162 -0.3659  0.1638  0.2884
  733TMC3     H10890   4.260   2.021  13.087 -0.0369  1.2738 -1.7491
  733TMC3    H110891   4.396   1.619  13.026  1.7140 -0.0362 -1.4693
  733TMC3    H210892   4.294   1.871  12.695 -0.3028  0.4054  0.6300
  733TMC3    C710893   4.309   1.619  12.778  0.1990  0.0064  0.0337
  733TMC3    C810894   4.236   2.091  12.846 -1.6017 -0.0626  0.4907
  733TMC3    O110895   4.244   1.527  12.833  0.6600 -0.2921  0.3336
  733TMC3    O210896   4.200   2.169  12.931  0.4070 -0.1571 -0.3790
  734MPD2     C10897   1.298   3.768  12.403 -0.3442 -0.6862 -0.0257
  734MPD2    C110898   1.303   3.660  12.318 -0.6097  0.2647 -0.0404
  734MPD2    C210899   1.350   3.687  12.193 -0.6969  0.0248  0.0921
  734MPD2    C310900   1.385   3.808  12.148 -0.4457  0.5385  0.0214
  734MPD2    C410901   1.371   3.918  12.237  1.0022  0.5754  0.2746
  734MPD2    C510902   1.340   3.891  12.370  0.9043 -1.3225 -0.3824
  734MPD2     H10903   1.362   3.606  12.122 -1.2216 -0.0379  0.0745
  734MPD2    H110904   1.379   4.023  12.210  1.5713  0.1188 -1.3409
  734MPD2    H210905   1.270   3.758  12.508  0.0645  1.0640  0.2538
  734MPD2    H310906   1.333   3.974  12.440  0.7208 -1.1403 -0.6161
  734MPD2     N10907   1.418   3.818  12.016  0.3984 -0.3919 -0.1113
  734MPD2    H510908   1.425   3.723  11.980  2.3190  0.3649 -1.7640
  734MPD2    N110909   1.270   3.532  12.353  0.3590 -0.0052  0.3123
  734MPD2    H710910   1.270   3.506  12.451  1.6524 -1.5877 -0.1070
  735TMC3    C110911   1.211   3.303  12.293 -0.0403 -0.3348  0.4744
  735TMC3    C210912   1.140   3.227  12.205 -0.0955  0.3423 -0.0986
  735TMC3    C310913   1.189   3.106  12.161 -1.3639 -0.3015  0.1165
  735TMC3    C410914   1.326   3.256  12.348 -0.4138 -0.6722  0.3658
  735TMC3    C510915   1.370   3.129  12.314 -1.2695 -0.0772  0.0726
  735TMC3    C610916   1.306   3.058  12.216 -0.3255  0.5896 -0.5389
  735TMC3     C10917   1.212   3.444  12.261  0.1272 -0.4455  0.3384
  735TMC3     O10918   1.183   3.457  12.144 -0.4367  0.2398 -0.3874
  735TMC3     H10919   1.040   3.258  12.175  0.4852  1.4974 -0.8639
  735TMC3    H110920   1.377   3.317  12.420 -1.4629 -0.6342  1.0779
  735TMC3    H210921   1.344   2.963  12.179  2.5243  1.1193  1.0246
  735TMC3    C710922   1.509   3.142  12.285 -0.5758 -0.4411 -0.0365
  735TMC3    C810923   1.177   3.094  12.022  0.2150 -0.7480 -0.1418
  735TMC3    O110924   1.544   3.247  12.236 -0.5365 -0.5248 -0.5066
  735TMC3    O210925   1.171   2.983  11.967  0.2158 -0.1839  0.3894
  736MPD2     C10926   1.783   2.924  12.422  0.1125  0.8488  0.4865
  736MPD2    C110927   1.727   3.029  12.343  0.2260  0.4814  0.2186
  736MPD2    C210928   1.822   3.117  12.293 -0.0542  0.6238  0.4007
  736MPD2    C310929   1.956   3.097  12.309 -0.2341 -0.3796  0.3528
  736MPD2    C410930   2.000   2.986  12.360 -0.2359 -0.0152  0.3979
  736MPD2    C510931   1.917   2.896  12.418  0.2045  0.2934 -0.5946
  736MPD2     H10932   1.786   3.200  12.234  0.8648  0.5761 -0.2276
  736MPD2    H110933   2.106   2.964  12.371 -0.3331 -1.6187 -1.8744
  736MPD2    H210934   1.723   2.849  12.472  0.9221 -0.2568 -0.2352
  736MPD2    H310935   1.953   2.809  12.471  2.6588  0.5389 -1.8290
  736MPD2     N10936   2.049   3.183  12.251 -0.1049  0.2326  0.1164
  736MPD2    H510937   2.149   3.163  12.256  0.0012  1.3287  2.4267
  736MPD2    N110938   1.585   3.040  12.353 -0.5580  0.6507  0.6415
  736MPD2    H710939   1.533   2.960  12.388  0.2624 -1.7299 -3.6309
  737TMC3    C110940   2.125   3.376  12.131 -0.1656  0.4578 -0.0797
  737TMC3    C210941   2.114   3.506  12.099 -0.1576 -0.4172  0.3100
  737TMC3    C310942   2.184   3.569  12.007  0.2340 -0.0314 -0.5807
  737TMC3    C410943   2.201   3.301  12.045  0.1774  0.2776  0.6641
  737TMC3    C510944   2.273   3.367  11.941  0.2023 -0.3539 -0.4212
  737TMC3    C610945   2.268   3.498  11.929 -0.3889  0.6430 -0.1588
  737TMC3     C10946   2.021   3.313  12.212 -1.0858 -0.4084 -0.4231
  737TMC3     O10947   1.916   3.381  12.224 -0.4124 -0.0703 -0.2601
  737TMC3     H10948   2.044   3.564  12.158  1.1165 -0.0528  1.4558
  737TMC3    H110949   2.190   3.194  12.059 -1.1573  0.6177  2.1047
  737TMC3    H210950   2.337   3.549  11.863  0.8963 -2.3206 -1.1229
  737TMC3    C710951   2.371   3.284  11.874 -0.5182  1.2399 -0.4987
  737TMC3    C810952   2.182   3.711  11.987  0.1878  0.5157  0.0168
  737TMC3    O110953   2.412   3.179  11.925  0.3506  0.2423 -0.0111
  737TMC3    O210954   2.173   3.780  12.090  0.1212  0.2977  0.3382
  738MPD2     C10955   2.010   2.967  14.814 -0.7217 -0.5989 -0.4280
  738MPD2    C110956   2.103   2.902  14.883  0.4171 -0.0586  0.8256
  738MPD2    C210957   2.230   2.950  14.889 -0.0254  0.0926 -0.3571
  738MPD2    C310958   2.257   3.074  14.826 -0.8993  0.0147 -0.7875
  738MPD2    C410959   2.157   3.139  14.757  0.2054 -0.6391  0.2722
  738MPD2    C510960   2.038   3.078  14.746  0.5210 -0.6989  0.5391
  738MPD2     H10961   2.313   2.896  14.932 -0.7907 -0.3421  0.5908
  738MPD2    H110962   2.182   3.234  14.712 -0.9633 -0.3882  0.1669
  738MPD2    H210963   1.907   2.934  14.803 -0.2268 -1.7788 -1.4627
  738MPD2    H310964   1.958   3.136  14.701 -0.4347 -0.2950  2.7679
  738MPD2     N10965   2.384   3.133  14.826 -0.1145  0.3378  0.2768
  738MPD2    H510966   2.399   3.216  14.770 -3.2638  1.2261  0.7549
  738MPD2    N110967   2.085   2.774  14.942 -0.0807 -0.2683  0.3907
  738MPD2    H710968   2.165   2.723  14.976 -0.3873 -1.5892 -0.8459
  739TMC3    C110969   2.607   3.156  14.874  0.0337  0.7431  1.1225
  739TMC3    C210970   2.624   3.190  14.743 -0.0378 -0.3920 -0.1704
  739TMC3    C310971   2.734   3.251  14.703 -0.3417  0.4016 -0.5565
  739TMC3    C410972   2.699   3.195  14.971 -0.5437 -0.2885  0.9693
  739TMC3    C510973   2.808   3.269  14.928 -0.4447 -0.1221 -0.1466
  739TMC3    C610974   2.827   3.289  14.793  0.6121  0.0360  0.6181
  739TMC3     C10975   2.482   3.101  14.920 -0.2022  0.0049  0.2692
  739TMC3     O10976   2.483   3.030  15.020 -0.1215 -0.5189 -0.1569
  739TMC3     H10977   2.575   3.123  14.674 -0.1375 -0.0800 -0.4033
  739TMC3    H110978   2.667   3.173  15.072 -1.7840 -1.9168  0.2291
  739TMC3    H210979   2.912   3.349  14.762  0.4801 -1.1549 -2.0603
  739TMC3    C710980   2.920   3.307  15.022 -0.1907  0.0028 -0.2155
  739TMC3    C810981   2.747   3.286  14.560  0.1258  0.0977  0.2471
  739TMC3    O110982   2.905   3.274  15.138  0.1868  1.0380  0.1193
  739TMC3    O210983   2.714   3.198  14.481  0.2548 -0.2165 -0.0147
  740TMC3    C110984   3.282   4.206  14.476  0.3824 -0.3931  0.6848
  740TMC3    C210985   3.320   4.148  14.595 -0.7700  0.2470  0.2812
  740TMC3    C310986   3.399   4.037  14.582  0.0856  0.8280 -0.0147
  740TMC3    C410987   3.341   4.165  14.358  0.4983  0.1132 -0.6901
  740TMC3    C510988   3.411   4.046  14.352  1.2206  0.3208 -0.0912
  740TMC3    C610989   3.442   3.984  14.464 -0.1596 -0.0716 -0.5562
  740TMC3     C10990   3.147   4.265  14.465 -0.0129 -0.1736 -0.0963
  740TMC3     O10991   3.119   4.308  14.358 -0.1193  0.4799  0.4893
  740TMC3     H10992   3.279   4.174  14.692 -0.9316  0.5183  0.1420
  740TMC3    H110993   3.310   4.220  14.270 -1.2737 -1.8437 -1.2900
  740TMC3    H210994   3.488   3.886  14.469 -0.1019  0.0987  2.4147
  740TMC3    C710995   3.372   3.962  14.244 -0.6386 -0.5187 -0.4802
  740TMC3    C810996   3.465   3.980  14.696 -0.4520  0.1941  0.2342
  740TMC3    O110997   3.332   3.851  14.278 -0.3572  0.1345 -0.8573
  740TMC3    O210998   3.585   3.963  14.685 -0.0413  0.0770 -0.0487
  741TMC3    C110999   2.611   3.842  14.284 -0.0336 -0.1456  0.0772
  741TMC3    C211000   2.550   3.747  14.214  0.5327 -0.5838 -0.1387
  741TMC3    C311001   2.481   3.662  14.294 -0.2152 -0.3982  0.0385
  741TMC3    C411002   2.618   3.851  14.422 -0.0314 -0.3443 -0.9295
  741TMC3    C511003   2.561   3.759  14.498  0.1357 -0.5472 -0.1222
  741TMC3    C611004   2.488   3.667  14.432 -0.9146 -0.5488 -0.2947
  741TMC3     C11005   2.701   3.934  14.215 -0.0610 -0.2362  0.3051
  741TMC3     O11006   2.775   3.995  14.288  0.3217  0.1077  0.2609
  741TMC3     H11007   2.528   3.749  14.107 -1.7135  2.2066  0.3593
  741TMC3    H111008   2.669   3.936  14.466  2.5722 -2.9884  1.1024
  741TMC3    H211009   2.441   3.582  14.480  0.5236 -2.2617 -1.9158
  741TMC3    C711010   2.608   3.738  14.633 -0.1653 -0.9041 -0.4917
  741TMC3    C811011   2.385   3.562  14.244  0.2325 -0.3092  0.5312
  741TMC3    O111012   2.687   3.819  14.678 -0.1185 -0.4429 -0.3255
  741TMC3    O211013   2.276   3.545  14.302 -0.0853 -0.0798  0.3145
  742TMC3    C111014   2.473   2.042  15.405 -0.3223 -0.1001  0.1993
  742TMC3    C211015   2.402   2.032  15.293  0.6972  0.2857  0.3529
  742TMC3    C311016   2.442   2.086  15.178  0.2117  0.7692  0.0343
  742TMC3    C411017   2.602   2.084  15.401 -0.1967  0.3027 -0.2534
  742TMC3    C511018   2.645   2.127  15.282  0.1487 -0.5691 -0.5703
  742TMC3    C611019   2.569   2.128  15.171  1.2687 -0.8251  0.1951
  742TMC3     C11020   2.430   1.949  15.505 -0.2152 -0.1404 -0.4657
  742TMC3     O11021   2.334   1.879  15.482  0.5440 -0.1671 -0.4777
  742TMC3     H11022   2.296   2.008  15.297  0.5180  1.0195 -0.0032
  742TMC3    H111023   2.654   2.106  15.493 -1.4317  0.0268  0.5128
  742TMC3    H211024   2.609   2.176  15.082 -0.5777  1.3668  0.5678
  742TMC3    C711025   2.776   2.090  15.253  0.7279 -0.1657 -0.1291
  742TMC3    C811026   2.385   2.027  15.061 -0.4520  0.6948  0.5505
  742TMC3    O111027   2.785   2.017  15.153  0.4509  0.1072 -0.1848
  742TMC3    O211028   2.341   1.918  15.085 -0.6817  0.1300  0.7117
  743MPD2     C11029   1.054   3.180   2.168  0.1690  0.0948  0.0439
  743MPD2    C111030   1.014   3.152   2.039  0.0327  0.5863 -0.2735
  743MPD2    C211031   1.112   3.169   1.944 -0.2314  0.2570  0.4622
  743MPD2    C311032   1.246   3.204   1.978 -0.3386 -0.2208  0.2527
  743MPD2    C411033   1.282   3.223   2.112 -0.0376  0.5613  0.2361
  743MPD2    C511034   1.182   3.209   2.205  0.1532 -0.5330 -0.2383
  743MPD2     H11035   1.099   3.163   1.837  0.4628 -1.9414  0.4995
  743MPD2    H111036   1.377   3.266   2.140  0.2975  0.7883 -1.2222
  743MPD2    H211037   0.978   3.181   2.245 -0.4721 -2.0092 -0.5562
  743MPD2    H311038   1.224   3.228   2.303 -0.5441 -1.7598  0.2904
  743MPD2     N11039   1.330   3.209   1.869  0.7597 -0.0379 -0.1051
  743MPD2    H511040   1.292   3.201   1.775 -0.8339 -0.5381  0.5818
  743MPD2    N111041   0.874   3.123   2.007  0.0935  0.5099 -0.6620
  743MPD2    H711042   0.809   3.142   2.082 -0.7281 -1.0746 -0.9557
  744TMC3    C111043   0.692   3.109   1.853  0.9959 -0.5358 -0.0922
  744TMC3    C211044   0.625   3.217   1.915  0.9923 -0.5025 -0.4727
  744TMC3    C311045   0.518   3.267   1.849 -0.4264  0.3444  0.3594
  744TMC3    C411046   0.657   3.050   1.736  0.3797  0.1047 -0.5271
  744TMC3    C511047   0.544   3.105   1.685 -0.1368 -0.1488 -0.4327
  744TMC3    C611048   0.474   3.216   1.729 -0.1088 -1.2264 -0.3372
  744TMC3     C11049   0.835   3.107   1.873 -0.4901  0.0820  0.6990
  744TMC3     O11050   0.897   3.093   1.772  0.2252 -0.6974  0.1598
  744TMC3     H11051   0.681   3.274   1.988 -0.8297  0.9951 -0.2476
  744TMC3    H111052   0.711   2.969   1.688 -0.5814 -1.2879  0.7285
  744TMC3    H211053   0.392   3.257   1.671 -0.9747 -0.0868  1.6874
  744TMC3    C711054   0.497   3.050   1.552 -0.0808 -0.5786  0.8832
  744TMC3    C811055   0.461   3.396   1.892 -0.2172  0.4325  0.4784
  744TMC3    O111056   0.427   3.126   1.487  0.5045 -0.4726  0.2523
  744TMC3    O211057   0.396   3.448   1.807  0.2922 -0.3682  0.5422
  745TMC3    C111058   2.960   1.358  13.968 -0.0181 -1.0743 -0.2417
  745TMC3    C211059   2.864   1.428  14.031  0.0447 -0.2348 -0.4949
  745TMC3    C311060   2.774   1.506  13.969  0.2806 -0.1343  0.5410
  745TMC3    C411061   2.937   1.333  13.834 -0.3790  0.1533 -0.0005
  745TMC3    C511062   2.840   1.409  13.769  0.2965  0.6346  0.3511
  745TMC3    C611063   2.761   1.506  13.832 -0.6209 -0.3940  0.9035
  745TMC3     C11064   3.080   1.433  13.986  0.6579  0.5431 -0.2996
  745TMC3     O11065   3.085   1.506  14.083  0.4957  0.7233  0.2484
  745TMC3     H11066   2.874   1.437  14.138 -2.0858 -1.9486 -0.1467
  745TMC3    H111067   2.998   1.272  13.768 -0.8474  0.6875 -0.9195
  745TMC3    H211068   2.687   1.559  13.775  0.8249  3.4770  2.6360
  745TMC3    C711069   2.895   1.444  13.637 -0.2771 -0.4408  0.4932
  745TMC3    C811070   2.742   1.630  14.032 -0.0073  0.0942 -0.0180
  745TMC3    O111071   3.008   1.416  13.600 -0.1971 -0.1921  0.0436
  745TMC3    O211072   2.643   1.688  13.997 -0.6531 -0.0778  0.0779
  746TMC3    C111073   0.617   2.973  11.233 -0.3063 -0.0300  0.1308
  746TMC3    C211074   0.696   2.955  11.123 -0.0682 -0.6559  0.1286
  746TMC3    C311075   0.647   2.889  11.013 -0.2809 -0.5763 -0.3417
  746TMC3    C411076   0.486   2.919  11.237 -0.0763  0.0667  0.1911
  746TMC3    C511077   0.440   2.860  11.124  0.1941 -0.1973  0.0703
  746TMC3    C611078   0.519   2.847  11.012  0.2676 -0.0973 -0.9629
  746TMC3     C11079   0.640   3.083  11.328 -0.6968 -0.0162 -0.5145
  746TMC3     O11080   0.553   3.113  11.407 -0.1369 -0.2886  0.0075
  746TMC3     H11081   0.796   2.995  11.110 -1.1695  2.6535  1.8395
  746TMC3    H111082   0.413   2.945  11.313 -0.2023 -1.3543  0.5592
  746TMC3    H211083   0.495   2.790  10.923  0.4196 -2.1441  0.3155
  746TMC3    C711084   0.298   2.856  11.087  0.7445  0.5127  0.2134
  746TMC3    C811085   0.737   2.874  10.892  0.2334 -0.5192  0.0437
  746TMC3    O111086   0.283   2.848  10.967  0.1818 -0.4085 -0.0277
  746TMC3    O211087   0.744   2.766  10.836  0.5745 -0.0201  0.3651
  747TMC3    C111088   2.970   3.554  11.074 -0.0789  0.6910 -0.0119
  747TMC3    C211089   2.914   3.444  11.132 -0.0658  0.4012  0.3861
  747TMC3    C311090   2.892   3.452  11.262 -0.1479 -1.0866 -0.2488
  747TMC3    C411091   2.984   3.678  11.137 -0.5650  0.4424  0.2473
  747TMC3    C511092   2.957   3.684  11.267  0.3767  0.4441 -0.2837
  747TMC3    C611093   2.910   3.571  11.338 -0.2364  0.0023 -0.1577
  747TMC3     C11094   2.990   3.555  10.932 -0.6765  0.4620 -0.0125
  747TMC3     O11095   2.967   3.664  10.879  0.5640  0.2957  0.2036
  747TMC3     H11096   2.893   3.354  11.076 -0.6103  1.5740 -1.2868
  747TMC3    H111097   3.011   3.766  11.080  2.1054 -0.8754 -0.4776
  747TMC3    H211098   2.896   3.577  11.445  2.3009  3.5110 -0.0547
  747TMC3    C711099   3.028   3.782  11.352 -0.1968  0.9767 -0.2371
  747TMC3    C811100   2.839   3.335  11.336 -0.6111 -0.4271 -1.0472
  747TMC3    O111101   3.003   3.774  11.475  0.8976  0.1783 -0.1426
  747TMC3    O211102   2.891   3.227  11.319  0.6131  0.4924  0.0557
  748MPD2     C11103   4.423   4.468   1.608  0.0299 -0.4596 -0.0662
  748MPD2    C111104   4.518   4.486   1.710 -0.3713  0.1390 -0.5369
  748MPD2    C211105   4.641   4.532   1.683 -0.2560 -0.0744  0.3845
  748MPD2    C311106   4.676   4.565   1.551 -0.3532  0.7489 -0.0217
  748MPD2    C411107   4.585   4.566   1.456 -0.1135  0.2176  0.4885
  748MPD2    C511108   4.453   4.516   1.484 -0.3114  0.3777 -0.0314
  748MPD2     H11109   4.713   4.539   1.764  1.5654  1.5463 -1.3863
  748MPD2    H111110   4.608   4.608   1.359 -0.4628  0.2816  0.4321
  748MPD2    H211111   4.319   4.438   1.619 -0.4241  1.5858  1.1837
  748MPD2    H311112   4.372   4.528   1.413 -1.3839 -1.4041  0.8805
  748MPD2     N11113   0.073   4.609   1.529 -0.4555  0.2303  0.1632
  748MPD2    H511114   0.121   4.641   1.612  0.0386  1.1287 -0.4635
  748MPD2    N111115   4.481   4.438   1.838 -0.3460 -0.4937 -0.1782
  748MPD2    H711116   4.389   4.394   1.841 -0.9264  0.5437 -2.7638
  749TMC3    C111117   0.255   4.698   1.400  0.7936  0.4296  0.7796
  749TMC3    C211118   0.314   4.734   1.520  0.5777 -0.2999  0.0119
  749TMC3    C311119   0.425   0.078   1.528  0.2730 -0.4528 -0.8538
  749TMC3    C411120   0.296   0.034   1.289 -0.6792 -1.1730 -0.2010
  749TMC3    C511121   0.413   0.108   1.294 -0.1590 -0.4694 -0.5608
  749TMC3    C611122   0.481   0.132   1.409 -0.1778 -0.8426 -0.3795
  749TMC3     C11123   0.132   4.622   1.403  0.3022 -0.1487 -0.2085
  749TMC3     O11124   0.095   4.593   1.293 -0.1192 -0.7537 -0.0489
  749TMC3     H11125   0.290   4.672   1.606 -0.9683  3.4152  2.2618
  749TMC3    H111126   0.247   0.016   1.194  1.0202 -0.3528 -1.2377
  749TMC3    H211127   0.570   0.193   1.420  0.2120 -1.5125  0.1778
  749TMC3    C711128   0.427   0.206   1.191 -0.1595 -0.6849  0.3068
  749TMC3    C811129   0.523   0.029   1.619  0.5849 -0.0867  0.4260
  749TMC3    O111130   0.492   0.307   1.198  0.4263  0.5075  0.1205
  749TMC3    O211131   0.602   0.110   1.664  0.4155 -0.1764 -0.0806
  750MPD2     C11132   0.525   0.419  11.702  0.7461  0.2648 -0.6971
  750MPD2    C111133   0.427   0.324  11.705  0.7390  0.8096  0.0583
  750MPD2    C211134   0.458   0.199  11.652 -0.2394  0.5103  0.1322
  750MPD2    C311135   0.582   0.171  11.611  0.0219  0.0235  0.0270
  750MPD2    C411136   0.680   0.272  11.607 -0.6990  0.3604 -0.9623
  750MPD2    C511137   0.642   0.393  11.647  0.5608  0.0720 -0.5077
  750MPD2     H11138   0.380   0.124  11.641 -0.2350  0.7713 -1.6707
  750MPD2    H111139   0.782   0.253  11.577 -0.7131  0.1269 -0.8614
  750MPD2    H211140   0.510   0.519  11.742 -0.4216  0.2237 -1.0429
  750MPD2    H311141   0.722   0.466  11.640  0.5275  0.1241 -0.3504
  750MPD2     N11142   0.618   0.041  11.563 -0.1628 -0.8602  0.6886
  750MPD2    H511143   0.704   0.035  11.509 -1.5203 -2.6750 -1.2717
  750MPD2    N111144   0.297   0.359  11.752  0.0690 -0.7238  0.5261
  750MPD2    H711145   0.290   0.457  11.777 -1.0482 -0.2340 -1.7345
  751TMC3    C111146   0.595   4.543  11.506  0.0228 -0.0837 -0.0589
  751TMC3    C211147   0.542   4.419  11.545 -0.1941 -0.3709 -0.2676
  751TMC3    C311148   0.574   4.309  11.475  0.5054  0.3486 -0.6073
  751TMC3    C411149   0.666   4.561  11.391  0.8189  0.0511  0.2013
  751TMC3    C511150   0.693   4.451  11.325  0.1886 -0.5523 -0.2514
  751TMC3    C611151   0.653   4.328  11.364 -0.8794 -0.9473  0.0439
  751TMC3     C11152   0.543   4.659  11.575 -0.0593 -0.2420 -0.2181
  751TMC3     O11153   0.430   4.640  11.627 -0.4158 -0.5663 -0.2082
  751TMC3     H11154   0.481   4.418  11.634  0.3715  1.6381  0.1543
  751TMC3    H111155   0.685   4.658  11.346 -0.8263  0.1270 -0.3558
  751TMC3    H211156   0.681   4.234  11.317  1.1083  0.5200 -1.6773
  751TMC3    C711157   0.662   4.471  11.191 -0.6389 -0.1519 -0.4089
  751TMC3    C811158   0.464   4.225  11.444  0.0156  0.2427  0.9283
  751TMC3    O111159   0.702   4.572  11.135  0.2783 -0.0902  0.5396
  751TMC3    O211160   0.449   4.203  11.326 -0.4250  0.4237  0.3966
  752TMC3    C111161   4.011   0.336  17.428 -0.2580 -0.0776  0.0474
  752TMC3    C211162   4.076   0.279  17.535  0.0785  0.0769  0.5164
  752TMC3    C311163   4.042   0.325  17.660  0.0971  0.0889  0.1182
  752TMC3    C411164   3.916   0.433  17.451  1.0226 -0.7399 -0.4835
  752TMC3    C511165   3.888   0.471  17.577 -0.2680  0.9444  0.9644
  752TMC3    C611166   3.943   0.417  17.685  0.1564  0.0765 -0.4930
  752TMC3     C11167   4.065   0.317  17.299  0.3996 -0.1425  0.0142
  752TMC3     O11168   4.159   0.244  17.287 -0.1929  0.2452 -0.6134
  752TMC3     H11169   4.158   0.212  17.511  0.4779  0.0332  2.0371
  752TMC3    H111170   3.870   0.491  17.372  2.1695 -1.7284 -1.8887
  752TMC3    H211171   3.925   0.462   0.042  2.2203  1.4380 -0.7385
  752TMC3    C711172   3.754   0.525  17.589 -0.0279  0.0833 -0.0325
  752TMC3    C811173   4.084   0.254   0.037 -0.6163 -0.6629  0.1024
  752TMC3    O111174   3.669   0.499  17.506 -0.0176 -0.2447  0.2223
  752TMC3    O211175   4.094   0.317   0.142  0.4159 -0.1420 -0.3863
  753TMC3    C111176   1.411   1.314  13.293 -0.0679  0.6889  0.0083
  753TMC3    C211177   1.455   1.301  13.423  0.1086 -0.5200 -0.4675
  753TMC3    C311178   1.460   1.174  13.478  0.3906 -0.1418 -0.2301
  753TMC3    C411179   1.359   1.213  13.221 -0.9944 -0.0388  0.2221
  753TMC3    C511180   1.362   1.090  13.273 -0.0386  0.1814 -0.2112
  753TMC3    C611181   1.407   1.068  13.405 -0.3974 -0.4316  0.0771
  753TMC3     C11182   1.397   1.456  13.255 -0.1292  0.2603  0.7169
  753TMC3     O11183   1.381   1.537  13.350  0.3392 -0.1670  0.1306
  753TMC3     H11184   1.528   1.378  13.445  0.6965 -0.8531 -1.2561
  753TMC3    H111185   1.327   1.221  13.118 -0.6186 -1.0915  0.0217
  753TMC3    H211186   1.397   0.966  13.441 -3.0128 -0.6905 -1.3906
  753TMC3    C711187   1.291   0.986  13.196  0.1366 -0.5377  0.2382
  753TMC3    C811188   1.499   1.158  13.616  0.2877  0.1134 -1.3135
  753TMC3    O111189   1.281   1.005  13.077 -0.2538  0.2662 -0.3578
  753TMC3    O211190   1.520   1.048  13.665 -0.1326  0.1379 -0.2502
  754MPD2     C11191   0.759   4.456  13.383 -0.3363  0.1718  0.3695
  754MPD2    C111192   0.753   4.322  13.416  0.1659 -0.6023 -0.6434
  754MPD2    C211193   0.634   4.257  13.416 -0.5150 -0.3463  0.0132
  754MPD2    C311194   0.516   4.333  13.414 -0.1758  0.4601  0.2584
  754MPD2    C411195   0.524   4.469  13.412  0.4168 -0.0212 -0.7729
  754MPD2    C511196   0.643   4.529  13.378  0.1565  0.0975  0.8031
  754MPD2     H11197   0.627   4.149  13.424 -0.1322 -0.2693  1.4091
  754MPD2    H111198   0.431   4.524  13.416 -0.0621 -0.6744 -2.8781
  754MPD2    H211199   0.856   4.504  13.374 -0.2916 -0.1910 -1.0332
  754MPD2    H311200   0.649   4.632  13.345 -0.8459  0.4469  1.6883
  754MPD2     N11201   0.388   4.276  13.436 -0.4055  0.5916  0.7795
  754MPD2    H511202   0.313   4.342  13.451 -2.2995 -0.9928 -1.7218
  754MPD2    N111203   0.878   4.271  13.466 -0.2159 -0.0844 -0.7238
  754MPD2    H711204   0.957   4.328  13.435 -0.7601  0.3776 -1.2629
  755MPD2     C11205   4.449   0.011  13.507  0.1464 -0.7976 -0.6472
  755MPD2    C111206   4.390   4.631  13.562 -0.4685 -0.1961  0.0431
  755MPD2    C211207   4.463   4.514  13.577  0.2860  0.2181  0.2522
  755MPD2    C311208   4.597   4.511  13.538  0.1485 -0.2629 -0.2247
  755MPD2    C411209   4.655   4.626  13.483 -0.3407 -0.7031  0.0544
  755MPD2    C511210   4.582   0.008  13.470  0.0160  0.2933  0.3980
  755MPD2     H11211   4.420   4.425  13.620  0.8567 -0.0880  0.1862
  755MPD2    H111212   0.025   4.645  13.466 -0.2070 -1.9842 -0.5453
  755MPD2    H211213   4.393   0.103  13.496  0.6742 -0.2761  1.1110
  755MPD2    H311214   4.627   0.099  13.433  0.9987 -0.4856 -0.3022
  755MPD2     N11215   4.683   4.400  13.527  0.0959 -0.0169 -0.0483
  755MPD2    H511216   0.036   4.409  13.479  0.3237 -1.8468  0.0404
  755MPD2    N111217   4.258   4.629  13.606 -0.2071  0.3648 -0.2593
  755MPD2    H711218   4.224   4.536  13.630 -1.7616  0.4411 -2.1699
  756MPD2     C11219   0.877   0.937   9.769 -0.7435 -0.1060  0.0543
  756MPD2    C111220   0.743   0.925   9.795 -0.4643  0.6612 -0.0381
  756MPD2    C211221   0.648   0.925   9.695  0.8286  0.5602  0.8049
  756MPD2    C311222   0.694   0.940   9.564  0.4548  0.6433  0.3049
  756MPD2    C411223   0.823   0.955   9.544  0.6229 -0.2537  0.0096
  756MPD2    C511224   0.918   0.944   9.644 -0.6853 -0.2970  0.9314
  756MPD2     H11225   0.544   0.919   9.727  0.6672  1.8704  0.5533
  756MPD2    H111226   0.861   0.972   9.444  1.4002 -1.8334  0.0247
  756MPD2    H211227   0.953   0.922   9.845 -0.7389  1.3619  0.3336
  756MPD2    H311228   1.023   0.943   9.620 -0.5437  0.2840  1.5373
  756MPD2     N11229   0.596   0.967   9.466 -0.0406  0.8669 -0.2823
  756MPD2    H511230   0.505   0.934   9.496  2.0104 -3.5847  1.0533
  756MPD2    N111231   0.699   0.925   9.930  0.6189  0.9728  0.3649
  756MPD2    H711232   0.606   0.888   9.947  0.2141  1.6037 -0.4734
  757MPD2     C11233   4.496   0.761   9.528  0.3558  0.2819  0.3601
  757MPD2    C111234   4.621   0.707   9.561 -0.0595 -0.6245 -0.1969
  757MPD2    C211235   4.733   0.772   9.508 -0.2696 -0.2274 -0.5156
  757MPD2    C311236   4.725   0.894   9.430 -1.0680 -0.4801 -0.7993
  757MPD2    C411237   4.601   0.946   9.406 -0.5352  0.6774  0.1043
  757MPD2    C511238   4.486   0.888   9.464  0.6905 -0.0817 -0.1387
  757MPD2     H11239   0.101   0.743   9.526  0.0137  1.2488  0.2767
  757MPD2    H111240   4.578   1.041   9.358  0.0948  0.0256 -1.4704
  757MPD2    H211241   4.409   0.724   9.581  1.1734  0.0503  1.5357
  757MPD2    H311242   4.387   0.931   9.459  0.1363 -1.4661 -1.1015
  757MPD2     N11243   0.110   0.957   9.388  0.0200  0.4404 -0.0199
  757MPD2    H511244   0.197   0.914   9.420  0.0496 -1.1351 -2.2120
  757MPD2    N111245   4.616   0.598   9.651 -0.0823 -0.0729 -0.0708
  757MPD2    H711246   4.522   0.564   9.669 -0.4337  0.7349 -0.4179
  758MPD2     C11247   4.674   4.681  16.017  0.5921 -0.1659  0.5867
  758MPD2    C111248   0.027   4.612  16.104 -0.5568 -0.0658  0.7209
  758MPD2    C211249   4.726   4.575  16.228  0.3223 -0.0398  0.3760
  758MPD2    C311250   4.614   4.629  16.280 -0.5419  0.2779 -0.0662
  758MPD2    C411251   4.530   4.709  16.207 -0.1018  0.3999  0.6248
  758MPD2    C511252   4.557   4.731  16.076 -0.3895 -0.5854  0.0515
  758MPD2     H11253   0.052   4.508  16.287 -0.5136  1.4561  2.9910
  758MPD2    H111254   4.438   0.010  16.251 -0.8749  0.8445 -1.3372
  758MPD2    H211255   4.700   4.709  15.915  1.4071 -0.8296  0.6193
  758MPD2    H311256   4.488   0.053  16.016 -0.1338 -0.8940 -0.5305
  758MPD2     N11257   4.588   4.617  16.413  0.1956  0.2859 -0.2254
  758MPD2    H511258   4.498   4.650  16.445  0.3256  1.1371 -0.7384
  758MPD2    N111259   0.158   4.570  16.070 -0.2276 -0.2171  0.1845
  758MPD2    H711260   0.204   4.527  16.150  1.3974 -0.5474 -0.9366
  759MPD2     C11261   3.830   3.535  10.130  0.5054  0.6747 -0.2961
  759MPD2    C111262   3.893   3.510  10.251 -0.4679 -0.2966  0.4642
  759MPD2    C211263   3.988   3.597  10.290 -0.1289 -0.0660  0.2615
  759MPD2    C311264   4.031   3.712  10.218  0.3567 -0.6159  0.2848
  759MPD2    C411265   3.977   3.724  10.102  0.1902  0.1759  0.1191
  759MPD2    C511266   3.877   3.640  10.054  0.2773  0.7530 -0.2314
  759MPD2     H11267   4.033   3.588  10.388 -0.8511 -1.2715  0.4862
  759MPD2    H111268   4.000   3.810  10.039  1.8069  0.7567  1.5078
  759MPD2    H211269   3.751   3.471  10.091 -0.5569  1.4789  0.5474
  759MPD2    H311270   3.849   3.666   9.953  0.8999  0.7409 -0.4130
  759MPD2     N11271   4.127   3.798  10.278 -0.2283  0.2934 -0.4413
  759MPD2    H511272   4.166   3.772  10.369  1.2781 -2.1204 -1.7783
  759MPD2    N111273   3.872   3.394  10.335 -0.0922 -0.2082 -0.0237
  759MPD2    H711274   3.917   3.390  10.426  0.1664  0.1604 -0.1389
  760MPD2     C11275   3.415   0.149  12.051 -0.7545 -0.2573  0.1263
  760MPD2    C111276   3.544   0.186  12.034 -0.0443 -0.3474  0.3649
  760MPD2    C211277   3.639   0.119  12.103  0.1387  0.4660 -0.0010
  760MPD2    C311278   3.606   0.013  12.188 -0.3918 -0.3917 -0.2694
  760MPD2    C411279   3.469   4.734  12.217  0.5687  0.2133 -0.1314
  760MPD2    C511280   3.375   0.066  12.147 -0.4370  0.9129  0.4340
  760MPD2     H11281   3.744   0.139  12.084  1.2236 -3.4098  1.7790
  760MPD2    H111282   3.432   4.649  12.273  0.0859  0.6110  0.1545
  760MPD2    H211283   3.336   0.200  11.996 -0.6918  0.9579  1.1534
  760MPD2    H311284   3.272   0.046  12.174  0.1618 -1.0191  1.2847
  760MPD2     N11285   3.699   4.665  12.241 -0.1357 -0.0404 -0.3897
  760MPD2    H511286   3.666   4.607  12.317  0.4661 -1.2549 -1.0549
  760MPD2    N111287   3.580   0.294  11.954 -0.0092 -0.2952  0.6683
  760MPD2    H711288   3.670   0.338  11.973 -0.0244 -0.1664  0.4443
  761MPD2     C11289   0.069   3.939  11.570 -0.0666 -0.2295 -0.2655
  761MPD2    C111290   0.164   3.932  11.470 -0.2643  0.2846  0.2600
  761MPD2    C211291   0.273   4.014  11.469  0.4668  0.1750  0.3128
  761MPD2    C311292   0.276   4.114  11.559 -0.8145  0.1265 -0.3542
  761MPD2    C411293   0.185   4.117  11.663 -0.3196 -0.2286  0.0423
  761MPD2    C511294   0.078   4.036  11.670  0.3652  0.6480 -0.1662
  761MPD2     H11295   0.351   4.005  11.394  0.4567  2.9995 -0.0288
  761MPD2    H111296   0.186   4.193  11.741  0.8944 -1.3379  1.1255
  761MPD2    H211297   4.717   3.876  11.571  0.4948 -0.9903  0.5012
  761MPD2    H311298   0.003   4.046  11.747 -0.1297 -2.2732 -0.2583
  761MPD2     N11299   0.379   4.206  11.551  0.8425 -0.0811  1.0727
  761MPD2    H511300   0.386   4.270  11.630  0.1038  0.0066  1.0646
  761MPD2    N111301   0.150   3.836  11.372 -0.1116 -0.3802  0.9885
  761MPD2    H711302   0.072   3.771  11.384 -0.6155 -0.0025 -0.2076
  762MPD2     C11303   0.072   3.495  10.498  0.1461  0.2688  1.0083
  762MPD2    C111304   0.161   3.519  10.598  0.3384 -1.0568  0.6550
  762MPD2    C211305   0.298   3.520  10.555  0.5984 -0.4560 -0.1136
  762MPD2    C311306   0.345   3.489  10.430 -0.2509 -0.4872 -0.0928
  762MPD2    C411307   0.247   3.464  10.334  0.4223 -0.1352  0.3429
  762MPD2    C511308   0.117   3.469  10.370 -0.1195  0.0210 -0.1511
  762MPD2     H11309   0.379   3.556  10.618 -1.0627  2.9930  0.0424
  762MPD2    H111310   0.273   3.441  10.231 -2.3281  0.0648 -0.3984
  762MPD2    H211311   4.703   3.486  10.522 -0.1644  4.4123  1.0996
  762MPD2    H311312   0.042   3.449  10.294 -0.6632 -1.0612  0.6655
  762MPD2     N11313   0.478   3.514  10.386  0.0882 -0.3801 -0.9496
  762MPD2    H511314   0.541   3.559  10.451 -1.1992 -0.1550  0.1415
  762MPD2    N111315   0.117   3.555  10.732  0.5387  0.0584  1.6762
  762MPD2    H711316   0.019   3.564  10.757  0.4918  0.1872  1.4483
  763MPD2     C11317   2.304   0.167  16.183  0.0788 -0.0874 -0.2059
  763MPD2    C111318   2.177   0.165  16.122 -0.3133 -0.2218  0.3586
  763MPD2    C211319   2.100   0.287  16.109  0.5104 -0.3435 -0.0063
  763MPD2    C311320   2.165   0.406  16.136  0.2824  0.2119  0.1194
  763MPD2    C411321   2.297   0.408  16.191  0.0814  0.3788 -0.0656
  763MPD2    C511322   2.361   0.289  16.220  0.0586  0.7668 -0.4918
  763MPD2     H11323   2.007   0.297  16.056 -0.4499  2.0696  2.1047
  763MPD2    H111324   2.359   0.495  16.211 -1.1675  0.8962  1.5376
  763MPD2    H211325   2.359   0.078  16.211  0.2857  0.4183  1.0309
  763MPD2    H311326   2.464   0.293  16.254  0.0804 -1.4301 -0.3521
  763MPD2     N11327   2.110   0.534  16.112 -0.7429 -0.3563  0.3662
  763MPD2    H511328   2.177   0.610  16.118 -0.8763 -0.2806  0.9845
  763MPD2    N111329   2.124   0.049  16.071 -0.5487 -0.1254 -0.1410
  763MPD2    H711330   2.042   0.065  16.013  0.3331  1.8869 -0.8208
  764MPD2     C11331   4.634   2.061  17.661  0.3310 -0.2528  0.0729
  764MPD2    C111332   4.590   1.943  17.606 -0.0954  0.8398  0.4626
  764MPD2    C211333   4.581   1.834  17.690  0.0557 -0.2342  0.2095
  764MPD2    C311334   4.594   1.851   0.086 -0.2344 -0.1491 -0.0069
  764MPD2    C411335   4.624   1.974   0.138  0.4999 -0.3758  0.0447
  764MPD2    C511336   4.651   2.075   0.051  0.2183 -0.4258 -0.2839
  764MPD2     H11337   4.535   1.742  17.656 -0.7503 -0.0268  0.7356
  764MPD2    H111338   4.613   1.997   0.244 -1.0967  0.0905 -0.2307
  764MPD2    H211339   4.648   2.143  17.592 -1.2312  1.1979  1.4654
  764MPD2    H311340   4.675   2.171   0.096  3.6090 -2.2122  1.7553
  764MPD2     N11341   4.565   1.740   0.170  0.4045 -0.1796 -0.0411
  764MPD2    H511342   4.540   1.652   0.127  0.8850  0.3264 -1.3334
  764MPD2    N111343   4.560   1.923  17.472 -0.0316 -0.1633 -0.7944
  764MPD2    H711344   4.542   1.828  17.443  2.0549 -0.6523 -0.4615
  765MPD2     C11345   4.456   4.022  15.609 -0.6883 -1.5127 -0.6036
  765MPD2    C111346   4.496   4.074  15.728  0.3768  0.0380  0.5351
  765MPD2    C211347   4.606   4.015  15.790  0.4807 -0.2066 -0.7784
  765MPD2    C311348   4.685   3.926  15.723  0.0802  0.1124  0.2904
  765MPD2    C411349   4.652   3.882  15.601 -0.0062 -0.1328  0.1221
  765MPD2    C511350   4.528   3.918  15.546  0.6540 -0.0004  0.7889
  765MPD2     H11351   4.634   4.052  15.888  0.7151 -1.1809 -0.4694
  765MPD2    H111352   4.708   3.798  15.561 -0.4210  0.1510 -1.0794
  765MPD2    H211353   4.366   4.061  15.562  1.8016  2.8324 -1.7334
  765MPD2    H311354   4.488   3.873  15.456 -0.9491 -0.1468  1.5732
  765MPD2     N11355   0.066   3.880  15.785  0.3401  0.0764 -0.0754
  765MPD2    H511356   0.095   3.918  15.874 -1.0920  3.0688 -0.8761
  765MPD2    N111357   4.416   4.177  15.784  0.0546  0.2235 -0.8160
  765MPD2    H711358   4.322   4.184  15.747  0.2248 -0.8445 -1.4522
  766MPD2     C11359   3.802   4.356  15.466 -0.8140  0.4280 -0.4369
  766MPD2    C111360   3.935   4.343  15.505 -0.1410 -0.6912  0.0533
  766MPD2    C211361   4.024   4.273  15.419  0.1798 -0.6445  0.3937
  766MPD2    C311362   3.975   4.216  15.302  0.1613 -0.1399  0.3324
  766MPD2    C411363   3.841   4.237  15.266  0.5759 -0.8141  0.0225
  766MPD2    C511364   3.754   4.298  15.350  0.0822  0.4279  0.2978
  766MPD2     H11365   4.129   4.278  15.442  0.4270  2.2511 -1.3070
  766MPD2    H111366   3.805   4.193  15.174  0.8791 -1.1621  0.0699
  766MPD2    H211367   3.726   4.399  15.530  1.3442  2.1100  0.9672
  766MPD2    H311368   3.652   4.314  15.316 -0.6361 -0.7543  1.9010
  766MPD2     N11369   4.059   4.141  15.218  0.0995 -0.0346 -0.8566
  766MPD2    H511370   4.024   4.122  15.124  0.8859  1.1342 -1.3833
  766MPD2    N111371   3.978   4.386  15.632  0.0398  0.2048  0.4059
  766MPD2    H711372   3.919   4.448  15.686 -1.7882 -0.8521 -0.3693
  767MPD2     C11373   3.760   4.638  15.146 -0.3280  0.1603  0.3138
  767MPD2    C111374   3.886   4.591  15.129  0.2992  0.0744  0.2892
  767MPD2    C211375   3.905   4.487  15.042 -0.3081  0.7621 -0.3669
  767MPD2    C311376   3.800   4.441  14.962  0.3589 -0.1388  0.9482
  767MPD2    C411377   3.680   4.493  14.976 -1.4681  0.0807  0.5434
  767MPD2    C511378   3.657   4.590  15.071 -0.4994  0.1003 -0.7547
  767MPD2     H11379   4.000   4.434  15.038 -1.3338 -1.2059  1.1205
  767MPD2    H111380   3.600   4.463  14.910  0.2541  0.4137 -1.6808
  767MPD2    H211381   3.742   4.713  15.222 -1.2757  0.9092 -0.6489
  767MPD2    H311382   3.562   4.641  15.083  0.5253  1.6827  0.8166
  767MPD2     N11383   3.831   4.345  14.864  0.4217  0.3514 -0.2101
  767MPD2    H511384   3.929   4.320  14.853  1.0235  2.8531 -0.4560
  767MPD2    N111385   3.986   4.645  15.212  0.8841  0.4577  0.2971
  767MPD2    H711386   3.974   4.726  15.272 -1.8099  0.3615 -0.1174
  768MPD2     C11387   0.041   2.719  10.381  0.3224 -1.0304  0.4558
  768MPD2    C111388   0.006   2.724  10.513  0.0425  0.5111  0.6301
  768MPD2    C211389   0.069   2.641  10.599  0.0336  0.0622  0.3799
  768MPD2    C311390   0.177   2.556  10.563  0.3425 -0.1096  0.1491
  768MPD2    C411391   0.216   2.559  10.428 -0.3661 -0.1847  0.3969
  768MPD2    C511392   0.148   2.639  10.341  0.4851  0.4096  0.1175
  768MPD2     H11393   0.036   2.634  10.702  0.4602 -0.0698  0.5079
  768MPD2    H111394   0.294   2.494  10.389  0.6318  1.1332  0.2076
  768MPD2    H211395   4.727   2.783  10.309 -1.4047 -2.0149  0.7756
  768MPD2    H311396   0.171   2.637  10.236  0.2686  3.0105 -0.0023
  768MPD2     N11397   0.240   2.490  10.668 -0.4806  0.7657 -0.1304
  768MPD2    H511398   0.216   2.517  10.763 -0.4904  1.0259 -0.2065
  768MPD2    N111399   4.640   2.806  10.567  0.3666 -0.7137 -0.3719
  768MPD2    H711400   4.633   2.799  10.668 -3.1513  2.5555 -0.3877
  769MPD2     C11401   1.044   1.232  14.843 -0.4230 -1.0827  0.3776
  769MPD2    C111402   1.027   1.143  14.946  0.6983 -0.1561 -0.0956
  769MPD2    C211403   1.049   1.194  15.076 -0.5472 -0.1149 -0.0583
  769MPD2    C311404   1.082   1.327  15.094 -0.5267  0.2904 -0.4154
  769MPD2    C411405   1.094   1.415  14.988 -0.5547  0.5219 -0.4605
  769MPD2    C511406   1.072   1.367  14.864  0.6332 -0.4314  0.1129
  769MPD2     H11407   1.037   1.132  15.164 -2.6122 -1.4869 -1.2918
  769MPD2    H111408   1.126   1.519  14.997 -0.7580  0.6412 -1.1136
  769MPD2    H211409   1.028   1.198  14.742 -3.0276 -1.2960  0.8504
  769MPD2    H311410   1.088   1.427  14.775  3.2638 -1.2774  0.0038
  769MPD2     N11411   1.108   1.356  15.226  0.4441 -0.2052 -0.4920
  769MPD2    H511412   1.101   1.281  15.294  0.6546  0.5977  0.4275
  769MPD2    N111413   1.003   1.003  14.911  0.0264 -0.3817  0.3007
  769MPD2    H711414   0.998   0.987  14.811 -1.6060 -0.4463  0.3894
  770MPD2     C11415   0.940   4.695  15.243  0.6833  0.2290 -0.4307
  770MPD2    C111416   0.856   4.700  15.134 -0.0735 -0.7629  0.2841
  770MPD2    C211417   0.843   0.080  15.062  0.0881 -0.1448  0.1769
  770MPD2    C311418   0.916   0.191  15.094 -0.3635 -0.5227  1.0523
  770MPD2    C411419   0.994   0.189  15.210  0.4047  0.1183  0.8413
  770MPD2    C511420   1.012   0.070  15.276  0.3797 -0.3079 -0.0434
  770MPD2     H11421   0.785   0.090  14.971  0.7810  1.4529 -0.1008
  770MPD2    H111422   1.050   0.270  15.254  2.2577 -1.1252  0.7356
  770MPD2    H211423   0.952   4.601  15.296 -1.9558  1.6442  2.6542
  770MPD2    H311424   1.082   0.071  15.358  0.9410 -3.0294 -0.4961
  770MPD2     N11425   0.898   0.310  15.017  0.1046 -0.2519  0.6835
  770MPD2    H511426   0.831   0.309  14.941  1.4302 -0.8006 -0.4745
  770MPD2    N111427   0.789   4.583  15.097  0.5890 -0.2648  0.4636
  770MPD2    H711428   0.836   4.505  15.143 -0.1734  0.1187  1.8994
  771MPD2     C11429   1.787   3.343  14.060 -0.1177 -0.3487  0.6820
  771MPD2    C111430   1.896   3.392  13.988  0.3640  0.0370  0.1781
  771MPD2    C211431   1.924   3.341  13.861 -0.0331  0.2627  0.2599
  771MPD2    C311432   1.840   3.251  13.803 -0.0122 -0.1207  0.1039
  771MPD2    C411433   1.727   3.199  13.875  0.3527  0.6384 -0.1700
  771MPD2    C511434   1.704   3.244  14.006  0.1028  0.0626  0.5801
  771MPD2     H11435   2.008   3.373  13.801 -0.2200 -1.3989 -0.8833
  771MPD2    H111436   1.651   3.139  13.826 -0.8816  1.9022  0.1821
  771MPD2    H211437   1.767   3.371  14.163  1.9922  1.8047  0.5031
  771MPD2    H311438   1.627   3.210  14.073 -1.4067 -1.0119 -1.7039
  771MPD2     N11439   1.858   3.227  13.666 -0.0046 -0.4794  0.6684
  771MPD2    H511440   1.931   3.281  13.621 -1.3013  1.1014  0.4376
  771MPD2    N111441   1.972   3.502  14.031  0.6912  1.2494 -0.1234
  771MPD2    H711442   2.054   3.538  13.982  2.5069 -1.4255  0.9577
  772MPD2     C11443   1.638   4.227  14.207  0.1797  0.0468 -0.1750
  772MPD2    C111444   1.627   4.092  14.178  0.0265 -0.0211  0.0641
  772MPD2    C211445   1.507   4.035  14.155  0.0444  0.5984 -0.0234
  772MPD2    C311446   1.397   4.115  14.162 -0.1867  0.2693 -0.0293
  772MPD2    C411447   1.402   4.242  14.205 -0.0375  0.0943 -0.4937
  772MPD2    C511448   1.526   4.301  14.221  0.3796  0.2289 -0.1459
  772MPD2     H11449   1.489   3.936  14.115 -0.5771  0.7824 -0.2078
  772MPD2    H111450   1.316   4.306  14.226 -0.6941 -0.2058 -2.2854
  772MPD2    H211451   1.732   4.278  14.226 -0.2571  0.6623  0.3390
  772MPD2    H311452   1.535   4.404  14.252 -1.2578  0.9367 -1.9989
  772MPD2     N11453   1.265   4.076  14.139 -0.3556 -0.3906  0.1432
  772MPD2    H511454   1.199   4.153  14.141  0.7004  0.5725 -2.1289
  772MPD2    N111455   1.745   4.010  14.166 -0.7769 -0.3603 -0.3357
  772MPD2    H711456   1.729   3.913  14.143 -0.7171  0.4951 -3.8658
  773MPD2     C11457   0.723   0.481   0.725 -0.0714 -0.1017  0.0522
  773MPD2    C111458   0.780   0.458   0.610  0.1052  0.2116  0.4413
  773MPD2    C211459   0.902   0.396   0.614  0.6270  0.2307  0.9046
  773MPD2    C311460   0.959   0.366   0.734 -0.1077  0.6188  0.0650
  773MPD2    C411461   0.899   0.389   0.852  0.1260 -0.4152 -0.2480
  773MPD2    C511462   0.777   0.437   0.838  0.1339  0.1472  0.7885
  773MPD2     H11463   0.968   0.378   0.530 -1.4098  0.6835 -0.7835
  773MPD2    H111464   0.934   0.357   0.950  2.6960  0.1855 -0.9712
  773MPD2    H211465   0.625   0.524   0.744  0.3152  1.2281 -0.9536
  773MPD2    H311466   0.722   0.450   0.931 -0.4891 -1.5915  0.6731
  773MPD2     N11467   1.088   0.310   0.731 -0.4705 -0.0370  0.0881
  773MPD2    H511468   1.135   0.305   0.641  0.3522  0.3679  0.4921
  773MPD2    N111469   0.716   0.472   0.485 -0.0231  0.0954 -0.0759
  773MPD2    H711470   0.773   0.436   0.408 -0.1334  0.4944 -0.3484
  774MPD2     C11471   0.207   3.509  13.580  0.3810  0.2336 -0.3961
  774MPD2    C111472   0.181   3.620  13.662 -0.5811 -0.4253 -0.0556
  774MPD2    C211473   0.289   3.704  13.686  1.0620 -0.6763  0.6613
  774MPD2    C311474   0.416   3.682  13.633 -0.2681 -0.3015  0.2825
  774MPD2    C411475   0.439   3.566  13.556 -0.2342  0.1704  0.4364
  774MPD2    C511476   0.334   3.484  13.532  0.3742  0.3101  0.1536
  774MPD2     H11477   0.287   3.781  13.761 -1.0348 -0.3099  0.2251
  774MPD2    H111478   0.536   3.539  13.515 -0.6746 -0.1400 -0.3965
  774MPD2    H211479   0.132   3.433  13.557 -0.2837 -0.2677  3.3710
  774MPD2    H311480   0.343   3.391  13.478 -1.0938 -0.3510  1.0693
  774MPD2     N11481   0.511   3.782  13.660 -0.4568  0.0964 -1.1317
  774MPD2    H511482   0.466   3.864  13.698  0.4305 -0.8055  1.8472
  774MPD2    N111483   0.051   3.639  13.717 -0.1451  0.4738 -0.3628
  774MPD2    H711484   4.726   3.558  13.714 -0.9430  1.0157  1.2124
  775MPD2     C11485   1.329   1.102  15.586  0.2987  0.3056  0.0800
  775MPD2    C111486   1.381   1.166  15.702  0.0329 -0.2090  0.0270
  775MPD2    C211487   1.477   1.262  15.690 -0.7324  0.6375 -0.2526
  775MPD2    C311488   1.528   1.297  15.572  0.0463  0.2113  0.1854
  775MPD2    C411489   1.472   1.244  15.460 -0.1699 -0.3480 -0.4934
  775MPD2    C511490   1.376   1.145  15.466  0.3305 -0.2141 -0.8876
  775MPD2     H11491   1.534   1.298  15.775 -0.9722 -1.4856  0.8079
  775MPD2    H111492   1.517   1.270  15.365 -2.1950  3.3373 -0.4428
  775MPD2    H211493   1.257   1.022  15.582 -0.4416  0.9335  0.9147
  775MPD2    H311494   1.348   1.086  15.380  0.3049 -2.2439  0.5070
  775MPD2     N11495   1.646   1.374  15.561  0.2066 -0.0848 -0.2031
  775MPD2    H511496   1.691   1.381  15.470  0.3814  1.1088 -0.0339
  775MPD2    N111497   1.333   1.122  15.826  0.0090 -0.5696 -0.2337
  775MPD2    H711498   1.269   1.043  15.825  0.8435 -1.2252 -1.6915
  776MPD2     C11499   4.367   0.874  11.811 -0.0007  0.2562  0.4605
  776MPD2    C111500   4.503   0.847  11.820 -0.4036  0.2323  0.1529
  776MPD2    C211501   4.596   0.953  11.826 -0.0307 -0.2148  0.0912
  776MPD2    C311502   4.545   1.086  11.811 -0.3165 -0.2327  0.5921
  776MPD2    C411503   4.410   1.092  11.784  0.0444  0.1856  0.1810
  776MPD2    C511504   4.322   0.998  11.788  0.2569 -0.4859  0.0676
  776MPD2     H11505   4.696   0.931  11.861 -0.5515 -1.2509  0.9227
  776MPD2    H111506   4.366   1.190  11.771 -0.2438 -0.0795 -0.8427
  776MPD2    H211507   4.294   0.794  11.815  0.7587 -0.4996 -0.5552
  776MPD2    H311508   4.215   1.016  11.787  0.7339  2.3490 -0.3488
  776MPD2     N11509   4.617   1.201  11.835  0.0135 -0.6688 -0.1423
  776MPD2    H511510   4.572   1.289  11.814  0.0742 -0.0591  2.3509
  776MPD2    N111511   4.537   0.711  11.822  0.2416  0.2833 -0.7040
  776MPD2    H711512   4.460   0.645  11.830  0.7915 -0.3920 -0.9633
  777MPD2     C11513   0.432   3.860   1.057 -0.5233  0.1153 -0.3371
  777MPD2    C111514   0.506   3.766   1.126 -0.3632  0.1759 -0.0376
  777MPD2    C211515   0.512   3.636   1.080 -0.7230 -0.0404 -0.0877
  777MPD2    C311516   0.446   3.604   0.964  0.0135  0.1239 -0.2288
  777MPD2    C411517   0.370   3.699   0.892  0.0594  0.3400 -0.4492
  777MPD2    C511518   0.375   3.826   0.940 -0.1340 -0.5227 -0.1691
  777MPD2     H11519   0.584   3.560   1.110  0.2592  0.6360 -0.7424
  777MPD2    H111520   0.318   3.684   0.798  0.2482  2.7239 -0.9194
  777MPD2    H211521   0.432   3.967   1.075 -1.1888  0.3172 -1.5408
  777MPD2    H311522   0.316   3.904   0.893  1.5654  0.1579 -1.2073
  777MPD2     N11523   0.459   3.470   0.915 -0.4980  0.2832  0.1287
  777MPD2    H511524   0.513   3.404   0.970  0.3663  2.1208  1.4749
  777MPD2    N111525   0.582   3.813   1.233 -0.0036  0.1914 -0.5615
  777MPD2    H711526   0.561   3.907   1.264 -1.1735 -0.5708  0.9734
  778MPD2     C11527   1.920   3.817  15.150  0.3310  0.3994 -0.2184
  778MPD2    C111528   1.858   3.783  15.033  0.0817  0.1084 -0.5520
  778MPD2    C211529   1.867   3.867  14.923 -0.3292  0.0304 -0.1384
  778MPD2    C311530   1.942   3.984  14.929 -0.1194 -0.0555 -0.2483
  778MPD2    C411531   2.004   4.015  15.049  0.9394 -0.1058 -0.0170
  778MPD2    C511532   1.981   3.938  15.158 -0.1087  0.6343 -0.9233
  778MPD2     H11533   1.811   3.830  14.838  0.5137  2.6855 -1.8433
  778MPD2    H111534   2.069   4.101  15.062 -0.9111  1.3292 -0.2227
  778MPD2    H211535   1.915   3.755  15.238  0.5094  0.7678  0.0524
  778MPD2    H311536   2.022   3.960  15.256 -2.3500  3.3560 -0.5891
  778MPD2     N11537   1.962   4.062  14.814  0.2634 -0.0162 -0.1658
  778MPD2    H511538   1.940   4.036  14.718  1.0043 -0.9989 -0.0682
  778MPD2    N111539   1.789   3.662  15.017  0.4671  0.1884  0.1500
  778MPD2    H711540   1.750   3.652  14.924  0.2612  2.9627 -0.0545
  779MPD2     C11541   1.583   2.458  13.881  0.4580 -0.1438 -0.5751
  779MPD2    C111542   1.671   2.421  13.986 -0.5354  0.2657  0.5805
  779MPD2    C211543   1.730   2.522  14.066 -0.1561 -0.2667 -0.5937
  779MPD2    C311544   1.692   2.658  14.052  0.0967 -0.4079 -0.0879
  779MPD2    C411545   1.607   2.693  13.944  0.0715  0.3755 -0.4372
  779MPD2    C511546   1.559   2.590  13.857 -0.1931  0.6094  0.1237
  779MPD2     H11547   1.805   2.505  14.142  0.5767  2.0340 -0.8056
  779MPD2    H111548   1.580   2.796  13.924  0.3996  0.4906 -0.2903
  779MPD2    H211549   1.548   2.393  13.802 -0.4544  0.4790 -0.6812
  779MPD2    H311550   1.492   2.615  13.776 -1.4577 -0.2575  0.8946
  779MPD2     N11551   1.744   2.751  14.136 -0.0227  0.3617 -0.3299
  779MPD2    H511552   1.803   2.716  14.210  0.3085 -0.3848 -0.9478
  779MPD2    N111553   1.701   2.285  14.007 -0.0905 -0.2621 -0.1424
  779MPD2    H711554   1.775   2.275  14.076 -0.1594 -1.9206 -0.2899
  780MPD2     C11555   1.208   2.629   1.065 -0.2926  0.0268  0.1907
  780MPD2    C111556   1.103   2.602   0.980  0.0769 -0.6476 -0.1966
  780MPD2    C211557   1.133   2.607   0.842 -0.1148  0.7164 -0.4967
  780MPD2    C311558   1.249   2.654   0.794  0.2706  0.9500  0.3023
  780MPD2    C411559   1.351   2.677   0.879  0.3093 -0.5349 -0.0662
  780MPD2    C511560   1.325   2.672   1.013  0.3755  0.8494  0.2564
  780MPD2     H11561   1.051   2.594   0.772 -1.4962  2.0458  0.8591
  780MPD2    H111562   1.456   2.695   0.858 -0.1170  0.7042 -1.1452
  780MPD2    H211563   1.205   2.638   1.173  2.1094  0.2492  0.2564
  780MPD2    H311564   1.411   2.696   1.074 -0.1168 -0.1945  1.3627
  780MPD2     N11565   1.267   2.662   0.650 -0.3789  0.0755  0.1998
  780MPD2    H511566   1.202   2.615   0.588  2.4382 -0.2642 -2.4474
  780MPD2    N111567   0.975   2.568   1.034  0.3935 -0.2148 -0.3770
  780MPD2    H711568   0.968   2.553   1.134 -0.2662 -3.4318 -0.9055
  781MPD2     C11569   2.509   4.049  12.136 -0.3754 -0.3032  0.0791
  781MPD2    C111570   2.595   4.073  12.238  0.9337 -0.1548  0.6752
  781MPD2    C211571   2.724   4.117  12.217  0.0651 -0.0517  0.1268
  781MPD2    C311572   2.774   4.140  12.091 -0.8094  0.3402  0.7337
  781MPD2    C411573   2.685   4.124  11.991 -0.7797  0.2841 -0.5391
  781MPD2    C511574   2.554   4.082  12.009 -0.6653  0.4276  0.0630
  781MPD2     H11575   2.792   4.117  12.302 -0.9069  0.3613  0.9062
  781MPD2    H111576   2.723   4.129  11.889 -0.2058 -1.5369 -0.4135
  781MPD2    H211577   2.402   4.032  12.139 -0.8591  2.4533 -0.9002
  781MPD2    H311578   2.490   4.075  11.922 -0.8285 -1.0111  0.3078
  781MPD2     N11579   2.908   4.169  12.057 -0.6316 -0.1631 -0.5249
  781MPD2    H511580   2.936   4.148  11.962  0.1507 -1.2543 -0.0524
  781MPD2    N111581   2.564   4.041  12.373  0.5103  0.2246  0.3047
  781MPD2    H711582   2.645   4.051  12.433 -2.0470 -0.3069  3.8141
  782MPD2     C11583   0.462   0.397  10.317 -0.7616  0.1676 -0.0681
  782MPD2    C111584   0.574   0.321  10.347  0.4997  0.0150 -0.1639
  782MPD2    C211585   0.658   0.357  10.456 -0.2571 -0.1561 -0.5765
  782MPD2    C311586   0.636   0.474  10.524 -0.5584  0.3141  0.2161
  782MPD2    C411587   0.523   0.553  10.490  0.1917 -0.0272 -0.0660
  782MPD2    C511588   0.440   0.506  10.393  0.4785 -0.0136 -0.5276
  782MPD2     H11589   0.731   0.284  10.488 -0.4897  0.3045  0.9785
  782MPD2    H111590   0.477   0.627  10.554  0.7503  0.1712  0.1054
  782MPD2    H211591   0.402   0.380  10.228  0.9702 -1.2725 -0.9463
  782MPD2    H311592   0.348   0.557  10.366 -1.1090 -2.0065  1.1571
  782MPD2     N11593   0.720   0.508  10.632  0.0665  0.3859  0.0753
  782MPD2    H511594   0.799   0.446  10.647  1.5164  2.4517  1.0264
  782MPD2    N111595   0.592   0.198  10.276 -0.0118  0.5661  0.0125
  782MPD2    H711596   0.513   0.160  10.226 -0.5522 -1.7162  2.6048
  783MPD2     C11597   0.411   4.283  10.985 -0.0201 -0.5583 -0.2653
  783MPD2    C111598   0.522   4.366  11.008 -0.2787  0.1909  0.4306
  783MPD2    C211599   0.576   4.434  10.897  0.2666 -0.1975  0.6238
  783MPD2    C311600   0.524   4.422  10.772 -0.3090 -0.1942  0.1376
  783MPD2    C411601   0.406   4.349  10.751 -0.1882  0.1617  0.2588
  783MPD2    C511602   0.354   4.277  10.859  0.2927  0.8245  0.0429
  783MPD2     H11603   0.671   4.483  10.915 -0.4358  1.7949 -1.1534
  783MPD2    H111604   0.354   4.350  10.656 -0.0411 -1.9135  0.1504
  783MPD2    H211605   0.360   4.224  11.060 -0.0942  0.8568  0.8182
  783MPD2    H311606   0.257   4.233  10.845  1.2177 -0.9682 -0.6734
  783MPD2     N11607   0.593   4.486  10.663  0.4766  0.5279  0.2309
  783MPD2    H511608   0.686   4.522  10.680  0.6143  0.2746  0.0107
  783MPD2    N111609   0.575   4.375  11.142  0.5882  0.1484  0.3482
  783MPD2    H711610   0.539   4.305  11.206 -2.6148  1.8379  0.4240
  784MPD2     C11611   3.513   0.738   0.607 -0.3682 -0.5548 -0.6725
  784MPD2    C111612   3.470   0.796   0.723  0.0635 -0.1091  0.9793
  784MPD2    C211613   3.348   0.863   0.724 -0.5003  0.3581  0.5734
  784MPD2    C311614   3.285   0.886   0.602 -0.2481 -0.1811  0.7237
  784MPD2    C411615   3.329   0.819   0.488 -0.0445 -0.2331  0.0303
  784MPD2    C511616   3.442   0.745   0.490 -0.1249 -0.0545  0.0992
  784MPD2     H11617   3.311   0.889   0.822  0.1633 -0.2300  0.9889
  784MPD2    H111618   3.279   0.823   0.392  1.2482  1.9290 -0.5448
  784MPD2    H211619   3.602   0.676   0.605  2.0228  2.9138 -1.9883
  784MPD2    H311620   3.479   0.684   0.408 -0.9506  0.6031 -0.7651
  784MPD2     N11621   3.165   0.960   0.599  0.3396 -0.7401  0.9076
  784MPD2    H511622   3.140   1.004   0.687 -0.9454  0.9416 -0.3043
  784MPD2    N111623   3.541   0.779   0.843  0.1897 -0.4056 -0.3544
  784MPD2    H711624   3.495   0.820   0.923  3.0681 -2.8025  2.5598
  785MPD2     C11625   3.866   3.496  10.960  0.1369 -0.4578  0.3150
  785MPD2    C111626   3.780   3.604  10.943 -0.0150 -0.2562  0.2991
  785MPD2    C211627   3.652   3.581  10.897 -0.6918  1.0557  0.5934
  785MPD2    C311628   3.608   3.458  10.854 -0.1968 -1.1446 -0.3063
  785MPD2    C411629   3.695   3.350  10.860 -0.0071 -0.6779 -0.1531
  785MPD2    C511630   3.818   3.372  10.916  0.1164 -0.1744 -0.6244
  785MPD2     H11631   3.582   3.663  10.892 -0.1986  1.3683 -1.1800
  785MPD2    H111632   3.668   3.252  10.821 -1.9712  0.4858 -1.7503
  785MPD2    H211633   3.965   3.516  11.000  1.5078 -2.3925 -2.1185
  785MPD2    H311634   3.889   3.290  10.924  0.7551  0.3217 -1.1312
  785MPD2     N11635   3.476   3.456  10.798 -0.2120  0.0623 -0.6761
  785MPD2    H511636   3.430   3.545  10.785  0.1150  0.4816  1.1138
  785MPD2    N111637   3.832   3.734  10.962  0.2823 -0.2864  0.0644
  785MPD2    H711638   3.926   3.739  10.999  0.1498  0.4406  0.3035
  786MPD2     C11639   2.363   2.001  14.557  0.3019 -0.6082  0.0081
  786MPD2    C111640   2.330   1.906  14.651  0.4833 -0.2878 -0.7121
  786MPD2    C211641   2.346   1.934  14.785 -0.1212  0.5153 -0.3830
  786MPD2    C311642   2.387   2.061  14.820  0.0427 -0.1958 -1.0007
  786MPD2    C411643   2.427   2.150  14.724 -0.3560  0.7883 -0.3651
  786MPD2    C511644   2.416   2.120  14.595  0.3979  0.1267  0.1842
  786MPD2     H11645   2.318   1.858  14.858  0.8767 -0.3535 -0.8979
  786MPD2    H111646   2.459   2.251  14.748 -1.2016  0.7158  1.0460
  786MPD2    H211647   2.360   1.990  14.449 -0.7433 -0.6808  0.0486
  786MPD2    H311648   2.445   2.191  14.519  3.0503 -0.9046  0.2196
  786MPD2     N11649   2.404   2.106  14.952  0.1282  0.2797 -0.1134
  786MPD2    H511650   2.446   2.198  14.962 -1.2641  0.9552 -0.5152
  786MPD2    N111651   2.282   1.780  14.617  0.8160 -0.4844  0.0945
  786MPD2    H711652   2.266   1.712  14.691 -0.0252 -2.1785 -1.6384
  787MPD2     C11653   2.598   1.299  14.822  0.0476 -0.2558  0.5644
  787MPD2    C111654   2.563   1.264  14.695 -0.1146  0.5646  0.9608
  787MPD2    C211655   2.610   1.148  14.639 -0.2528 -0.5229 -0.0523
  787MPD2    C311656   2.709   1.076  14.707  0.0796  0.4362 -0.5185
  787MPD2    C411657   2.744   1.107  14.834  0.5809  0.5534 -0.2561
  787MPD2    C511658   2.675   1.211  14.894  0.2356 -0.1115  0.9241
  787MPD2     H11659   2.588   1.111  14.539  1.0227 -1.9793  0.1987
  787MPD2    H111660   2.825   1.076  14.900  0.6227 -1.0654 -1.0491
  787MPD2    H211661   2.542   1.379  14.870 -0.0171 -0.5729  1.0266
  787MPD2    H311662   2.698   1.234  14.998  0.9592 -0.2073  0.7789
  787MPD2     N11663   2.782   0.983  14.639 -0.0211 -0.3386 -0.0464
  787MPD2    H511664   2.759   0.982  14.540  0.4655  0.4950 -0.1623
  787MPD2    N111665   2.450   1.330  14.641 -0.2335  0.0230 -1.0066
  787MPD2    H711666   2.417   1.418  14.681  1.8688 -0.3082  1.4268
  788MPD2     C11667   4.306   0.900   1.137  0.9343  0.5218 -0.0519
  788MPD2    C111668   4.328   0.799   1.049  0.2492 -0.3764  0.3751
  788MPD2    C211669   4.368   0.832   0.918 -0.2167 -0.4139  0.1725
  788MPD2    C311670   4.373   0.965   0.873  0.2351 -0.4740 -0.0257
  788MPD2    C411671   4.336   1.056   0.966  0.5057  0.3427  0.1161
  788MPD2    C511672   4.311   1.028   1.096  0.5142 -0.4521  0.0063
  788MPD2     H11673   4.403   0.755   0.849  1.9690  0.5540  0.2101
  788MPD2    H111674   4.335   1.162   0.944 -0.4214 -0.1806 -2.3871
  788MPD2    H211675   4.286   0.894   1.243 -1.7984 -0.4083 -0.6320
  788MPD2    H311676   4.287   1.108   1.165 -0.1118 -1.0762  0.5174
  788MPD2     N11677   4.390   1.000   0.731 -0.4415  0.6191  0.5313
  788MPD2    H511678   4.367   1.097   0.709 -0.8183  0.8119  1.7692
  788MPD2    N111679   4.318   0.659   1.091 -0.0785 -1.0639 -0.3956
  788MPD2    H711680   4.290   0.647   1.188 -0.1905  0.9785 -0.1791
  789MPD2     C11681   4.553   4.350  16.892  0.2930  0.3173  0.3785
  789MPD2    C111682   4.481   4.358  16.774 -0.5697 -0.1190  0.3429
  789MPD2    C211683   4.371   4.445  16.780  0.2913  0.2318 -0.3217
  789MPD2    C311684   4.333   4.515  16.897  0.0315 -0.8760  0.9687
  789MPD2    C411685   4.411   4.507  17.007  0.7657  0.5695 -0.1385
  789MPD2    C511686   4.517   4.421  17.005 -0.1252 -0.0206  0.1366
  789MPD2     H11687   4.310   4.446  16.691  1.6431  1.0026 -1.2397
  789MPD2    H111688   4.385   4.562  17.097  2.0246  1.6104 -0.4093
  789MPD2    H211689   4.638   4.284  16.903  0.5879  0.0306 -3.6482
  789MPD2    H311690   4.581   4.417  17.092 -1.2271  1.0454  1.0088
  789MPD2     N11691   4.216   4.594  16.902  0.3234 -0.0456  0.3424
  789MPD2    H511692   4.205   4.630  16.996 -0.5221  0.2120  0.1453
  789MPD2    N111693   4.510   4.299  16.647 -0.2441 -0.3435 -0.9928
  789MPD2    H711694   4.446   4.314  16.570  2.7870 -1.8179 -3.7964
  790MPD2     C11695   0.511   1.179  13.896  0.4626  0.3622  0.6060
  790MPD2    C111696   0.599   1.086  13.857 -0.1076 -0.3116 -0.4134
  790MPD2    C211697   0.604   1.042  13.725 -0.2750 -0.3061  0.2000
  790MPD2    C311698   0.508   1.084  13.637  0.4522  0.1909  0.3538
  790MPD2    C411699   0.418   1.181  13.674 -0.5586 -0.5820 -0.1751
  790MPD2    C511700   0.419   1.229  13.805  0.4209  0.1146 -0.0017
  790MPD2     H11701   0.677   0.968  13.692 -0.8675 -0.7502 -0.1038
  790MPD2    H111702   0.347   1.211  13.598  0.5001 -1.0663 -1.3694
  790MPD2    H211703   0.510   1.212  13.999  2.7879 -0.6748  0.9475
  790MPD2    H311704   0.354   1.313  13.829 -0.1759 -0.8596  1.7729
  790MPD2     N11705   0.503   1.040  13.503 -0.4154 -0.0110  0.2878
  790MPD2    H511706   0.437   1.089  13.445 -1.3145  1.1778  2.3268
  790MPD2    N111707   0.684   1.033  13.955 -0.1607  0.1386 -1.0809
  790MPD2    H711708   0.687   1.077  14.047  2.5358  0.0126 -1.1009
  791MPD2     C11709   4.722   1.046  12.891  0.3815 -0.3732 -0.6564
  791MPD2    C111710   0.029   0.957  12.982 -0.7476  0.1245  0.5188
  791MPD2    C211711   4.688   0.845  13.006  0.4357  0.1025 -0.3957
  791MPD2    C311712   4.568   0.813  12.941  0.3945  0.3937 -0.2025
  791MPD2    C411713   4.519   0.915  12.864  0.3872  0.6072  0.0843
  791MPD2    C511714   4.593   1.029  12.845 -0.2805 -0.1752 -0.6761
  791MPD2     H11715   4.722   0.774  13.080  0.9600  1.3311  0.5371
  791MPD2    H111716   4.413   0.919  12.842  0.4024 -0.1988 -0.1381
  791MPD2    H211717   0.031   1.144  12.876  0.2613  0.0351  1.7553
  791MPD2    H311718   4.547   1.109  12.790  0.6768 -0.7309 -2.2760
  791MPD2     N11719   4.501   0.691  12.964  0.4842  0.8909  0.1707
  791MPD2    H511720   4.552   0.620  13.015  0.1732 -0.7585 -1.8070
  791MPD2    N111721   0.157   0.987  13.039  0.2799  0.6287 -0.2198
  791MPD2    H711722   0.218   1.051  12.990 -0.4054  1.4764  0.0555
  792MPD2     C11723   0.917   1.405  11.371  0.3956  0.4202  0.2399
  792MPD2    C111724   0.880   1.351  11.248 -0.0280  0.3630 -0.4892
  792MPD2    C211725   0.747   1.312  11.232 -0.5448  0.4700  0.7555
  792MPD2    C311726   0.654   1.310  11.337  0.1139 -0.0810 -0.2784
  792MPD2    C411727   0.689   1.370  11.454 -0.1945 -0.3379  0.0575
  792MPD2    C511728   0.818   1.417  11.467  0.2969  1.2301 -0.2590
  792MPD2     H11729   0.722   1.264  11.138 -0.9410 -0.9771  1.6088
  792MPD2    H111730   0.615   1.395  11.529  0.6319  2.8036 -0.1633
  792MPD2    H211731   1.018   1.439  11.391  0.1642  0.4482  1.3670
  792MPD2    H311732   0.846   1.479  11.552  0.3269 -1.0775  1.3915
  792MPD2     N11733   0.525   1.253  11.316 -0.5894 -0.2674  0.6230
  792MPD2    H511734   0.455   1.278  11.386 -0.5663  0.9500  0.2144
  792MPD2    N111735   0.980   1.350  11.150  0.1870  0.1606 -0.6909
  792MPD2    H711736   1.070   1.385  11.181  0.7063 -3.5472  2.0504
  793MPD2     C11737   0.143   0.821  10.526  0.2820 -0.3144  0.8748
  793MPD2    C111738   0.276   0.860  10.559 -0.1934 -0.4926  0.3912
  793MPD2    C211739   0.309   0.889  10.696  0.7232  0.2195  0.2258
  793MPD2    C311740   0.212   0.887  10.794  0.0800 -0.0905  0.1929
  793MPD2    C411741   0.085   0.852  10.761 -0.1045  0.3041 -0.5572
  793MPD2    C511742   0.053   0.826  10.624 -0.2545  0.1103  0.1120
  793MPD2     H11743   0.404   0.927  10.732  1.2729  0.3847 -1.3719
  793MPD2    H111744   0.002   0.854  10.831 -0.3438 -0.0719 -0.8286
  793MPD2    H211745   0.108   0.799  10.426 -1.5345  1.1387  1.1981
  793MPD2    H311746   4.691   0.790  10.594  0.2690 -0.6242 -0.6958
  793MPD2     N11747   0.246   0.924  10.925  0.1870  0.3223 -0.3787
  793MPD2    H511748   0.338   0.959  10.951  1.5378 -3.5549  0.1071
  793MPD2    N111749   0.378   0.889  10.466 -0.1934 -0.5898 -0.5068
  793MPD2    H711750   0.457   0.939  10.506 -0.3945  2.0449 -3.4570
  794MPD2     C11751   0.197   0.972  17.738 -0.2906  0.2468  0.4092
  794MPD2    C111752   0.251   0.865  17.664 -0.1318 -0.7741  0.1669
  794MPD2    C211753   0.240   0.856  17.526 -0.5168  0.5721 -0.3513
  794MPD2    C311754   0.177   0.955  17.459 -0.0978  0.7758  0.4201
  794MPD2    C411755   0.124   1.068  17.528 -0.1586 -0.0358  0.1716
  794MPD2    C511756   0.140   1.077  17.661  0.1344  0.1234 -0.0968
  794MPD2     H11757   0.284   0.773  17.472  2.1820  1.5104  0.4311
  794MPD2    H111758   0.068   1.145  17.476 -0.3338 -0.9465 -1.0021
  794MPD2    H211759   0.189   0.981   0.105 -1.6384 -1.0901  0.4069
  794MPD2    H311760   0.085   1.160  17.704  0.4719 -0.2181  0.9833
  794MPD2     N11761   0.156   0.960  17.320 -0.0533 -0.2416 -0.4611
  794MPD2    H511762   0.111   1.044  17.286 -0.8419  0.1492  1.5993
  794MPD2    N111763   0.329   0.765  17.720 -0.3640  0.1432  0.5403
  794MPD2    H711764   0.363   0.685  17.669 -0.3751  0.5250 -0.0565
  795MPD2     C11765   3.057   2.803  13.531  0.2505 -0.4074 -0.1947
  795MPD2    C111766   2.991   2.686  13.565 -0.2643 -0.1376 -0.2269
  795MPD2    C211767   3.062   2.578  13.613  0.5922 -0.4485  0.6072
  795MPD2    C311768   3.203   2.577  13.608  0.2311 -0.0915  0.0524
  795MPD2    C411769   3.266   2.699  13.576  0.7936 -0.6385 -0.2671
  795MPD2    C511770   3.191   2.805  13.544  0.0100  0.7954 -0.6173
  795MPD2     H11771   3.011   2.486  13.642 -1.4624  0.6183  0.3364
  795MPD2    H111772   3.372   2.717  13.581  0.7180  0.3330 -2.5515
  795MPD2    H211773   3.015   2.897  13.497 -0.0902 -0.4777  0.0376
  795MPD2    H311774   3.242   2.898  13.522 -1.9258  1.9695 -0.1584
  795MPD2     N11775   3.288   2.465  13.645 -0.4625 -0.1333 -0.3559
  795MPD2    H511776   3.389   2.468  13.634 -0.6642  2.4909 -1.4695
  795MPD2    N111777   2.855   2.661  13.536  0.3026 -0.7997 -0.1665
  795MPD2    H711778   2.821   2.570  13.564 -0.0169 -1.3865 -2.4519
  796MPD2     C11779   2.708   4.188  15.847 -0.1361  0.8947 -0.2218
  796MPD2    C111780   2.730   4.268  15.953  0.3736 -0.5465  0.1999
  796MPD2    C211781   2.659   4.386  15.951  0.4679  0.2218 -0.6538
  796MPD2    C311782   2.575   4.424  15.844 -0.1055  0.7193 -0.0297
  796MPD2    C411783   2.566   4.350  15.737  0.2436  0.5564  0.6343
  796MPD2    C511784   2.623   4.225  15.743  0.1026 -0.3140  0.2586
  796MPD2     H11785   2.663   4.454  16.035 -2.7715  0.0699 -0.3686
  796MPD2    H111786   2.506   4.384  15.653 -0.4748  2.0789  1.7567
  796MPD2    H211787   2.739   4.085  15.838  0.3957  0.7938  2.7818
  796MPD2    H311788   2.610   4.153  15.663  1.5949 -1.1296  0.7672
  796MPD2     N11789   2.525   4.559  15.850 -0.6857 -0.4455  0.0092
  796MPD2    H511790   2.554   4.622  15.923  4.0996 -0.7483 -1.6102
  796MPD2    N111791   2.811   4.217  16.052  0.4337 -0.6306  0.2744
  796MPD2    H711792   2.850   4.123  16.043 -1.9304 -1.6257  0.4161
  797MPD2     C11793   3.534   3.931  17.731 -0.5855  0.1413 -0.3366
  797MPD2    C111794   3.648   4.007  17.691  0.3700  0.1702  0.2066
  797MPD2    C211795   3.627   4.111  17.608  0.4997  0.2476  0.0578
  797MPD2    C311796   3.504   4.132  17.553 -0.1597 -0.7855 -0.3640
  797MPD2    C411797   3.390   4.057  17.578 -0.0497  0.3277  0.2259
  797MPD2    C511798   3.416   3.957  17.666  0.7895  0.4541 -1.0527
  797MPD2     H11799   3.714   4.166  17.573 -0.1936  0.1857 -1.7407
  797MPD2    H111800   3.295   4.076  17.530  0.0977  1.3989  0.3563
  797MPD2    H211801   3.545   3.855   0.066  1.1598 -0.7425 -1.4738
  797MPD2    H311802   3.331   3.893  17.683  1.2431 -0.2053 -1.2759
  797MPD2     N11803   3.506   4.251  17.473  1.0835 -0.1410 -0.2584
  797MPD2    H511804   3.587   4.312  17.472  2.1019 -1.4983  0.1023
  797MPD2    N111805   3.779   3.976  17.738  0.2379  0.6736  0.1133
  797MPD2    H711806   3.859   4.018  17.691  1.2416 -0.8553  0.4370
  798MPD2     C11807   4.117   4.522  17.317 -0.4577 -0.2451 -1.0456
  798MPD2    C111808   4.009   4.460  17.376 -0.5741 -0.3175  0.6960
  798MPD2    C211809   4.028   4.357  17.467 -0.6723 -0.5567 -0.4434
  798MPD2    C311810   4.152   4.320  17.511 -0.8461 -0.3539  0.3785
  798MPD2    C411811   4.257   4.390  17.455 -0.2680  0.6176 -0.3109
  798MPD2    C511812   4.240   4.484  17.361 -0.3393 -0.0524 -0.0699
  798MPD2     H11813   3.940   4.309  17.507 -1.7335  1.0483 -0.8673
  798MPD2    H111814   4.356   4.359  17.487  0.6481  0.8815 -2.8880
  798MPD2    H211815   4.118   4.603  17.245 -2.4241  2.9078  2.5034
  798MPD2    H311816   4.331   4.525  17.318 -1.6340  0.1249 -2.6298
  798MPD2     N11817   4.164   4.212  17.597 -0.3907 -0.1978  0.5782
  798MPD2    H511818   4.255   4.218  17.642 -1.2329  2.0989  1.9872
  798MPD2    N111819   3.879   4.499  17.331 -0.2964 -0.7812 -0.0723
  798MPD2    H711820   3.877   4.558  17.248 -2.8398  0.7711  1.0881
  799MPD2     C11821   2.282   0.800  14.889 -0.0628 -0.6745 -0.6202
  799MPD2    C111822   2.241   0.712  14.795  0.2883 -0.2467 -0.3339
  799MPD2    C211823   2.243   0.756  14.670  1.3286  0.0483 -0.2984
  799MPD2    C311824   2.280   0.884  14.632 -0.5735 -0.2781 -0.1101
  799MPD2    C411825   2.313   0.974  14.728  0.8225  0.0976  0.5327
  799MPD2    C511826   2.316   0.926  14.852  0.0782  0.0006 -0.2589
  799MPD2     H11827   2.234   0.678  14.596  0.0170 -0.0497 -0.0288
  799MPD2    H111828   2.341   1.078  14.710  0.6082  0.0317 -0.1912
  799MPD2    H211829   2.287   0.778  14.995  2.1017  0.2546 -0.5220
  799MPD2    H311830   2.352   0.997  14.926 -1.2562  1.1024 -0.6791
  799MPD2     N11831   2.284   0.926  14.496 -0.2043  0.2130  0.7756
  799MPD2    H511832   2.332   1.014  14.477  0.9386 -0.6808 -0.4812
  799MPD2    N111833   2.218   0.573  14.827  0.5693 -0.1116 -0.2862
  799MPD2    H711834   2.187   0.508  14.756  1.1891 -2.0347  1.2031
  800MPD2     C11835   2.901   2.021  14.332  0.5460  0.5361 -0.0495
  800MPD2    C111836   3.001   1.934  14.318  0.8224 -0.4235  0.0259
  800MPD2    C211837   2.980   1.829  14.231 -0.6540 -0.8274  0.3568
  800MPD2    C311838   2.861   1.802  14.165  0.6368 -0.3339 -0.9158
  800MPD2    C411839   2.758   1.897  14.185 -0.5083 -0.3569 -0.1929
  800MPD2    C511840   2.785   2.008  14.263  0.2621  0.3229 -0.8931
  800MPD2     H11841   3.066   1.765  14.214  0.7643  0.8269  1.3766
  800MPD2    H111842   2.659   1.890  14.142 -0.5882 -0.9701  0.0869
  800MPD2    H211843   2.914   2.114  14.386  0.0728  0.2526  0.5462
  800MPD2    H311844   2.710   2.080  14.293 -2.0150 -2.3960 -0.0538
  800MPD2     N11845   2.853   1.681  14.092 -0.5650 -0.2807  0.0176
  800MPD2    H511846   2.938   1.625  14.095 -0.2838  0.1317 -0.2259
  800MPD2    N111847   3.115   1.952  14.402  0.0151  0.3646  0.4265
  800MPD2    H711848   3.104   2.035  14.458  0.5526  1.3199 -0.8901
  801MPD2     C11849   3.342   2.471  14.841  0.4090  0.3620  0.6036
  801MPD2    C111850   3.267   2.403  14.748 -0.3146 -0.4854 -0.0669
  801MPD2    C211851   3.139   2.450  14.723 -0.3374 -0.3300  0.2224
  801MPD2    C311852   3.087   2.564  14.783 -0.3439  0.5074  0.8335
  801MPD2    C411853   3.163   2.624  14.878 -0.1584 -0.4629 -0.0299
  801MPD2    C511854   3.289   2.582  14.896 -0.1050  0.2808 -0.1553
  801MPD2     H11855   3.071   2.397  14.657 -0.0354  1.5809 -1.6356
  801MPD2    H111856   3.133   2.720  14.919 -0.1751 -0.3701 -0.2554
  801MPD2    H211857   3.441   2.438  14.869  0.4096 -0.0300  0.1384
  801MPD2    H311858   3.342   2.626  14.980  0.2679 -1.2344  0.4169
  801MPD2     N11859   2.961   2.610  14.752 -0.3899  0.6652 -0.0983
  801MPD2    H511860   2.942   2.702  14.791 -1.7243  0.2385  0.2521
  801MPD2    N111861   3.308   2.298  14.668  0.0397  0.3682  0.6140
  801MPD2    H711862   3.242   2.255  14.604  0.4341 -1.3879  1.3734
  802MPD2     C11863   2.374   3.075   0.419  0.3927 -0.1511 -0.5806
  802MPD2    C111864   2.356   3.134   0.294  0.7236 -0.6396 -0.4817
  802MPD2    C211865   2.402   3.063   0.184 -0.5194  0.6487  0.6131
  802MPD2    C311866   2.450   2.938   0.199  0.5589  0.8432 -0.5072
  802MPD2    C411867   2.469   2.878   0.324  0.2655 -0.1010  0.1184
  802MPD2    C511868   2.428   2.954   0.429  0.1376 -0.0209 -0.7746
  802MPD2     H11869   2.382   3.101   0.085  1.2063  2.0724  0.8166
  802MPD2    H111870   2.500   2.776   0.341  0.6407  0.0286  0.2073
  802MPD2    H211871   2.331   3.121   0.507  0.1245  0.4840 -1.0394
  802MPD2    H311872   2.426   2.896   0.521 -1.0074  1.5495  0.1935
  802MPD2     N11873   2.476   2.873   0.076 -0.4215 -0.1434  0.3397
  802MPD2    H511874   2.452   2.924  17.733  0.9713  1.6610  1.0216
  802MPD2    N111875   2.282   3.254   0.282 -0.5423 -0.3971 -0.2503
  802MPD2    H711876   2.239   3.284   0.369  0.5116  2.6806 -0.8164
  803MPD2     C11877   2.894   0.616  12.305 -0.0656  0.4403 -0.2052
  803MPD2    C111878   2.987   0.711  12.343  0.7551  0.1622 -0.4026
  803MPD2    C211879   3.040   0.711  12.470 -0.9004  0.0105  0.6015
  803MPD2    C311880   3.005   0.612  12.560  0.1541 -0.0950 -0.2722
  803MPD2    C411881   2.921   0.509  12.524  0.0534 -0.0201  0.2092
  803MPD2    C511882   2.863   0.514  12.395  0.2250 -0.1101 -0.2971
  803MPD2     H11883   3.108   0.789  12.499 -0.7240  1.0110 -2.4924
  803MPD2    H111884   2.886   0.428  12.587 -0.4455  0.7654  0.9430
  803MPD2    H211885   2.849   0.608  12.207 -3.1792  0.7781  1.1823
  803MPD2    H311886   2.801   0.430  12.365 -1.8786  0.5645  2.1474
  803MPD2     N11887   3.057   0.604  12.692  0.3431  0.3299 -0.1686
  803MPD2    H511888   3.041   0.524  12.752  1.9959  0.1075 -0.0241
  803MPD2    N111889   3.026   0.819  12.262  0.4981  0.2335  0.7037
  803MPD2    H711890   3.099   0.879  12.299  0.3354  2.2706 -2.2135
  804MPD2     C11891   2.862   2.345  16.677 -0.1581  0.0126 -0.1614
  804MPD2    C111892   2.838   2.347  16.812 -0.0939  0.7889 -0.7175
  804MPD2    C211893   2.910   2.443  16.883 -0.2061  0.0287  0.0489
  804MPD2    C311894   3.000   2.528  16.820 -0.2350 -0.1442  0.2018
  804MPD2    C411895   3.013   2.531  16.679 -0.1229 -0.5422  0.0680
  804MPD2    C511896   2.944   2.434  16.612  0.0745 -0.6510 -0.5655
  804MPD2     H11897   2.907   2.448  16.991 -1.4740  0.6817 -0.0066
  804MPD2    H111898   3.090   2.587  16.625 -0.6881 -0.7019 -0.9073
  804MPD2    H211899   2.831   2.266  16.609 -0.6074  0.1745 -0.1459
  804MPD2    H311900   2.964   2.426  16.506  0.9188 -1.0046 -0.3787
  804MPD2     N11901   3.061   2.619  16.903 -0.6245  0.2994  0.2658
  804MPD2    H511902   3.029   2.641  16.997 -0.7675  0.2160  0.2368
  804MPD2    N111903   2.779   2.241  16.880 -0.5041  0.3198 -0.6722
  804MPD2    H711904   2.789   2.256  16.980  0.6158 -0.5424 -0.6454
  805MPD2     C11905   1.934   1.199  15.695  0.5090  0.4062  0.4720
  805MPD2    C111906   2.054   1.166  15.626 -0.3197  0.1702 -0.3145
  805MPD2    C211907   2.178   1.196  15.683  0.3449  0.2569  0.2654
  805MPD2    C311908   2.180   1.254  15.812 -0.1880  0.4190  0.0846
  805MPD2    C411909   2.061   1.293  15.873 -0.3344  0.5001  0.1909
  805MPD2    C511910   1.941   1.267  15.813 -0.1939 -0.0496 -0.1797
  805MPD2     H11911   2.267   1.164  15.631  0.6548 -0.2742  1.1199
  805MPD2    H111912   2.071   1.352  15.963 -2.8505  0.5514  0.4480
  805MPD2    H211913   1.835   1.171  15.662  1.1666 -1.5740  0.1728
  805MPD2    H311914   1.847   1.285  15.865  0.0194 -0.2454  0.2767
  805MPD2     N11915   2.305   1.268  15.870 -0.5600 -0.3241 -0.1527
  805MPD2    H511916   2.383   1.240  15.812  0.4128  0.5004  0.7760
  805MPD2    N111917   2.064   1.101  15.503 -0.3385  0.4604 -0.3494
  805MPD2    H711918   2.154   1.073  15.467 -0.6971 -3.0746  1.5291
  806MPD2     C11919   2.476   0.385   0.227  0.1719 -0.1165 -0.6693
  806MPD2    C111920   2.435   0.484   0.313 -0.0363  0.0633  0.4842
  806MPD2    C211921   2.450   0.612   0.265  0.6769  0.0163 -0.1087
  806MPD2    C311922   2.493   0.644   0.134 -0.3317 -0.1804  0.3385
  806MPD2    C411923   2.536   0.544   0.054  0.3446 -0.3069 -1.1378
  806MPD2    C511924   2.524   0.419   0.100  0.3194 -0.4831  0.0785
  806MPD2     H11925   2.416   0.701   0.317  0.8244  0.0581 -0.0845
  806MPD2    H111926   2.571   0.563  17.694 -1.4926 -1.1941 -1.9489
  806MPD2    H211927   2.463   0.282   0.259  3.3721 -0.5419 -0.7604
  806MPD2    H311928   2.559   0.338   0.038  1.5753  0.7431 -0.8010
  806MPD2     N11929   2.504   0.782   0.103  0.0161 -0.4964  0.9254
  806MPD2    H511930   2.494   0.856   0.172 -0.7596 -0.9636  1.3188
  806MPD2    N111931   2.375   0.441   0.438  0.4763  0.8954  0.0824
  806MPD2    H711932   2.383   0.343   0.464  1.4593  0.7220 -0.9022
  807MPD2     C11933   2.245   4.547   0.753 -0.9160  0.0829 -0.0992
  807MPD2    C111934   2.239   4.625   0.868  0.3439 -0.3455  0.2994
  807MPD2    C211935   2.234   4.564   0.991 -0.0721 -0.0034 -0.2718
  807MPD2    C311936   2.242   4.427   1.006  0.0371  0.5982  0.8755
  807MPD2    C411937   2.252   4.348   0.891 -0.1752 -0.1792 -0.1505
  807MPD2    C511938   2.247   4.407   0.767  0.5522 -0.2779 -0.9030
  807MPD2     H11939   2.233   4.624   1.082  1.3358 -1.1342  0.4763
  807MPD2    H111940   2.249   4.240   0.897 -2.6853 -0.2039 -1.8669
  807MPD2    H211941   2.213   4.590   0.659  0.5344 -0.8901 -1.0393
  807MPD2    H311942   2.237   4.335   0.686 -0.1583  1.3727 -2.2999
  807MPD2     N11943   2.256   4.373   1.137  0.9019  0.4062  0.4276
  807MPD2    H511944   2.242   4.432   1.218  0.8082  0.9488  0.0136
  807MPD2    N111945   2.245   0.032   0.865 -0.5272  0.1276 -0.1369
  807MPD2    H711946   2.229   0.084   0.950 -0.5341 -0.7357  0.3978
  808MPD2     C11947   2.938   1.735   9.792 -0.9744 -0.0635  0.9465
  808MPD2    C111948   3.007   1.744   9.913  0.2782  0.1145 -0.7276
  808MPD2    C211949   3.089   1.858   9.928 -0.5150 -0.3390 -0.5142
  808MPD2    C311950   3.104   1.953   9.831 -0.7057  0.1970  0.1439
  808MPD2    C411951   3.046   1.928   9.706  0.5594  0.4581 -0.4104
  808MPD2    C511952   2.965   1.823   9.694  0.2742  0.8052  0.7855
  808MPD2     H11953   3.147   1.862  10.019 -0.2601 -1.0480 -0.6445
  808MPD2    H111954   3.036   1.994   9.620 -1.5736  0.2722 -0.3054
  808MPD2    H211955   2.867   1.654   9.778  1.1383 -1.8464  0.4372
  808MPD2    H311956   2.908   1.824   9.602  1.7648  0.2826 -0.1332
  808MPD2     N11957   3.180   2.073   9.848  0.2183 -1.1003 -0.4343
  808MPD2    H511958   3.197   2.139   9.773  0.1389 -0.9754 -0.3418
  808MPD2    N111959   3.004   1.659  10.026  0.2942  0.4134  0.0005
  808MPD2    H711960   3.068   1.683  10.100  2.0336  1.3783 -1.8013
  809MPD2     C11961   3.723   2.118   9.288  0.0361 -0.1380 -0.3360
  809MPD2    C111962   3.804   2.154   9.387  0.1360 -0.3448  0.1191
  809MPD2    C211963   3.753   2.196   9.509  0.2739  0.7586 -0.7944
  809MPD2    C311964   3.614   2.210   9.521 -0.3811  0.5727 -0.6342
  809MPD2    C411965   3.528   2.177   9.418  0.9215 -0.4607 -0.1751
  809MPD2    C511966   3.584   2.131   9.304  0.2788  0.0087  0.0992
  809MPD2     H11967   3.820   2.212   9.593 -0.6172  0.9222 -0.1156
  809MPD2    H111968   3.420   2.178   9.417  0.9138 -1.8322  0.0688
  809MPD2    H211969   3.759   2.102   9.187  0.7043 -0.4495 -0.0477
  809MPD2    H311970   3.527   2.127   9.212  1.2432  0.1151 -0.5106
  809MPD2     N11971   3.548   2.253   9.638 -0.4357  0.2572 -0.3779
  809MPD2    H511972   3.447   2.262   9.641 -0.5523 -1.7398  1.2217
  809MPD2    N111973   3.943   2.155   9.376 -0.3289  0.6401 -0.7389
  809MPD2    H711974   3.997   2.177   9.459 -0.5856  0.3018 -0.4813
  810MPD2     C11975   2.300   1.131  11.111 -0.4788  0.2732 -1.1571
  810MPD2    C111976   2.361   1.117  10.987 -0.5344  0.4423  0.3128
  810MPD2    C211977   2.450   1.209  10.944  0.0850  0.3896  0.0546
  810MPD2    C311978   2.486   1.316  11.015 -0.0482 -0.0107  0.8197
  810MPD2    C411979   2.423   1.337  11.135 -0.0240 -0.4621 -0.4261
  810MPD2    C511980   2.338   1.241  11.186 -0.4804 -0.0971  0.2576
  810MPD2     H11981   2.502   1.178  10.854  1.9446 -0.8105  1.5468
  810MPD2    H111982   2.437   1.420  11.203  1.3376  0.0919 -1.3800
  810MPD2    H211983   2.216   1.074  11.149  0.2869  0.6100  1.0633
  810MPD2    H311984   2.289   1.258  11.281  2.5286 -0.5920  1.8955
  810MPD2     N11985   2.573   1.416  10.965  0.7974  0.4568 -0.9623
  810MPD2    H511986   2.580   1.498  11.024  0.3749  0.4218 -0.8609
  810MPD2    N111987   2.312   1.014  10.901  0.5964  0.1934  0.2203
  810MPD2    H711988   2.239   0.955  10.939 -0.3554  0.5563 -1.0533
  811MPD2     C11989   2.016   0.992  10.117 -0.8577  0.3276 -0.7815
  811MPD2    C111990   2.117   1.031  10.200  0.3504 -0.1036 -0.1950
  811MPD2    C211991   2.183   1.154  10.173  0.3682  0.4068 -0.7099
  811MPD2    C311992   2.131   1.250  10.084  0.4013  0.3337  0.4856
  811MPD2    C411993   2.029   1.211  10.014  0.1973  0.4511 -0.1869
  811MPD2    C511994   1.973   1.084  10.023 -0.0454  0.3634  0.0509
  811MPD2     H11995   2.279   1.176  10.218  0.1973  1.3722 -0.8139
  811MPD2    H111996   1.984   1.272   9.937  0.0903 -0.9377 -1.2336
  811MPD2    H211997   1.965   0.896  10.125 -0.3982  0.1059 -0.5203
  811MPD2    H311998   1.902   1.045   9.951  0.7184 -1.8963  0.5062
  811MPD2     N11999   2.198   1.374  10.075  0.1883 -0.7279  0.9835
  811MPD2    H512000   2.279   1.384  10.134  0.1204 -0.5288  1.0432
  811MPD2    N112001   2.174   0.946  10.302  0.9875  0.3278  0.2189
  811MPD2    H712002   2.255   0.990  10.344  0.0859  1.5474  0.6797
  812MPD2     C12003   0.969   0.634  12.256  0.0437  0.0991  0.4255
  812MPD2    C112004   1.087   0.707  12.251  0.2683  0.3282 -0.1181
  812MPD2    C212005   1.191   0.671  12.338  0.6443  0.0582  0.3058
  812MPD2    C312006   1.180   0.562  12.424  0.0558 -0.0267 -0.5963
  812MPD2    C412007   1.061   0.488  12.420  0.2300 -0.2608 -0.1127
  812MPD2    C512008   0.955   0.530  12.335 -0.0619 -0.0834 -0.1467
  812MPD2     H12009   1.287   0.722  12.334  0.2759  0.8574  1.9209
  812MPD2    H112010   1.032   0.408  12.487  0.7275 -0.8640 -0.6151
  812MPD2    H212011   0.888   0.665  12.192  0.2435 -0.1315  0.0592
  812MPD2    H312012   0.868   0.465  12.337 -0.5377  0.5855  0.6746
  812MPD2     N12013   1.284   0.537  12.516  0.0193 -0.5276  1.0373
  812MPD2    H512014   1.373   0.586  12.520  0.1192 -0.8130  2.2422
  812MPD2    N112015   1.084   0.825  12.181 -0.2205 -0.3729 -0.4190
  812MPD2    H712016   1.012   0.836  12.111  0.4830  0.2184 -1.0481
  813MPD2     C12017   0.357   2.176  12.699  0.1257  0.1546 -0.3179
  813MPD2    C112018   0.364   2.308  12.728 -0.0685 -0.2383 -0.2204
  813MPD2    C212019   0.307   2.349  12.848 -0.1051 -0.9781 -0.1857
  813MPD2    C312020   0.242   2.264  12.937 -0.4664  0.7500  0.0801
  813MPD2    C412021   0.243   2.131  12.902 -0.1058  0.3554  1.1432
  813MPD2    C512022   0.302   2.097  12.792 -0.3368  0.1338  0.4361
  813MPD2     H12023   0.298   2.452  12.882 -1.2241 -1.7366  1.8460
  813MPD2    H112024   0.209   2.046  12.961 -0.7806  0.8533  1.4624
  813MPD2    H212025   0.406   2.141  12.609 -0.1844  1.4003 -0.9638
  813MPD2    H312026   0.311   1.991  12.772 -1.1613 -0.1905  1.7686
  813MPD2     N12027   0.186   2.315  13.056 -0.2977  0.5089  0.0455
  813MPD2    H512028   0.208   2.408  13.090  0.2967  0.2197  0.4563
  813MPD2    N112029   0.430   2.400  12.643  0.1563 -0.0783 -0.2519
  813MPD2    H712030   0.487   2.354  12.573  0.4242  2.0447 -1.4338
  814MPD2     C12031   0.912   3.616  12.595 -0.2221  0.1102  0.4564
  814MPD2    C112032   0.909   3.656  12.464 -0.2613 -0.2155  0.0659
  814MPD2    C212033   0.945   3.783  12.441  0.1506  0.0106  0.1117
  814MPD2    C312034   0.998   3.872  12.529  0.4341  0.1887 -0.2454
  814MPD2    C412035   1.010   3.832  12.659  0.4016  0.0771 -0.5434
  814MPD2    C512036   0.958   3.710  12.690  0.2294 -0.5889 -0.4068
  814MPD2     H12037   0.926   3.831  12.345  0.2957  0.7274  0.4426
  814MPD2    H112038   1.053   3.900  12.731  0.2806  0.5029 -0.8756
  814MPD2    H212039   0.879   3.516  12.622 -1.6977  0.9019  1.5539
  814MPD2    H312040   0.968   3.678  12.793  1.8254 -1.1250 -0.7339
  814MPD2     N12041   1.036   4.006  12.504  0.1768 -0.2577 -0.4312
  814MPD2    H512042   1.075   4.065  12.576 -1.0425 -1.4779  1.2440
  814MPD2    N112043   0.884   3.578  12.351  0.1179 -0.1466  0.1734
  814MPD2    H712044   0.896   3.633  12.266  0.4848  0.8038  0.8376
  815MPD2     C12045   1.125   2.773  11.662 -0.8195  0.0632 -0.5147
  815MPD2    C112046   1.140   2.635  11.665  0.9049 -0.0675  0.4741
  815MPD2    C212047   1.039   2.550  11.710 -0.1147  0.2428  0.6189
  815MPD2    C312048   0.921   2.603  11.759  0.0751 -0.0029  1.0469
  815MPD2    C412049   0.907   2.745  11.754  0.1018 -0.2652 -0.5209
  815MPD2    C512050   1.008   2.822  11.711 -0.4969  0.0995 -0.2783
  815MPD2     H12051   1.045   2.442  11.701 -1.3736  0.3364 -1.5399
  815MPD2    H112052   0.820   2.798  11.792  0.1788 -0.4009 -0.1534
  815MPD2    H212053   1.201   2.843  11.629 -0.2219 -0.5547 -0.4438
  815MPD2    H312054   0.983   2.928  11.712 -0.0059  0.2190 -1.5085
  815MPD2     N12055   0.817   2.515  11.803 -0.2806  0.8060  0.5291
  815MPD2    H512056   0.835   2.416  11.792 -0.6048  0.6568  1.3844
  815MPD2    N112057   1.271   2.588  11.619 -0.6682  0.3661 -0.9870
  815MPD2    H712058   1.324   2.661  11.572  1.3970 -0.1397  0.5544
  816MPD2     C12059   1.108   1.768  17.272  0.2833  0.0165  0.0421
  816MPD2    C112060   1.112   1.865  17.172 -0.3940 -0.3841 -0.5816
  816MPD2    C212061   1.195   1.857  17.059 -0.8759  0.6246  0.7282
  816MPD2    C312062   1.283   1.746  17.053  0.4349  0.3212 -0.4268
  816MPD2    C412063   1.274   1.652  17.155  0.1261 -0.6493 -0.1664
  816MPD2    C512064   1.185   1.658  17.257  0.4708  0.4771 -0.5583
  816MPD2     H12065   1.199   1.935  16.984  0.8542 -0.8299 -0.7056
  816MPD2    H112066   1.335   1.562  17.147 -0.3965 -0.6683 -3.6831
  816MPD2    H212067   1.041   1.778  17.357  3.4084 -0.3657  2.5509
  816MPD2    H312068   1.188   1.580  17.333  2.7715  0.3815 -0.7412
  816MPD2     N12069   1.378   1.742  16.946 -0.1101  0.4844  0.0751
  816MPD2    H512070   1.383   1.824  16.887 -0.0977  0.2268 -0.2880
  816MPD2    N112071   1.037   1.985  17.185  0.3938 -0.0663 -0.7719
  816MPD2    H712072   0.994   2.005  17.275 -0.2162 -1.7517 -0.6901
  817MPD2     C12073   1.676   4.124  10.158  0.0795  0.8557 -0.0157
  817MPD2    C112074   1.602   4.098  10.047 -0.7518 -0.0329 -1.0270
  817MPD2    C212075   1.546   4.210   9.990  0.2849  0.6767  0.5773
  817MPD2    C312076   1.554   4.338  10.052  0.1398  0.7106 -0.6863
  817MPD2    C412077   1.614   4.348  10.174  0.8478  0.4179 -0.7775
  817MPD2    C512078   1.676   4.242  10.223 -0.7161  0.5107  0.4310
  817MPD2     H12079   1.500   4.196   9.892 -0.7490  0.5970  1.0710
  817MPD2    H112080   1.633   4.442  10.223  1.6575 -0.9109  1.4694
  817MPD2    H212081   1.739   4.054  10.212 -0.6084  2.1258  2.4506
  817MPD2    H312082   1.738   4.262  10.310 -0.9743 -0.3108  0.8066
  817MPD2     N12083   1.515   4.453   9.979  0.3694  0.2339 -0.1395
  817MPD2    H512084   1.488   4.434   9.883  0.5935 -2.3814  0.3088
  817MPD2    N112085   1.609   3.979   9.976  0.3771  0.2391 -0.1770
  817MPD2    H712086   1.562   3.977   9.887 -0.3359 -1.4847  0.2251
  818MPD2     C12087   0.508   3.856  10.163  0.4688  0.1110  0.0497
  818MPD2    C112088   0.393   3.782  10.147  0.5481 -0.0132 -0.1775
  818MPD2    C212089   0.386   3.691  10.040  0.2630  0.6316 -0.1852
  818MPD2    C312090   0.496   3.655   9.971 -0.2131  0.5023  0.6089
  818MPD2    C412091   0.612   3.731   9.994 -0.5715 -0.5154 -0.4212
  818MPD2    C512092   0.615   3.832  10.081 -0.6062 -0.3157  0.3726
  818MPD2     H12093   0.296   3.633  10.025  1.7309 -1.9394  0.8683
  818MPD2    H112094   0.698   3.701   9.937  0.2974  1.4486 -0.1467
  818MPD2    H212095   0.508   3.939  10.233 -2.2252 -1.4639  1.9238
  818MPD2    H312096   0.703   3.896  10.088  0.9304 -2.0619 -2.9423
  818MPD2     N12097   0.500   3.544   9.882  0.2842  0.2452 -0.0921
  818MPD2    H512098   0.588   3.521   9.837 -0.4607  2.2121 -2.5765
  818MPD2    N112099   0.286   3.802  10.233  0.0401  0.1456 -0.3919
  818MPD2    H712100   0.195   3.769  10.204  0.5448 -0.6709 -1.0322
  819MPD2     C12101   2.801   0.606  15.721 -0.8506 -0.2196 -0.3544
  819MPD2    C112102   2.864   0.491  15.686  1.1590  0.2628 -0.3090
  819MPD2    C212103   2.999   0.467  15.716 -0.5992  0.2340 -0.1898
  819MPD2    C312104   3.063   0.561  15.796 -0.1622 -0.0130  0.1450
  819MPD2    C412105   3.003   0.677  15.828  0.0469 -0.1330  0.1687
  819MPD2    C512106   2.870   0.699  15.788  0.6696 -0.2350  0.0486
  819MPD2     H12107   3.052   0.375  15.692  1.9355  2.0700 -1.5461
  819MPD2    H112108   3.046   0.763  15.878 -0.6682  0.2189  0.1858
  819MPD2    H212109   2.696   0.618  15.699 -0.6764 -0.3490 -1.2698
  819MPD2    H312110   2.829   0.794  15.820 -0.8465 -1.6441  2.3444
  819MPD2     N12111   3.193   0.528  15.831  0.1076 -0.2937  0.5218
  819MPD2    H512112   3.230   0.446  15.785  1.3508 -0.1733  1.3095
  819MPD2    N112113   2.788   0.398  15.612 -0.2368  0.1047  0.1906
  819MPD2    H712114   2.698   0.431  15.582 -0.0752  0.6623  0.3182
  820MPD2     C12115   1.921   0.407  15.237  0.0618  0.1311 -0.3615
  820MPD2    C112116   2.042   0.467  15.235 -0.4540  0.7591 -0.0198
  820MPD2    C212117   2.162   0.401  15.276  0.4218 -0.3016  0.1748
  820MPD2    C312118   2.156   0.265  15.298  0.5517  1.0204 -0.4823
  820MPD2    C412119   2.039   0.201  15.306  0.2912  0.5233 -0.0143
  820MPD2    C512120   1.923   0.273  15.269  0.5987 -0.1795 -0.2752
  820MPD2     H12121   2.257   0.452  15.275  0.6413 -0.7121  0.0383
  820MPD2    H112122   2.032   0.094  15.324 -0.2865  0.8590  1.7596
  820MPD2    H212123   1.832   0.465  15.212 -0.5572 -0.3945  0.6454
  820MPD2    H312124   1.828   0.221  15.259  1.6734 -2.2112  0.1093
  820MPD2     N12125   2.268   0.192  15.350 -0.8870 -0.0335  0.4101
  820MPD2    H512126   2.239   0.096  15.366 -1.9449  0.2140 -0.0230
  820MPD2    N112127   2.041   0.606  15.195  0.1989  0.2738  0.1843
  820MPD2    H712128   1.957   0.648  15.158  1.1926 -1.3562 -3.9397
  821MPD2     C12129   2.736   1.582  13.331 -0.3293  0.3239  0.1681
  821MPD2    C112130   2.835   1.553  13.425 -0.5322 -1.1242  0.2320
  821MPD2    C212131   2.960   1.599  13.394 -0.6311  0.0106  0.1078
  821MPD2    C312132   3.005   1.659  13.278  0.5911 -0.1342 -0.2642
  821MPD2    C412133   2.904   1.699  13.189 -0.5641 -0.3829  0.2939
  821MPD2    C512134   2.775   1.653  13.216  0.0372  0.4044  0.1638
  821MPD2     H12135   3.028   1.586  13.477  0.1155 -1.1289 -0.6813
  821MPD2    H112136   2.918   1.765  13.104 -2.4524  1.1061  1.1453
  821MPD2    H212137   2.641   1.531  13.340 -0.6638  1.0001  0.5445
  821MPD2    H312138   2.698   1.687  13.147  0.1018 -0.0484 -0.1294
  821MPD2     N12139   3.138   1.691  13.257  0.1707  0.0926  0.3302
  821MPD2    H512140   3.173   1.738  13.174 -1.5571  1.2531  0.2610
  821MPD2    N112141   2.800   1.483  13.546  0.1851  0.0221 -0.0112
  821MPD2    H712142   2.704   1.470  13.576  0.5616 -0.8619  0.8476
  822MPD2     C12143   3.565   2.059  15.729  0.0770 -0.1767 -0.0104
  822MPD2    C112144   3.584   1.990  15.843  0.7535  0.9286  0.0616
  822MPD2    C212145   3.536   2.044  15.962  0.7845 -0.0134 -0.0971
  822MPD2    C312146   3.485   2.170  15.977 -0.5553  0.7896  0.1547
  822MPD2    C412147   3.468   2.238  15.861 -0.1674  0.8977  0.3663
  822MPD2    C512148   3.511   2.182  15.744  0.4493  0.0647  0.2945
  822MPD2     H12149   3.535   1.977  16.047  1.3858  0.0604 -0.0332
  822MPD2    H112150   3.413   2.331  15.868  0.0451  0.8902  2.0212
  822MPD2    H212151   3.584   2.008  15.635 -0.5650 -0.8306  0.2171
  822MPD2    H312152   3.498   2.243  15.655 -3.1402 -2.3094 -0.8152
  822MPD2     N12153   3.442   2.209  16.105  0.3923 -0.1079  0.2055
  822MPD2    H512154   3.458   2.142  16.180  0.4718  3.4431  3.3851
  822MPD2    N112155   3.637   1.859  15.852  0.7572  0.5116 -0.3117
  822MPD2    H712156   3.633   1.812  15.942  0.7364 -2.1028 -1.7016
  823MPD2     C12157   3.170   2.272  16.930  0.1387 -0.2474  0.6269
  823MPD2    C112158   3.202   2.193  16.821  0.3163 -0.6179 -0.3505
  823MPD2    C212159   3.203   2.055  16.823 -1.0218 -0.5151  0.4789
  823MPD2    C312160   3.174   1.996  16.946 -0.4738 -0.3321 -0.5741
  823MPD2    C412161   3.128   2.072  17.048 -0.0125  0.5164 -0.0126
  823MPD2    C512162   3.126   2.206  17.044  0.2894  0.3852  0.6167
  823MPD2     H12163   3.231   1.994  16.738  1.3900 -0.3160  1.1294
  823MPD2    H112164   3.104   2.024  17.142 -0.6682  0.3150 -0.2793
  823MPD2    H212165   3.157   2.379  16.938 -3.1251 -0.4626 -1.6965
  823MPD2    H312166   3.086   2.268  17.123 -1.5371 -0.1231  0.0911
  823MPD2     N12167   3.192   1.855  16.966 -0.6975  0.1940  1.1203
  823MPD2    H512168   3.159   1.817  17.054  0.7083  1.0422  2.0157
  823MPD2    N112169   3.241   2.269  16.705  0.0006  0.4325  0.2333
  823MPD2    H712170   3.248   2.370  16.713  1.7321  0.4560 -1.5154
  824MPD2     C12171   3.855   1.073  15.531 -0.0955  0.5400 -0.6011
  824MPD2    C112172   3.899   1.094  15.657 -0.1487  0.8052  0.1252
  824MPD2    C212173   3.986   1.013  15.722 -0.4851 -0.2064 -0.3705
  824MPD2    C312174   4.025   0.896  15.665 -0.2082 -0.5279  0.2256
  824MPD2    C412175   3.978   0.870  15.534  0.5923  0.4528  0.1667
  824MPD2    C512176   3.893   0.958  15.469  0.6277 -0.2696  0.2768
  824MPD2     H12177   4.031   1.039  15.817 -0.1709 -0.9885 -0.3033
  824MPD2    H112178   3.995   0.774  15.487 -2.5948  0.5682 -1.2147
  824MPD2    H212179   3.786   1.142  15.483 -1.3857  1.0539  2.0323
  824MPD2    H312180   3.854   0.933  15.371  0.1535  0.3086  0.3186
  824MPD2     N12181   4.116   0.808  15.732 -0.0525 -0.6505 -0.1611
  824MPD2    H512182   4.136   0.817  15.831 -1.2296 -0.3896  0.0516
  824MPD2    N112183   3.868   1.214  15.727 -0.7088  0.0463 -0.5633
  824MPD2    H712184   3.925   1.235  15.809  0.3945  0.5979 -1.4838
  825MPD2     C12185   0.167   1.148  15.772  0.2087  0.2101 -0.8337
  825MPD2    C112186   0.029   1.150  15.747 -0.6561 -0.6661 -0.1211
  825MPD2    C212187   4.696   1.270  15.733  0.6543 -0.4090 -0.2527
  825MPD2    C312188   0.024   1.387  15.765  0.2836 -0.0581  0.1684
  825MPD2    C412189   0.155   1.385  15.804 -0.1582 -0.9640 -0.2796
  825MPD2    C512190   0.231   1.273  15.793 -0.1331  0.2306  0.1434
  825MPD2     H12191   4.597   1.274  15.689  0.2747 -1.2677  0.5443
  825MPD2    H112192   0.201   1.474  15.845 -1.9119 -0.1360 -0.0998
  825MPD2    H212193   0.228   1.058  15.778  0.9504  0.8108  0.7346
  825MPD2    H312194   0.337   1.266  15.813 -0.3529 -0.1806  1.1611
  825MPD2     N12195   4.697   1.517  15.779  0.7509  0.0913  0.2018
  825MPD2    H512196   0.021   1.587  15.822  0.0284 -0.0353  1.4281
  825MPD2    N112197   4.700   1.026  15.737 -0.5205 -0.2117 -0.5713
  825MPD2    H712198   0.021   0.944  15.750  0.3841  0.5326  0.2193
  826MPD2     C12199   4.518   0.372  13.575  0.8048 -0.3548 -0.1534
  826MPD2    C112200   4.616   0.466  13.613  0.6071  0.3677  0.3874
  826MPD2    C212201   4.572   0.588  13.663  0.4454  0.1057 -0.0959
  826MPD2    C312202   4.443   0.612  13.683  0.1397 -0.6207  0.3083
  826MPD2    C412203   4.343   0.521  13.651 -0.7148 -0.1291  0.5461
  826MPD2    C512204   4.385   0.404  13.599 -0.5392  0.7150 -0.4810
  826MPD2     H12205   4.653   0.656  13.691 -0.3831  1.1148 -0.1471
  826MPD2    H112206   4.237   0.539  13.663 -0.4408  1.2400  0.9892
  826MPD2    H212207   4.535   0.272  13.536  0.0473 -0.7051  0.3893
  826MPD2    H312208   4.313   0.328  13.568  2.3450 -2.4383  0.5868
  826MPD2     N12209   4.398   0.736  13.731 -0.0313 -0.4448  0.4552
  826MPD2    H512210   4.297   0.750  13.728  0.2888  1.0064 -4.2541
  826MPD2    N112211   0.011   0.419  13.621  0.1175  0.2177  0.4515
  826MPD2    H712212   0.035   0.321  13.605  1.3610  1.0261 -2.6397
  827MPD2     C12213   0.542   2.053   9.916  0.6002 -0.1056 -0.5355
  827MPD2    C112214   0.544   1.922   9.962 -0.5829  0.3192  0.5861
  827MPD2    C212215   0.428   1.843   9.945 -0.0125  0.7565  0.4858
  827MPD2    C312216   0.314   1.898   9.880  1.0841 -0.2961 -0.2377
  827MPD2    C412217   0.320   2.029   9.840 -0.1185  0.5640  0.0323
  827MPD2    C512218   0.431   2.105   9.856 -0.3564  0.0214  0.3803
  827MPD2     H12219   0.431   1.737   9.963 -0.3164  0.7858  0.7040
  827MPD2    H112220   0.237   2.086   9.799  0.6534  1.0760 -0.8122
  827MPD2    H212221   0.624   2.121   9.938 -2.2630  3.2333 -0.2429
  827MPD2    H312222   0.430   2.208   9.821 -0.2998 -0.2097 -0.3041
  827MPD2     N12223   0.202   1.815   9.862 -0.3288 -0.2347 -0.1993
  827MPD2    H512224   0.213   1.723   9.905  1.2041 -0.5187 -1.1582
  827MPD2    N112225   0.657   1.883  10.037 -0.4618 -0.1034 -0.3737
  827MPD2    H712226   0.727   1.954  10.053  0.9933 -1.5037 -0.4909
  828MPD2     C12227   3.475   1.825  12.360 -0.1328 -0.1791 -0.6065
  828MPD2    C112228   3.364   1.884  12.300 -0.3570 -0.3987 -0.7505
  828MPD2    C212229   3.350   1.872  12.162 -0.1583 -0.6180 -0.1017
  828MPD2    C312230   3.438   1.798  12.081 -0.0594 -0.3191 -0.0711
  828MPD2    C412231   3.527   1.722  12.149 -0.2001  0.0730 -0.0335
  828MPD2    C512232   3.546   1.731  12.280  0.6502  0.0521  0.1191
  828MPD2     H12233   3.265   1.924  12.119 -2.4238 -2.2336  2.3859
  828MPD2    H112234   3.598   1.658  12.098  0.4848  1.0337 -0.2628
  828MPD2    H212235   3.507   1.839  12.463  0.0975  1.5523 -0.9171
  828MPD2    H312236   3.633   1.684  12.324  1.1278  0.6052 -0.2466
  828MPD2     N12237   3.434   1.797  11.944 -0.3459 -0.2106 -0.0388
  828MPD2    H512238   3.515   1.750  11.905  0.3951 -0.8119  2.2293
  828MPD2    N112239   3.279   1.979  12.366  0.2739  0.5015  0.1463
  828MPD2    H712240   3.193   2.011  12.322 -0.2406  0.6331  1.2423
  829MPD2     C12241   2.842   2.543  11.940  0.7038 -0.3041  0.0979
  829MPD2    C112242   2.784   2.531  12.066 -0.7113  0.2764  0.6393
  829MPD2    C212243   2.853   2.482  12.171  0.1957 -0.5240  0.1173
  829MPD2    C312244   2.983   2.444  12.154 -0.3426  0.1675 -0.2116
  829MPD2    C412245   3.038   2.445  12.030  0.9912  0.1060 -0.5614
  829MPD2    C512246   2.972   2.511  11.926  0.1433 -0.3020 -0.2542
  829MPD2     H12247   2.808   2.463  12.268  0.8926 -0.7690  0.3878
  829MPD2    H112248   3.137   2.404  12.012  0.2175 -1.4918 -1.1642
  829MPD2    H212249   2.787   2.589  11.859  1.2901  0.6766  0.2625
  829MPD2    H312250   3.023   2.523  11.831 -0.0164 -1.4470 -0.4856
  829MPD2     N12251   3.063   2.399  12.264 -0.3020 -0.1978 -0.7488
  829MPD2    H512252   3.152   2.356  12.243  1.0463  2.2763 -0.1920
  829MPD2    N112253   2.643   2.571  12.075 -0.6496  0.0055 -0.1629
  829MPD2    H712254   2.598   2.600  11.989 -2.0667  2.1192  1.2893
  830MPD2     C12255   4.030   0.306  15.686  0.9869  0.8709 -0.5424
  830MPD2    C112256   3.914   0.370  15.656 -0.7320 -0.3097 -0.2890
  830MPD2    C212257   3.918   0.449  15.536  0.5723  0.1186 -0.2542
  830MPD2    C312258   4.023   0.438  15.442 -0.2202  0.0531 -0.5871
  830MPD2    C412259   4.137   0.370  15.476 -0.4917  0.2465  0.1165
  830MPD2    C512260   4.138   0.309  15.600  0.1901  0.3204  0.0423
  830MPD2     H12261   3.830   0.506  15.507  0.9259  0.1579 -1.2643
  830MPD2    H112262   4.221   0.359  15.409 -0.7106 -1.5189  0.1379
  830MPD2    H212263   4.037   0.249  15.778 -1.4778 -1.2747 -1.6709
  830MPD2    H312264   4.227   0.260  15.639  1.2830  0.8158 -1.8228
  830MPD2     N12265   4.026   0.505  15.323 -0.1326  0.0612  0.5075
  830MPD2    H512266   4.120   0.511  15.286 -0.8467 -0.8993 -1.5229
  830MPD2    N112267   3.803   0.354  15.744 -0.4507  0.3976  0.4512
  830MPD2    H712268   3.800   0.289  15.822  1.6398  0.6431  0.7452
  831MPD2     C12269   3.645   2.133  16.374  0.0680 -0.2277 -0.2952
  831MPD2    C112270   3.694   2.056  16.270  0.5841  0.1960 -1.1588
  831MPD2    C212271   3.649   1.924  16.263 -1.1187  0.4759 -0.3042
  831MPD2    C312272   3.554   1.875  16.345  0.1848  0.0845  0.8183
  831MPD2    C412273   3.514   1.955  16.449  0.4331  0.3682  0.2405
  831MPD2    C512274   3.565   2.081  16.464 -0.5122 -0.5018  0.2503
  831MPD2     H12275   3.702   1.855  16.199 -0.3877 -1.7095  2.7225
  831MPD2    H112276   3.440   1.916  16.518  0.0603 -0.8697 -0.8608
  831MPD2    H212277   3.686   2.233  16.387 -1.2852  0.1510  1.0531
  831MPD2    H312278   3.530   2.141  16.548 -0.1361 -0.1855  0.1809
  831MPD2     N12279   3.484   1.755  16.315 -0.5043  0.0127 -0.3024
  831MPD2    H512280   3.417   1.722  16.384  0.3278 -1.2683 -0.1216
  831MPD2    N112281   3.781   2.112  16.181 -0.1234  0.6466 -0.0433
  831MPD2    H712282   3.795   2.212  16.183 -0.4166  0.7418 -3.5870
  832MPD2     C12283   1.897   3.201  17.359  0.4207 -0.0251  0.4737
  832MPD2    C112284   1.863   3.321  17.301  1.0219  0.1641 -0.3340
  832MPD2    C212285   1.752   3.326  17.217  0.2385 -0.5452  0.4215
  832MPD2    C312286   1.687   3.208  17.182 -0.1111  0.4519 -0.1848
  832MPD2    C412287   1.717   3.096  17.245 -0.3143  0.2025  0.5407
  832MPD2    C512288   1.820   3.093  17.334  0.5283 -0.1156  0.5096
  832MPD2     H12289   1.712   3.424  17.192  0.7819 -0.7351 -1.1997
  832MPD2    H112290   1.646   3.014  17.236 -1.2948  1.0301  0.6584
  832MPD2    H212291   1.976   3.189  17.433 -0.8591  0.9555  1.9910
  832MPD2    H312292   1.834   3.001  17.388  1.5814 -1.1878 -1.5871
  832MPD2     N12293   1.577   3.203  17.100 -0.7627 -0.5176 -0.0273
  832MPD2    H512294   1.533   3.112  17.099  0.1358 -0.9459 -0.3086
  832MPD2    N112295   1.941   3.430  17.336 -0.0945  0.1699  0.1014
  832MPD2    H712296   2.004   3.414  17.414  1.0958 -0.1310 -0.9245
  833MPD2     C12297   3.988   4.211  13.027  0.1723  0.2978 -0.0112
  833MPD2    C112298   4.030   4.289  12.922  0.0447 -0.2416 -0.5510
  833MPD2    C212299   4.138   4.241  12.842 -0.1357 -0.2614  0.4669
  833MPD2    C312300   4.207   4.121  12.870 -0.4463 -0.0655  0.2430
  833MPD2    C412301   4.160   4.045  12.973  0.4204  0.0456  0.0593
  833MPD2    C512302   4.055   4.098  13.053  0.4622  0.1096 -0.0246
  833MPD2     H12303   4.176   4.291  12.753  1.7419 -3.9021 -0.7933
  833MPD2    H112304   4.208   3.955  13.010 -0.6918 -0.7183 -0.3544
  833MPD2    H212305   3.903   4.233  13.090  0.3607  0.6309  0.1227
  833MPD2    H312306   4.038   4.046  13.147 -1.5630  1.6796  0.4802
  833MPD2     N12307   4.319   4.083  12.788  0.2146 -0.7478 -0.4629
  833MPD2    H512308   4.347   4.151  12.717 -2.4138 -0.1513 -0.9282
  833MPD2    N112309   3.969   4.409  12.883 -0.0424  0.5375 -0.4593
  833MPD2    H712310   3.889   4.444  12.935  0.7100  2.0572 -0.2981
  834MPD2     C12311   4.440   3.806  11.793  0.4010  0.4905 -0.3163
  834MPD2    C112312   4.357   3.916  11.806 -0.0251  0.0339 -0.3246
  834MPD2    C212313   4.299   3.951  11.931  0.1753  0.0138 -0.5818
  834MPD2    C312314   4.336   3.881  12.045 -0.5172  0.1711 -0.8210
  834MPD2    C412315   4.429   3.778  12.026 -0.4988 -0.6751  0.4892
  834MPD2    C512316   4.470   3.734  11.903 -0.2009  0.0201  0.2000
  834MPD2     H12317   4.227   4.032  11.944 -0.0279 -0.3521  0.6030
  834MPD2    H112318   4.465   3.727  12.115 -2.9277 -1.1092  1.2290
  834MPD2    H212319   4.481   3.760  11.703  2.1629 -2.3706  1.9348
  834MPD2    H312320   4.542   3.655  11.886  0.9239  1.3032 -0.9299
  834MPD2     N12321   4.297   3.930  12.170 -0.4906 -0.2481  0.3762
  834MPD2    H512322   4.254   4.021  12.182 -1.7576 -0.9111  0.9031
  834MPD2    N112323   4.314   3.979  11.686  0.0123  0.7653 -0.3983
  834MPD2    H712324   4.355   3.948  11.599 -2.1819 -0.5048 -1.0015
  835MPD2     C12325   4.522   2.066  11.077 -1.1486 -0.0106  0.0755
  835MPD2    C112326   4.398   2.006  11.044  0.5054 -0.0885  0.4040
  835MPD2    C212327   4.338   1.929  11.143  0.2404 -0.0180  0.8321
  835MPD2    C312328   4.400   1.911  11.269  0.0529  0.1949  0.1872
  835MPD2    C412329   4.515   1.974  11.307  0.6806  0.3720 -1.0806
  835MPD2    C512330   4.575   2.046  11.207  0.6014 -0.4800 -0.0165
  835MPD2     H12331   4.248   1.874  11.120 -0.4306  1.1205  0.7221
  835MPD2    H112332   4.558   1.970  11.406 -1.8637 -0.9345 -0.0185
  835MPD2    H212333   4.573   2.140  11.016 -0.9711  0.1643  0.4375
  835MPD2    H312334   4.661   2.111  11.221 -0.3810  0.8803 -0.2279
  835MPD2     N12335   4.345   1.822  11.367  0.2615  0.1036  0.2328
  835MPD2    H512336   4.403   1.805  11.448  0.8573 -0.6993 -0.3573
  835MPD2    N112337   4.332   2.024  10.919  0.5258  0.2825  0.3809
  835MPD2    H712338   4.242   1.980  10.908  0.5076  0.0179  1.6080
  836MPD2     C12339   3.759   2.044  11.577 -0.5167 -0.0012  0.1666
  836MPD2    C112340   3.794   1.947  11.669 -0.2287  0.5130 -0.4994
  836MPD2    C212341   3.763   1.972  11.802 -0.1206  0.8922  0.5453
  836MPD2    C312342   3.701   2.089  11.834  0.3347  0.5373  0.5836
  836MPD2    C412343   3.654   2.172  11.737 -0.6946 -0.7928 -0.2221
  836MPD2    C512344   3.693   2.155  11.608  0.0993  0.6738  0.4213
  836MPD2     H12345   3.793   1.907  11.883 -2.4268  0.8317  1.3611
  836MPD2    H112346   3.602   2.266  11.753 -1.3670 -1.1572 -0.2587
  836MPD2    H212347   3.788   2.034  11.473  0.3404  0.8379  0.3248
  836MPD2    H312348   3.657   2.225  11.534  1.4448  1.2656  0.3212
  836MPD2     N12349   3.672   2.134  11.966 -0.4487  0.5150 -0.0107
  836MPD2    H512350   3.623   2.222  11.970 -2.3155 -0.4691 -1.1012
  836MPD2    N112351   3.877   1.839  11.632 -0.0567  0.5708  0.4151
  836MPD2    H712352   3.919   1.844  11.540 -1.0145 -0.4714 -0.0808
  837MPD2     C12353   2.731   1.866  10.396 -0.1247  0.0001  0.3210
  837MPD2    C112354   2.682   1.925  10.278 -0.3814  0.0746 -0.4256
  837MPD2    C212355   2.703   2.057  10.260  0.4854  0.0466 -0.4974
  837MPD2    C312356   2.760   2.142  10.353 -0.6689  0.0533 -0.2627
  837MPD2    C412357   2.800   2.079  10.471  0.5576  0.1795 -0.0851
  837MPD2    C512358   2.789   1.946  10.488 -0.2147  0.6528 -0.0951
  837MPD2     H12359   2.649   2.109  10.182  1.6021 -2.3529 -2.8535
  837MPD2    H112360   2.850   2.133  10.551  0.7803  0.9269 -0.7248
  837MPD2    H212361   2.713   1.765  10.429  2.7798 -1.3029 -1.9758
  837MPD2    H312362   2.831   1.900  10.577 -3.1675  0.1827  1.0630
  837MPD2     N12363   2.772   2.276  10.317 -0.6141  0.2867 -0.3226
  837MPD2    H512364   2.749   2.299  10.221 -0.0651  0.2823 -0.4563
  837MPD2    N112365   2.601   1.855  10.185  0.4494 -0.6488  0.2348
  837MPD2    H712366   2.590   1.897  10.093  0.6913 -1.4747 -0.1725
  838MPD2     C12367   0.887   0.273  12.022  0.9856 -0.0759 -0.7636
  838MPD2    C112368   0.927   0.142  12.054 -0.0886  0.0466  0.1069
  838MPD2    C212369   0.841   0.072  12.140  0.3920  0.3964 -0.1611
  838MPD2    C312370   0.706   0.110  12.165  0.3415 -0.5241 -0.3983
  838MPD2    C412371   0.660   0.226  12.104  0.5385 -0.0988 -0.2670
  838MPD2    C512372   0.756   0.307  12.038 -0.3046  0.0646 -1.2725
  838MPD2     H12373   0.870   4.708  12.170 -0.8336 -0.4843 -1.9145
  838MPD2    H112374   0.556   0.256  12.115  0.4067 -0.8738  0.5805
  838MPD2    H212375   0.951   0.339  11.965  0.3413 -0.1501 -1.5671
  838MPD2    H312376   0.715   0.403  12.007 -1.8584 -0.4586 -0.8679
  838MPD2     N12377   0.631   0.016  12.239 -0.1676  0.2260  0.0010
  838MPD2    H512378   0.678   4.671  12.280  0.1290 -0.2906 -1.3556
  838MPD2    N112379   1.043   0.076  12.007 -0.5082 -0.0373  0.4042
  838MPD2    H712380   1.063   4.723  12.053  0.1410 -0.8607 -1.4518
  839MPD2     C12381   0.568   4.360  11.907  0.3750 -0.5499 -0.1938
  839MPD2    C112382   0.659   4.283  11.833 -0.3797  0.0405 -0.3551
  839MPD2    C212383   0.776   4.342  11.793  0.1829 -0.2224  0.8437
  839MPD2    C312384   0.802   4.474  11.828 -0.0203 -0.7103  0.2835
  839MPD2    C412385   0.713   4.552  11.890  0.1507  0.0924  0.3196
  839MPD2    C512386   0.597   4.494  11.931  0.2552  0.1333  0.1912
  839MPD2     H12387   0.849   4.280  11.743  0.7439  1.0136  0.1196
  839MPD2    H112388   0.728   4.656  11.917 -0.2694 -0.4947  2.8401
  839MPD2    H212389   0.469   4.328  11.937  0.2059 -0.0755 -0.2381
  839MPD2    H312390   0.525   4.556  11.984 -0.1319  0.7892 -1.0984
  839MPD2     N12391   0.918   4.544  11.788 -0.3291  0.1367  0.5790
  839MPD2    H512392   0.932   4.636  11.828 -0.6790  0.1959  0.5620
  839MPD2    N112393   0.632   4.143  11.807  0.2065 -0.0512 -0.1247
  839MPD2    H712394   0.703   4.093  11.754 -0.5788 -1.2163 -0.0774
  840MPD2     C12395   1.424   1.887  10.278  0.1458  0.0502 -0.4698
  840MPD2    C112396   1.310   1.955  10.288 -0.2235  0.0445  0.7878
  840MPD2    C212397   1.308   2.094  10.303  0.3559 -0.5643 -0.2320
  840MPD2    C312398   1.427   2.161  10.313  0.2926  0.4843  0.0263
  840MPD2    C412399   1.543   2.096  10.318  0.7172  0.2938 -0.3952
  840MPD2    C512400   1.542   1.959  10.298  0.3038  0.6453 -0.4757
  840MPD2     H12401   1.212   2.144  10.316  0.2972 -0.7473  0.0663
  840MPD2    H112402   1.638   2.146  10.331  1.7036 -1.6344 -0.1484
  840MPD2    H212403   1.428   1.779  10.274 -2.8078 -0.1277  1.0663
  840MPD2    H312404   1.641   1.916  10.303  0.0716  0.3504  1.5621
  840MPD2     N12405   1.441   2.300  10.344  0.0375 -0.0397 -0.1222
  840MPD2    H512406   1.536   2.336  10.340  0.1532 -0.3692 -0.3791
  840MPD2    N112407   1.197   1.873  10.282  0.7252 -0.6512  0.2554
  840MPD2    H712408   1.215   1.775  10.299  0.4723 -0.4701  1.5835
  841MPD2     C12409   0.554   2.324  14.894 -0.4162 -0.7628 -0.1022
  841MPD2    C112410   0.609   2.244  14.791 -0.4976 -0.2947 -0.2071
  841MPD2    C212411   0.654   2.308  14.676 -0.0490  0.2976  0.5865
  841MPD2    C312412   0.649   2.447  14.675  0.4367 -0.0428 -0.9217
  841MPD2    C412413   0.596   2.526  14.777  0.3099  0.0399 -0.1148
  841MPD2    C512414   0.540   2.460  14.887 -0.7307  0.2256  0.1664
  841MPD2     H12415   0.706   2.252  14.599  0.3109  1.8061 -0.2527
  841MPD2    H112416   0.602   2.634  14.773 -3.5106  0.4262  3.8804
  841MPD2    H212417   0.507   2.270  14.976  2.3796 -2.6766  0.2447
  841MPD2    H312418   0.495   2.519  14.966 -2.0593  0.5691 -0.8522
  841MPD2     N12419   0.730   2.507  14.569  0.0671  0.5111 -0.0826
  841MPD2    H512420   0.777   2.444  14.506  0.1001  0.9771 -0.5262
  841MPD2    N112421   0.639   2.107  14.800 -0.2653 -0.0768  0.2625
  841MPD2    H712422   0.686   2.064  14.721 -0.9248 -1.0349  0.3944
  842MPD2     C12423   1.148   3.469  16.962 -1.1997  0.5335  0.7613
  842MPD2    C112424   1.038   3.384  16.940 -0.0857  0.6459  0.2748
  842MPD2    C212425   0.998   3.300  17.045 -0.0874 -0.0175  0.3277
  842MPD2    C312426   1.044   3.319  17.172 -0.7813 -0.7944  0.6615
  842MPD2    C412427   1.145   3.414  17.195  0.2338 -0.1688  0.4848
  842MPD2    C512428   1.201   3.480  17.089 -0.6048  0.2791 -0.0808
  842MPD2     H12429   0.911   3.236  17.039  0.6218 -0.8968 -0.4535
  842MPD2    H112430   1.175   3.433  17.298 -0.1394 -0.3568  0.6298
  842MPD2    H212431   1.177   3.537  16.883  1.9828 -0.8384  0.7311
  842MPD2    H312432   1.274   3.556  17.115 -0.2026 -0.5799  1.3094
  842MPD2     N12433   0.994   3.284  17.300  0.4762  0.0568 -1.1004
  842MPD2    H512434   1.033   3.317  17.388  2.5004  0.6363 -2.2236
  842MPD2    N112435   0.966   3.377  16.816  0.2392 -0.1785  0.2690
  842MPD2    H712436   0.996   3.439  16.742  0.5998 -2.3357 -1.4053
  843MPD2     C12437   3.346   4.435  17.734 -0.2636 -0.5629  0.5475
  843MPD2    C112438   3.391   4.388   0.115 -0.2473  0.4670  0.6277
  843MPD2    C212439   3.485   4.464   0.188  0.1200  0.0048  0.2019
  843MPD2    C312440   3.543   4.573   0.133 -0.5875  0.1691 -0.3902
  843MPD2    C412441   3.494   4.623   0.018  0.6797  0.2238  0.0894
  843MPD2    C512442   3.401   4.553  17.689 -0.5113  0.2842 -0.0418
  843MPD2     H12443   3.531   4.426   0.279  1.0214 -0.1584 -0.3135
  843MPD2    H112444   3.534   4.719  17.728 -1.4883  0.3547 -2.3734
  843MPD2    H212445   3.265   4.383  17.684  0.1431  0.2414 -0.9419
  843MPD2    H312446   3.369   4.606  17.600 -0.8304 -0.9792 -0.6825
  843MPD2     N12447   3.648   4.649   0.196 -0.4502 -0.3943  0.9567
  843MPD2    H512448   3.672   0.004   0.157 -0.1128 -0.2264  1.5405
  843MPD2    N112449   3.326   4.267   0.164  0.1267 -0.2338  0.0020
  843MPD2    H712450   3.269   4.210   0.102  1.0509 -2.4070  1.1385
  844MPD2     C12451   1.850   2.999  16.696 -0.8188  1.0139  0.8742
  844MPD2    C112452   1.987   2.986  16.661 -0.4208 -0.4863 -0.2248
  844MPD2    C212453   2.078   3.068  16.720 -0.0917  0.1348  0.5810
  844MPD2    C312454   2.039   3.169  16.802  0.4642  0.3848  0.1250
  844MPD2    C412455   1.909   3.176  16.840  0.1202  0.3200  0.4290
  844MPD2    C512456   1.817   3.086  16.798  0.4458  0.5724 -0.6285
  844MPD2     H12457   2.181   3.066  16.687 -0.6630  1.3630 -1.2503
  844MPD2    H112458   1.878   3.251  16.912 -2.5567  0.3793 -0.7681
  844MPD2    H212459   1.774   2.934  16.657 -0.5551  1.8309 -1.0173
  844MPD2    H312460   1.711   3.098  16.816  0.7547 -1.1013  2.3317
  844MPD2     N12461   2.143   3.259  16.836  0.0521  0.0298 -0.5413
  844MPD2    H512462   2.237   3.222  16.831 -0.0092  0.2159 -3.0435
  844MPD2    N112463   2.029   2.898  16.565  0.3557  0.3171  0.4904
  844MPD2    H712464   2.128   2.894  16.544  0.3149  1.0484  0.1687
  845MPD2     C12465   2.102   4.250  17.146 -0.0048 -0.5919 -0.7583
  845MPD2    C112466   2.001   4.163  17.129  0.2490  0.1272 -1.0911
  845MPD2    C212467   2.039   4.030  17.108  0.0022 -0.2538  0.4027
  845MPD2    C312468   2.168   3.984  17.116  0.2418 -0.2412  0.2650
  845MPD2    C412469   2.266   4.076  17.138 -0.4682 -1.2503  0.0998
  845MPD2    C512470   2.229   4.207  17.158  0.5082  0.2845 -0.3452
  845MPD2     H12471   1.966   3.951  17.102  2.0527 -2.1905  0.8691
  845MPD2    H112472   2.372   4.055  17.143 -0.1131  0.6892  0.4615
  845MPD2    H212473   2.087   4.353  17.178  0.8124 -0.2576 -1.4291
  845MPD2    H312474   2.307   4.282  17.170 -1.0629  1.8824 -0.0355
  845MPD2     N12475   2.193   3.848  17.090 -0.0802 -0.4134  0.9312
  845MPD2    H512476   2.118   3.786  17.060  0.6864 -0.0869 -1.6541
  845MPD2    N112477   1.861   4.199  17.123 -0.2634 -0.3689  0.4594
  845MPD2    H712478   1.840   4.298  17.120 -0.1475 -0.3868 -0.8736
  846MPD2     C12479   3.157   3.875  13.791 -0.4653  0.6742  0.2622
  846MPD2    C112480   3.254   3.960  13.769 -0.0570  0.4255 -0.3833
  846MPD2    C212481   3.336   4.002  13.875 -0.5579  0.4385  0.3528
  846MPD2    C312482   3.311   3.960  14.004  0.3766 -0.7991  0.7994
  846MPD2    C412483   3.203   3.879  14.026  0.5746 -0.3588  0.4294
  846MPD2    C512484   3.134   3.839  13.922 -0.1218  0.4174 -0.4065
  846MPD2     H12485   3.423   4.064  13.860 -0.3547  0.5485  2.0500
  846MPD2    H112486   3.173   3.843  14.124  0.3377  2.3058  1.3291
  846MPD2    H212487   3.094   3.843  13.708 -0.7997  2.0401 -0.0170
  846MPD2    H312488   3.051   3.772  13.941 -0.8093  1.5838  0.6985
  846MPD2     N12489   3.367   4.021  14.120  0.0455  0.1942  0.3483
  846MPD2    H512490   3.415   4.111  14.111 -1.5979  0.8740 -1.6147
  846MPD2    N112491   3.299   4.005  13.640 -0.3359 -0.1363 -0.3086
  846MPD2    H712492   3.390   4.051  13.630  0.0095 -0.2643  2.3923
  847MPD2     C12493   3.815   0.314  14.185 -0.5881  0.6015  0.6282
  847MPD2    C112494   3.906   0.389  14.256 -0.0849 -0.4079 -0.4510
  847MPD2    C212495   3.960   0.334  14.365  0.0739 -0.0157  0.1836
  847MPD2    C312496   3.930   0.215  14.415  0.7863 -0.1016  0.0698
  847MPD2    C412497   3.847   0.130  14.342 -0.6451 -0.1835  0.7947
  847MPD2    C512498   3.790   0.185  14.227 -0.1081 -0.1314  0.5588
  847MPD2     H12499   4.022   0.391  14.433  0.0746 -0.0231  0.1891
  847MPD2    H112500   3.824   0.028  14.370 -0.8590 -0.3782 -0.0972
  847MPD2    H212501   3.777   0.351  14.091  1.2136 -2.0649 -1.1310
  847MPD2    H312502   3.739   0.114  14.163  0.3936 -0.9119  1.0315
  847MPD2     N12503   3.985   0.182  14.543 -0.4326 -0.6016  0.7465
  847MPD2    H512504   4.044   0.253  14.586 -1.6117  1.5758 -1.1946
  847MPD2    N112505   3.939   0.527  14.228 -0.0086 -0.2814  0.1457
  847MPD2    H712506   4.020   0.561  14.278 -1.0267  5.5348 -2.2373
  848MPD2     C12507   1.525   3.239  16.301 -0.6485 -0.4397  0.0925
  848MPD2    C112508   1.514   3.341  16.397  0.7929  0.1538  0.2926
  848MPD2    C212509   1.516   3.470  16.346  0.2829 -0.8875 -0.2040
  848MPD2    C312510   1.538   3.496  16.207  0.1250  0.3262 -0.0689
  848MPD2    C412511   1.552   3.395  16.117 -0.5455  0.6110  0.5124
  848MPD2    C512512   1.545   3.270  16.171  0.7148 -0.8674  0.7065
  848MPD2     H12513   1.495   3.554  16.412 -2.0193  0.4772 -2.6567
  848MPD2    H112514   1.567   3.407  16.010 -1.2022 -0.5220  0.2938
  848MPD2    H212515   1.531   3.133  16.324  1.4508 -0.2422  0.4741
  848MPD2    H312516   1.556   3.191  16.098  1.4578 -1.4396  1.4396
  848MPD2     N12517   1.545   3.624  16.138  0.1291  0.0255 -0.3911
  848MPD2    H512518   1.556   3.621  16.037 -0.1884  1.3955 -0.4646
  848MPD2    N112519   1.485   3.317  16.532  0.0908  0.5370 -0.0624
  848MPD2    H712520   1.459   3.398  16.588 -1.2713 -0.3581  0.5754
  849MPD2     C12521   0.067   2.891  13.803  0.8703 -0.7687 -0.0141
  849MPD2    C112522   0.204   2.888  13.790 -0.4398 -0.0587 -0.3869
  849MPD2    C212523   0.279   2.954  13.886  0.0395 -0.1048 -0.7109
  849MPD2    C312524   0.218   3.018  13.994 -0.9458  0.5372 -0.1845
  849MPD2    C412525   0.081   3.026  14.000  0.1629 -0.1929 -0.2157
  849MPD2    C512526   0.009   2.964  13.901  0.1210  0.6420 -0.5941
  849MPD2     H12527   0.387   2.943  13.881  0.3947  1.7142  2.7848
  849MPD2    H112528   0.025   3.081  14.074  1.8617 -0.3818  1.1988
  849MPD2    H212529   0.000   2.842  13.734 -0.6967 -0.4419  1.2564
  849MPD2    H312530   4.637   2.975  13.904  0.0268 -0.1953 -1.1227
  849MPD2     N12531   0.282   3.060  14.112 -0.4787 -0.0874 -0.0387
  849MPD2    H512532   0.223   3.113  14.175  1.0777  0.2359  1.1440
  849MPD2    N112533   0.269   2.796  13.700 -0.2779  0.0603 -0.0644
  849MPD2    H712534   0.215   2.716  13.669 -2.0190  0.5618  1.6239
  850MPD2     C12535   3.440   1.413  14.502  0.5428 -0.2439  0.7071
  850MPD2    C112536   3.426   1.503  14.608  0.3187 -0.9832  0.2175
  850MPD2    C212537   3.541   1.538  14.686  0.2796  0.4698 -0.6816
  850MPD2    C312538   3.648   1.453  14.684 -0.7066  0.4021  0.0217
  850MPD2    C412539   3.641   1.341  14.605  0.6846  0.1594 -0.1653
  850MPD2    C512540   3.553   1.331  14.504 -0.2430 -0.0062 -0.2215
  850MPD2     H12541   3.544   1.625  14.750 -0.0510  1.0257 -1.4236
  850MPD2    H112542   3.723   1.271  14.593 -0.0425 -0.6042 -0.6552
  850MPD2    H212543   3.364   1.394  14.427 -1.0323 -0.1237  2.2698
  850MPD2    H312544   3.566   1.250  14.433 -0.1743 -1.2600  1.2166
  850MPD2     N12545   3.763   1.470  14.760  0.1957 -0.0076 -0.0157
  850MPD2    H512546   3.831   1.403  14.724 -0.3462 -0.3886 -0.3314
  850MPD2    N112547   3.294   1.555  14.618  0.6080  0.3132  0.3402
  850MPD2    H712548   3.234   1.537  14.538 -0.7630  2.8173  0.7952
  851MPD2     C12549   3.815   1.386  15.227 -0.4114  0.5413 -0.0885
  851MPD2    C112550   3.733   1.319  15.132 -0.0622  0.4356 -0.2296
  851MPD2    C212551   3.779   1.207  15.066 -0.7047  0.2087  0.2482
  851MPD2    C312552   3.898   1.148  15.111  0.3256 -0.1951  0.2024
  851MPD2    C412553   3.968   1.206  15.215  0.1495 -0.7039  0.2096
  851MPD2    C512554   3.930   1.325  15.265  0.0247  0.3684  0.0132
  851MPD2     H12555   3.726   1.162  14.983  2.8798 -0.7458 -1.5384
  851MPD2    H112556   4.065   1.172  15.251  0.6927 -1.7697 -2.2223
  851MPD2    H212557   3.781   1.475  15.277 -1.8674  0.8011 -1.5638
  851MPD2    H312558   3.971   1.359  15.359 -1.8170 -1.2665  1.4260
  851MPD2     N12559   3.943   1.030  15.050  0.3359  0.2032  0.3446
  851MPD2    H512560   3.888   0.995  14.972 -0.3496  2.0663 -0.0197
  851MPD2    N112561   3.611   1.392  15.104  0.0855 -0.0203 -0.0170
  851MPD2    H712562   3.585   1.457  15.177  2.3012  0.3666  0.4341
  852MPD2     C12563   3.459   3.510  10.012  0.1352 -0.4763  0.3541
  852MPD2    C112564   3.467   3.602  10.111  0.6068 -0.0221 -0.2271
  852MPD2    C212565   3.524   3.727  10.096 -0.0639 -0.5605  0.4123
  852MPD2    C312566   3.577   3.761   9.975 -0.5622 -0.5609  0.0484
  852MPD2    C412567   3.573   3.664   9.874 -0.5358 -0.1179 -0.5858
  852MPD2    C512568   3.510   3.543   9.889  0.0551  0.2633 -0.9099
  852MPD2     H12569   3.506   3.796  10.178 -1.1916 -0.3719  0.0138
  852MPD2    H112570   3.612   3.677   9.774  2.1004 -2.8767  0.0816
  852MPD2    H212571   3.399   3.419  10.015 -1.6499  0.7732  2.2575
  852MPD2    H312572   3.503   3.478   9.803  0.8793  1.1031 -1.6074
  852MPD2     N12573   3.642   3.884   9.972 -0.2436  0.0881  0.6061
  852MPD2    H512574   3.634   3.936  10.059 -2.6091  2.1550 -0.8391
  852MPD2    N112575   3.402   3.584  10.232 -0.4812  0.4496  0.1201
  852MPD2    H712576   3.414   3.662  10.296 -0.0516  0.5077 -0.0308
  853MPD2     C12577   0.743   2.943  12.384 -0.2565 -0.2868  0.3460
  853MPD2    C112578   0.613   2.989  12.377 -0.6034 -0.8604  0.6073
  853MPD2    C212579   0.547   2.986  12.259 -0.9050 -0.0793 -0.1987
  853MPD2    C312580   0.597   2.939  12.138  0.0495 -0.0706  0.2308
  853MPD2    C412581   0.726   2.892  12.145  0.3111  0.8243 -0.3520
  853MPD2    C512582   0.793   2.887  12.269  1.0391  0.4538  0.4031
  853MPD2     H12583   0.445   3.023  12.265 -1.0599 -0.5533  0.1293
  853MPD2    H112584   0.763   2.828  12.066  0.4531 -0.0229  0.3902
  853MPD2    H212585   0.804   2.947  12.474 -1.0109 -0.6294  0.8699
  853MPD2    H312586   0.894   2.848  12.272  1.5047  1.6104 -0.2780
  853MPD2     N12587   0.519   2.918  12.020 -0.7991  0.5440  0.2211
  853MPD2    H512588   0.572   2.882  11.941  1.7030 -1.7084  2.8706
  853MPD2    N112589   0.559   3.028  12.499  0.0939 -0.8290  0.3216
  853MPD2    H712590   0.604   3.007  12.588 -2.0494  0.7677  1.7589
  854MPD2     C12591   1.887   3.166  12.785  0.2314 -0.5458  0.9879
  854MPD2    C112592   1.937   3.239  12.673  0.7181 -0.1867 -0.2727
  854MPD2    C212593   2.071   3.232  12.646  0.2479 -0.4804  0.3435
  854MPD2    C312594   2.160   3.160  12.727  0.2443  0.4394  0.3223
  854MPD2    C412595   2.116   3.105  12.843  0.3768  0.0062 -0.1632
  854MPD2    C512596   1.979   3.104  12.868 -0.4722  0.1782  0.1884
  854MPD2     H12597   2.116   3.269  12.555  0.1817  1.2496  1.0147
  854MPD2    H112598   2.181   3.058  12.916  1.4046  0.2272 -0.9428
  854MPD2    H212599   1.783   3.160  12.814  0.1098 -1.3728  0.3585
  854MPD2    H312600   1.946   3.053  12.957 -0.7391  2.3771  1.3371
  854MPD2     N12601   2.299   3.173  12.711  0.1188 -1.0317  0.5684
  854MPD2    H512602   2.351   3.130  12.787 -0.4679 -0.1116  1.4791
  854MPD2    N112603   1.844   3.327  12.603  0.3015  0.0077  0.1244
  854MPD2    H712604   1.748   3.326  12.637  0.3401 -0.4862  0.2128
  855MPD2     C12605   2.586   3.541  13.334 -0.1847  0.0967 -0.5633
  855MPD2    C112606   2.660   3.429  13.324 -0.5317  0.1037 -0.1703
  855MPD2    C212607   2.689   3.390  13.194  0.2174  0.2008  0.8052
  855MPD2    C312608   2.640   3.455  13.085 -0.4321  0.0730 -0.5146
  855MPD2    C412609   2.566   3.569  13.104 -0.2124 -0.5028 -0.0702
  855MPD2    C512610   2.539   3.616  13.225  0.0585  0.7135 -0.3340
  855MPD2     H12611   2.742   3.297  13.181  0.5769  0.4302  0.6373
  855MPD2    H112612   2.527   3.613  13.012 -0.4436 -0.5281  0.0152
  855MPD2    H212613   2.573   3.586  13.432  2.3666  0.6684 -0.4844
  855MPD2    H312614   2.474   3.701  13.245 -1.7012 -0.8397  0.6439
  855MPD2     N12615   2.645   3.399  12.952 -0.0263  0.6883  0.6767
  855MPD2    H512616   2.599   3.448  12.875  1.0153 -0.9952 -1.0073
  855MPD2    N112617   2.719   3.357  13.437 -0.1839  0.2927  0.5485
  855MPD2    H712618   2.793   3.288  13.428  0.5955  1.2276 -0.0959
  856MPD2     C12619   0.005   3.830  14.378  0.0391 -0.4084  0.2105
  856MPD2    C112620   0.031   3.944  14.301 -0.7208 -0.1143  0.0336
  856MPD2    C212621   4.685   3.979  14.192  0.1785  0.0299  0.5418
  856MPD2    C312622   4.566   3.907  14.162  0.2677  0.2469  0.3895
  856MPD2    C412623   4.540   3.797  14.248  0.2352 -0.3261  0.0947
  856MPD2    C512624   4.627   3.757  14.345 -0.0535 -0.2641  0.1345
  856MPD2     H12625   4.709   4.062  14.126  2.8099 -1.6355 -0.6277
  856MPD2    H112626   4.448   3.741  14.239 -1.2779  1.8633  2.1223
  856MPD2    H212627   0.067   3.787  14.455  2.4712  0.1335 -1.4204
  856MPD2    H312628   4.607   3.667  14.401  1.7740  0.4608  1.9444
  856MPD2     N12629   4.482   3.948  14.057  0.4270  0.6615 -0.1430
  856MPD2    H512630   4.499   4.042  14.023 -0.6769  0.8323 -0.2330
  856MPD2    N112631   0.139   4.028  14.338 -0.4671 -0.3078 -0.1680
  856MPD2    H712632   0.151   4.114  14.285  2.9799 -0.3866  0.5078
  857MPD2     C12633   1.721   1.429  12.598  0.1826  0.7487 -0.0692
  857MPD2    C112634   1.698   1.406  12.735 -0.3627 -0.0752 -0.5878
  857MPD2    C212635   1.703   1.515  12.822 -0.4356  0.4625 -0.6013
  857MPD2    C312636   1.725   1.640  12.774  0.4777 -0.0163 -0.2063
  857MPD2    C412637   1.743   1.658  12.638  0.3488 -0.2721 -0.1335
  857MPD2    C512638   1.748   1.554  12.554  0.0624  0.3729  0.8367
  857MPD2     H12639   1.687   1.498  12.928 -2.9854  2.3870 -0.6906
  857MPD2    H112640   1.762   1.758  12.600  0.6212  0.3382  1.6103
  857MPD2    H212641   1.736   1.340  12.538  3.7122  0.2281  1.6191
  857MPD2    H312642   1.758   1.568  12.447  0.4765  1.1300  0.9727
  857MPD2     N12643   1.710   1.742  12.861  0.1302 -0.0857 -0.2298
  857MPD2    H512644   1.706   1.722  12.960  0.2363 -0.5650 -0.3253
  857MPD2    N112645   1.688   1.269  12.774  0.4859  0.0252  0.1998
  857MPD2    H712646   1.723   1.203  12.705  1.2658 -1.6303  2.1481
  858MPD2     C12647   2.005   1.358  16.353  0.3990  0.4811  0.0001
  858MPD2    C112648   2.002   1.220  16.391 -0.8718 -0.4340  0.3940
  858MPD2    C212649   2.010   1.189  16.535 -1.0109 -0.1242  0.2139
  858MPD2    C312650   2.023   1.289  16.630  0.3395  0.3196  0.2088
  858MPD2    C412651   2.033   1.418  16.593 -0.8993 -0.4533 -0.2363
  858MPD2    C512652   2.033   1.448  16.452 -0.0731  0.3243 -0.5410
  858MPD2     H12653   2.002   1.087  16.572  0.0274 -0.2078  0.2098
  858MPD2    H112654   2.046   1.498  16.666  2.7304 -0.2037 -1.1278
  858MPD2    H212655   1.999   1.395  16.252 -0.5441  1.1792  0.3147
  858MPD2    H312656   2.049   1.550  16.421 -1.6278 -0.2278 -3.1611
  858MPD2     N12657   2.015   1.268  16.763 -0.2811 -0.1701 -0.3407
  858MPD2    H512658   1.991   1.352  16.816 -2.2177 -0.0327 -1.4254
  858MPD2    N112659   1.993   1.115  16.293 -0.1264  0.4490 -0.0394
  858MPD2    H712660   2.025   1.146  16.202  0.5958  2.2645  0.8313
  859MPD2     C12661   1.128   2.616  15.698  0.1975 -1.0387  0.5636
  859MPD2    C112662   1.036   2.631  15.592 -0.5017  0.5797 -0.7208
  859MPD2    C212663   1.013   2.520  15.518 -0.1695 -0.1769  0.0130
  859MPD2    C312664   1.067   2.393  15.554 -0.8138 -0.3888 -0.0293
  859MPD2    C412665   1.150   2.380  15.663 -0.3687 -0.6643  0.6932
  859MPD2    C512666   1.176   2.492  15.731  0.1648  0.1471  0.5621
  859MPD2     H12667   0.947   2.526  15.432  0.5148 -1.1847 -0.5865
  859MPD2    H112668   1.181   2.282  15.698  3.3380 -0.2257 -1.2899
  859MPD2    H212669   1.158   2.699  15.761  1.9123 -0.6580 -0.7758
  859MPD2    H312670   1.250   2.476  15.809  0.8154 -1.1233 -0.3022
  859MPD2     N12671   1.030   2.271  15.494 -0.2593  0.3614 -0.1636
  859MPD2    H512672   1.078   2.190  15.531 -1.6900  0.1784  1.2870
  859MPD2    N112673   0.986   2.757  15.569  0.1967  0.2748 -0.0613
  859MPD2    H712674   1.029   2.834  15.619  0.0139 -0.0285  0.5612
  860MPD2     C12675   3.502   3.897  11.841  0.4770  0.3194 -0.2866
  860MPD2    C112676   3.418   3.900  11.946  0.1587 -0.3536  0.1702
  860MPD2    C212677   3.287   3.869  11.930 -0.5434 -0.3259  0.1172
  860MPD2    C312678   3.231   3.832  11.806  0.7426  0.3736  0.5378
  860MPD2    C412679   3.320   3.818  11.705  0.2372 -0.9429  0.5639
  860MPD2    C512680   3.448   3.867  11.720 -0.6182 -0.4614  0.0847
  860MPD2     H12681   3.225   3.872  12.019 -0.7399 -1.4467  0.0188
  860MPD2    H112682   3.282   3.786  11.609  3.0198 -2.0441 -0.1878
  860MPD2    H212683   3.605   3.929  11.848  0.2877  0.2727  2.4925
  860MPD2    H312684   3.510   3.874  11.631  0.6576 -1.5897  0.8812
  860MPD2     N12685   3.085   3.819  11.777 -0.0310  0.0322  0.1355
  860MPD2    H512686   3.059   3.790  11.683  0.1491  1.8114 -0.4828
  860MPD2    N112687   3.458   3.922  12.086 -0.3894  0.1946  0.7848
  860MPD2    H712688   3.390   3.887  12.152 -2.1628  2.0050 -0.1005
  861MPD2     C12689   2.395   1.944  11.142 -0.5287  0.6319  0.1684
  861MPD2    C112690   2.285   1.856  11.149 -0.5028  0.8935 -0.5197
  861MPD2    C212691   2.198   1.850  11.044  0.1954 -0.2624 -0.2541
  861MPD2    C312692   2.210   1.924  10.926 -0.0874 -0.1524  0.6963
  861MPD2    C412693   2.316   2.015  10.920  0.8934  0.3376 -0.1283
  861MPD2    C512694   2.401   2.021  11.027  0.2898  0.6570 -0.0317
  861MPD2     H12695   2.124   1.771  11.045 -1.9537  1.7787  1.4483
  861MPD2    H112696   2.354   2.077  10.839  0.3993  1.1019  0.2262
  861MPD2    H212697   2.460   1.963  11.227 -1.2639 -0.4098  0.9610
  861MPD2    H312698   2.471   2.104  11.025  0.7597  0.3240  2.4374
  861MPD2     N12699   2.128   1.914  10.808  0.1431  0.2652  0.1601
  861MPD2    H512700   2.135   1.987  10.738  2.6736 -0.8783 -0.8117
  861MPD2    N112701   2.263   1.770  11.256 -0.0680 -0.2508  0.2472
  861MPD2    H712702   2.175   1.720  11.265 -0.2394 -0.0027 -0.0319
  862MPD2     C12703   1.556   1.403  10.464  0.3330  0.0373  0.2186
  862MPD2    C112704   1.622   1.425  10.581 -1.0198 -0.0799  0.2259
  862MPD2    C212705   1.630   1.321  10.670 -0.1436  0.1345  0.4498
  862MPD2    C312706   1.540   1.214  10.660 -0.3463 -0.3299 -0.0181
  862MPD2    C412707   1.469   1.197  10.544 -0.5751 -0.2103  0.4331
  862MPD2    C512708   1.492   1.289  10.445  0.0716  0.1993  0.0674
  862MPD2     H12709   1.694   1.332  10.757 -0.6678 -2.1047  1.1316
  862MPD2    H112710   1.415   1.105  10.526  3.8586 -2.6268 -0.5297
  862MPD2    H212711   1.548   1.473  10.381  3.1693 -0.4299 -0.4659
  862MPD2    H312712   1.451   1.272  10.346  1.6204  1.4113 -0.7858
  862MPD2     N12713   1.536   1.110  10.755 -0.6657 -0.5088  0.0147
  862MPD2    H512714   1.469   1.038  10.730 -0.1199 -1.3948  1.1010
  862MPD2    N112715   1.697   1.545  10.613 -0.5625 -0.6310  0.4606
  862MPD2    H712716   1.754   1.548  10.697 -1.8174  0.3878  1.2751
  863MPD2     C12717   0.428   4.538  16.680 -0.0286  0.2623 -0.0685
  863MPD2    C112718   0.355   4.576  16.790 -0.3892  0.2929 -0.6707
  863MPD2    C212719   0.425   4.590  16.905  0.5770  0.0287 -0.1553
  863MPD2    C312720   0.569   4.575  16.910  0.0816  0.3913  0.0551
  863MPD2    C412721   0.636   4.547  16.792 -0.4708 -0.4054  0.4295
  863MPD2    C512722   0.564   4.522  16.684  0.5161 -0.6707 -0.0578
  863MPD2     H12723   0.368   4.605  16.997  0.2329 -0.0757 -0.3513
  863MPD2    H112724   0.744   4.546  16.784 -0.5403  0.4673 -0.5788
  863MPD2    H212725   0.379   4.547  16.583 -2.1371 -0.0729  0.9717
  863MPD2    H312726   0.625   4.505  16.596 -1.1777 -2.4499 -0.8773
  863MPD2     N12727   0.642   4.601  17.020  0.5176 -0.0351 -0.3241
  863MPD2    H512728   0.741   4.618  17.009  0.4820 -1.0450 -2.1964
  863MPD2    N112729   0.219   4.603  16.783  0.3284 -0.6267 -0.3014
  863MPD2    H712730   0.165   4.596  16.697  0.2394  0.0326 -0.2965
  864MPD2     C12731   0.938   0.674  17.228  0.0481 -0.1754 -1.0083
  864MPD2    C112732   1.021   0.620  17.132 -0.0078 -0.5773  0.5278
  864MPD2    C212733   1.107   0.713  17.070 -0.0048 -0.0389 -0.2663
  864MPD2    C312734   1.106   0.847  17.101 -0.8379  0.1333 -0.1277
  864MPD2    C412735   1.024   0.888  17.202 -0.1113  0.0173 -0.1078
  864MPD2    C512736   0.954   0.803  17.275 -0.1700  0.2217 -0.0966
  864MPD2     H12737   1.167   0.679  16.986 -0.0544  3.1466 -1.5874
  864MPD2    H112738   1.023   0.989  17.241 -1.7542 -0.6069  1.4323
  864MPD2    H212739   0.874   0.614  17.291  0.6555 -0.2822 -0.4926
  864MPD2    H312740   0.886   0.832  17.354 -1.0603  0.5057 -0.9737
  864MPD2     N12741   1.185   0.938  17.038  0.5002  0.1057 -0.8243
  864MPD2    H512742   1.186   1.028  17.083 -0.6322 -1.0862  1.5556
  864MPD2    N112743   0.998   0.487  17.086  0.4398  0.4106 -0.2133
  864MPD2    H712744   0.914   0.439  17.116  1.0345 -1.0162 -0.8479
  865MPD2     C12745   1.160   1.583  16.439 -0.0225  0.2496 -0.1676
  865MPD2    C112746   1.154   1.454  16.483  0.0151 -0.0657  0.1588
  865MPD2    C212747   1.154   1.418  16.615 -0.5775 -0.5608  0.3260
  865MPD2    C312748   1.173   1.521  16.709  0.3462 -0.2574  0.2141
  865MPD2    C412749   1.168   1.655  16.668 -0.3296 -0.1698 -0.2635
  865MPD2    C512750   1.168   1.682  16.537  0.1116  0.7567 -0.5105
  865MPD2     H12751   1.140   1.315  16.644 -0.3525  0.0371  2.5871
  865MPD2    H112752   1.159   1.736  16.739 -0.7120 -0.7680  0.3758
  865MPD2    H212753   1.168   1.613  16.335  0.0592 -1.3092 -0.6070
  865MPD2    H312754   1.165   1.786  16.507  0.8567  0.8763 -0.1602
  865MPD2     N12755   1.188   1.504  16.846 -0.2331  0.5283 -0.6245
  865MPD2    H512756   1.179   1.590  16.899  0.1564  0.2642 -0.1273
  865MPD2    N112757   1.171   1.360  16.383 -0.1697 -0.1629 -0.4025
  865MPD2    H712758   1.181   1.404  16.292  3.0673  1.1609  0.5853
  866MPD2     C12759   2.398   2.000  11.621 -0.0196  0.0104 -0.3586
  866MPD2    C112760   2.420   2.075  11.507 -0.8069 -0.5981  0.3736
  866MPD2    C212761   2.321   2.150  11.453 -0.7556  0.4820 -0.1518
  866MPD2    C312762   2.191   2.142  11.510 -0.4964  0.2938  0.7687
  866MPD2    C412763   2.162   2.069  11.622  0.0657 -0.2725  0.1185
  866MPD2    C512764   2.271   2.011  11.679 -0.7692 -0.0525  0.5580
  866MPD2     H12765   2.345   2.206  11.363  1.0159  0.5975  0.4062
  866MPD2    H112766   2.070   2.067  11.680  0.1665  1.0298  0.3166
  866MPD2    H212767   2.461   1.923  11.664 -2.0301 -1.2214  0.4112
  866MPD2    H312768   2.254   1.958  11.772 -1.8163 -0.5543  0.0763
  866MPD2     N12769   2.084   2.210  11.453  0.1138 -0.9779  0.4427
  866MPD2    H512770   1.993   2.174  11.480 -1.0152  0.5182 -1.3984
  866MPD2    N112771   2.547   2.070  11.453 -0.4257 -0.2203  0.2536
  866MPD2    H712772   2.604   2.003  11.504 -1.0144 -0.0354  1.1643
  867MPD2     C12773   4.562   1.348  16.648  0.4401  0.1304 -0.4682
  867MPD2    C112774   4.608   1.346  16.777  0.1210  0.2693  0.4429
  867MPD2    C212775   4.611   1.461  16.860  0.5278 -0.1604 -0.1171
  867MPD2    C312776   4.550   1.572  16.810  0.1713  0.2435 -1.0182
  867MPD2    C412777   4.499   1.574  16.684 -0.2231 -0.5137 -0.7623
  867MPD2    C512778   4.510   1.467  16.602 -0.4091  0.1886  0.0256
  867MPD2     H12779   4.636   1.448  16.964 -0.6977  0.6091  0.2634
  867MPD2    H112780   4.462   1.660  16.628 -0.1006 -0.9474 -1.5096
  867MPD2    H212781   4.576   1.261  16.585 -1.8299  0.7988 -1.8887
  867MPD2    H312782   4.473   1.472  16.500 -0.2749 -0.7478 -0.0728
  867MPD2     N12783   4.527   1.686  16.889  0.0068  0.5083 -0.1318
  867MPD2    H512784   4.475   1.757  16.839  0.1875  0.2269 -0.7172
  867MPD2    N112785   4.658   1.218  16.823 -0.1652 -0.5552 -0.7016
  867MPD2    H712786   4.664   1.148  16.749 -1.8944 -1.7023  0.2222
  868MPD2     C12787   1.626   4.733  13.201  0.0283 -0.8777 -0.2541
  868MPD2    C112788   1.697   4.708  13.307  0.0269  0.2933  0.3763
  868MPD2    C212789   1.656   0.004  13.432 -1.1808 -0.5101 -0.6482
  868MPD2    C312790   1.528   0.063  13.450 -0.0995 -0.3640 -0.2928
  868MPD2    C412791   1.463   0.107  13.331 -0.0335 -0.2986 -0.0224
  868MPD2    C512792   1.514   0.069  13.210 -0.6329 -0.0363  0.2974
  868MPD2     H12793   1.706   4.716  13.526 -1.6866  0.0092 -0.2439
  868MPD2    H112794   1.383   0.181  13.329  0.3529  0.1020 -0.5988
  868MPD2    H212795   1.658   4.709  13.100  1.5952 -0.3337  0.1045
  868MPD2    H312796   1.453   0.103  13.127 -0.2717  1.1992  0.5388
  868MPD2     N12797   1.474   0.088  13.581 -0.0128  0.1394 -0.2089
  868MPD2    H512798   1.524   0.071  13.668 -1.9089 -1.1165  0.6310
  868MPD2    N112799   1.820   4.650  13.281  0.7006 -0.4060  0.0296
  868MPD2    H712800   1.838   4.601  13.194 -0.1678  0.8532 -0.8432
  869MPD2     C12801   2.815   2.583   0.484  0.5240  0.0470  0.3312
  869MPD2    C112802   2.687   2.625   0.517 -0.1570 -0.2495  0.0058
  869MPD2    C212803   2.674   2.735   0.601 -0.2515  0.5207  0.0343
  869MPD2    C312804   2.786   2.799   0.662 -0.0928 -0.4963  0.3678
  869MPD2    C412805   2.910   2.758   0.618 -0.1054  0.0215  0.8999
  869MPD2    C512806   2.924   2.653   0.532 -0.5543  0.6062 -0.1344
  869MPD2     H12807   2.576   2.751   0.645 -0.3968 -0.3543  0.0171
  869MPD2    H112808   3.001   2.803   0.658  0.7967  0.6198 -1.8042
  869MPD2    H212809   2.841   2.502   0.418 -0.0373 -0.8545  1.2248
  869MPD2    H312810   3.022   2.625   0.497 -1.6394 -2.6612 -0.5898
  869MPD2     N12811   2.786   2.906   0.751 -0.7184  0.1212 -0.4618
  869MPD2    H512812   2.875   2.941   0.785 -1.0169 -0.3975  0.8440
  869MPD2    N112813   2.577   2.546   0.474 -0.2464 -0.4010 -0.3992
  869MPD2    H712814   2.596   2.462   0.421  2.8309 -1.8620  3.0310
  870MPD2     C12815   3.005   2.193   1.205 -0.1753  0.2167  0.2234
  870MPD2    C112816   2.916   2.103   1.152  0.4201  0.5706 -0.0269
  870MPD2    C212817   2.790   2.143   1.113 -0.2952  0.4570  0.2376
  870MPD2    C312818   2.747   2.275   1.145 -0.3640  0.2356  0.3384
  870MPD2    C412819   2.843   2.363   1.203  0.0155  0.5030 -0.3778
  870MPD2    C512820   2.970   2.321   1.233 -0.1892 -0.4294  0.0005
  870MPD2     H12821   2.714   2.069   1.089 -2.0653  2.0848  0.7677
  870MPD2    H112822   2.812   2.457   1.248  0.6723  1.2312 -1.4413
  870MPD2    H212823   3.103   2.155   1.231 -0.9840 -1.6674  0.5656
  870MPD2    H312824   3.014   2.385   1.309  2.5840 -2.0322 -0.2594
  870MPD2     N12825   2.607   2.311   1.115 -0.2481  0.3038  1.0586
  870MPD2    H512826   2.541   2.240   1.083 -0.4409  1.1655 -0.4374
  870MPD2    N112827   2.964   1.971   1.130  0.3397 -0.2031 -0.7958
  870MPD2    H712828   3.060   1.946   1.154 -0.1402 -1.4335 -0.1745
  871MPD2     C12829   3.406   1.297  16.455  0.4383 -0.1739  0.7891
  871MPD2    C112830   3.403   1.246  16.580 -1.0990 -0.2107 -0.1147
  871MPD2    C212831   3.424   1.112  16.595  0.1632 -0.5122  0.4805
  871MPD2    C312832   3.467   1.040  16.490  0.6853  0.7203  0.0316
  871MPD2    C412833   3.499   1.098  16.367 -0.0112  0.2670  1.1862
  871MPD2    C512834   3.469   1.230  16.357 -0.3978  0.3436 -0.6978
  871MPD2     H12835   3.404   1.067  16.692  0.9683  1.1031  1.3939
  871MPD2    H112836   3.541   1.044  16.283  1.2718  1.1279  1.2624
  871MPD2    H212837   3.385   1.402  16.436  1.8538 -0.1435 -0.6224
  871MPD2    H312838   3.500   1.288  16.270  2.8037 -0.8070 -0.3172
  871MPD2     N12839   3.494   0.905  16.507  0.2230  0.1971 -0.0776
  871MPD2    H512840   3.476   0.870  16.600 -0.7729 -0.4143 -0.4880
  871MPD2    N112841   3.383   1.343  16.679 -0.0321 -0.3074  0.1773
  871MPD2    H712842   3.368   1.440  16.653 -3.4039 -0.5763  1.1180
  872MPD2     C12843   4.260   3.266  14.084  0.5891 -0.4239 -0.1151
  872MPD2    C112844   4.286   3.399  14.044  0.0593  0.3533  0.0526
  872MPD2    C212845   4.182   3.491  14.069  0.2769  0.0660  0.5392
  872MPD2    C312846   4.067   3.451  14.135  0.2345  0.0433  0.7745
  872MPD2    C412847   4.050   3.320  14.172 -0.2220  0.0681  0.3863
  872MPD2    C512848   4.147   3.232  14.147 -0.0684  0.1947  0.1732
  872MPD2     H12849   4.187   3.597  14.044 -0.7475 -0.0453 -0.1531
  872MPD2    H112850   3.952   3.291  14.208 -0.4933 -0.8106 -1.0526
  872MPD2    H212851   4.340   3.198  14.059  0.5848 -0.9183  1.2264
  872MPD2    H312852   4.138   3.125  14.162 -2.8396  0.4442  0.3323
  872MPD2     N12853   3.971   3.544  14.190 -0.1789 -0.4933 -0.4788
  872MPD2    H512854   3.893   3.498  14.236 -0.0576 -0.8281 -0.6030
  872MPD2    N112855   4.410   3.450  14.003  0.0370  0.1567 -0.6470
  872MPD2    H712856   4.421   3.551  13.991  0.1673  0.0755 -1.1761
  873MPD2     C12857   0.871   4.014   0.906 -0.3252 -0.6814 -0.0141
  873MPD2    C112858   0.910   3.954   1.017 -0.8049  0.2906 -0.6730
  873MPD2    C212859   0.887   3.819   1.023 -0.6958  0.0104  0.5010
  873MPD2    C312860   0.853   3.743   0.911  0.4526  0.2664  0.4890
  873MPD2    C412861   0.847   3.811   0.794 -0.2219 -0.0243  0.3302
  873MPD2    C512862   0.848   3.945   0.794  0.5531 -0.7196 -0.4497
  873MPD2     H12863   0.901   3.771   1.120 -0.1023 -1.3139 -0.2394
  873MPD2    H112864   0.818   3.767   0.700 -0.8642  1.3140 -0.0937
  873MPD2    H212865   0.876   4.123   0.906  1.4584 -0.7708 -0.0040
  873MPD2    H312866   0.843   3.995   0.699 -0.5660  0.5475  0.2803
  873MPD2     N12867   0.848   3.608   0.915  0.4448 -0.4180  0.0534
  873MPD2    H512868   0.897   3.566   0.993  0.4576  0.7427  0.6675
  873MPD2    N112869   0.949   4.032   1.123  0.2326  0.1034  0.3998
  873MPD2    H712870   0.960   4.131   1.104  0.9680 -0.2525 -1.0464
  874MPD2     C12871   0.737   3.624  16.028 -0.1689  0.2554 -0.4854
  874MPD2    C112872   0.812   3.630  16.145  0.2694 -0.1659  0.5780
  874MPD2    C212873   0.926   3.713  16.147 -0.6375 -0.5729 -0.1913
  874MPD2    C312874   0.961   3.780  16.033  0.1153  0.7788  0.0213
  874MPD2    C412875   0.888   3.768  15.916  0.5835 -0.4038 -0.0887
  874MPD2    C512876   0.771   3.698  15.917  0.7887  0.3304  0.0729
  874MPD2     H12877   0.998   3.718  16.228 -0.1041 -0.0026 -0.7018
  874MPD2    H112878   0.922   3.818  15.825  1.1554 -2.2706 -0.9039
  874MPD2    H212879   0.659   3.550  16.015 -0.8860  0.7996  0.6829
  874MPD2    H312880   0.712   3.688  15.827  0.1316  0.2499  0.5177
  874MPD2     N12881   1.085   3.842  16.040  0.1555 -0.3160  0.1523
  874MPD2    H512882   1.122   3.838  16.134  0.8235  2.1596 -0.0145
  874MPD2    N112883   0.770   3.550  16.251  0.6026 -0.3343  0.0734
  874MPD2    H712884   0.690   3.489  16.235 -0.3989  0.7939  0.7891
  875MPD2     C12885   1.920   1.818  14.581  0.5706 -0.2952  0.4141
  875MPD2    C112886   1.890   1.944  14.534 -0.2586 -0.1264 -0.1101
  875MPD2    C212887   1.904   2.051  14.627  0.9751 -0.3050  0.0948
  875MPD2    C312888   1.955   2.036  14.755 -1.1974 -0.5902 -0.0090
  875MPD2    C412889   1.977   1.905  14.804 -0.2998  0.5699  0.8746
  875MPD2    C512890   1.969   1.801  14.709 -0.4875  0.4140 -0.4722
  875MPD2     H12891   1.881   2.149  14.587 -0.4288  0.0763  1.8423
  875MPD2    H112892   2.024   1.894  14.901 -1.9722  1.1000  1.7409
  875MPD2    H212893   1.909   1.730  14.519  0.9814 -1.4140  1.9229
  875MPD2    H312894   1.980   1.701  14.749 -0.3835  0.7466  0.3195
  875MPD2     N12895   1.975   2.135  14.851 -0.6009 -0.4182  0.4674
  875MPD2    H512896   2.012   2.110  14.942  0.5118  0.8220  0.3504
  875MPD2    N112897   1.838   1.968  14.401 -0.1916  0.0884 -0.1156
  875MPD2    H712898   1.803   2.062  14.392  0.6316  0.2292 -1.8327
  876MPD2     C12899   0.867   3.321  16.062 -0.0849  0.0506  0.6696
  876MPD2    C112900   1.000   3.336  16.022 -0.8326 -0.6267 -0.0248
  876MPD2    C212901   1.096   3.258  16.086 -0.1399  0.7392 -0.7352
  876MPD2    C312902   1.052   3.151  16.161  0.2874  0.0769  0.2728
  876MPD2    C412903   0.924   3.125  16.186  0.0379 -0.5053 -0.0848
  876MPD2    C512904   0.838   3.219  16.147 -0.4733 -0.3615 -0.0984
  876MPD2     H12905   1.203   3.266  16.070  0.1160 -0.8803  0.1976
  876MPD2    H112906   0.891   3.042  16.248 -3.1978  2.3526  2.0468
  876MPD2    H212907   0.787   3.380  16.017 -0.3304 -1.7358 -1.2415
  876MPD2    H312908   0.734   3.197  16.170  0.0834 -0.4602  2.2816
  876MPD2     N12909   1.158   3.076  16.208 -0.3155 -0.0670 -0.3368
  876MPD2    H512910   1.250   3.093  16.167 -0.1241  0.6028  0.3607
  876MPD2    N112911   1.037   3.426  15.919  0.1984 -0.2090 -0.0087
  876MPD2    H712912   0.961   3.470  15.868 -0.4654 -0.1504  1.0317
  877MPD2     C12913   0.804   3.512  15.229 -0.3529 -0.2178  0.3249
  877MPD2    C112914   0.919   3.599  15.230  0.2351  0.2313 -0.2985
  877MPD2    C212915   0.975   3.636  15.106  0.2956  0.0035 -0.2689
  877MPD2    C312916   0.926   3.577  14.989  0.5456  0.3259  0.7605
  877MPD2    C412917   0.822   3.488  14.994  0.8679 -0.3592 -0.1319
  877MPD2    C512918   0.758   3.462  15.107 -0.0127 -0.0423 -0.7469
  877MPD2     H12919   1.063   3.699  15.100  0.3650 -0.1068 -0.4263
  877MPD2    H112920   0.786   3.440  14.903  1.0459  1.7349 -1.3202
  877MPD2    H212921   0.745   3.484  15.315 -0.3282 -1.2458  0.0165
  877MPD2    H312922   0.677   3.391  15.113 -0.9299  1.2070  1.4485
  877MPD2     N12923   0.985   3.589  14.864  0.3062 -0.7985 -0.8715
  877MPD2    H512924   0.954   3.523  14.795 -1.0463 -0.1879 -0.8480
  877MPD2    N112925   0.979   3.644  15.352  0.2590  0.2489 -0.6233
  877MPD2    H712926   1.060   3.705  15.339  0.2319  0.4213  0.0215
  878MPD2     C12927   0.506   2.146  13.121 -0.5016  0.2930  0.3155
  878MPD2    C112928   0.547   2.281  13.131  0.3824  1.0496 -0.3756
  878MPD2    C212929   0.508   2.352  13.244 -0.7592  0.4113  0.3285
  878MPD2    C312930   0.439   2.294  13.341  0.4180 -0.1437  0.1634
  878MPD2    C412931   0.412   2.158  13.346 -0.3110 -0.0108  0.2350
  878MPD2    C512932   0.443   2.088  13.232  0.7533 -0.3347 -0.9134
  878MPD2     H12933   0.525   2.458  13.263 -0.6666  0.2670  1.0566
  878MPD2    H112934   0.365   2.101  13.425 -1.5634 -0.3019 -0.7135
  878MPD2    H212935   0.537   2.085  13.037 -0.2823 -1.9398  2.0116
  878MPD2    H312936   0.404   1.987  13.220 -0.2553  0.1584 -1.7954
  878MPD2     N12937   0.397   2.373  13.448  0.1108  0.9410  0.0019
  878MPD2    H512938   0.429   2.468  13.433  0.8117  0.9802  1.7254
  878MPD2    N112939   0.634   2.336  13.031  0.3331 -0.2492 -0.0389
  878MPD2    H712940   0.668   2.273  12.959 -0.7050  0.1257 -0.8566
  879MPD2     C12941   1.108   4.208  17.625  0.5209  0.0556 -0.1739
  879MPD2    C112942   1.146   4.285  17.512  0.1499 -0.3174 -0.0219
  879MPD2    C212943   1.063   4.281  17.392  0.2923 -0.5136 -0.4207
  879MPD2    C312944   0.958   4.186  17.389  0.0112  0.1687  0.4117
  879MPD2    C412945   0.933   4.104  17.495  0.8581  0.3464 -0.8929
  879MPD2    C512946   1.010   4.112  17.606  0.4475 -0.4360  0.5071
  879MPD2     H12947   1.086   4.344  17.307  2.6351 -0.5139  0.2238
  879MPD2    H112948   0.860   4.024  17.490  2.0554 -0.6228 -2.7149
  879MPD2    H212949   1.169   4.216  17.714 -1.9113 -2.2596  1.7041
  879MPD2    H312950   0.997   4.034  17.680 -0.1570 -2.9251 -2.2197
  879MPD2     N12951   0.880   4.155  17.272  0.4434 -0.6209  0.3402
  879MPD2    H512952   0.804   4.091  17.289 -0.9323  1.1498  0.8973
  879MPD2    N112953   1.257   4.366  17.525 -0.2809  0.8626  0.1825
  879MPD2    H712954   1.298   4.374  17.617  3.8809  1.7259 -1.7818
  880MPD2     C12955   2.230   1.278   0.155 -0.2988 -0.2905  0.1454
  880MPD2    C112956   2.323   1.376   0.190  0.9588  0.8788 -0.2208
  880MPD2    C212957   2.439   1.340   0.250  0.3035  0.0306 -0.9045
  880MPD2    C312958   2.465   1.204   0.284 -0.2129 -0.7348 -0.2255
  880MPD2    C412959   2.370   1.105   0.256  0.3947  0.3173 -0.0637
  880MPD2    C512960   2.254   1.143   0.194  0.5063  0.1890 -0.3703
  880MPD2     H12961   2.528   1.402   0.251 -0.0179  0.5008 -1.5616
  880MPD2    H112962   2.379   1.004   0.294  2.3430  1.1024  1.6126
  880MPD2    H212963   2.134   1.299   0.109  0.5090  0.7468 -1.0995
  880MPD2    H312964   2.178   1.071   0.165 -0.7665  1.8445 -1.1328
  880MPD2     N12965   2.575   1.178   0.365 -0.2633  0.0159  0.0538
  880MPD2    H512966   2.626   1.263   0.387 -0.6990  0.0635  0.8871
  880MPD2    N112967   2.310   1.511   0.169  0.9837 -0.0901 -0.1939
  880MPD2    H712968   2.393   1.562   0.197  0.9905 -0.7396  0.9621
  881MPD2     C12969   2.790   2.263  17.532 -0.3605  0.1071  0.4023
  881MPD2    C112970   2.752   2.140  17.489 -0.2603  0.4431  0.4523
  881MPD2    C212971   2.673   2.062  17.574 -0.5630 -0.1516 -0.1977
  881MPD2    C312972   2.636   2.113  17.701 -0.4655  0.7198  0.6323
  881MPD2    C412973   2.679   2.238   0.001 -0.0431  0.2749 -0.0792
  881MPD2    C512974   2.759   2.312  17.652 -0.6536  0.3347  0.1071
  881MPD2     H12975   2.627   1.970  17.538  1.2110 -1.5565  1.1253
  881MPD2    H112976   2.642   2.268   0.098  2.7982  0.3739  0.9532
  881MPD2    H212977   2.841   2.333  17.467 -0.4607 -1.0335 -0.9223
  881MPD2    H312978   2.803   2.408  17.678 -0.5902  0.0334  1.0922
  881MPD2     N12979   2.541   2.041   0.037  0.5617  1.3949 -0.6997
  881MPD2    H512980   2.494   2.104   0.101 -1.9414  0.0448 -1.1758
  881MPD2    N112981   2.771   2.112  17.353  0.1752  0.4236 -0.1376
  881MPD2    H712982   2.814   2.182  17.294  2.0149 -1.0460 -0.5099
  882MPD2     C12983   0.952   3.414  14.215 -0.4245  0.1496 -0.0967
  882MPD2    C112984   0.966   3.499  14.320  0.5131  0.1886 -0.2335
  882MPD2    C212985   0.852   3.534  14.394  0.3492  0.0614  0.2279
  882MPD2    C312986   0.731   3.467  14.372 -0.2226 -0.8367  0.3693
  882MPD2    C412987   0.721   3.383  14.262 -0.7169  0.0878  0.2642
  882MPD2    C512988   0.828   3.354  14.184 -0.1835  0.1054 -0.3605
  882MPD2     H12989   0.842   3.607  14.474 -0.8552  1.4233 -1.1486
  882MPD2    H112990   0.625   3.346  14.227  0.2551 -1.0221 -1.2567
  882MPD2    H212991   1.036   3.375  14.159 -0.2741  0.8987 -0.3891
  882MPD2    H312992   0.822   3.291  14.096 -0.8727  0.4099 -0.5325
  882MPD2     N12993   0.621   3.477  14.455  0.2627  0.1830 -0.3342
  882MPD2    H512994   0.544   3.416  14.431  1.8106 -1.3804 -1.3250
  882MPD2    N112995   1.092   3.550  14.351  0.2196  0.0442  0.0460
  882MPD2    H712996   1.172   3.507  14.305  1.4675  2.5201 -0.0509
  883MPD2     C12997   3.084   3.515  16.266  0.2279  0.5021  0.1234
  883MPD2    C112998   3.071   3.635  16.203  0.3291 -0.4959  0.0895
  883MPD2    C212999   3.142   3.745  16.242  0.4194 -0.1451 -0.1003
  883MPD2    C313000   3.217   3.737  16.353  0.5205 -0.0284 -0.2645
  883MPD2    C413001   3.232   3.618  16.421 -0.0562  0.3179  0.5257
  883MPD2    C513002   3.175   3.505  16.373  0.2767 -0.0780  0.0049
  883MPD2     H13003   3.125   3.837  16.189  0.6349 -0.3602 -0.5445
  883MPD2    H113004   3.303   3.611  16.502  0.8297 -0.7279 -0.3280
  883MPD2    H213005   3.041   3.422  16.230  1.7323 -0.4961  0.8701
  883MPD2    H313006   3.197   3.414  16.427 -0.9375 -0.6875 -0.5290
  883MPD2     N13007   3.268   3.853  16.398  0.5081  0.1138 -0.8860
  883MPD2    H513008   3.259   3.936  16.339 -4.3913 -1.6774 -2.6018
  883MPD2    N113009   2.989   3.648  16.085  0.2750 -0.6802  0.3043
  883MPD2    H713010   2.984   3.741  16.044  0.9260 -0.6136  0.3691
  884MPD2     C13011   0.144   4.162  15.281 -0.0810  0.1131 -0.2692
  884MPD2    C113012   0.172   4.286  15.240 -0.3222 -0.6011  0.0074
  884MPD2    C213013   0.077   4.389  15.256 -0.1452 -0.9398  0.3134
  884MPD2    C313014   4.696   4.374  15.328 -0.5988  0.3737  0.3503
  884MPD2    C413015   4.675   4.242  15.371  0.2065 -1.0328 -0.3362
  884MPD2    C513016   0.025   4.139  15.344 -0.3956 -0.3128  0.3022
  884MPD2     H13017   0.103   4.492  15.232 -0.2918 -0.7041  1.1504
  884MPD2    H113018   4.584   4.218  15.426  1.1423 -1.5516  0.9778
  884MPD2    H213019   0.211   4.077  15.268 -0.0465  0.1274 -0.1843
  884MPD2    H313020   4.733   4.036  15.364  4.3075 -1.2219  2.0824
  884MPD2     N13021   4.608   4.480  15.343  0.3647  0.1008 -0.2875
  884MPD2    H513022   4.614   4.556  15.276  0.4867  1.6912  1.4960
  884MPD2    N113023   0.301   4.315  15.182  0.0513  0.3195 -0.2212
  884MPD2    H713024   0.317   4.407  15.141 -1.7396  0.2321 -1.1472
  885MPD2     C13025   2.959   0.658   0.250 -0.0426 -0.4350  0.0721
  885MPD2    C113026   3.060   0.574   0.234  0.5595  0.2221 -0.0476
  885MPD2    C213027   3.064   0.498   0.120 -0.3811 -0.5833  0.2447
  885MPD2    C313028   2.972   0.529   0.019 -0.1976  0.5543 -0.0360
  885MPD2    C413029   2.876   0.629   0.035 -0.3065 -0.1880 -0.0847
  885MPD2    C513030   2.872   0.696   0.154 -0.0288 -0.3341 -0.0501
  885MPD2     H13031   3.134   0.415   0.113  1.5325  1.2856 -2.4403
  885MPD2    H113032   2.792   0.650  17.710  0.6774 -0.7003 -1.5272
  885MPD2    H213033   2.947   0.711   0.344 -4.2713  0.7873 -1.1803
  885MPD2    H313034   2.801   0.777   0.165 -0.7941 -1.1021  0.6285
  885MPD2     N13035   2.979   0.442  17.644 -0.0482 -0.5140  0.4747
  885MPD2    H513036   3.046   0.366  17.652  1.5427  0.4793 -3.4558
  885MPD2    N113037   3.138   0.547   0.352 -0.1414 -0.0401  0.6222
  885MPD2    H713038   3.123   0.614   0.427 -0.5169  0.4067  0.1453
  886MPD2     C13039   4.605   2.891  15.196 -0.0903 -0.5085 -0.5365
  886MPD2    C113040   4.673   2.958  15.301  0.2868 -0.5001  0.6903
  886MPD2    C213041   4.645   3.092  15.331 -0.5401 -0.4222 -0.1369
  886MPD2    C313042   4.562   3.172  15.245  0.0068 -0.0859  0.2580
  886MPD2    C413043   4.500   3.102  15.135 -0.1231  0.6059 -0.5853
  886MPD2    C513044   4.528   2.968  15.111 -0.1261 -0.2988  1.0681
  886MPD2     H13045   4.710   3.155  15.391 -0.0424 -1.5078  0.4559
  886MPD2    H113046   4.449   3.164  15.062 -0.8892  0.1923 -0.4022
  886MPD2    H213047   4.644   2.803  15.147 -1.0753 -1.1557 -0.1748
  886MPD2    H313048   4.495   2.919  15.019  0.3492  0.1429  0.6672
  886MPD2     N13049   4.534   3.310  15.261  0.4484  0.5845 -0.4189
  886MPD2    H513050   4.478   3.349  15.185 -0.9886 -2.3399 -0.8393
  886MPD2    N113051   0.033   2.897  15.381  0.1840 -0.0867 -0.3690
  886MPD2    H713052   0.086   2.961  15.440 -1.1977 -0.5434  1.3615
  887MPD2     C13053   0.516   3.000  15.880  1.3837 -0.6818 -0.3733
  887MPD2    C113054   0.444   3.060  15.784  0.3004 -0.2481 -0.3241
  887MPD2    C213055   0.400   3.189  15.811  0.0915  0.1991 -0.1371
  887MPD2    C313056   0.415   3.252  15.928  0.3532  0.2265 -0.9083
  887MPD2    C413057   0.494   3.192  16.022  0.5332  0.5092  0.3307
  887MPD2    C513058   0.535   3.061  15.999  0.5887 -0.0384  0.6961
  887MPD2     H13059   0.346   3.244  15.735 -1.0490  0.4940  0.8834
  887MPD2    H113060   0.525   3.244  16.111  1.2511 -1.7392  1.3979
  887MPD2    H213061   0.542   2.894  15.875 -0.5047 -1.0978 -1.2524
  887MPD2    H313062   0.581   3.000  16.076  0.6163 -0.7542  0.1193
  887MPD2     N13063   0.356   3.381  15.937  0.2434  0.5403 -0.4070
  887MPD2    H513064   0.306   3.414  15.856 -0.3261  0.1916 -0.1945
  887MPD2    N113065   0.408   2.988  15.671 -0.0451 -0.5862  0.2009
  887MPD2    H713066   0.326   3.020  15.621 -1.5397 -1.9730  1.8064
  888MPD2     C13067   2.009   3.395  14.902  0.0418  0.8466  0.3414
  888MPD2    C113068   2.070   3.383  15.020  0.6776 -0.9012  0.6848
  888MPD2    C213069   2.158   3.480  15.048 -0.3204  0.0623 -0.2221
  888MPD2    C313070   2.179   3.591  14.966 -0.2107 -0.7384 -0.1237
  888MPD2    C413071   2.113   3.600  14.847  0.1984 -0.0435 -0.3002
  888MPD2    C513072   2.031   3.493  14.813 -0.0454  0.2883  0.4632
  888MPD2     H13073   2.209   3.474  15.144  0.5637  0.7378 -0.6424
  888MPD2    H113074   2.115   3.690  14.787  0.5697 -0.0955 -0.3688
  888MPD2    H213075   1.952   3.313  14.860  0.3394 -0.7588  3.1216
  888MPD2    H313076   1.974   3.492  14.721  1.3670  0.6720 -0.4026
  888MPD2     N13077   2.262   3.693  15.019 -0.5935  0.1040  0.4969
  888MPD2    H513078   2.300   3.680  15.112 -1.5365 -2.4299  0.5404
  888MPD2    N113079   2.046   3.276  15.111 -0.2020 -0.3227 -0.3277
  888MPD2    H713080   2.105   3.273  15.193 -1.8670 -0.4755  0.8486
  889MPD2     C13081   1.484   2.582  12.988  0.0082  0.0053 -0.7366
  889MPD2    C113082   1.590   2.548  13.070  0.0131 -1.0060  0.0011
  889MPD2    C213083   1.669   2.647  13.119 -0.1350  0.4177  0.0574
  889MPD2    C313084   1.631   2.775  13.101 -0.0882  0.0091 -0.2315
  889MPD2    C413085   1.514   2.817  13.035  0.4029  0.1426 -0.0053
  889MPD2    C513086   1.444   2.711  12.986  0.2946 -0.7249  0.4504
  889MPD2     H13087   1.754   2.622  13.182  1.1737  0.4709 -1.6777
  889MPD2    H113088   1.473   2.917  13.039  1.3216  0.3177  4.5706
  889MPD2    H213089   1.408   2.507  12.968 -0.7328  1.2515 -2.6798
  889MPD2    H313090   1.354   2.745  12.937  3.0666  0.8810 -3.5477
  889MPD2     N13091   1.704   2.873  13.168 -0.3640 -0.5275  0.0294
  889MPD2    H513092   1.769   2.835  13.236 -1.6793 -2.9646 -0.0918
  889MPD2    N113093   1.652   2.418  13.069 -0.1016 -0.6129 -0.3760
  889MPD2    H713094   1.734   2.410  13.129 -0.0423  0.3051 -0.3396
  890MPD2     C13095   1.249   4.242  14.937 -0.4427  0.4899 -0.6390
  890MPD2    C113096   1.288   4.317  15.044 -0.2167 -0.0832  0.2188
  890MPD2    C213097   1.300   4.259  15.168 -0.3958 -0.7717  0.0636
  890MPD2    C313098   1.264   4.128  15.184  0.5041 -0.6129 -0.0640
  890MPD2    C413099   1.213   4.052  15.082 -0.8400 -0.1553 -0.2078
  890MPD2    C513100   1.209   4.112  14.960 -0.4446  0.3493  0.6158
  890MPD2     H13101   1.331   4.318  15.253 -3.4160  1.4655 -0.3992
  890MPD2    H113102   1.173   3.952  15.091 -2.5126  0.4672 -0.7189
  890MPD2    H213103   1.237   4.283  14.837  1.1111  0.7313 -0.7230
  890MPD2    H313104   1.157   4.068  14.876 -1.9275  2.6286  0.3253
  890MPD2     N13105   1.280   4.078  15.316 -0.3790 -0.3807 -0.4699
  890MPD2    H513106   1.313   4.142  15.387 -1.6883 -0.0343 -0.1709
  890MPD2    N113107   1.297   4.454  15.022  0.2878  0.5740  0.4125
  890MPD2    H713108   1.273   4.477  14.926  1.3407  0.0819  0.0302
  891MPD2     C13109   4.181   3.221  16.658  0.1113 -0.2115 -0.9112
  891MPD2    C113110   4.075   3.127  16.672 -0.3501  0.3388 -0.0932
  891MPD2    C213111   4.103   2.998  16.713 -0.1558 -0.4697 -1.0530
  891MPD2    C313112   4.229   2.961  16.738  0.3721 -0.0710  0.0514
  891MPD2    C413113   4.338   3.044  16.722  0.2128 -0.3836  0.6714
  891MPD2    C513114   4.305   3.172  16.688  0.4408  0.1757  0.1403
  891MPD2     H13115   4.013   2.940  16.733  1.1457 -2.3708 -0.7749
  891MPD2    H113116   4.440   3.024  16.751  0.5566 -0.3189 -0.4742
  891MPD2    H213117   4.173   3.325  16.632  0.7262  0.4222  1.4426
  891MPD2    H313118   4.384   3.247  16.683  0.7142 -0.1392 -0.2314
  891MPD2     N13119   4.248   2.831  16.800 -0.0182 -0.6006 -0.0811
  891MPD2    H513120   4.166   2.782  16.831  1.3337 -2.7795  0.0428
  891MPD2    N113121   3.939   3.165  16.642  0.2973 -0.5801 -0.0530
  891MPD2    H713122   3.861   3.100  16.647 -2.2378  2.5152  0.1813
  892MPD2     C13123   0.202   4.219  14.904 -0.3366 -0.0117  0.7031
  892MPD2    C113124   0.111   4.124  14.933 -0.4634  0.4152 -0.2933
  892MPD2    C213125   0.149   3.990  14.942 -0.2435 -0.2476 -0.1284
  892MPD2    C313126   0.276   3.952  14.901 -0.5311 -0.5522  0.4788
  892MPD2    C413127   0.365   4.050  14.879  0.4367 -0.7860  0.2017
  892MPD2    C513128   0.327   4.181  14.883 -0.0066  0.4130 -1.0175
  892MPD2     H13129   0.077   3.913  14.970 -1.4443  0.6952 -0.5907
  892MPD2    H113130   0.469   4.039  14.851 -0.0965 -0.5253 -1.9260
  892MPD2    H213131   0.174   4.323  14.895  1.6711  0.4933  0.1603
  892MPD2    H313132   0.404   4.256  14.866  1.3164 -0.6030  0.4503
  892MPD2     N13133   0.316   3.818  14.866  0.2484  0.4693 -0.0414
  892MPD2    H513134   0.413   3.808  14.838 -0.3373  1.0899 -2.3643
  892MPD2    N113135   4.715   4.161  14.952 -0.2069 -0.0514  0.3249
  892MPD2    H713136   4.681   4.255  14.935 -1.3682 -0.9892 -2.4253
  893MPD2     C13137   1.919   2.847   1.823  0.2191  0.0054  0.1612
  893MPD2    C113138   1.846   2.907   1.725 -0.3250 -0.4582 -0.2258
  893MPD2    C213139   1.708   2.922   1.748  0.2197  0.4622 -0.7309
  893MPD2    C313140   1.659   2.870   1.865  0.7473 -0.0650 -0.1831
  893MPD2    C413141   1.744   2.826   1.964  0.3762  0.3140  0.6649
  893MPD2    C513142   1.875   2.816   1.947 -0.4734 -0.0283  0.5435
  893MPD2     H13143   1.646   2.960   1.667  1.5518  1.8257 -1.1101
  893MPD2    H113144   1.704   2.794   2.059 -0.8751  2.0267  0.7105
  893MPD2    H213145   2.025   2.832   1.806  0.3036  0.1906  0.5385
  893MPD2    H313146   1.945   2.784   2.023  1.2868  0.6802 -0.7707
  893MPD2     N13147   1.519   2.858   1.890  0.1016  0.0894 -0.0837
  893MPD2    H513148   1.493   2.817   1.979 -0.6821 -0.2823 -0.4842
  893MPD2    N113149   1.910   2.936   1.598 -0.1704 -0.0337 -0.1197
  893MPD2    H713150   2.010   2.924   1.584 -0.2025  0.8802 -1.1898
  894MPD2     C13151   0.018   0.351   1.284  0.0330 -1.2364 -0.3981
  894MPD2    C113152   4.649   0.418   1.347 -0.4394 -0.2234  0.0990
  894MPD2    C213153   4.634   0.553   1.324  0.6322 -0.4147  0.5236
  894MPD2    C313154   4.712   0.619   1.227  0.9946 -0.0619 -0.2160
  894MPD2    C413155   0.067   0.543   1.151 -0.4037 -0.2321 -0.5291
  894MPD2    C513156   0.087   0.414   1.178  0.2110 -0.7273  0.1061
  894MPD2     H13157   4.555   0.602   1.380  2.3600  0.0434  2.5555
  894MPD2    H113158   0.132   0.584   1.075  1.6014  1.1420  1.9388
  894MPD2    H213159   0.053   0.257   1.325  1.5692 -1.6538 -2.7033
  894MPD2    H313160   0.147   0.354   1.111  3.2307  3.1707 -0.6176
  894MPD2     N13161   4.723   0.760   1.228  0.9074 -0.2070  0.3849
  894MPD2    H513162   4.644   0.802   1.275  0.0672 -0.9161 -0.4157
  894MPD2    N113163   4.567   0.348   1.441  0.6346 -0.5156 -0.1691
  894MPD2    H713164   4.489   0.401   1.478  0.7704 -0.1153 -0.4530
  895MPD2     C13165   4.142   2.909  14.033  0.0420  0.3419 -0.6046
  895MPD2    C113166   4.146   2.989  13.920 -0.3966  0.1981  0.1534
  895MPD2    C213167   4.241   2.968  13.830  0.5959  0.4407 -0.0437
  895MPD2    C313168   4.345   2.875  13.845 -0.3065  0.0803 -0.1930
  895MPD2    C413169   4.350   2.806  13.965 -0.2523  0.4448 -0.8865
  895MPD2    C513170   4.246   2.825  14.055  0.1468 -0.4140 -0.2385
  895MPD2     H13171   4.237   3.023  13.736  0.0288 -1.9915 -1.4256
  895MPD2    H113172   4.426   2.731  13.984 -2.6180 -1.7031  0.0018
  895MPD2    H213173   4.068   2.914  14.113 -0.3096 -0.7095 -0.8586
  895MPD2    H313174   4.264   2.762  14.142 -1.6585  0.2729  0.6311
  895MPD2     N13175   4.425   2.827  13.739 -0.0056 -0.7442 -0.5573
  895MPD2    H513176   4.481   2.743  13.749 -0.2013 -0.7461  0.4923
  895MPD2    N113177   4.032   3.065  13.879  0.5347  0.4701  0.7948
  895MPD2    H713178   4.043   3.107  13.787 -0.9698  0.4134  0.5980
  896MPD2     C13179   1.714   1.637   1.530 -0.1523 -1.1782  0.3281
  896MPD2    C113180   1.685   1.565   1.418  0.2817 -0.3052  0.2801
  896MPD2    C213181   1.567   1.481   1.417  0.8403  1.1853  0.0241
  896MPD2    C313182   1.487   1.478   1.529  0.2385 -0.4740  0.1632
  896MPD2    C413183   1.513   1.567   1.636 -0.3864 -0.3090 -0.0275
  896MPD2    C513184   1.624   1.649   1.635 -0.2080 -0.1374 -0.4991
  896MPD2     H13185   1.545   1.401   1.348 -1.1340  1.4991  0.2934
  896MPD2    H113186   1.456   1.568   1.729 -1.6240 -1.3520 -0.7808
  896MPD2    H213187   1.803   1.698   1.542 -1.1164  0.0755  1.0760
  896MPD2    H313188   1.651   1.702   1.726  1.5499  1.1343 -1.7625
  896MPD2     N13189   1.373   1.394   1.528  0.0934  0.4287 -0.1704
  896MPD2    H513190   1.371   1.319   1.460  3.1531 -1.1378  1.4960
  896MPD2    N113191   1.782   1.554   1.314 -0.2107 -0.1798 -0.6275
  896MPD2    H713192   1.872   1.600   1.320 -0.3304  0.0313 -0.4177
  897MPD2     C13193   2.866   2.538  10.968 -0.5551 -0.2697 -0.0085
  897MPD2    C113194   2.827   2.645  10.889  0.1344  0.5501 -0.5844
  897MPD2    C213195   2.706   2.710  10.923 -0.4029  0.1312 -0.2946
  897MPD2    C313196   2.624   2.660  11.029 -0.0329 -0.0012  0.0223
  897MPD2    C413197   2.672   2.561  11.109  0.8826 -0.3935 -0.1477
  897MPD2    C513198   2.789   2.502  11.080  0.1064 -0.0718 -0.0752
  897MPD2     H13199   2.660   2.786  10.860  0.2364  1.3104  0.6622
  897MPD2    H113200   2.622   2.514  11.194  1.6994 -1.4715 -0.2555
  897MPD2    H213201   2.959   2.485  10.948 -1.7131 -1.9009 -1.0784
  897MPD2    H313202   2.819   2.413  11.135 -0.7499 -0.2428  0.1245
  897MPD2     N13203   2.487   2.700  11.036  0.4274  0.5589  0.1664
  897MPD2    H513204   2.444   2.750  10.958 -2.0025  2.8271  2.9620
  897MPD2    N113205   2.901   2.681  10.772 -0.1483  0.3117  0.2322
  897MPD2    H713206   2.849   2.749  10.717 -1.6020  0.6999  2.1112
  898MPD2     C13207   4.478   3.520   0.135 -0.2399 -0.9997 -0.1562
  898MPD2    C113208   4.519   3.532   0.264 -0.7136 -0.2807  0.4130
  898MPD2    C213209   4.534   3.659   0.319 -0.5125  0.1283  0.5435
  898MPD2    C313210   4.511   3.775   0.245  0.6490 -1.0262 -0.2576
  898MPD2    C413211   4.467   3.757   0.116  0.0193 -0.7093 -0.4973
  898MPD2    C513212   4.443   3.633   0.062  1.1731 -0.5378  0.2335
  898MPD2     H13213   4.574   3.677   0.419 -0.0191  0.2069  0.3317
  898MPD2    H113214   4.451   3.845   0.056 -1.3405  0.4716  1.5996
  898MPD2    H213215   4.457   3.424   0.090  0.9881 -1.1962 -0.3282
  898MPD2    H313216   4.425   3.628  17.696  1.7964 -0.7718  0.1439
  898MPD2     N13217   4.544   3.899   0.306 -0.7121  0.4201  0.1517
  898MPD2    H513218   4.581   3.893   0.400 -0.8240  1.7073  0.2779
  898MPD2    N113219   4.565   3.424   0.348 -1.1318  0.5417  0.0971
  898MPD2    H713220   4.609   3.455   0.434 -0.8854  0.9878 -0.1915
  899MPD2     C13221   0.593   4.044  17.585 -0.5509 -0.2874  0.3830
  899MPD2    C113222   0.634   4.168  17.631  0.0860 -0.1667 -0.7649
  899MPD2    C213223   0.649   4.174   0.032  0.4045  0.0967  0.0774
  899MPD2    C313224   0.629   4.063   0.113 -0.2462 -0.1930  0.7979
  899MPD2    C413225   0.602   3.936   0.057  0.3946  0.0252 -0.1586
  899MPD2    C513226   0.587   3.929  17.662 -0.0101  0.2089  0.1684
  899MPD2     H13227   0.645   4.270   0.082  0.3628  0.7160 -1.1168
  899MPD2    H113228   0.585   3.854   0.125 -0.4583 -0.6992 -1.2524
  899MPD2    H213229   0.593   4.018  17.480  1.1392 -1.5638  0.6875
  899MPD2    H313230   0.581   3.832  17.614 -0.3259  0.5357 -0.4554
  899MPD2     N13231   0.635   4.069   0.261 -0.1185 -0.4124 -0.4150
  899MPD2    H513232   0.601   3.988   0.312 -1.3329  0.8569  0.7796
  899MPD2    N113233   0.658   4.277  17.545 -0.3891 -0.7038 -0.2715
  899MPD2    H713234   0.627   4.269  17.448 -1.3588 -1.5554  0.1043
  900MPD2     C13235   0.297   0.565  12.990  0.3997 -0.2972  0.3649
  900MPD2    C113236   0.231   0.446  12.992  0.4648  0.1014 -0.0399
  900MPD2    C213237   0.118   0.432  12.913 -0.5988  0.3306  0.0912
  900MPD2    C313238   0.074   0.533  12.833 -0.0912  1.1538 -0.1330
  900MPD2    C413239   0.146   0.650  12.837 -0.0704  0.7971  0.6204
  900MPD2    C513240   0.261   0.667  12.912 -0.0199  0.0714  0.1616
  900MPD2     H13241   0.084   0.333  12.887 -0.8766  0.5623 -0.4197
  900MPD2    H113242   0.120   0.745  12.791 -0.1589  0.1977 -0.5748
  900MPD2    H213243   0.382   0.585  13.054  1.6634 -1.6256 -0.9007
  900MPD2    H313244   0.314   0.762  12.910  1.7470 -0.8466  2.9192
  900MPD2     N13245   4.702   0.525  12.732 -0.1186  0.7090 -0.2292
  900MPD2    H513246   4.674   0.604  12.675 -0.7401  0.8221  0.2338
  900MPD2    N113247   0.276   0.336  13.068  0.0587 -0.6659  0.4796
  900MPD2    H713248   0.368   0.357  13.104 -1.5546  1.1078  3.6033
  901MPD2     C13249   0.095   4.009  13.133 -0.0094  0.5613  0.4875
  901MPD2    C113250   0.223   4.032  13.086  0.0539  0.3953 -0.5756
  901MPD2    C213251   0.270   4.163  13.085 -0.0321 -0.5141  0.0049
  901MPD2    C313252   0.196   4.264  13.143  0.2976  0.0655 -0.2675
  901MPD2    C413253   0.069   4.240  13.193 -0.3217 -0.3261  0.0730
  901MPD2    C513254   0.022   4.109  13.184 -0.2833  0.4935  1.1178
  901MPD2     H13255   0.369   4.190  13.049 -1.0336  0.8171 -1.7594
  901MPD2    H113256   0.003   4.313  13.238 -0.5686 -0.2720 -0.3824
  901MPD2    H213257   0.043   3.915  13.141  1.0523 -0.1597 -1.2425
  901MPD2    H313258   4.661   4.092  13.230 -1.0517 -3.3575 -1.9195
  901MPD2     N13259   0.244   4.393  13.128  0.1647 -0.0457  0.5768
  901MPD2    H513260   0.322   4.409  13.065 -0.7365 -1.1519 -0.8141
  901MPD2    N113261   0.301   3.921  13.043  0.8208  0.1959 -0.5759
  901MPD2    H713262   0.256   3.830  13.037 -0.8933  0.9010  1.5003
  902MPD2     C13263   4.515   3.118  12.638  0.0035 -0.7697  0.4806
  902MPD2    C113264   4.380   3.132  12.671  0.3691  0.0212  0.2305
  902MPD2    C213265   4.296   3.032  12.635  0.6161 -0.4445 -0.4495
  902MPD2    C313266   4.336   2.930  12.557  0.6976 -0.3918  0.3512
  902MPD2    C413267   4.470   2.918  12.520 -0.3501  0.0933  0.1874
  902MPD2    C513268   4.553   3.020  12.556  0.0693  0.7924 -0.1983
  902MPD2     H13269   4.191   3.044  12.661  0.5805 -0.9121 -0.3916
  902MPD2    H113270   4.507   2.834  12.462  1.9342  1.6302 -0.5874
  902MPD2    H213271   4.595   3.184  12.669 -1.1868  0.2521  1.3486
  902MPD2    H313272   4.658   3.009  12.531 -0.0551 -0.3185 -0.2193
  902MPD2     N13273   4.240   2.840  12.502 -0.0726 -0.7432  0.0918
  902MPD2    H513274   4.261   2.803  12.410 -0.3507  0.2912 -0.3931
  902MPD2    N113275   4.343   3.243  12.750 -0.5372  0.6022  0.5960
  902MPD2    H713276   4.409   3.320  12.753  0.6676 -0.4141  0.2003
  903MPD2     C13277   4.156   3.391  12.500 -0.4494  0.5072 -0.4816
  903MPD2    C113278   4.041   3.354  12.434 -0.2108  0.1987  0.9581
  903MPD2    C213279   3.949   3.461  12.417  0.2349 -0.3544 -0.4664
  903MPD2    C313280   3.988   3.593  12.434  0.3296 -0.4646  0.4820
  903MPD2    C413281   4.114   3.625  12.477 -0.2970 -0.0653  0.2991
  903MPD2    C513282   4.195   3.521  12.513  0.0132 -0.5163 -0.3388
  903MPD2     H13283   3.852   3.452  12.371  0.8087 -1.7287 -1.3979
  903MPD2    H113284   4.136   3.730  12.496  2.1507 -0.7636  1.3180
  903MPD2    H213285   4.226   3.313  12.527 -0.5965  0.2936 -0.7201
  903MPD2    H313286   4.292   3.541  12.559 -1.3401 -1.7170  3.0140
  903MPD2     N13287   3.890   3.693  12.425 -0.6974 -0.4357 -0.4465
  903MPD2    H513288   3.800   3.658  12.394 -1.7307  0.2808  1.7431
  903MPD2    N113289   4.027   3.218  12.405  0.1121  0.6173 -0.2846
  903MPD2    H713290   4.104   3.158  12.432 -1.2377 -0.4487  1.2180
  904MPD2     C13291   3.412   2.054  14.165 -0.0180 -0.4385 -0.2442
  904MPD2    C113292   3.535   2.119  14.190 -0.4789  0.4515  0.2405
  904MPD2    C213293   3.651   2.045  14.186  0.3447 -0.0388  0.2402
  904MPD2    C313294   3.655   1.913  14.143  0.1264  0.2898 -0.3670
  904MPD2    C413295   3.532   1.848  14.124 -0.1577  0.6332 -0.3781
  904MPD2    C513296   3.416   1.915  14.145 -0.5248 -0.6002  0.1104
  904MPD2     H13297   3.747   2.091  14.207  0.0635  0.1108  1.2077
  904MPD2    H113298   3.524   1.742  14.105  1.0313  0.1429  1.8590
  904MPD2    H213299   3.312   2.097  14.172 -0.2306 -1.2049  1.5231
  904MPD2    H313300   3.324   1.861  14.129 -0.9509 -0.0311  0.6032
  904MPD2     N13301   3.781   1.853  14.111  0.0303 -0.1666  0.0193
  904MPD2    H513302   3.856   1.906  14.156 -0.7719  0.5804  0.4868
  904MPD2    N113303   3.548   2.256  14.223  0.2827 -0.2807 -0.3714
  904MPD2    H713304   3.641   2.294  14.234 -0.1019  0.6747 -0.4670
  905MPD2     C13305   3.595   2.944  13.787  0.0034 -0.4083  0.2829
  905MPD2    C113306   3.682   2.860  13.856  0.0057 -0.5527  0.1755
  905MPD2    C213307   3.800   2.814  13.800 -0.6305  0.6999  0.6365
  905MPD2    C313308   3.843   2.866  13.681 -0.4155 -0.0315 -0.2436
  905MPD2    C413309   3.767   2.958  13.616  0.0718  0.7517 -0.4037
  905MPD2    C513310   3.638   2.985  13.664  0.4559  0.1097 -0.8481
  905MPD2     H13311   3.859   2.739  13.852 -1.6048  0.2903  1.1422
  905MPD2    H113312   3.799   3.002  13.522  0.3201  2.0223  0.2852
  905MPD2    H213313   3.503   2.979  13.832 -0.8361 -0.3360 -1.4984
  905MPD2    H313314   3.584   3.062  13.610  0.3185 -0.0549 -0.9452
  905MPD2     N13315   3.967   2.810  13.634 -0.0427 -0.6982 -0.2609
  905MPD2    H513316   4.002   2.735  13.692  0.6971 -0.8066 -0.8518
  905MPD2    N113317   3.634   2.813  13.986 -0.5006 -0.1343 -0.2303
  905MPD2    H713318   3.548   2.858  14.016 -0.2394 -0.4300  0.9510
  906MPD2     C13319   1.213   2.709  10.958  0.0019  0.2352  0.1656
  906MPD2    C113320   1.258   2.601  10.881  0.1613  0.0556  0.1371
  906MPD2    C213321   1.274   2.473  10.939  0.4666  0.6016  0.4152
  906MPD2    C313322   1.249   2.449  11.068  0.1570 -0.1717  0.4696
  906MPD2    C413323   1.202   2.560  11.139 -0.1429  0.4485  0.1792
  906MPD2    C513324   1.181   2.685  11.087 -0.4789  0.6761 -0.4513
  906MPD2     H13325   1.315   2.387  10.886 -0.3712 -1.1284  2.6006
  906MPD2    H113326   1.165   2.556  11.241  1.5394  0.2316  0.7828
  906MPD2    H213327   1.199   2.806  10.911 -0.7194 -0.1744 -0.4655
  906MPD2    H313328   1.144   2.764  11.151  2.7747  1.2226  0.7360
  906MPD2     N13329   1.271   2.320  11.121 -0.4455  0.3066  0.0353
  906MPD2    H513330   1.297   2.245  11.058  1.5687  1.0191  0.0433
  906MPD2    N113331   1.278   2.611  10.741 -0.0649  0.1961 -0.1429
  906MPD2    H713332   1.306   2.523  10.701 -0.9592 -0.2809  0.2854
  907MPD2     C13333   0.057   2.090  16.182  0.4811 -0.0733 -0.5257
  907MPD2    C113334   0.069   1.960  16.140 -0.1039 -0.2723 -0.2258
  907MPD2    C213335   0.154   1.880  16.211  0.1161 -0.1934 -0.4078
  907MPD2    C313336   0.220   1.913  16.330 -0.4373  0.0634  0.3902
  907MPD2    C413337   0.201   2.044  16.372  0.2417  0.6822 -0.3631
  907MPD2    C513338   0.131   2.130  16.286  0.3631  0.1910 -0.0409
  907MPD2     H13339   0.181   1.782  16.173 -2.6292 -0.9786 -0.3025
  907MPD2    H113340   0.251   2.085  16.459  1.3282  0.8397 -1.0549
  907MPD2    H213341   4.731   2.168  16.139 -2.5247 -2.3183 -0.3277
  907MPD2    H313342   0.123   2.234  16.315  0.0135  0.9394 -2.8172
  907MPD2     N13343   0.299   1.811  16.396 -0.1759 -0.1090  0.4661
  907MPD2    H513344   0.293   1.719  16.354 -0.5358  0.6282 -1.0728
  907MPD2    N113345   0.010   1.919  16.019 -0.9398  0.0454  0.0775
  907MPD2    H713346   0.030   1.826  15.984 -0.9726  0.6084 -1.4054
  908MPD2     C13347   2.988   2.499   9.781 -0.0054  0.3497  0.4570
  908MPD2    C113348   2.896   2.583   9.844  0.3161  0.1057  0.1320
  908MPD2    C213349   2.925   2.635   9.968  0.1890  0.4105 -0.3008
  908MPD2    C313350   3.044   2.611  10.032 -0.0477 -0.4242  0.9459
  908MPD2    C413351   3.136   2.531   9.970  0.1335  0.6844  0.4365
  908MPD2    C513352   3.114   2.489   9.841  0.3306  0.6051  0.5385
  908MPD2     H13353   2.847   2.691  10.018  0.6880 -0.9735  2.0470
  908MPD2    H113354   3.230   2.524  10.022  1.7840  0.9415 -2.5335
  908MPD2    H213355   2.970   2.454   9.684  0.8301  3.0924 -0.9604
  908MPD2    H313356   3.190   2.437   9.783  0.8407  2.0389 -0.0855
  908MPD2     N13357   3.069   2.665  10.158 -0.9325 -0.0322 -0.3869
  908MPD2    H513358   3.014   2.744  10.191  0.2484  0.9320 -0.7024
  908MPD2    N113359   2.765   2.585   9.787 -0.5197  0.1512  0.4327
  908MPD2    H713360   2.737   2.527   9.709 -0.2220  0.9206 -0.2502
  909MPD2     C13361   2.709   0.367  11.760  0.1111  0.4442 -0.1927
  909MPD2    C113362   2.786   0.481  11.789 -0.2711  0.4425 -0.5124
  909MPD2    C213363   2.749   0.572  11.891 -0.2210 -0.1340 -0.4196
  909MPD2    C313364   2.629   0.550  11.960  1.0071  0.1915 -0.6889
  909MPD2    C413365   2.549   0.442  11.930 -0.5013 -0.4094 -0.0973
  909MPD2    C513366   2.593   0.356  11.833  0.2605 -0.1618  0.3027
  909MPD2     H13367   2.819   0.651  11.917 -0.4054 -0.5437  1.2854
  909MPD2    H113368   2.454   0.431  11.980  0.2450 -1.5299  1.0926
  909MPD2    H213369   2.738   0.306  11.675 -0.0181  1.2694 -0.8256
  909MPD2    H313370   2.524   0.276  11.809  0.1235  0.0840 -0.1104
  909MPD2     N13371   2.611   0.645  12.066 -0.4888  0.1392 -0.8513
  909MPD2    H513372   2.673   0.724  12.075  0.3988 -0.6325 -0.1986
  909MPD2    N113373   2.912   0.505  11.716 -0.4387 -0.1193 -0.4318
  909MPD2    H713374   2.964   0.587  11.744 -0.3463 -0.1362 -0.5518
  910MPD2     C13375   4.449   2.614  16.495 -0.0303  0.1018  0.3174
  910MPD2    C113376   4.421   2.498  16.419 -0.0300 -0.0560 -0.6693
  910MPD2    C213377   4.338   2.513  16.311  0.4883  0.0660 -0.2343
  910MPD2    C313378   4.286   2.640  16.275  0.2307 -0.4268 -0.1162
  910MPD2    C413379   4.307   2.748  16.360 -0.4440 -0.7083  1.1060
  910MPD2    C513380   4.387   2.733  16.468 -0.1990  0.0228 -0.5193
  910MPD2     H13381   4.322   2.428  16.245  0.0976  0.1823 -0.2902
  910MPD2    H113382   4.256   2.842  16.340 -2.1999 -1.9123 -0.1574
  910MPD2    H213383   4.510   2.617  16.585  0.9772 -1.9863 -0.2715
  910MPD2    H313384   4.398   2.814  16.539 -1.1848 -1.0621  0.8739
  910MPD2     N13385   4.218   2.665  16.159 -0.0594  0.2168  0.1748
  910MPD2    H513386   4.191   2.761  16.140  3.3855  0.5105 -3.1043
  910MPD2    N113387   4.487   2.369  16.449  0.4243 -0.5988 -0.1774
  910MPD2    H713388   4.473   2.297  16.379 -0.1474  0.9767 -1.6662
  911MPD2     C13389   2.437   3.143  16.545 -0.2886 -0.2699 -0.7134
  911MPD2    C113390   2.462   3.251  16.629  0.1127  0.2465 -0.2259
  911MPD2    C213391   2.376   3.366  16.621  0.6103  0.2546  0.6126
  911MPD2    C313392   2.262   3.359  16.539 -0.0451  0.7428  0.7181
  911MPD2    C413393   2.236   3.251  16.463 -0.1614  0.0360 -0.2927
  911MPD2    C513394   2.332   3.151  16.458  0.2237  0.4243  0.5354
  911MPD2     H13395   2.395   3.450  16.688 -0.6865  0.5588  0.5986
  911MPD2    H113396   2.160   3.245  16.386 -2.3095  2.9029  1.6087
  911MPD2    H213397   2.498   3.054  16.534 -1.7883 -1.4599  0.4352
  911MPD2    H313398   2.322   3.080  16.377 -2.5295 -0.0431  1.2776
  911MPD2     N13399   2.168   3.464  16.526 -0.0184 -0.1693 -0.3399
  911MPD2    H513400   2.087   3.447  16.467 -1.6312  0.0483  1.8016
  911MPD2    N113401   2.575   3.236  16.717 -0.1153  0.5790 -0.4762
  911MPD2    H713402   2.622   3.146  16.710  1.2318  1.2591 -0.1422
  912MPD2     C13403   1.883   3.386  15.946  0.0872 -0.7813  0.4907
  912MPD2    C113404   1.896   3.371  16.084  0.5872  1.0927  0.0210
  912MPD2    C213405   1.934   3.249  16.132 -0.0102  0.1178  0.3659
  912MPD2    C313406   1.983   3.145  16.056  0.4922  0.6888 -0.3452
  912MPD2    C413407   1.978   3.161  15.921  0.5597 -0.9356 -0.1271
  912MPD2    C513408   1.930   3.278  15.866 -0.2749  0.1581  0.0705
  912MPD2     H13409   1.941   3.221  16.237 -2.5693 -1.1052  0.2209
  912MPD2    H113410   2.012   3.084  15.852  0.5104  0.0663 -1.2729
  912MPD2    H213411   1.834   3.469  15.897  3.3842  1.5622  1.1834
  912MPD2    H313412   1.908   3.282  15.760 -1.6094  1.6793  0.4090
  912MPD2     N13413   2.013   3.025  16.122  0.5583 -0.1926 -0.3482
  912MPD2    H513414   1.975   3.021  16.216 -0.9952 -0.2907 -0.9775
  912MPD2    N113415   1.865   3.487  16.169  0.4488  0.2658  0.1418
  912MPD2    H713416   1.844   3.578  16.129 -0.9986 -0.3500 -0.5098
  913MPD2     C13417   1.999   3.997  10.352  0.7200 -0.0264  0.2733
  913MPD2    C113418   2.074   4.056  10.450  0.1863 -0.0918  0.3877
  913MPD2    C213419   2.121   4.187  10.429  0.4711  0.7273  0.2556
  913MPD2    C313420   2.105   4.248  10.309 -0.5838  0.2354  0.2132
  913MPD2    C413421   2.032   4.189  10.211  0.2143 -0.1277  0.5667
  913MPD2    C513422   1.977   4.061  10.233  0.6424  0.0444  0.4868
  913MPD2     H13423   2.179   4.229  10.509  2.1531  0.7491 -0.9783
  913MPD2    H113424   2.016   4.230  10.111  1.8620  1.3016  0.8881
  913MPD2    H213425   1.954   3.899  10.363 -1.7963  1.0107 -0.6287
  913MPD2    H313426   1.927   4.005  10.154  0.8932 -0.5893  0.7814
  913MPD2     N13427   2.154   4.368  10.267 -0.3825  0.1095 -0.6356
  913MPD2    H513428   2.149   4.383  10.167  1.3703  1.0785 -0.5914
  913MPD2    N113429   2.090   3.989  10.577 -0.0311  0.0417 -0.2483
  913MPD2    H713430   2.029   3.911  10.597  1.8144 -1.0656  1.0974
  914MPD2     C13431   0.445   3.913  12.187 -0.0308 -0.3993 -0.0492
  914MPD2    C113432   0.494   4.011  12.268  0.3481  0.2049 -0.4972
  914MPD2    C213433   0.564   3.969  12.379 -0.5893  0.2132 -0.4537
  914MPD2    C313434   0.571   3.837  12.418 -0.3046 -0.0889  0.3583
  914MPD2    C413435   0.524   3.741  12.329 -1.4567  0.6139 -0.0470
  914MPD2    C513436   0.480   3.779  12.208 -0.5554 -0.2307 -0.1425
  914MPD2     H13437   0.611   4.040  12.446  1.4030 -2.1101  0.5993
  914MPD2    H113438   0.512   3.634  12.344 -1.1254  0.2099 -2.7267
  914MPD2    H213439   0.395   3.930  12.092 -0.0671 -0.3289 -0.0174
  914MPD2    H313440   0.443   3.710  12.133  1.2516 -0.6485 -0.6365
  914MPD2     N13441   0.622   3.803  12.541 -0.4921 -0.5640  0.0414
  914MPD2    H513442   0.670   3.874  12.595  1.2790 -0.6466 -1.4220
  914MPD2    N113443   0.460   4.143  12.234 -0.2707 -0.4527  0.1373
  914MPD2    H713444   0.393   4.158  12.160  0.1871  2.1623  0.2756
  915MPD2     C13445   3.485   0.081  15.837  0.6545 -0.3552  0.2273
  915MPD2    C113446   3.380   0.139  15.766 -0.1696 -0.1725  0.2027
  915MPD2    C213447   3.273   0.188  15.842 -0.0859 -0.1803  0.1553
  915MPD2    C313448   3.266   0.174  15.983  0.3969  0.0782 -0.8369
  915MPD2    C413449   3.375   0.125  16.049  0.6639 -0.0792  0.6936
  915MPD2    C513450   3.478   0.079  15.977  0.3870 -0.0993 -0.4352
  915MPD2     H13451   3.192   0.238  15.792  1.6868  0.3733 -2.1528
  915MPD2    H113452   3.381   0.118  16.157 -0.8893 -2.2962  0.6224
  915MPD2    H213453   3.573   0.034  15.794  1.3685 -0.1918  1.5037
  915MPD2    H313454   3.565   0.041  16.030  0.9209  1.5382 -0.1516
  915MPD2     N13455   3.149   0.216  16.054 -0.1138 -0.8948 -0.2017
  915MPD2    H513456   3.076   0.262  16.001  0.5610 -0.3018 -0.6267
  915MPD2    N113457   3.391   0.138  15.627 -0.6600 -0.3634  0.0291
  915MPD2    H713458   3.476   0.095  15.590 -0.3368  2.0892 -2.1269
  916MPD2     C13459   1.673   2.996  15.877 -0.4592 -1.0439 -0.1622
  916MPD2    C113460   1.664   2.886  15.960  0.8191  0.1664 -0.1777
  916MPD2    C213461   1.718   2.768  15.909  0.6848  0.2563 -0.7033
  916MPD2    C313462   1.800   2.762  15.791  0.1782 -0.4176 -0.3557
  916MPD2    C413463   1.819   2.881  15.722 -0.4484 -0.0783  0.5423
  916MPD2    C513464   1.755   2.996  15.772  0.0677  0.2498  0.0965
  916MPD2     H13465   1.692   2.678  15.963  0.8246 -0.2750 -1.5191
  916MPD2    H113466   1.868   2.879  15.625 -1.7137  1.2395 -0.1144
  916MPD2    H213467   1.619   3.088  15.896 -1.2447 -1.5202 -0.1035
  916MPD2    H313468   1.771   3.084  15.711  1.7902 -1.5287 -2.0353
  916MPD2     N13469   1.849   2.639  15.746  0.3750  0.0755  0.1665
  916MPD2    H513470   1.821   2.560  15.803  0.2796 -1.0000 -1.3950
  916MPD2    N113471   1.585   2.897  16.079 -0.2073  0.6368  0.2865
  916MPD2    H713472   1.531   2.982  16.094  1.0425  1.5291 -0.1470
  917MPD2     C13473   1.411   4.456  11.502  0.5946  0.0697  0.5720
  917MPD2    C113474   1.483   4.450  11.620 -0.7337  0.0495  0.7355
  917MPD2    C213475   1.593   4.529  11.640 -0.0364  0.4742 -0.4367
  917MPD2    C313476   1.619   4.628  11.546 -0.0300  0.6587  0.2550
  917MPD2    C413477   1.545   4.632  11.430 -0.0698  0.5514 -0.2282
  917MPD2    C513478   1.447   4.544  11.404  0.3651  0.3172  0.3185
  917MPD2     H13479   1.649   4.536  11.733 -1.0130 -1.4392  0.2729
  917MPD2    H113480   1.579   4.697  11.351  0.0187  1.0008  0.1804
  917MPD2    H213481   1.325   4.393  11.482  0.2998  0.7936 -0.4355
  917MPD2    H313482   1.395   4.545  11.310  0.0507  0.2316  0.4903
  917MPD2     N13483   1.725   4.722  11.562  0.1179  0.3086 -0.1760
  917MPD2    H513484   1.747   0.046  11.483 -1.3783  1.1175  0.0215
  917MPD2    N113485   1.435   4.359  11.713  0.4068  0.6115  0.0358
  917MPD2    H713486   1.352   4.302  11.702 -0.8143  2.6390 -1.1894
  918MPD2     C13487   1.314   0.184  12.406  0.0219 -0.2970  0.3114
  918MPD2    C113488   1.416   0.090  12.407  0.0613  0.3153  0.4375
  918MPD2    C213489   1.393   4.693  12.379 -0.3836  0.3036 -0.8060
  918MPD2    C313490   1.266   4.662  12.326  0.1071 -0.4662 -0.1828
  918MPD2    C413491   1.163   0.018  12.340 -0.6653 -0.5364 -0.1977
  918MPD2    C513492   1.188   0.146  12.380  0.1346  0.0240  0.1763
  918MPD2     H13493   1.471   4.622  12.356 -0.1827 -0.4529  2.1889
  918MPD2    H113494   1.065   4.732  12.297 -1.3851 -0.0210  1.1753
  918MPD2    H213495   1.339   0.287  12.426  1.0058 -0.3503 -0.6657
  918MPD2    H313496   1.115   0.226  12.382 -2.0938 -2.0131  0.3832
  918MPD2     N13497   1.267   4.548  12.250 -0.0806 -0.8049 -0.2540
  918MPD2    H513498   1.351   4.491  12.256  0.2857 -0.4903 -2.4255
  918MPD2    N113499   1.552   0.128  12.432 -0.1115  0.1386 -0.3869
  918MPD2    H713500   1.610   0.045  12.420  0.1190 -0.0454  1.9516
  919MPD2     C13501   2.166   3.977  11.878  0.3464 -0.3558 -0.7891
  919MPD2    C113502   2.141   3.866  11.800  0.1262 -0.1120 -0.6413
  919MPD2    C213503   2.114   3.881  11.666 -0.1444 -0.4701  0.1503
  919MPD2    C313504   2.088   4.010  11.620  0.8393  0.4110  0.3343
  919MPD2    C413505   2.104   4.124  11.695  0.0400 -0.3374  0.2868
  919MPD2    C513506   2.152   4.100  11.822 -0.2125  0.0074  0.4803
  919MPD2     H13507   2.112   3.787  11.612 -1.3494 -0.8199  0.7882
  919MPD2    H113508   2.085   4.226  11.664 -2.5674 -0.3255  1.8556
  919MPD2    H213509   2.213   3.976  11.976 -1.5883  0.3756  0.1447
  919MPD2    H313510   2.161   4.185  11.889 -3.5361  0.6131  0.1299
  919MPD2     N13511   2.048   4.022  11.485 -0.1611 -0.3607  0.0398
  919MPD2    H513512   2.030   4.115  11.448 -0.7350 -1.6435 -2.8917
  919MPD2    N113513   2.176   3.739  11.852 -0.6098 -0.4283  0.3570
  919MPD2    H713514   2.186   3.655  11.796  0.6059 -0.0105 -0.0700
  920MPD2     C13515   1.800   4.405  10.550  0.0111 -0.1308 -0.0050
  920MPD2    C113516   1.686   4.376  10.620 -0.6248 -0.0487  0.2310
  920MPD2    C213517   1.691   4.318  10.740  0.3796 -0.3327 -0.0158
  920MPD2    C313518   1.812   4.277  10.795 -0.7953  0.8834 -0.5871
  920MPD2    C413519   1.927   4.309  10.730 -0.3562  0.0413 -0.1619
  920MPD2    C513520   1.919   4.370  10.603  0.2727  0.1678 -0.7259
  920MPD2     H13521   1.600   4.293  10.793  1.1737 -0.0021  1.5207
  920MPD2    H113522   2.023   4.290  10.777  0.2377  1.2256 -0.9006
  920MPD2    H213523   1.782   4.452  10.454  0.4171  1.1218  0.5352
  920MPD2    H313524   2.012   4.396  10.553  0.7480  0.1391  0.1549
  920MPD2     N13525   1.810   4.213  10.918  0.3098 -0.2094 -0.1879
  920MPD2    H513526   1.715   4.187  10.942  0.0491  1.3842  0.4762
  920MPD2    N113527   1.559   4.403  10.575  0.7053 -0.1307  0.2402
  920MPD2    H713528   1.487   4.349  10.622 -0.1526  0.1617 -0.7487
  921MPD2     C13529   3.380   3.701  16.935 -0.1025  0.8913  0.2142
  921MPD2    C113530   3.369   3.577  16.885 -0.7590  0.0645 -0.8466
  921MPD2    C213531   3.261   3.502  16.922 -0.0985 -0.4005  0.2065
  921MPD2    C313532   3.161   3.551  16.998  0.5651 -0.9003 -0.1687
  921MPD2    C413533   3.163   3.687  17.019  0.3773 -0.2073  0.5259
  921MPD2    C513534   3.275   3.761  16.995  0.6141 -0.2158 -0.6551
  921MPD2     H13535   3.265   3.395  16.906 -1.8925 -0.3521 -0.5630
  921MPD2    H113536   3.074   3.739  17.051  1.3003  1.0820  1.0308
  921MPD2    H213537   3.472   3.760  16.932  0.9637 -0.8732 -1.9300
  921MPD2    H313538   3.268   3.869  17.007  0.2488 -0.3240  0.0966
  921MPD2     N13539   3.043   3.479  17.023 -0.2913  0.0462 -0.7690
  921MPD2    H513540   2.957   3.527  17.050  0.2062  0.2278  0.5006
  921MPD2    N113541   3.464   3.532  16.794 -0.3140  0.4855  0.0701
  921MPD2    H713542   3.550   3.586  16.792  0.7254 -1.1858 -0.2527
  922MPD2     C13543   3.584   0.975  16.980  0.0046  0.4399 -0.9023
  922MPD2    C113544   3.605   1.016  17.116  0.6826  0.2704  0.4202
  922MPD2    C213545   3.550   0.939  17.219  0.1188 -0.5190 -0.7529
  922MPD2    C313546   3.488   0.817  17.196  0.3144  0.2863  0.2075
  922MPD2    C413547   3.482   0.771  17.065 -0.3296  0.2009 -0.3144
  922MPD2    C513548   3.522   0.851  16.960  0.1480  0.3722  0.1731
  922MPD2     H13549   3.551   0.986  17.316 -1.1741 -2.7336  0.3364
  922MPD2    H113550   3.445   0.670  17.058 -0.8664  0.3559  0.3222
  922MPD2    H213551   3.635   1.020  16.895 -0.6473 -1.6151 -2.3803
  922MPD2    H313552   3.531   0.811  16.860 -4.9264 -0.6834  0.1274
  922MPD2     N13553   3.424   0.748  17.300  0.6276 -0.6059 -1.1002
  922MPD2    H513554   3.360   0.677  17.266  1.4367 -1.6998 -0.2918
  922MPD2    N113555   3.669   1.133  17.152 -0.0889  0.4026  0.2240
  922MPD2    H713556   3.672   1.143  17.253 -1.2779 -3.3790  0.6128
  923MPD2     C13557   0.496   3.208   9.386  0.6112 -0.0231 -0.3726
  923MPD2    C113558   0.540   3.329   9.443 -1.1562  0.2231  1.2112
  923MPD2    C213559   0.643   3.334   9.538 -0.1809 -0.1473  0.0235
  923MPD2    C313560   0.706   3.214   9.564 -0.0197 -0.2660  0.2970
  923MPD2    C413561   0.661   3.095   9.509  0.5596 -0.2550  0.2118
  923MPD2    C513562   0.553   3.092   9.423  0.1257  0.7999  0.0271
  923MPD2     H13563   0.679   3.424   9.586 -0.7903  0.5599 -0.8342
  923MPD2    H113564   0.703   3.001   9.542  2.4563  0.7722  0.7618
  923MPD2    H213565   0.407   3.199   9.324  1.7242 -0.3907 -1.9006
  923MPD2    H313566   0.522   2.996   9.385  3.4542 -0.5765  0.8793
  923MPD2     N13567   0.810   3.206   9.657  0.7055  0.0123  0.3841
  923MPD2    H513568   0.856   3.118   9.673  0.5713  0.2621  2.1174
  923MPD2    N113569   0.456   3.437   9.411 -0.6081 -0.7014  0.3801
  923MPD2    H713570   0.381   3.427   9.344 -0.5622 -1.3559  0.4192
  924MPD2     C13571   0.538   1.195  15.922  0.1731 -0.1344 -0.0148
  924MPD2    C113572   0.478   1.143  16.030 -0.3625  0.0665  0.1980
  924MPD2    C213573   0.466   1.227  16.143 -0.0899  0.0234 -0.5773
  924MPD2    C313574   0.536   1.350  16.143  1.0250  0.8950  0.2217
  924MPD2    C413575   0.608   1.388  16.035 -0.2679  0.3739 -0.3483
  924MPD2    C513576   0.610   1.307  15.925  0.2096 -0.0606  0.3400
  924MPD2     H13577   0.404   1.209  16.230  0.0491 -0.2877 -0.5423
  924MPD2    H113578   0.672   1.476  16.031 -1.9586  1.7001  1.3737
  924MPD2    H213579   0.552   1.139  15.830 -2.7792 -0.9227  0.0038
  924MPD2    H313580   0.661   1.334  15.833  0.0012 -0.1231  0.2065
  924MPD2     N13581   0.541   1.436  16.252  0.7365 -0.2585 -0.9320
  924MPD2    H513582   0.608   1.511  16.241  0.6344 -0.1608 -0.8840
  924MPD2    N113583   0.426   1.013  16.015  0.4336 -0.2814  0.4400
  924MPD2    H713584   0.463   0.957  15.939 -3.7239 -2.7025  0.1953
  925MPD2     C13585   4.000   3.771  14.886  0.1073  1.0936  0.1239
  925MPD2    C113586   3.880   3.831  14.846  0.6323 -0.4254  0.2658
  925MPD2    C213587   3.804   3.880  14.953 -0.1145  0.0852 -0.2588
  925MPD2    C313588   3.843   3.878  15.087 -0.1723  0.3455 -0.4969
  925MPD2    C413589   3.971   3.819  15.113 -0.6008 -0.1615 -0.1574
  925MPD2    C513590   4.050   3.784  15.011 -0.8353 -0.3992  0.2482
  925MPD2     H13591   3.703   3.914  14.931  0.0021  1.2313  0.9145
  925MPD2    H113592   4.014   3.810  15.212 -1.7521  1.2624  0.4740
  925MPD2    H213593   4.063   3.719  14.814 -0.4183  2.2268 -1.1545
  925MPD2    H313594   4.145   3.733  15.022  0.1467  1.3492  0.0190
  925MPD2     N13595   3.754   3.909  15.192 -0.4326  0.5583  0.7501
  925MPD2    H513596   3.788   3.901  15.287 -0.1737  2.5093  0.8246
  925MPD2    N113597   3.832   3.836  14.716 -0.7041  1.3262 -0.1746
  925MPD2    H713598   3.735   3.860  14.701 -0.9751  0.8216  0.7701
  926MPD2     C13599   2.702   1.996  13.836  0.4406 -0.5502  0.3788
  926MPD2    C113600   2.661   2.120  13.788 -0.1322  0.0121  0.0134
  926MPD2    C213601   2.747   2.193  13.706  0.4165 -0.8793 -0.6541
  926MPD2    C313602   2.867   2.135  13.662  0.3705  0.5425 -0.2998
  926MPD2    C413603   2.908   2.016  13.725 -0.0080 -0.3256 -0.4403
  926MPD2    C513604   2.828   1.950  13.806  0.1802 -0.6800  0.5180
  926MPD2     H13605   2.714   2.290  13.670 -0.1975 -1.1717 -0.8821
  926MPD2    H113606   3.000   1.965  13.701  1.8484  2.8757 -0.0945
  926MPD2    H213607   2.642   1.932  13.900 -0.2746 -0.1794  0.0817
  926MPD2    H313608   2.858   1.852  13.842  1.8120 -0.9490 -1.5626
  926MPD2     N13609   2.956   2.179  13.565  0.5450 -0.6102 -0.4668
  926MPD2    H513610   3.037   2.121  13.552  0.6708 -0.3258 -0.9530
  926MPD2    N113611   2.537   2.182  13.822  0.9807 -0.1252 -0.3082
  926MPD2    H713612   2.519   2.273  13.781 -0.6549  0.0328  0.7335
  927MPD2     C13613   1.974   0.455   0.483  0.2382 -0.5171 -1.0352
  927MPD2    C113614   1.945   0.321   0.479 -0.2869 -0.0962  0.3591
  927MPD2    C213615   1.979   0.256   0.359  0.1553 -0.4792  0.4550
  927MPD2    C313616   2.024   0.323   0.248 -0.1766 -0.8722 -0.1367
  927MPD2    C413617   2.055   0.458   0.262 -0.9583 -0.0640  0.1321
  927MPD2    C513618   2.031   0.518   0.384  0.1265  0.2609  0.3906
  927MPD2     H13619   1.964   0.148   0.356 -2.2374 -0.1168 -1.1342
  927MPD2    H113620   2.112   0.508   0.185 -0.5019 -2.3591 -1.0395
  927MPD2    H213621   1.955   0.510   0.574 -0.9525 -0.2086 -1.4663
  927MPD2    H313622   2.058   0.622   0.393 -0.1686  0.3026  0.7886
  927MPD2     N13623   2.054   0.256   0.131  0.5201 -0.2961  0.0287
  927MPD2    H513624   2.034   0.157   0.122  0.4614 -0.2728 -0.0915
  927MPD2    N113625   1.899   0.253   0.593  0.4665  0.1468  0.6765
  927MPD2    H713626   1.868   0.316   0.666 -0.6352 -2.3786  2.3693
  928MPD2     C13627   0.564   2.704   1.439  0.1031  0.7909 -0.2721
  928MPD2    C113628   0.520   2.837   1.427  0.1935  0.3354 -0.7097
  928MPD2    C213629   0.493   2.894   1.304  0.3857 -0.3479 -0.4309
  928MPD2    C313630   0.503   2.824   1.190 -0.2557 -0.3687 -0.2604
  928MPD2    C413631   0.542   2.691   1.201 -0.4522  0.1449 -0.0938
  928MPD2    C513632   0.570   2.628   1.323  0.0886 -0.5083 -0.6989
  928MPD2     H13633   0.442   2.990   1.299 -1.1377 -1.1375  0.0477
  928MPD2    H113634   0.545   2.632   1.110 -0.5259 -0.9009  0.5846
  928MPD2    H213635   0.591   2.660   1.534  0.5219  0.1436 -0.7003
  928MPD2    H313636   0.599   2.524   1.332 -0.5337 -0.4342  2.3538
  928MPD2     N13637   0.452   2.876   1.068  0.4863 -0.7521 -0.4958
  928MPD2    H513638   0.415   2.810   1.000  2.4662  0.4317 -2.7388
  928MPD2    N113639   0.521   2.914   1.545  0.1422  0.0137  0.7826
  928MPD2    H713640   0.571   2.870   1.622  2.3879 -1.8777 -1.7361
  929MPD2     C13641   0.699   2.749  10.285  0.5274  0.4850 -0.4446
  929MPD2    C113642   0.593   2.706  10.220 -0.3736  0.8017  0.7914
  929MPD2    C213643   0.542   2.800  10.134 -0.7136 -0.4778  1.2234
  929MPD2    C313644   0.590   2.915  10.114 -0.5509 -0.2172  0.5283
  929MPD2    C413645   0.689   2.962  10.187  0.1487 -0.3463 -0.4144
  929MPD2    C513646   0.749   2.870  10.271 -0.1842  0.2072  0.3025
  929MPD2     H13647   0.476   2.760  10.058  1.7433 -1.3424 -0.4551
  929MPD2    H113648   0.732   3.060  10.175 -1.3100 -0.0230 -3.1224
  929MPD2    H213649   0.745   2.673  10.348  1.2634  1.5711  0.3409
  929MPD2    H313650   0.833   2.900  10.333  0.1458  0.7755 -0.4161
  929MPD2     N13651   0.530   2.995  10.017  0.5494  0.1534 -0.7286
  929MPD2    H513652   0.464   2.934   9.969 -1.4127  2.1471 -0.5509
  929MPD2    N113653   0.543   2.576  10.239  0.2896  0.6039  0.6533
  929MPD2    H713654   0.590   2.518  10.309  1.6269 -0.0405 -0.7688
  930MPD2     C13655   1.927   0.538  14.286  0.2025 -0.4780  0.2992
  930MPD2    C113656   2.032   0.484  14.220  0.4288 -0.4398  0.1637
  930MPD2    C213657   2.014   0.354  14.178  0.3203  0.0627 -0.5645
  930MPD2    C313658   1.889   0.292  14.173 -0.0433 -0.0356  0.3800
  930MPD2    C413659   1.783   0.358  14.224 -0.4323  0.4520  0.5590
  930MPD2    C513660   1.808   0.478  14.285  0.0239  0.5084 -0.6641
  930MPD2     H13661   2.104   0.298  14.153 -0.3900 -0.7574 -1.3195
  930MPD2    H113662   1.681   0.320  14.221  0.7625 -2.9275  2.5343
  930MPD2    H213663   1.931   0.638  14.327 -0.8646  0.7157 -2.4974
  930MPD2    H313664   1.726   0.521  14.341  0.6230 -0.5255  1.0190
  930MPD2     N13665   1.871   0.163  14.122  0.0321  0.2115 -0.4454
  930MPD2    H513666   1.773   0.147  14.099 -0.6835  0.2157  2.5695
  930MPD2    N113667   2.151   0.554  14.217 -0.3586  0.4216 -0.0552
  930MPD2    H713668   2.158   0.635  14.277  1.0419  1.0007 -0.9939
  931MPD2     C13669   1.895   4.211   0.724  0.3853  0.7294  0.2483
  931MPD2    C113670   1.901   4.283   0.839 -0.5498 -0.2848  0.0686
  931MPD2    C213671   1.939   4.215   0.958  0.9609  0.3477  0.4703
  931MPD2    C313672   1.930   4.075   0.963  1.0425  0.4686 -0.4518
  931MPD2    C413673   1.917   4.004   0.848  0.4580  0.4132 -0.6087
  931MPD2    C513674   1.900   4.075   0.727  0.6711 -0.0215 -0.3107
  931MPD2     H13675   1.952   4.273   1.048 -0.0391  0.6679  0.4028
  931MPD2    H113676   1.924   3.896   0.852 -1.2674  0.3113 -0.1439
  931MPD2    H213677   1.881   4.257   0.627 -1.9702 -1.5049 -0.4693
  931MPD2    H313678   1.890   4.017   0.636 -1.4875 -2.0766  1.2223
  931MPD2     N13679   1.941   3.998   1.082 -1.0056  0.1119 -0.2651
  931MPD2    H513680   1.940   3.897   1.076 -1.1257  0.1241 -0.4391
  931MPD2    N113681   1.880   4.422   0.827  0.5309 -0.0212 -0.6075
  931MPD2    H713682   1.859   4.462   0.737  1.0617 -0.2431 -0.8304
  932MPD2     C13683   3.669   3.799  11.290  0.2049 -0.1223 -0.3795
  932MPD2    C113684   3.805   3.773  11.307  0.5024  0.1215 -0.2491
  932MPD2    C213685   3.846   3.636  11.310  0.0384 -0.2289 -0.6890
  932MPD2    C313686   3.753   3.536  11.300  0.1195  0.0184 -0.2658
  932MPD2    C413687   3.622   3.568  11.293  0.1869 -0.4813  0.2271
  932MPD2    C513688   3.579   3.700  11.289  0.0849  0.0430 -0.4591
  932MPD2     H13689   3.949   3.602  11.315  0.7855  1.7358 -2.5842
  932MPD2    H113690   3.540   3.497  11.290 -1.1798  1.0910  0.5459
  932MPD2    H213691   3.633   3.902  11.287  3.3713  1.0138  0.0955
  932MPD2    H313692   3.472   3.721  11.289  0.9449  4.3430 -0.5847
  932MPD2     N13693   3.789   3.401  11.292  0.3627 -0.1586 -0.2992
  932MPD2    H513694   3.717   3.332  11.276  1.1579 -1.1951  0.5869
  932MPD2    N113695   3.911   3.864  11.317  0.1576  0.6408  0.8458
  932MPD2    H713696   4.008   3.839  11.331 -0.0417 -0.2641  0.5755
  933MPD2     C13697   0.604   3.633   2.141  0.2561 -0.0118  0.7483
  933MPD2    C113698   0.507   3.585   2.048 -0.0283  0.5623 -0.4685
  933MPD2    C213699   0.398   3.657   2.014 -0.0502  0.0473 -0.6419
  933MPD2    C313700   0.397   3.796   2.042  0.2471 -0.2321  0.4813
  933MPD2    C413701   0.487   3.843   2.133  0.3273 -0.1496 -0.1918
  933MPD2    C513702   0.589   3.760   2.173  0.1438 -0.2982  0.5075
  933MPD2     H13703   0.326   3.625   1.940 -1.3381  1.1351  0.1455
  933MPD2    H113704   0.486   3.945   2.167  0.6246 -0.2444  0.0979
  933MPD2    H213705   0.677   3.566   2.184 -1.1121 -2.8886 -1.4037
  933MPD2    H313706   0.663   3.802   2.241 -1.5496  3.2145  0.1753
  933MPD2     N13707   0.301   3.886   1.990 -0.4616  0.1391  0.3391
  933MPD2    H513708   0.230   3.847   1.929 -1.0121  1.1937  0.3112
  933MPD2    N113709   0.517   3.455   2.003 -0.2301 -0.4720 -0.9892
  933MPD2    H713710   0.588   3.400   2.049 -1.5226 -2.9770 -2.0028
  934MPD2     C13711   1.472   1.375   1.943  0.4694  0.3829 -0.0264
  934MPD2    C113712   1.546   1.296   1.860 -0.6104 -0.0748  0.3563
  934MPD2    C213713   1.487   1.186   1.797 -0.5840  0.4620  0.6409
  934MPD2    C313714   1.352   1.163   1.815  0.0778  0.4989 -0.1450
  934MPD2    C413715   1.280   1.253   1.896  0.2495  0.1449 -0.3550
  934MPD2    C513716   1.341   1.349   1.960  0.3927  1.0482 -0.1420
  934MPD2     H13717   1.544   1.133   1.722 -1.1447  0.3264  0.3059
  934MPD2    H113718   1.174   1.241   1.911 -0.0025  1.2647 -1.2214
  934MPD2    H213719   1.507   1.469   1.985 -2.9205  0.5723  2.3340
  934MPD2    H313720   1.283   1.416   2.022  0.4889  1.0246 -0.0266
  934MPD2     N13721   1.275   1.060   1.751 -0.5797  0.4593  0.0430
  934MPD2    H513722   1.177   1.051   1.777 -0.4567  0.6797  0.5869
  934MPD2    N113723   1.681   1.319   1.836  0.1159  0.2341 -0.0845
  934MPD2    H713724   1.738   1.258   1.779  0.9320  0.1488  0.8168
  935MPD2     C13725   1.436   0.110   1.593 -0.0816  0.1661 -0.0419
  935MPD2    C113726   1.350   0.122   1.489  0.3033  0.0258 -0.6634
  935MPD2    C213727   1.285   0.247   1.478  0.9774 -0.5518  0.5371
  935MPD2    C313728   1.328   0.350   1.566  0.4198 -0.0964  0.3484
  935MPD2    C413729   1.431   0.331   1.662  0.2554 -0.5478  0.8476
  935MPD2    C513730   1.481   0.208   1.675  0.2645 -0.6919 -0.3745
  935MPD2     H13731   1.211   0.261   1.400  0.8182  0.8738  0.9438
  935MPD2    H113732   1.473   0.406   1.727 -3.2352  1.2537  1.0134
  935MPD2    H213733   1.480   0.014   1.619 -0.0494 -0.2168 -1.4973
  935MPD2    H313734   1.547   0.177   1.755  2.7834  2.6874 -1.1467
  935MPD2     N13735   1.274   0.489   1.564  0.9477 -0.2224 -0.5224
  935MPD2    H513736   1.331   0.557   1.613  3.2241 -2.3819 -0.1565
  935MPD2    N113737   1.312   0.022   1.394 -0.3568 -0.2381 -0.9288
  935MPD2    H713738   1.262   0.050   1.310 -0.1422  0.5607 -0.7854
  936MPD2     C13739   4.115   1.510  12.557  0.1340 -0.9248 -0.2553
  936MPD2    C113740   4.229   1.591  12.541  0.3312 -0.6432  0.1738
  936MPD2    C213741   4.257   1.634  12.415 -0.6080 -0.0912  0.5528
  936MPD2    C313742   4.169   1.599  12.307  0.3674  0.0489 -0.1041
  936MPD2    C413743   4.050   1.528  12.332  0.1831  0.3465  0.2469
  936MPD2    C513744   4.026   1.477  12.462 -1.0363 -0.4406 -0.1982
  936MPD2     H13745   4.343   1.700  12.404 -1.0374 -0.1903 -3.6274
  936MPD2    H113746   3.991   1.497  12.247  0.3072  2.0821 -0.4573
  936MPD2    H213747   4.084   1.476  12.655 -1.0037  0.5075 -0.1158
  936MPD2    H313748   3.938   1.418  12.484 -0.6884 -1.1995 -0.8273
  936MPD2     N13749   4.169   1.661  12.182  0.1701 -0.4110 -0.1048
  936MPD2    H513750   4.085   1.657  12.125  0.7787 -1.2731 -0.9384
  936MPD2    N113751   4.315   1.641  12.639  0.2190 -0.1464  0.1882
  936MPD2    H713752   4.394   1.698  12.609  0.5000 -0.4969  0.2661
  937MPD2     C13753   2.532   3.128  11.682 -0.1034 -0.3603  0.7431
  937MPD2    C113754   2.517   3.268  11.685  0.0658  0.5292  0.1221
  937MPD2    C213755   2.569   3.344  11.584  0.0413  0.6589 -0.5913
  937MPD2    C313756   2.658   3.285  11.499 -0.1475  0.0762 -0.2169
  937MPD2    C413757   2.677   3.147  11.494 -0.4391  0.1320  0.2888
  937MPD2    C513758   2.613   3.069  11.583  0.1117 -0.1815  0.1168
  937MPD2     H13759   2.538   3.446  11.567  1.6422  1.2167 -0.1350
  937MPD2    H113760   2.741   3.101  11.419  1.4631  1.1687  1.2762
  937MPD2    H213761   2.470   3.063  11.742  0.9224 -1.6234  0.4526
  937MPD2    H313762   2.615   2.960  11.582 -0.6200 -0.2091  1.2199
  937MPD2     N13763   2.732   3.374  11.419 -0.0111 -0.1573  0.4332
  937MPD2    H513764   2.707   3.472  11.416 -0.0990 -0.2298 -1.3028
  937MPD2    N113765   2.407   3.327  11.753 -0.0423 -0.4702  0.2917
  937MPD2    H713766   2.366   3.411  11.714  1.7096  0.0673 -0.4244
  938MPD2     C13767   0.327   0.332   0.699  0.3718 -0.2259 -0.4513
  938MPD2    C113768   0.343   0.415   0.812  0.2353 -0.7120 -0.1685
  938MPD2    C213769   0.375   0.361   0.940  0.3887 -0.5241 -0.3512
  938MPD2    C313770   0.381   0.219   0.948 -1.2587 -0.6132 -0.1159
  938MPD2    C413771   0.354   0.139   0.838  0.6228  0.0125  0.0974
  938MPD2    C513772   0.330   0.194   0.715 -0.1980  0.6229  0.3918
  938MPD2     H13773   0.380   0.432   1.021 -0.0658 -0.7221 -0.1489
  938MPD2    H113774   0.352   0.031   0.846  0.7565 -0.0664 -0.8774
  938MPD2    H213775   0.313   0.375   0.600  0.2003 -0.3460 -0.4803
  938MPD2    H313776   0.320   0.126   0.630  1.9311 -0.0488  0.6836
  938MPD2     N13777   0.399   0.150   1.068  0.2862  0.2041  0.1692
  938MPD2    H513778   0.399   0.049   1.061 -0.3732  0.2112  0.0077
  938MPD2    N113779   0.347   0.561   0.808 -1.2122  0.4953 -0.4246
  938MPD2    H713780   0.383   0.613   0.888  0.8346 -1.1117 -0.3020
  939MPD2     C13781   1.348   1.348   0.672 -0.2178  0.0433 -0.4463
  939MPD2    C113782   1.234   1.264   0.654  0.4528 -0.1333  0.1303
  939MPD2    C213783   1.246   1.137   0.598  0.8127  1.0288 -0.0528
  939MPD2    C313784   1.366   1.105   0.540 -0.2106  0.6890  0.2917
  939MPD2    C413785   1.477   1.189   0.550  0.0406  0.2257 -0.1218
  939MPD2    C513786   1.467   1.307   0.612 -0.6779 -0.2215  0.8291
  939MPD2     H13787   1.156   1.079   0.584  0.2101  2.1358 -0.7842
  939MPD2    H113788   1.573   1.154   0.514 -0.5595 -1.6018  0.0514
  939MPD2    H213789   1.347   1.437   0.733 -0.4693 -1.4443  1.7125
  939MPD2    H313790   1.551   1.373   0.630  0.2142 -1.5420  1.4218
  939MPD2     N13791   1.371   0.978   0.467  0.1819  0.4494 -0.0088
  939MPD2    H513792   1.284   0.925   0.464 -0.5772  1.6056  1.1696
  939MPD2    N113793   1.111   1.310   0.693 -0.0120 -0.2081 -0.2549
  939MPD2    H713794   1.113   1.388   0.758  1.0297  0.4472 -1.0747
  940MPD2     C13795   0.425   1.364  13.409 -0.1075 -1.1419 -0.0792
  940MPD2    C113796   0.560   1.354  13.372 -0.0386 -0.0220 -0.7897
  940MPD2    C213797   0.593   1.319  13.240 -0.0917 -0.1184 -0.2998
  940MPD2    C313798   0.504   1.305  13.140  0.9292  0.0796  0.2147
  940MPD2    C413799   0.372   1.307  13.183 -0.2649 -0.5922  0.8279
  940MPD2    C513800   0.330   1.336  13.311  0.7605 -0.9155 -0.1578
  940MPD2     H13801   0.698   1.313  13.216  0.0452  2.0196 -0.1682
  940MPD2    H113802   0.289   1.290  13.116  1.1870  0.6828 -1.2981
  940MPD2    H213803   0.400   1.387  13.512 -0.6532 -0.8958 -0.2680
  940MPD2    H313804   0.225   1.321  13.334  1.1901  1.2608  3.3209
  940MPD2     N13805   0.528   1.282  13.000  0.6394 -0.1509 -0.1598
  940MPD2    H513806   0.447   1.277  12.939 -0.4419 -0.9330  1.3483
  940MPD2    N113807   0.662   1.381  13.465  0.8665 -0.4816 -0.1523
  940MPD2    H713808   0.756   1.369  13.430  0.2862 -1.9227 -1.2170
  941MPD2     C13809   4.359   0.679  10.020 -0.1011 -0.0833  0.6976
  941MPD2    C113810   4.483   0.622  10.053  0.1170  0.0089  0.4837
  941MPD2    C213811   4.492   0.520  10.141 -0.4265 -0.4067 -0.0347
  941MPD2    C313812   4.381   0.456  10.203  0.4882 -0.1875 -0.1167
  941MPD2    C413813   4.258   0.517  10.172 -0.0228  0.0194 -0.0193
  941MPD2    C513814   4.248   0.627  10.088 -0.1815  0.4928  0.0673
  941MPD2     H13815   4.590   0.484  10.171 -0.1382  0.4663  0.0803
  941MPD2    H113816   4.166   0.481  10.217 -0.1152  0.5989  0.2535
  941MPD2    H213817   4.348   0.763   9.952  1.9433  0.3595  0.9081
  941MPD2    H313818   4.152   0.673  10.072 -0.0159  0.2732 -1.5760
  941MPD2     N13819   4.398   0.363  10.305 -0.1897  0.0787  0.0385
  941MPD2    H513820   4.315   0.337  10.357 -1.0116  0.9407 -0.8618
  941MPD2    N113821   4.604   0.684  10.010  0.0183 -0.0446 -0.0899
  941MPD2    H713822   4.682   0.636  10.055  2.7569  3.8947 -0.6502
  942MPD2     C13823   4.102   3.375   9.865  0.0531  0.1700  0.4631
  942MPD2    C113824   4.194   3.383   9.761 -0.3296 -0.7215 -0.2771
  942MPD2    C213825   4.257   3.269   9.715 -0.6737  0.0042  0.6199
  942MPD2    C313826   4.218   3.143   9.762 -0.1366 -0.6557 -0.0086
  942MPD2    C413827   4.136   3.138   9.873  0.0501  0.4180 -0.1616
  942MPD2    C513828   4.078   3.251   9.922  0.2001  2.0029  0.3785
  942MPD2     H13829   4.324   3.281   9.631 -0.0177  0.9342  1.2809
  942MPD2    H113830   4.102   3.041   9.907  0.5274 -0.4937 -2.2299
  942MPD2    H213831   4.053   3.458   9.916 -1.5033  0.0879 -0.8872
  942MPD2    H313832   4.002   3.251   9.998  0.4421 -0.3400  0.6241
  942MPD2     N13833   4.265   3.014   9.726  0.2629 -0.0196 -0.0432
  942MPD2    H513834   4.230   2.932   9.775 -1.4600  0.3611 -0.6270
  942MPD2    N113835   4.231   3.510   9.708  0.7754 -0.2911  0.3540
  942MPD2    H713836   4.318   3.515   9.656  0.8118  0.6060  0.4984
  943MPD2     C13837   3.140   1.181  10.556  0.4030  0.7682 -0.8402
  943MPD2    C113838   3.074   1.068  10.604  0.2956 -0.6210  0.8095
  943MPD2    C213839   2.993   1.079  10.720 -0.6856  0.4096 -0.2552
  943MPD2    C313840   2.988   1.202  10.786 -0.4880 -0.3066 -0.3839
  943MPD2    C413841   3.059   1.312  10.736 -0.0680 -0.2469  0.5064
  943MPD2    C513842   3.130   1.299  10.619 -0.1730 -0.1217 -0.2254
  943MPD2     H13843   2.945   0.996  10.771  1.3863 -1.1029 -0.7818
  943MPD2    H113844   3.049   1.415  10.769 -1.6722 -0.7447  1.5764
  943MPD2    H213845   3.188   1.180  10.459 -0.4767 -0.0099 -1.2609
  943MPD2    H313846   3.167   1.392  10.579  0.5595 -0.1916  0.3069
  943MPD2     N13847   2.922   1.200  10.908 -0.2886  0.1451  0.4752
  943MPD2    H513848   2.888   1.111  10.943 -1.9591  0.9705  0.9124
  943MPD2    N113849   3.094   0.948  10.541 -0.2710  0.1777  0.2335
  943MPD2    H713850   3.150   0.950  10.456 -0.0306  0.3474  0.3946
  944MPD2     C13851   2.776   0.191  11.164  0.0730 -0.6682  1.0454
  944MPD2    C113852   2.658   0.171  11.232 -0.8683 -0.2492  0.7004
  944MPD2    C213853   2.607   0.272  11.318 -0.0701  0.6680  0.1846
  944MPD2    C313854   2.667   0.403  11.325  0.3766 -1.4182  0.7473
  944MPD2    C413855   2.782   0.421  11.249  0.1586 -0.8465 -0.4160
  944MPD2    C513856   2.830   0.315  11.171  1.3344  0.2708 -0.3251
  944MPD2     H13857   2.515   0.263  11.374 -0.9130  0.2810 -1.2550
  944MPD2    H113858   2.835   0.516  11.240  1.4356 -1.2617  2.8659
  944MPD2    H213859   2.809   0.120  11.089 -2.2133 -1.1117  0.4670
  944MPD2    H313860   2.918   0.329  11.109 -1.9145  0.7563 -4.9008
  944MPD2     N13861   2.623   0.496  11.423  0.2331  0.7809 -0.4802
  944MPD2    H513862   2.548   0.464  11.484  1.0746  0.7999  0.5693
  944MPD2    N113863   2.577   0.062  11.195  0.4836 -0.5680 -0.6477
  944MPD2    H713864   2.611   0.011  11.115  1.1252  1.1807 -1.4898
    1TMC1    C113865   1.376   0.940  15.012  0.8057 -0.3651 -0.3069
    1TMC1    C213866   1.352   0.905  15.142 -0.2150  0.4716 -0.0070
    1TMC1    C313867   1.301   0.784  15.171  0.9265 -0.0400  0.0580
    1TMC1    C413868   1.342   0.865  14.907  0.4398 -0.4463  0.2322
    1TMC1    C513869   1.290   0.747  14.942 -0.3610  0.3114 -0.1764
    1TMC1    C613870   1.281   0.695  15.069  1.4445 -0.3039  0.0098
    1TMC1     C13871   1.400   1.083  14.995  0.1442  0.5540  0.0461
    1TMC1     O13872   1.442   1.139  15.095  0.4587  0.0832  0.6124
    1TMC1     H13873   1.370   0.974  15.225  0.2521 -0.7082  0.8730
    1TMC1    H113874   1.337   0.893  14.803 -0.1262  0.0425  0.3933
    1TMC1    H213875   1.260   0.591  15.090  1.0514 -0.0419  0.9089
    1TMC1    C713876   1.299   0.645  14.836 -0.2174  0.4999 -0.0895
    1TMC1    C813877   1.215   0.783  15.290 -0.7542 -0.0241  0.1072
    1TMC1    O113878   1.231   0.548  14.850  0.3955  0.6812  0.3518
    1TMC1    O213879   1.221   0.864  15.382  0.0969  0.1689  0.3630
    1TMC1    O313880   1.437   0.636  14.819 -0.7162  0.1323 -0.5799
    1TMC1    H313881   1.475   0.723  14.795  0.7382 -0.1531  0.7246
    1TMC1    O513882   1.127   0.680  15.281 -0.0952  0.0069  0.4052
    1TMC1    H513883   1.111   0.620  15.204  2.2855  2.2731 -1.8555
    2MPD2     C13884   1.394   1.515  14.694  0.3125  0.3667 -0.0321
    2MPD2    C113885   1.377   1.398  14.619 -0.0480  0.1155  0.2886
    2MPD2    C213886   1.374   1.273  14.680 -0.2364  0.3482 -1.1273
    2MPD2    C313887   1.392   1.254  14.817 -0.4619  0.9561  0.2282
    2MPD2    C413888   1.416   1.370  14.892 -1.0834  0.0337 -0.1483
    2MPD2    C513889   1.422   1.492  14.828  0.5772 -0.5317 -0.5007
    2MPD2     H13890   1.361   1.187  14.615  1.1712  1.7665 -3.2637
    2MPD2    H113891   1.425   1.366  15.000 -0.3229 -0.9018 -0.2557
    2MPD2    H213892   1.402   1.617  14.657  1.7304 -0.8299 -2.9428
    2MPD2    H313893   1.452   1.580  14.885 -1.1040 -0.2678 -0.0072
    2MPD2     N13894   1.382   1.122  14.868  0.2962 -0.6295 -0.0645
    2MPD2    H513895   1.355   1.055  14.797  0.4096  0.4532 -1.1208
    2MPD2    N113896   1.347   1.417  14.487  0.0962  0.4292  0.1304
    2MPD2    H713897   1.350   1.514  14.458 -0.0108  0.3366 -0.1948
    3TMC2    C113898   1.281   1.387  14.268 -0.7291  0.1197  0.0530
    3TMC2    C213899   1.252   1.523  14.262 -0.5522  0.3713 -0.1683
    3TMC2    C313900   1.227   1.581  14.148  0.1646 -0.2308  0.1526
    3TMC2    C413901   1.280   1.312  14.154 -0.2725 -0.1198  0.4294
    3TMC2    C513902   1.239   1.369  14.039 -0.1718  0.0483 -0.3554
    3TMC2    C613903   1.203   1.503  14.038  0.7158 -0.5208 -0.2608
    3TMC2     C13904   1.336   1.327  14.388  1.1085  0.4914 -0.1724
    3TMC2     O13905   1.377   1.212  14.383  0.1228 -0.2668  0.1437
    3TMC2     H13906   1.244   1.584  14.350  0.9796 -0.0772  0.2736
    3TMC2    H113907   1.296   1.205  14.157 -1.7167 -0.3841 -1.0756
    3TMC2    H213908   1.171   1.560  13.951  2.1049  0.1014 -0.3639
    3TMC2    C713909   1.171   1.284  13.942 -0.1501  0.1948 -0.7745
    3TMC2    C813910   1.193   1.718  14.137  0.6031 -0.6149  0.1884
    3TMC2    O113911   1.156   1.167  13.972 -0.0048  0.3927 -0.2745
    3TMC2    O213912   1.123   1.760  14.044  0.0791  0.0984  0.4239
    3TMC2    O513913   1.283   1.783  14.209 -0.0707 -0.2068 -0.2634
    3TMC2    H513914   1.315   1.735  14.289 -0.9454 -0.3297  0.0216
    4TMC2    C113915   0.919   1.641  13.019  0.4570  0.3035 -0.4058
    4TMC2    C213916   0.960   1.545  12.927 -0.4618  0.0281  0.2137
    4TMC2    C313917   1.036   1.441  12.966  0.4461  1.0942 -0.4815
    4TMC2    C413918   0.958   1.620  13.149  0.3492 -0.6512  0.5348
    4TMC2    C513919   1.031   1.508  13.184 -0.5793  0.7895 -0.1255
    4TMC2    C613920   1.074   1.415  13.094  0.3502 -0.6609 -0.0679
    4TMC2     C13921   0.780   1.651  13.021 -0.3363  0.0009  0.1026
    4TMC2     O13922   0.731   1.625  13.128 -0.2946 -0.1878  0.1386
    4TMC2     H13923   0.914   1.544  12.828 -3.2042  0.8002  1.4726
    4TMC2    H113924   0.930   1.695  13.222 -2.0742 -0.9143 -0.1232
    4TMC2    H213925   1.115   1.317  13.117  0.0850 -0.1251  2.6203
    4TMC2    C713926   1.039   1.481  13.330  0.8901 -0.2047  0.4476
    4TMC2    C813927   1.093   1.353  12.861 -0.5095 -0.3884 -0.4782
    4TMC2    O113928   1.003   1.565  13.409  0.1160  0.4333  1.1207
    4TMC2    O213929   1.124   1.235  12.887  0.2120  0.0068 -0.2874
    4TMC2    O513930   1.096   1.410  12.745 -0.4433 -0.5936  0.0136
    4TMC2    H513931   1.067   1.503  12.736  0.5954 -0.0755  2.0072
    5MPD2     C13932   0.315   1.621  12.778  0.0771 -0.4474 -0.1164
    5MPD2    C113933   0.396   1.693  12.702 -0.2863  0.1740 -0.1290
    5MPD2    C213934   0.524   1.718  12.749  0.0833  0.1099  0.5512
    5MPD2    C313935   0.582   1.671  12.868  0.0630  0.7068  0.1464
    5MPD2    C413936   0.492   1.594  12.947  0.0788  0.6853 -0.0489
    5MPD2    C513937   0.366   1.575  12.898 -0.8646 -0.3143 -0.0376
    5MPD2     H13938   0.601   1.764  12.689 -1.7711 -0.6788 -2.4317
    5MPD2    H113939   0.510   1.570  13.051 -0.3000 -0.0821 -0.1662
    5MPD2    H213940   0.215   1.584  12.756  0.6667 -2.1458  0.0445
    5MPD2    H313941   0.301   1.521  12.966  1.0164 -0.4000  1.6751
    5MPD2     N13942   0.717   1.690  12.904  0.6504  0.1117 -0.1966
    5MPD2    H513943   0.787   1.715  12.836  2.1620 -0.5818  1.1049
    5MPD2    N113944   0.335   1.747  12.588  0.3432  0.1200  0.1762
    5MPD2    H713945   0.237   1.724  12.578 -0.0262  1.2740  1.1969
    6MPD1     C13946   4.409   3.271  13.373 -0.1000 -0.9959  0.0991
    6MPD1    C113947   4.530   3.290  13.320  0.6733  0.2949  0.4978
    6MPD1    C213948   4.561   3.221  13.207  0.4248  0.1218  0.1420
    6MPD1    C313949   4.475   3.123  13.156 -0.6318  0.3300 -0.0897
    6MPD1    C413950   4.360   3.092  13.223  0.0120  0.3054  0.1871
    6MPD1    C513951   4.329   3.166  13.332 -0.4291 -0.3672 -0.6873
    6MPD1     H13952   4.660   3.243  13.170  1.0885 -2.4829  0.3678
    6MPD1    H113953   4.288   3.020  13.187  0.8337  1.3033 -3.5223
    6MPD1    H213954   4.377   3.328  13.461  1.4532  0.1266 -0.0686
    6MPD1    H313955   4.234   3.157  13.384 -0.5229 -1.5428 -1.0683
    6MPD1     N13956   4.506   3.039  13.039  0.0439 -0.3176 -0.3400
    6MPD1    H513957   4.434   2.970  13.017  0.1731 -0.2044 -1.0828
    6MPD1    N113958   4.623   3.368  13.379  0.3561 -0.5256 -0.2817
    6MPD1    H613959   4.701   3.388  13.317 -0.5302 -1.3762 -1.7002
    6MPD1    H713960   4.578   3.456  13.402 -0.4636  0.0906 -4.2144
    7MPD2     C13961   4.580   2.277  12.941  0.3610 -0.5550 -0.3272
    7MPD2    C113962   4.620   2.343  12.826  0.0624 -0.3572 -0.0137
    7MPD2    C213963   4.649   2.282  12.704  0.2667  0.4995  0.5154
    7MPD2    C313964   4.651   2.142  12.701 -0.2343 -0.1976 -0.1406
    7MPD2    C413965   4.612   2.072  12.816  0.4329 -0.4884  0.7515
    7MPD2    C513966   4.572   2.142  12.926  0.0621  0.1432  0.0387
    7MPD2     H13967   4.676   2.345  12.620 -0.9500  2.4670  1.5940
    7MPD2    H113968   4.612   1.964  12.816  1.7078 -0.5183 -3.1592
    7MPD2    H213969   4.535   2.320  13.030  1.3981  1.2884 -0.7112
    7MPD2    H313970   4.541   2.091  13.016 -0.5643  1.1918  0.4165
    7MPD2     N13971   4.691   2.069  12.586 -0.6047 -0.5047  0.2275
    7MPD2    H513972   4.674   1.969  12.585 -1.1061 -0.4164  0.1945
    7MPD2    N113973   4.620   2.482  12.819  0.6571  0.2744 -0.2330
    7MPD2    H713974   4.631   2.533  12.732 -0.3864  1.0491  0.0940
    8TMC3    C113975   0.101   2.036  12.392  0.5169 -0.4198  0.2273
    8TMC3    C213976   0.169   1.936  12.457 -0.4548 -0.3235 -0.4518
    8TMC3    C313977   0.305   1.934  12.436 -0.1654 -0.2678  0.4273
    8TMC3    C413978   0.157   2.113  12.289  0.4263  0.1391 -0.6439
    8TMC3    C513979   0.290   2.108  12.270  0.2228 -0.1872  0.2051
    8TMC3    C613980   0.363   2.021  12.343  0.5895 -0.0584  0.3626
    8TMC3     C13981   0.032   2.127  12.483 -0.3374 -1.0793  0.0683
    8TMC3     O13982   0.067   2.241  12.474 -0.2239 -0.2304 -0.0764
    8TMC3     H13983   0.126   1.884  12.542  0.6575  0.8159  0.7953
    8TMC3    H113984   0.099   2.192  12.243  1.1870  0.0082 -1.8270
    8TMC3    H213985   0.471   2.017  12.343  0.5659 -0.7219 -1.1476
    8TMC3    C713986   0.358   2.232  12.247 -0.4266  0.1631 -0.0565
    8TMC3    C813987   0.395   1.847  12.517  0.5553 -0.4593  0.2949
    8TMC3    O113988   0.479   2.235  12.220 -0.0050 -0.3137 -0.3279
    8TMC3    O213989   0.514   1.870  12.524 -0.2542 -0.0759  0.7284
    9TMC3    C113990   4.645   2.926  12.891  0.0388 -0.0528  0.3647
    9TMC3    C213991   0.009   2.934  12.794  0.3527  0.0742 -0.1358
    9TMC3    C313992   0.071   2.816  12.755 -0.5218  0.3842  0.2517
    9TMC3    C413993   4.603   2.805  12.939  0.4747 -0.8065  0.3888
    9TMC3    C513994   4.655   2.694  12.877  0.0706 -0.2167  0.0838
    9TMC3    C613995   0.023   2.696  12.792 -0.8704  0.3104 -0.0923
    9TMC3     C13996   4.624   3.048  12.966  0.2008 -0.1158 -0.4204
    9TMC3     O13997   4.713   3.136  12.968 -0.6675  0.1154 -0.4182
    9TMC3     H13998   0.046   3.028  12.754  2.5047 -0.6088  0.2685
    9TMC3    H113999   4.518   2.798  13.006 -2.6502  0.7776 -3.3768
    9TMC3    H214000   0.062   2.607  12.744  0.3498  2.1460 -2.4717
    9TMC3    C714001   4.611   2.564  12.925  0.1333  0.1322 -0.5483
    9TMC3    C814002   0.160   2.821  12.642 -0.5631 -0.1208 -0.1844
    9TMC3    O114003   4.569   2.555  13.036  0.7032 -0.1367 -0.3303
    9TMC3    O214004   0.204   2.924  12.595  0.2411 -0.1282  0.0195
   10MPD2     C14005   0.417   2.532  12.302  1.0147  0.4178 -0.1562
   10MPD2    C114006   0.306   2.461  12.346  0.4234 -0.3867 -0.2741
   10MPD2    C214007   0.223   2.536  12.419  0.1659  0.1525  0.2753
   10MPD2    C314008   0.242   2.668  12.461 -0.3762  0.5241  0.6193
   10MPD2    C414009   0.358   2.730  12.424  0.2759 -0.1871  0.0839
   10MPD2    C514010   0.443   2.662  12.345 -0.0951 -0.0354  0.0486
   10MPD2     H14011   0.137   2.484  12.459 -0.5980 -1.9092 -4.0710
   10MPD2    H114012   0.386   2.830  12.455 -0.9397  0.1661  0.0408
   10MPD2    H214013   0.480   2.491  12.224 -2.0713 -0.3351 -2.2449
   10MPD2    H314014   0.531   2.705  12.297 -0.0557 -0.8359 -0.5971
   10MPD2     N14015   0.147   2.709  12.563 -0.2958  0.5549 -0.1484
   10MPD2    H514016   0.076   2.644  12.595  1.4586 -1.0347  0.4947
   10MPD2    N114017   0.281   2.330  12.308  0.1010  0.0362  0.2023
   10MPD2    H714018   0.190   2.300  12.341 -1.4600  2.9520 -1.3785
   11MPD2     C14019   1.020   1.156  13.733 -0.2869  0.7553 -0.0059
   11MPD2    C114020   1.094   1.271  13.712 -0.1680  0.4817  0.0883
   11MPD2    C214021   1.090   1.340  13.591 -0.4657 -0.3836 -0.1530
   11MPD2    C314022   1.029   1.292  13.483  0.3188 -0.2785 -0.8533
   11MPD2    C414023   0.973   1.166  13.494 -1.2671  0.5613  0.0160
   11MPD2    C514024   0.961   1.107  13.618  0.6428 -0.4818 -0.2500
   11MPD2     H14025   1.149   1.431  13.582  2.9618 -2.4962  1.0240
   11MPD2    H114026   0.926   1.112  13.413  0.0430 -1.2076  0.4305
   11MPD2    H214027   1.018   1.097  13.824  0.2071  1.0858  0.2143
   11MPD2    H314028   0.919   1.007  13.622 -0.9183  0.2165  0.7902
   11MPD2     N14029   1.031   1.343  13.352 -0.9302  0.1846  0.1740
   11MPD2    H514030   0.996   1.282  13.280 -3.9037  1.1287  0.8060
   11MPD2    N114031   1.165   1.337  13.818  0.4891 -0.6625 -0.2837
   11MPD2    H714032   1.210   1.426  13.801 -0.6368 -0.0882 -0.2794
    1MPD1     C14033   0.558   2.789  16.977 -0.2404 -0.2650 -0.3200
    1MPD1    C114034   0.598   2.915  16.946  0.6051  0.3174  1.0211
    1MPD1    C214035   0.526   2.987  16.852  0.2630  0.0101  0.1419
    1MPD1    C314036   0.424   2.926  16.781 -0.6046 -0.3291 -0.3685
    1MPD1    C414037   0.389   2.796  16.812 -0.8343 -0.4241 -0.7776
    1MPD1    C514038   0.458   2.729  16.912 -0.0468  0.3158 -0.6575
    1MPD1     H14039   0.554   3.086  16.816 -0.1086 -0.3071 -0.9944
    1MPD1    H114040   0.308   2.740  16.766 -0.8068 -0.7220 -0.4660
    1MPD1    H214041   0.613   2.735  17.053  0.5412 -0.9443 -1.3650
    1MPD1    H314042   0.428   2.631  16.948 -3.5235  1.1455 -1.2485
    1MPD1     N14043   0.354   2.991  16.676  0.7777  0.2173 -0.4606
    1MPD1    H514044   0.278   2.944  16.628 -1.4309  0.4477  2.8102
    1MPD1    N114045   0.696   2.979  17.021 -0.0303  0.0114 -0.0946
    1MPD1    H614046   0.759   2.910  17.063  0.4934  0.9643  0.6958
    1MPD1    H714047   0.750   3.041  16.961 -0.2871 -0.8709 -1.2342
    2MPD1     C14048   0.029   2.871  15.735  0.1447 -1.0092 -0.1904
    2MPD1    C114049   4.730   3.003  15.755 -0.3596 -0.1562  0.1366
    2MPD1    C214050   0.049   3.078  15.849 -0.0943 -0.3522 -0.5143
    2MPD1    C314051   0.104   3.009  15.959 -0.8609  0.9560  0.0007
    2MPD1    C414052   0.134   2.873  15.943  0.1090  0.0425  0.2733
    2MPD1    C514053   0.107   2.807  15.828 -0.0618  0.1804  1.0429
    2MPD1     H14054   0.024   3.183  15.846  0.0536 -0.2307  2.8683
    2MPD1    H114055   0.187   2.813  16.017  0.2719 -1.5706 -1.1524
    2MPD1    H214056   0.004   2.816  15.645 -0.4878 -2.7058  1.0227
    2MPD1    H314057   0.126   2.701  15.818  1.7670  0.7698 -1.6840
    2MPD1     N14058   0.129   3.076  16.081 -0.5941 -0.3839  0.1410
    2MPD1    H514059   0.095   3.171  16.092 -1.1447 -0.4416 -1.0425
    2MPD1    N114060   4.665   3.068  15.646  0.3887 -0.4123  0.1750
    2MPD1    H614061   4.608   3.146  15.678  0.2771  0.1038 -1.2580
    2MPD1    H714062   4.609   3.011  15.583  1.0379 -0.0553 -0.7303
    3TMC3    C114063   0.230   3.128  16.293 -0.2198 -0.6380 -0.4058
    3TMC3    C214064   0.221   3.263  16.281 -0.1523 -0.2323  0.1186
    3TMC3    C314065   0.239   3.346  16.393 -0.4061  0.5681  0.4591
    3TMC3    C414066   0.259   3.074  16.417  0.0266 -0.0241  0.0525
    3TMC3    C514067   0.273   3.157  16.529  0.8080  0.1707 -0.0895
    3TMC3    C614068   0.262   3.296  16.519  0.1016 -0.4826  0.4534
    3TMC3     C14069   0.203   3.032  16.185  0.6045  0.4695 -0.2122
    3TMC3     O14070   0.261   2.931  16.201  0.6528 -0.2647 -0.1031
    3TMC3     H14071   0.202   3.302  16.182 -0.5392 -1.3443 -0.2478
    3TMC3    H114072   0.278   2.967  16.423  0.2108 -0.0144 -0.3601
    3TMC3    H214073   0.261   3.355  16.610  1.3295  0.7336 -0.3222
    3TMC3    C714074   0.359   3.121  16.646  0.1148 -0.1752  0.8391
    3TMC3    C814075   0.209   3.489  16.376 -0.5017 -0.5382 -0.1433
    3TMC3    O114076   0.416   3.208  16.706  0.3786 -0.3640 -0.4402
    3TMC3    O214077   0.153   3.522  16.274  0.1453 -1.3388  0.2711
    4MPD1     C14078   0.225   3.989  16.533  0.0139  0.0879 -0.0165
    4MPD1    C114079   0.240   3.906  16.645  0.3413 -0.2271 -0.1550
    4MPD1    C214080   0.234   3.770  16.633 -0.4300  0.2096  0.8290
    4MPD1    C314081   0.220   3.712  16.503 -0.2623  0.4073  0.0578
    4MPD1    C414082   0.213   3.793  16.392  0.9491  0.0197  0.1230
    4MPD1    C514083   0.216   3.929  16.413  0.0825 -0.2147 -0.2343
    4MPD1     H14084   0.246   3.706  16.719 -2.6120 -1.2372  0.0597
    4MPD1    H114085   0.215   3.760  16.289  0.8095 -1.9461  0.7528
    4MPD1    H214086   0.226   4.096  16.548 -0.1453 -0.0856  1.2049
    4MPD1    H314087   0.193   3.990  16.327  1.3622 -1.5353 -1.5132
    4MPD1     N14088   0.237   3.567  16.489 -0.4230  0.0815 -0.0145
    4MPD1    H514089   0.274   3.522  16.572  1.0637  0.0894 -0.6713
    4MPD1    N114090   0.254   3.966  16.771  0.5236  0.2909 -0.6052
    4MPD1    H614091   0.291   4.060  16.763  3.1746 -0.8599 -2.0521
    4MPD1    H714092   0.323   3.926  16.835  0.0606  1.4970  0.6461
    1TCq1    O114093   4.611   3.472  12.217 -0.1330  0.0920  0.2621
    1TCq1    C114094   4.580   3.410  12.336 -0.5624  0.2095  0.1072
    1TCq1    O214095   4.554   3.471  12.440  0.0321 -0.5469  0.7470
    1TCq1    C214096   4.486   3.318  12.282  0.1475  0.2621 -0.5344
    1TCq1    C314097   4.524   3.190  12.253  0.2820  0.3856  0.4391
    1TCq1    C414098   4.432   3.097  12.212  0.6143  0.5483  0.8187
    1TCq1    C514099   4.314   3.135  12.157  0.8423 -0.1203 -0.4418
    1TCq1    C614100   4.289   3.272  12.177 -0.1803 -0.2523  0.2202
    1TCq1    C714101   4.366   3.361  12.240 -0.5624  0.1363 -0.4561
    1TCq1    C814102   4.160   3.327  12.124  0.0146  0.2352 -0.1779
    1TCq1    O414103   4.098   3.245  12.057 -0.2080 -0.0431  0.1569
    1TCq1    C914104   4.485   2.974  12.165 -0.3160  0.9014 -0.0796
    1TCq1    O514105   4.404   2.897  12.103  0.1076 -0.1845 -0.5014
    1TCq1    O614106   4.604   2.948  12.189 -0.0238  0.8955  0.1410
    1TCq1    H114107   4.588   3.428  12.133 -2.5790  1.9839 -0.0485
    1TCq1    H214108   4.619   3.158  12.293 -0.3769  0.0849  1.7585
    1TCq1    H314109   4.245   3.065  12.109  0.3575  0.3791 -0.4662
    1TCq1    H414110   4.345   3.466  12.254 -1.8616 -0.1753 -0.1009
    2MPD1     C14111   3.840   3.699  11.993 -0.7080 -0.2101 -0.3176
    2MPD1    C114112   3.943   3.758  12.055  0.4998 -0.5463 -0.4370
    2MPD1    C214113   4.048   3.679  12.105  0.1809  0.3847 -0.3157
    2MPD1    C314114   4.043   3.541  12.089 -0.7329 -0.1780 -0.0300
    2MPD1    C414115   3.934   3.488  12.027  0.1629  0.1179  0.3285
    2MPD1    C514116   3.829   3.561  11.973 -0.6649 -0.0566 -1.0607
    2MPD1     H14117   4.125   3.726  12.165 -0.4489  0.5433  0.3801
    2MPD1    H114118   3.926   3.380  12.031  1.3193  0.0790  1.4267
    2MPD1    H214119   3.755   3.760  11.967 -0.8175 -0.2923 -0.1494
    2MPD1    H314120   3.741   3.526  11.921  0.9931 -0.9012 -3.3029
    2MPD1     N14121   4.147   3.462  12.144  0.0207 -0.2691  0.1638
    2MPD1    H514122   4.219   3.504  12.202  0.9666  0.5526 -1.5925
    2MPD1    N114123   3.949   3.899  12.061  0.1260  0.3180 -0.1772
    2MPD1    H614124   4.030   3.925  12.117 -0.2071 -0.8478  0.8551
    2MPD1    H714125   3.866   3.955  12.079 -0.0900  0.4018 -1.4448
    1TMC1    C114126   0.645   0.512   9.627  0.3982  0.0301 -0.1787
    1TMC1    C214127   0.752   0.586   9.679  0.2685  0.2814 -0.1009
    1TMC1    C314128   0.778   0.570   9.814  0.5499 -0.5167 -0.3362
    1TMC1    C414129   0.566   0.440   9.708  0.2936 -0.7208 -0.0762
    1TMC1    C514130   0.602   0.428   9.839  0.4368  0.1657 -0.5462
    1TMC1    C614131   0.709   0.492   9.897  0.4401 -0.2501  0.3286
    1TMC1     C14132   0.598   0.564   9.503 -0.3336  0.4629  0.6532
    1TMC1     O14133   0.475   0.554   9.484 -0.4009  0.6812  0.6680
    1TMC1     H14134   0.814   0.645   9.614 -0.4056 -0.0714 -1.0545
    1TMC1    H114135   0.479   0.390   9.668 -0.6163  0.2691  0.6942
    1TMC1    H214136   0.739   0.455   9.995  0.5550  0.9168  0.7254
    1TMC1    C714137   0.520   0.334   9.919 -0.4640  0.0785  0.3290
    1TMC1    C814138   0.913   0.612   9.844  1.0195 -0.0806  0.2603
    1TMC1    O114139   0.399   0.327   9.903  0.0271 -0.3354  0.1009
    1TMC1    O214140   0.996   0.625   9.759  0.1670 -0.4097 -0.0311
    1TMC1    O314141   0.595   0.233   9.953 -0.0763  0.6893  0.1591
    1TMC1    H314142   0.692   0.238   9.941 -0.2113  2.2934 -0.2365
    1TMC1    O514143   0.935   0.596   9.976 -0.0825  0.6894  0.1338
    1TMC1    H514144   0.856   0.614  10.031 -1.3707  0.6858 -1.7288
    2MPD1     C14145   0.655   0.789   9.039  0.9278  0.5911  0.2060
    2MPD1    C114146   0.779   0.752   9.085  0.2544  1.2364 -0.3323
    2MPD1    C214147   0.791   0.687   9.212  0.0722 -0.5431  0.5758
    2MPD1    C314148   0.681   0.676   9.295 -0.0203 -0.3813  0.6887
    2MPD1    C414149   0.555   0.699   9.243 -0.0025  0.1566  0.1010
    2MPD1    C514150   0.545   0.757   9.115  0.2393 -0.5608 -0.2325
    2MPD1     H14151   0.888   0.668   9.257 -0.2515 -0.5181  1.2756
    2MPD1    H114152   0.461   0.693   9.296  1.1731 -1.0240  2.0293
    2MPD1    H214153   0.636   0.839   8.944 -1.1345 -1.0517 -0.2581
    2MPD1    H314154   0.450   0.797   9.080  0.0184 -0.0749  0.9203
    2MPD1     N14155   0.695   0.622   9.430  0.2810 -0.5152 -0.1494
    2MPD1    H514156   0.792   0.602   9.450  0.1765 -0.8695 -0.0002
    2MPD1    N114157   0.893   0.764   9.002  0.2745 -0.1857  0.3327
    2MPD1    H614158   0.883   0.844   8.939 -2.5390 -0.3726  0.5336
    2MPD1    H714159   0.980   0.783   9.052  0.7423  1.3994 -1.0800
    1MPD1     C14160   1.514   2.456  12.281  0.1592  1.1866 -0.3225
    1MPD1    C114161   1.647   2.467  12.263  0.0129 -0.9870 -0.2176
    1MPD1    C214162   1.700   2.579  12.206 -0.3280  0.2306  0.1122
    1MPD1    C314163   1.619   2.671  12.139  0.2881  0.1866 -0.1888
    1MPD1    C414164   1.483   2.645  12.137 -0.7116 -0.2264  0.3345
    1MPD1    C514165   1.433   2.544  12.211 -0.4239  0.0475 -0.9091
    1MPD1     H14166   1.805   2.603  12.208 -0.4445  0.6892  0.6261
    1MPD1    H114167   1.404   2.709  12.101 -1.0631 -1.1128 -0.4540
    1MPD1    H214168   1.473   2.380  12.346 -0.4607  1.1539 -0.7550
    1MPD1    H314169   1.326   2.531  12.215 -0.1316 -1.3626  1.7844
    1MPD1     N14170   1.677   2.782  12.074  0.1913  0.3293  0.2455
    1MPD1    H514171   1.776   2.784  12.094 -0.1848 -0.5888  2.2526
    1MPD1    N114172   1.722   2.374  12.340  0.0072 -0.3552 -0.1354
    1MPD1    H614173   1.819   2.378  12.307 -0.9092  0.7962 -2.6799
    1MPD1    H714174   1.689   2.278  12.345 -1.5463  0.1247 -1.2345
    2MPD1     C14175   0.888   3.514  10.897  0.9504  0.4186 -0.1519
    2MPD1    C114176   0.921   3.599  10.792  0.7364  0.0408 -0.4788
    2MPD1    C214177   1.023   3.551  10.711 -0.0650 -0.1712 -0.1015
    2MPD1    C314178   1.082   3.423  10.714 -0.2934 -0.0624  0.3725
    2MPD1    C414179   1.030   3.333  10.805 -0.6870  0.1358  0.5789
    2MPD1    C514180   0.936   3.386  10.894 -0.0218  0.2623  0.2599
    2MPD1     H14181   1.063   3.621  10.639 -0.6890 -2.1043 -2.3019
    2MPD1    H114182   1.072   3.234  10.815  2.4851  1.4028 -0.3325
    2MPD1    H214183   0.829   3.548  10.981  0.8180  0.2783 -0.1889
    2MPD1    H314184   0.895   3.322  10.971  2.0589 -1.3039  0.0601
    2MPD1     N14185   1.196   3.390  10.635  0.0005  0.1073 -0.5185
    2MPD1    H514186   1.238   3.298  10.644 -1.0291 -0.3134  0.0093
    2MPD1    N114187   0.876   3.728  10.780 -0.0275 -0.6354 -0.2702
    2MPD1    H614188   0.790   3.754  10.829  2.5346  2.3170  2.6094
    2MPD1    H714189   0.873   3.763  10.685  0.5738  0.9514  0.2907
    3MPD1     C14190   1.118   2.742  10.074  0.6812 -0.1394 -0.4951
    3MPD1    C114191   1.045   2.861  10.083 -0.9788  0.1176  0.8942
    3MPD1    C214192   1.107   2.969  10.139 -0.3457  0.4888 -0.0668
    3MPD1    C314193   1.227   2.958  10.206 -0.2778 -0.1950  0.2981
    3MPD1    C414194   1.291   2.837  10.199 -0.7410 -0.4831 -0.1591
    3MPD1    C514195   1.233   2.729  10.142  0.5353  0.6598  0.1781
    3MPD1     H14196   1.065   3.069  10.148  2.0143  1.0772  4.4422
    3MPD1    H114197   1.394   2.825  10.229 -1.3254 -0.4077  1.9060
    3MPD1    H214198   1.079   2.657  10.018 -0.2843 -0.9608  1.4271
    3MPD1    H314199   1.293   2.641  10.125  0.5287  0.6228  0.3488
    3MPD1     N14200   1.281   3.075  10.263  0.3392  0.1902 -0.0456
    3MPD1    H514201   1.208   3.145  10.272  2.6754  2.4535  0.9588
    3MPD1    N114202   0.930   2.879   9.999 -0.2975  0.1909  0.5951
    3MPD1    H614203   0.861   2.929  10.055 -1.2093 -0.8462  0.3934
    3MPD1    H714204   0.877   2.792   9.993 -0.9227  0.5073  1.4580
    4MPD2     C14205   1.662   3.468  11.561  0.0634  0.2339 -0.8458
    4MPD2    C114206   1.772   3.390  11.597 -0.1379 -0.0702  0.0728
    4MPD2    C214207   1.882   3.386  11.516  0.3345 -0.3664  0.0821
    4MPD2    C314208   1.881   3.452  11.390  0.2527  0.5419  0.1884
    4MPD2    C414209   1.767   3.520  11.356 -0.0290 -0.0991  0.8805
    4MPD2    C514210   1.655   3.525  11.436 -0.1826  0.8271 -0.4341
    4MPD2     H14211   1.968   3.332  11.554 -0.0341  0.2193  1.7282
    4MPD2    H114212   1.768   3.587  11.271  0.8318  1.2461  1.9450
    4MPD2    H214213   1.566   3.467  11.612  0.1172  0.2970 -0.7430
    4MPD2    H314214   1.569   3.588  11.420  0.2564  1.7875  0.9671
    4MPD2     N14215   1.991   3.456  11.301  0.2944 -0.1941 -0.3301
    4MPD2    H514216   1.985   3.516  11.219 -0.3714 -0.4076 -0.4319
    4MPD2    N114217   1.772   3.320  11.718 -0.5796  0.8763 -0.0839
    4MPD2    H714218   1.857   3.265  11.727 -1.4569 -0.5098 -0.4121
    5TMC3    C114219   1.714   3.213  11.918 -0.1341  0.1899  0.2874
    5TMC3    C214220   1.640   3.103  11.944 -0.0279  0.1269 -0.0480
    5TMC3    C314221   1.705   2.981  11.956 -0.8442  0.4114  0.2759
    5TMC3    C414222   1.852   3.198  11.909  0.3273  0.8576  0.2221
    5TMC3    C514223   1.914   3.079  11.908 -0.0732  0.3449 -0.0340
    5TMC3    C614224   1.843   2.965  11.933  0.7269  0.4670  0.6329
    5TMC3     C14225   1.665   3.291  11.806 -0.5442 -0.1882 -0.7727
    5TMC3     O14226   1.543   3.307  11.785 -0.2721 -0.2008  0.6498
    5TMC3     H14227   1.531   3.104  11.949 -0.0908  0.4067 -1.4424
    5TMC3    H114228   1.909   3.290  11.907 -0.7815  1.5502  0.2155
    5TMC3    H214229   1.880   2.863  11.932  1.8297  0.8722  0.2249
    5TMC3    C714230   2.008   3.067  11.801  0.0060 -0.0131  0.2628
    5TMC3    C814231   1.612   2.884  12.005  0.3752  0.1859  1.0545
    5TMC3    O114232   2.023   3.176  11.750 -0.0504 -0.0699 -0.6442
    5TMC3    O214233   1.490   2.897  11.989 -0.5192  0.3648  0.2551
    6TMC3    C114234   1.371   3.394  10.488  0.0277 -0.2972  0.0633
    6TMC3    C214235   1.333   3.298  10.406  0.1643 -0.1540  0.1640
    6TMC3    C314236   1.437   3.211  10.379 -0.7389  0.8579  0.6473
    6TMC3    C414237   1.496   3.414  10.542  0.0689  0.1827 -0.5500
    6TMC3    C514238   1.593   3.326  10.505 -0.3581  0.2277 -0.2256
    6TMC3    C614239   1.567   3.217  10.426  0.3654  0.3520  0.2665
    6TMC3     C14240   1.260   3.466  10.538  0.4441 -0.0151 -0.5736
    6TMC3     O14241   1.232   3.573  10.491  0.1465 -0.4728  0.1118
    6TMC3     H14242   1.241   3.308  10.350 -0.1907 -0.2519  0.7322
    6TMC3    H114243   1.523   3.500  10.602  2.2265 -0.9240  0.0701
    6TMC3    H214244   1.645   3.144  10.408 -1.6552 -2.3887  2.6648
    6TMC3    C714245   1.680   3.302  10.620 -0.2091 -0.0901 -0.2285
    6TMC3    C814246   1.408   3.087  10.306 -0.0106  0.1239  0.1349
    6TMC3    O114247   1.780   3.375  10.634  0.6473 -0.2046 -0.4720
    6TMC3    O214248   1.498   3.005  10.310 -0.3002  0.3230 -0.3412
    7MPD2     C14249   2.345   2.873  11.486  0.2446 -0.9564 -0.5645
    7MPD2    C114250   2.271   2.987  11.476  0.0605 -0.7214 -0.2916
    7MPD2    C214251   2.172   3.010  11.564 -0.0461 -0.3064 -0.3373
    7MPD2    C314252   2.149   2.919  11.672 -0.4737 -0.6044 -0.4922
    7MPD2    C414253   2.217   2.798  11.672 -0.2163 -0.4959 -0.0067
    7MPD2    C514254   2.314   2.780  11.582  0.2563 -0.3853 -0.1753
    7MPD2     H14255   2.116   3.102  11.551 -0.5804 -0.6221 -0.2676
    7MPD2    H114256   2.211   2.726  11.752  3.6082  1.4780  2.0349
    7MPD2    H214257   2.412   2.853  11.403  0.0944 -1.5471 -0.5412
    7MPD2    H314258   2.370   2.689  11.597 -0.7880 -1.0127 -0.1045
    7MPD2     N14259   2.067   2.946  11.783  0.3952  0.4326 -0.6592
    7MPD2    H514260   2.058   2.881  11.860 -0.8244 -0.7378 -1.8030
    7MPD2    N114261   2.303   3.091  11.384  0.5555  0.4458 -0.0483
    7MPD2    H714262   2.260   3.179  11.411  0.3333  0.2602  0.2038
    8TMC3    C114263   2.366   3.206  11.191  0.0571 -0.5476  0.0570
    8TMC3    C214264   2.318   3.185  11.068  0.2952 -0.0850 -0.5282
    8TMC3    C314265   2.212   3.262  11.021 -0.0113 -0.7283  0.6544
    8TMC3    C414266   2.316   3.319  11.261 -0.0216  0.2734 -0.0877
    8TMC3    C514267   2.211   3.390  11.215 -0.2554 -0.4404  0.3011
    8TMC3    C614268   2.157   3.366  11.092  0.7296 -0.7863 -0.3687
    8TMC3     C14269   2.384   3.085  11.270  0.1558  0.3996  0.0346
    8TMC3     O14270   2.419   2.979  11.220  0.3215  0.0685  0.0114
    8TMC3     H14271   2.349   3.099  11.010 -2.1246 -0.0239 -1.9306
    8TMC3    H114272   2.371   3.348  11.350 -1.0604 -1.7306  1.2166
    8TMC3    H214273   2.068   3.412  11.051 -1.4185 -2.0459  2.8831
    8TMC3    C714274   2.112   3.397  11.328 -0.6178  0.1124 -0.0253
    8TMC3    C814275   2.121   3.210  10.920  0.1706  0.2366  0.0538
    8TMC3    O114276   2.147   3.330  11.422  0.7146  0.0596  0.1292
    8TMC3    O214277   2.129   3.259  10.810  0.2578  0.2034 -0.3057
    9MPD2     C14278   1.831   2.996  10.992  0.0099  0.1815 -0.2504
    9MPD2    C114279   1.901   3.089  10.919 -0.3039  0.7499 -0.0255
    9MPD2    C214280   1.844   3.151  10.808 -0.2058 -0.0187  0.0450
    9MPD2    C314281   1.715   3.113  10.771  0.0873  1.2989  0.4319
    9MPD2    C414282   1.657   3.005  10.831  0.6749  0.4515  0.5026
    9MPD2    C514283   1.712   2.951  10.937  0.2711  0.6296  0.0519
    9MPD2     H14284   1.891   3.234  10.756 -1.2741  0.6818  0.2084
    9MPD2    H114285   1.551   2.992  10.812  0.7392  0.5969  0.0282
    9MPD2    H214286   1.870   2.955  11.085 -0.6649 -0.3698 -0.2058
    9MPD2    H314287   1.661   2.863  10.976  1.9605 -0.7113 -0.7890
    9MPD2     N14288   1.640   3.186  10.679  0.2254  0.0164 -0.0309
    9MPD2    H514289   1.552   3.149  10.643  1.3941  0.9562 -3.8722
    9MPD2    N114290   2.024   3.130  10.977  0.2029 -0.2671  0.3591
    9MPD2    H714291   2.043   3.093  11.070  1.0549 -1.2469 -0.2038
    1MPD1     C14292   1.785   2.436  16.794  0.4499  0.2515 -0.3872
    1MPD1    C114293   1.693   2.337  16.821 -1.2005 -0.0674 -0.0927
    1MPD1    C214294   1.601   2.304  16.727  0.7182 -0.1280 -0.3709
    1MPD1    C314295   1.594   2.373  16.607  0.7697  0.0260  0.1922
    1MPD1    C414296   1.691   2.455  16.572  0.7246 -0.1240 -0.1257
    1MPD1    C514297   1.784   2.491  16.667 -0.0646  0.4178 -0.0507
    1MPD1     H14298   1.529   2.226  16.747  1.0810 -0.2049  0.6240
    1MPD1    H114299   1.690   2.508  16.478 -1.9675 -0.5942 -0.3637
    1MPD1    H214300   1.855   2.460  16.873 -0.9528 -3.1591  1.9214
    1MPD1    H314301   1.862   2.565  16.654  0.0839  0.2859  0.1049
    1MPD1     N14302   1.497   2.348  16.506  0.3083  0.9872  0.1836
    1MPD1    H514303   1.497   2.392  16.415  2.0617  1.6402  0.4919
    1MPD1    N114304   1.705   2.251  16.939 -0.4512 -0.0125 -0.3170
    1MPD1    H614305   1.615   2.216  16.969  0.1885  0.5226  2.2026
    1MPD1    H714306   1.720   2.315  17.016  2.1588 -0.7419 -0.2086
    2TMC2    C114307   1.170   2.379  16.268  0.6652 -0.8496  0.5365
    2TMC2    C214308   1.100   2.265  16.234  0.0501 -0.2335 -0.3081
    2TMC2    C314309   1.138   2.151  16.287  0.3519  0.6287  0.1454
    2TMC2    C414310   1.277   2.381  16.351 -0.0033  0.2640  0.9078
    2TMC2    C514311   1.324   2.265  16.399 -0.2878  0.4980  0.6933
    2TMC2    C614312   1.250   2.154  16.365 -0.1072  0.1647  0.6908
    2TMC2     C14313   1.110   2.511  16.221 -0.0972  0.4529  0.3518
    2TMC2     O14314   1.169   2.608  16.266  0.0635  0.0512 -0.3212
    2TMC2     H14315   1.005   2.269  16.182  0.0043 -0.6289 -0.2577
    2TMC2    H114316   1.311   2.480  16.376 -0.7480  1.0745 -1.3338
    2TMC2    H214317   1.297   2.063  16.402  0.1539 -0.3738 -0.9763
    2TMC2    C714318   1.390   2.268  16.522  0.1798 -0.4050  0.4514
    2TMC2    C814319   1.060   2.030  16.271 -0.3908  0.5654 -0.1062
    2TMC2    O114320   1.353   2.194  16.609 -0.1504 -0.2905 -0.1502
    2TMC2    O214321   0.991   2.014  16.172  0.5084 -0.2490  0.8567
    2TMC2    O514322   1.015   1.996  16.397 -0.7832 -0.6697  0.0668
    2TMC2    H514323   1.073   2.016  16.474 -0.2370 -1.3646 -0.1814
    3MPD1     C14324   0.835   2.782  15.880 -0.5762 -0.0769 -0.3573
    3MPD1    C114325   0.809   2.648  15.866  0.2537  0.1720  0.4263
    3MPD1    C214326   0.878   2.555  15.936  0.7106  0.0016  0.1024
    3MPD1    C314327   0.968   2.595  16.033  0.1014  0.6184  0.3141
    3MPD1    C414328   0.994   2.727  16.051 -0.1665  0.1491  0.3749
    3MPD1    C514329   0.932   2.818  15.973 -0.2694 -0.1689 -0.4727
    3MPD1     H14330   0.867   2.451  15.906 -0.7731 -0.6219  2.8586
    3MPD1    H114331   1.072   2.760  16.118 -0.7613  0.1201  1.0870
    3MPD1    H214332   0.779   2.853  15.820  0.6863 -0.1347 -1.5928
    3MPD1    H314333   0.957   2.923  15.983 -0.3860 -0.2496  0.6650
    3MPD1     N14334   1.027   2.494  16.107  0.3285 -0.3886 -0.5630
    3MPD1    H514335   0.997   2.398  16.099  1.3089 -0.9907  2.8136
    3MPD1    N114336   0.704   2.600  15.787 -0.4025  0.4797  0.0076
    3MPD1    H614337   0.722   2.507  15.748 -1.0586  0.2989  0.1315
    3MPD1    H714338   0.683   2.671  15.717 -0.3934 -0.0261 -0.5193
    1TMC1    C114339   4.242   0.875  13.169  0.0660 -0.0027  0.0460
    1TMC1    C214340   4.148   0.899  13.068 -0.7981 -1.1474 -0.2654
    1TMC1    C314341   4.045   0.806  13.054  0.7640 -0.1865 -0.1259
    1TMC1    C414342   4.219   0.779  13.261 -0.0684  0.2044  0.0655
    1TMC1    C514343   4.098   0.706  13.256 -0.2620  0.1535 -0.3467
    1TMC1    C614344   4.015   0.715  13.152 -0.0047 -0.8599 -0.3227
    1TMC1     C14345   4.353   0.966  13.177 -1.1387 -0.4178 -0.3097
    1TMC1     O14346   4.338   1.075  13.125  0.3631 -0.2464 -0.9054
    1TMC1     H14347   4.159   0.972  12.989 -1.4493  0.1104  0.8171
    1TMC1    H114348   4.288   0.760  13.342 -0.6206  1.4303  0.8329
    1TMC1    H214349   3.936   0.644  13.133  0.2499 -1.3719  0.5594
    1TMC1    C714350   4.085   0.602  13.356 -1.0772 -0.6163  0.3602
    1TMC1    C814351   3.926   0.865  12.991 -0.5959  0.7340  0.4386
    1TMC1    O114352   4.087   0.480  13.329  0.1863  0.6459 -0.2283
    1TMC1    O214353   3.925   0.984  12.968 -0.2167 -0.4425 -0.1562
    1TMC1    O314354   4.113   0.664  13.470 -0.3864 -0.4390 -0.2166
    1TMC1    H314355   4.105   0.761  13.455 -0.7540 -0.6973 -1.7217
    1TMC1    O514356   3.853   0.770  12.928 -0.4936  0.2763 -0.6633
    1TMC1    H514357   3.885   0.681  12.954 -1.6633 -0.3480 -1.3626
    2MPD2     C14358   4.573   1.120  13.292  0.5045  0.1545 -0.5703
    2MPD2    C114359   4.561   0.986  13.321 -0.8027 -0.2581 -0.1109
    2MPD2    C214360   4.637   0.923  13.413 -0.0520  0.0244 -0.0598
    2MPD2    C314361   4.729   0.990  13.479  0.4919 -0.5060 -0.9589
    2MPD2    C414362   0.023   1.118  13.449  0.3000 -0.5399  0.3560
    2MPD2    C514363   4.681   1.180  13.357  0.2598 -0.2067  0.1370
    2MPD2     H14364   4.619   0.819  13.438  1.0885  0.1472  1.2499
    2MPD2    H114365   0.102   1.171  13.500  0.8556  0.6063 -1.6818
    2MPD2    H214366   4.504   1.178  13.232  0.7171  0.0212 -0.9430
    2MPD2    H314367   4.695   1.287  13.348 -2.4205  0.0658 -0.6708
    2MPD2     N14368   0.070   0.915  13.574  0.5145  0.4060  0.5514
    2MPD2    H514369   0.060   0.815  13.582 -3.4256  0.9494  2.8495
    2MPD2    N114370   4.449   0.912  13.258 -0.2402 -0.3385 -0.5555
    2MPD2    H714371   4.431   0.818  13.291 -1.9333  0.5481  1.1161
    3TCq1    O114372   0.196   0.819  14.149  0.1507  0.7852 -0.2466
    3TCq1    C114373   0.317   0.883  14.108  0.0857  0.1246 -0.2105
    3TCq1    O214374   0.427   0.876  14.168  0.2542 -0.1728  0.4223
    3TCq1    C214375   0.322   0.872  13.960 -0.6269 -0.0125 -0.5051
    3TCq1    C314376   0.403   0.777  13.909 -0.5940 -0.1352 -0.3239
    3TCq1    C414377   0.395   0.747  13.779 -0.1388 -0.6526 -0.2884
    3TCq1    C514378   0.302   0.815  13.701  0.7290 -0.2518  0.1648
    3TCq1    C614379   0.216   0.896  13.760 -0.4529 -0.3095  0.5541
    3TCq1    C714380   0.226   0.930  13.890 -0.3044  0.2892 -0.0658
    3TCq1    C814381   0.131   0.977  13.678 -0.5111 -0.4271 -0.0001
    3TCq1    O414382   0.085   1.076  13.726  0.2676 -0.0878 -0.3583
    3TCq1    C914383   0.481   0.640  13.723 -0.3713  0.4310 -0.8556
    3TCq1    O514384   0.519   0.654  13.604  0.1771  0.0743 -0.1888
    3TCq1    O614385   0.518   0.557  13.813  0.0764 -0.0464  0.2760
    3TCq1    H114386   0.126   0.825  14.081 -0.7681  3.0570  0.9133
    3TCq1    H214387   0.461   0.716  13.977  0.3308  0.5662 -0.4913
    3TCq1    H314388   0.283   0.783  13.599 -0.5297 -0.1989  0.3826
    3TCq1    H414389   0.150   0.987  13.943  0.1000  0.2484  0.5615
    1MPD2     C14390   3.562   2.779  15.189  0.1060  1.0772 -0.5437
    1MPD2    C114391   3.467   2.680  15.204 -0.1228 -0.2911  0.0350
    1MPD2    C214392   3.516   2.549  15.197  0.4746  0.1685  0.1837
    1MPD2    C314393   3.645   2.512  15.169 -0.2478 -0.1976  0.1272
    1MPD2    C414394   3.735   2.613  15.152 -0.3085 -0.4598 -0.1308
    1MPD2    C514395   3.691   2.743  15.158 -0.2289 -0.5267  0.1672
    1MPD2     H14396   3.445   2.467  15.199  0.6209  0.0685  1.0812
    1MPD2    H114397   3.837   2.591  15.123  0.0630 -1.7599  2.2186
    1MPD2    H214398   3.532   2.883  15.184  1.1001  1.5029  2.3920
    1MPD2    H314399   3.763   2.818  15.126  1.5972 -1.9735  0.8939
    1MPD2     N14400   3.704   2.385  15.159 -0.7494  0.3084 -0.6938
    1MPD2    H514401   3.793   2.373  15.113 -0.7721  0.2241 -0.7161
    1MPD2    N114402   3.326   2.715  15.214  0.4456 -0.0558 -0.0178
    1MPD2    H714403   3.304   2.814  15.216  1.0252  0.1017 -1.1190
    2TMC3    C114404   3.099   2.695  15.252  0.4892  0.6322 -0.3311
    2TMC3    C214405   3.001   2.601  15.276  0.7874  0.5982 -0.2918
    2TMC3    C314406   2.894   2.598  15.193  0.1248  0.3668 -0.6118
    2TMC3    C414407   3.074   2.796  15.167  0.1855 -0.6337  1.1461
    2TMC3    C514408   2.960   2.798  15.095  0.4935 -0.4527 -0.4162
    2TMC3    C614409   2.868   2.700  15.106  0.0345 -0.2866  0.3623
    2TMC3     C14410   3.222   2.632  15.238 -0.0504 -0.7321  0.2041
    2TMC3     O14411   3.212   2.511  15.233  0.0603  0.9211  0.4010
    2TMC3     H14412   3.012   2.519  15.346 -2.9214 -0.2667 -0.7471
    2TMC3    H114413   3.149   2.874  15.158  1.5007 -1.9233  0.9924
    2TMC3    H214414   2.785   2.682  15.039 -1.8552 -0.6375  2.8060
    2TMC3    C714415   2.949   2.882  14.979 -0.3672  0.4331  0.0809
    2TMC3    C814416   2.869   2.473  15.121  0.0180  0.2267 -0.0148
    2TMC3    O114417   2.885   2.831  14.890 -0.3027 -0.3898 -0.2507
    2TMC3    O214418   2.766   2.467  15.054  0.3480  0.2257 -0.2670
    3TCq1    O114419   3.636   3.584  15.000  0.0122  0.3392 -0.1101
    3TCq1    C114420   3.733   3.494  14.992 -0.5485 -1.3527 -0.5530
    3TCq1    O214421   3.803   3.459  15.084  0.1522 -0.1905  0.2612
    3TCq1    C214422   3.731   3.427  14.869 -0.3576  0.1041  0.4821
    3TCq1    C314423   3.836   3.442  14.783  0.0599  0.4280  0.1635
    3TCq1    C414424   3.828   3.397  14.655 -0.0276 -0.2753 -0.1501
    3TCq1    C514425   3.699   3.356  14.608  0.3133  0.3372 -0.3890
    3TCq1    C614426   3.596   3.335  14.691 -0.3328  0.0658  0.1997
    3TCq1    C714427   3.611   3.375  14.827 -0.1040 -0.0751  0.1888
    3TCq1    C814428   3.473   3.273  14.644 -0.1530 -0.4839  0.3027
    3TCq1    O414429   3.475   3.239  14.530  0.1490 -0.1151  0.5319
    3TCq1    C914430   3.932   3.419  14.557 -0.0571 -0.5770  0.0351
    3TCq1    O514431   3.922   3.374  14.436 -0.4630  0.8301  0.3996
    3TCq1    O614432   4.044   3.440  14.616  0.1002 -1.0165 -0.6201
    3TCq1    H114433   3.594   3.584  14.911  0.6875  2.8773 -0.4262
    3TCq1    H214434   3.928   3.482  14.824  0.0491 -0.3557  0.9465
    3TCq1    H314435   3.675   3.345  14.503  1.0008  3.5016 -0.8865
    3TCq1    H414436   3.527   3.368  14.896 -0.0932  0.1516  0.2240
    4MPD2     C14437   3.202   3.153  14.601  0.1716 -0.2002 -0.7336
    4MPD2    C114438   3.245   3.194  14.728  0.7052 -0.0884 -0.1991
    4MPD2    C214439   3.189   3.140  14.845  0.3216 -0.0721  0.1215
    4MPD2    C314440   3.080   3.053  14.842  0.2344  0.4492  0.4961
    4MPD2    C414441   3.027   3.019  14.711 -0.7098 -0.1751 -0.3965
    4MPD2    C514442   3.087   3.069  14.597  0.2359  0.9268 -0.2870
    4MPD2     H14443   3.229   3.157  14.944 -0.7459  0.8720  0.3944
    4MPD2    H114444   2.937   2.958  14.701 -0.9982  0.6250 -2.5792
    4MPD2    H214445   3.253   3.204  14.519 -0.2083  1.2970 -0.0503
    4MPD2    H314446   3.045   3.046  14.500 -0.5121 -1.9308  0.7098
    4MPD2     N14447   3.034   2.990  14.965 -0.1676 -0.0507  0.0517
    4MPD2    H514448   3.077   3.022  15.051 -1.4176  1.2577  0.1793
    4MPD2    N114449   3.377   3.253  14.743  0.2063 -0.1944  0.6189
    4MPD2    H714450   3.404   3.274  14.838  0.9087 -0.2066  0.4207
    5TMC2    C114451   3.538   1.985  15.003  0.0837  0.2674  0.1829
    5TMC2    C214452   3.632   1.983  14.905  0.0827  0.0679 -0.4362
    5TMC2    C314453   3.742   2.061  14.926 -0.2391 -0.1595 -0.4272
    5TMC2    C414454   3.558   2.060  15.117  0.0252  0.8585 -0.3269
    5TMC2    C514455   3.659   2.154  15.117  0.2662 -0.8760 -0.3812
    5TMC2    C614456   3.760   2.155  15.028  0.4009  0.3615 -0.0700
    5TMC2     C14457   3.402   1.991  14.949 -0.3621 -0.0567 -0.1129
    5TMC2     O14458   3.372   1.944  14.840 -0.0795 -0.3706 -0.1427
    5TMC2     H14459   3.632   1.909  14.825 -0.0941  0.2496 -0.6060
    5TMC2    H114460   3.487   2.052  15.199  0.6636 -0.8477  0.0508
    5TMC2    H214461   3.844   2.223  15.030  1.2662 -0.7137  0.0193
    5TMC2    C714462   3.631   2.273  15.195  0.2611  1.2558 -0.3040
    5TMC2    C814463   3.857   2.040  14.838 -0.1783 -0.0027  0.4354
    5TMC2    O114464   3.524   2.261  15.258  0.2282  0.3305 -0.0925
    5TMC2    O214465   3.944   2.127  14.821 -0.6575 -0.4321 -0.2670
    5TMC2    O514466   3.879   1.908  14.841 -0.1342 -0.6875  0.4978
    5TMC2    H514467   3.801   1.861  14.876 -0.7199 -0.5554 -0.6138
    6MPD2     C14468   2.920   2.213  14.976 -0.4028  0.0206  0.4518
    6MPD2    C114469   3.012   2.285  15.051  0.4588  0.7764  0.3414
    6MPD2    C214470   3.141   2.244  15.057 -0.0878 -0.6638 -0.6783
    6MPD2    C314471   3.190   2.131  14.993  0.4243  0.2232  0.2335
    6MPD2    C414472   3.101   2.060  14.918  0.8112  0.3513  0.0729
    6MPD2    C514473   2.971   2.099  14.912  0.5146  0.4082 -0.2755
    6MPD2     H14474   3.205   2.298  15.127 -1.5726 -1.4845  1.3245
    6MPD2    H114475   3.141   1.982  14.854 -2.0093 -1.4537  0.4799
    6MPD2    H214476   2.820   2.247  14.952 -0.7015 -1.1612  0.0076
    6MPD2    H314477   2.894   2.039  14.863  0.5372 -1.5077  2.0130
    6MPD2     N14478   3.328   2.090  15.012 -0.6505  0.1387 -0.2607
    6MPD2    H514479   3.380   2.139  15.083 -1.1414 -0.8612  0.7871
    6MPD2    N114480   2.981   2.397  15.124  0.2365 -0.0108  0.4052
    6MPD2    H714481   3.058   2.445  15.170  1.1459  0.2885 -1.4327
  945NH4     N114482   0.580   3.953  16.438  0.2391 -0.1287  0.5955
  945NH4     H214483   0.573   3.918  16.340 -0.5708  1.2693  0.1544
  945NH4     H314484   0.521   4.039  16.437  1.6428  0.8337 -0.5511
  945NH4     H414485   0.677   3.991  16.450  0.7922 -1.0218 -0.9990
  945NH4     H514486   0.561   3.882  16.511 -0.7843  1.0630  1.4954
  946SOD     NA14487   1.083   1.972  13.971 -0.4399 -0.1107 -0.0220
  947SOD     NA14488   0.217   0.606  16.152  0.1966  0.2860 -0.4643
  948SOD     NA14489   0.404   2.094  15.181 -0.4214 -0.3019 -0.5141
  949SOD     NA14490   2.975   1.012  12.691  0.0937  0.2306 -0.0870
  950SOD     NA14491   3.184   1.351  13.457  0.6362  0.4135 -0.3024
  951SOD     NA14492   0.083   3.004  12.144  0.1578  0.0046 -0.1542
  952SOD     NA14493   4.262   3.977   8.925 -0.0806  0.4357 -0.0428
  953SOL     OW14494   2.566   3.160   4.307 -0.0439 -0.0453  0.0091
  953SOL    HW114495   2.593   3.077   4.268 -0.1237 -0.2213  0.3290
  953SOL    HW214496   2.491   3.133   4.360  1.1667 -3.4441 -0.0416
  954SOL     OW14497   4.163   0.154   9.261  0.0372 -0.8149  0.1410
  954SOL    HW114498   4.214   0.199   9.194  1.3208  0.2189  1.8250
  954SOL    HW214499   4.125   0.071   9.231 -1.1199  0.2807 -1.3958
  955SOL     OW14500   4.038   2.301   6.149 -0.1938 -0.0355  0.4759
  955SOL    HW114501   3.972   2.347   6.202 -0.0309  0.6728  0.0686
  955SOL    HW214502   4.018   2.349   6.069  1.4465 -1.3758 -0.7075
  956SOL     OW14503   4.184   0.390  10.513  0.2439 -0.4674 -0.5029
  956SOL    HW114504   4.195   0.376  10.607  1.1480  0.7934 -0.4195
  956SOL    HW214505   4.187   0.485  10.503 -1.1139 -0.3318  0.4538
  957SOL     OW14506   4.363   0.822  10.380  0.0763  0.2728  0.3775
  957SOL    HW114507   4.452   0.806  10.350 -0.4324 -1.0395 -0.4592
  957SOL    HW214508   4.327   0.877  10.310  0.7120  0.0822 -0.0921
  958SOL     OW14509   2.021   0.409   6.958 -0.0077 -0.3369  0.6798
  958SOL    HW114510   1.959   0.388   6.888  2.1769  0.8204 -1.6056
  958SOL    HW214511   2.017   0.333   7.016  0.8131 -2.4447 -2.0604
  959SOL     OW14512   4.131   3.361   3.293 -0.5709 -0.4071 -0.3030
  959SOL    HW114513   4.129   3.266   3.299 -0.3858 -0.1950  2.6413
  959SOL    HW214514   4.221   3.375   3.264 -0.8549  1.7978 -0.1204
  960SOL     OW14515   2.957   4.509   0.321 -0.8552 -0.1673  0.1334
  960SOL    HW114516   2.942   4.575   0.388 -1.2229  0.0444 -0.1567
  960SOL    HW214517   3.051   4.526   0.316 -1.3447  2.7816  1.3656
  961SOL     OW14518   3.205   2.170   8.442 -0.1955  0.2939  0.1832
  961SOL    HW114519   3.181   2.081   8.418  2.3351 -0.0339 -1.1863
  961SOL    HW214520   3.144   2.205   8.507 -0.9669  0.8066 -0.8329
  962SOL     OW14521   2.120   1.894   4.716 -0.1013  0.3894  0.1171
  962SOL    HW114522   2.090   1.859   4.799 -2.1345 -0.0185 -0.8013
  962SOL    HW214523   2.150   1.821   4.661  2.0230 -0.6508  2.6699
  963SOL     OW14524   1.233   2.364   1.338  0.1875  0.5316  0.2242
  963SOL    HW114525   1.288   2.442   1.352 -0.3655  0.6430  1.7693
  963SOL    HW214526   1.145   2.396   1.356 -0.7238 -1.1546 -1.3042
  964SOL     OW14527   3.862   4.654   8.425 -0.2101 -0.0467 -0.2366
  964SOL    HW114528   3.801   4.658   8.499  1.3366 -3.3753  1.1985
  964SOL    HW214529   3.905   4.569   8.428  1.9144  0.9404 -3.0373
  965SOL     OW14530   1.562   4.457   7.254  0.2867 -0.0399  0.4322
  965SOL    HW114531   1.547   4.545   7.220  1.4810  0.1410  0.3614
  965SOL    HW214532   1.483   4.412   7.223  0.3260  0.7875 -0.8616
  966SOL     OW14533   1.181   0.023   4.953 -0.4460 -0.1062 -0.0399
  966SOL    HW114534   1.162   4.681   5.006  0.5926  1.5646  2.7967
  966SOL    HW214535   1.181   0.091   5.020  1.3551 -0.8759  0.7629
  967SOL     OW14536   4.124   0.197   4.358 -0.2219 -0.0324  0.2787
  967SOL    HW114537   4.116   0.255   4.282  1.8135 -2.0198 -1.4186
  967SOL    HW214538   4.037   0.218   4.394 -0.7204  1.5542 -1.8003
  968SOL     OW14539   4.166   1.455  13.387 -0.3392 -0.0671 -0.0522
  968SOL    HW114540   4.156   1.540  13.430  0.1449  1.5190 -3.0167
  968SOL    HW214541   4.214   1.408  13.455  1.5308  1.7012 -0.1498
  969SOL     OW14542   4.068   4.666  16.052 -0.5639 -0.5202 -0.1781
  969SOL    HW114543   4.072   4.570  16.056  0.6501 -0.4174  0.9483
  969SOL    HW214544   4.038   4.680  16.142 -0.3419  0.2039 -0.2206
  970SOL     OW14545   3.980   3.991  13.997 -0.0954 -0.2699 -0.0369
  970SOL    HW114546   4.012   3.908  14.033  0.4205  1.5210  3.5995
  970SOL    HW214547   3.937   4.029  14.073 -1.4192  0.4949 -1.1676
  971SOL     OW14548   4.373   4.650   6.783 -0.7291  0.0237  0.4757
  971SOL    HW114549   4.402   4.646   6.874  0.6830 -0.3879  0.0031
  971SOL    HW214550   4.377   0.010   6.779  1.7004 -0.2142 -2.8727
  972SOL     OW14551   0.719   1.635   8.715  0.2578 -0.2327 -0.6230
  972SOL    HW114552   0.740   1.558   8.767 -2.6922 -2.7032 -3.1353
  972SOL    HW214553   0.786   1.692   8.753 -2.7499  2.1095  1.1899
  973SOL     OW14554   3.405   0.767   7.161 -0.3139  0.1605 -0.0217
  973SOL    HW114555   3.370   0.795   7.246  2.2718  0.3357  0.9954
  973SOL    HW214556   3.333   0.740   7.104 -0.4882 -1.6570  1.0533
  974SOL     OW14557   1.865   4.080  16.757  0.2332 -0.0539 -0.2920
  974SOL    HW114558   1.910   4.148  16.808 -1.2264  0.9017 -0.2562
  974SOL    HW214559   1.845   4.145  16.690  1.8094  0.1773 -0.5374
  975SOL     OW14560   4.218   3.572  11.784 -0.5930  0.4984 -0.0698
  975SOL    HW114561   4.149   3.621  11.830  0.8818  2.3190  0.2068
  975SOL    HW214562   4.305   3.598  11.813 -1.4033  1.1185  1.8128
  976SOL     OW14563   4.538   0.840   3.425  0.0817 -0.6625  0.5159
  976SOL    HW114564   4.623   0.812   3.459 -2.1804 -0.9767  5.8722
  976SOL    HW214565   4.552   0.935   3.419  0.9384 -0.8045  0.2491
  977SOL     OW14566   1.054   4.024   8.663  0.1489  0.4509  0.1484
  977SOL    HW114567   1.070   3.945   8.611 -2.6732  0.6590 -0.9980
  977SOL    HW214568   1.143   4.056   8.678  0.8201 -2.6125  2.6154
  978SOL     OW14569   3.994   2.518   8.738 -0.2700  0.1428  0.0367
  978SOL    HW114570   3.927   2.553   8.796  0.3843  2.2699 -0.5149
  978SOL    HW214571   4.044   2.458   8.794 -2.1873 -1.2258  0.2662
  979SOL     OW14572   2.290   3.934  14.284  0.3805  0.8216  0.4881
  979SOL    HW114573   2.252   3.897  14.364 -1.0981  2.6964  0.6683
  979SOL    HW214574   2.304   4.027  14.301  1.8691  0.8292 -0.8996
  980SOL     OW14575   3.373   2.776   8.389  0.1090  0.7822 -0.8449
  980SOL    HW114576   3.338   2.853   8.434 -0.5714  0.3659 -0.6612
  980SOL    HW214577   3.401   2.830   8.315 -0.8882 -2.0229 -3.2671
  981SOL     OW14578   1.422   2.040   0.821  0.2231  0.8515 -0.3453
  981SOL    HW114579   1.490   2.079   0.875 -0.4395  1.4308  0.0750
  981SOL    HW214580   1.469   2.062   0.741  0.5639 -1.9191 -0.9217
  982SOL     OW14581   1.280   1.979  15.241 -0.3690  0.2194 -0.6229
  982SOL    HW114582   1.356   2.033  15.220  0.2111 -0.7894 -1.0926
  982SOL    HW214583   1.244   2.024  15.317  0.4023  1.7647 -1.1736
  983SOL     OW14584   0.243   0.020  10.854  0.1505 -0.1453 -0.0046
  983SOL    HW114585   0.313   0.086  10.858 -0.7358  0.8292 -0.6954
  983SOL    HW214586   0.196   0.063  10.783  0.5742 -0.1016 -0.2555
  984SOL     OW14587   1.484   3.722   0.797  0.5395 -0.9225 -0.0420
  984SOL    HW114588   1.534   3.723   0.879  0.0048 -1.7717  0.2882
  984SOL    HW214589   1.401   3.685   0.826  0.7028 -1.9070 -0.8322
  985SOL     OW14590   4.581   2.603  13.844  1.2765 -0.0678 -0.0050
  985SOL    HW114591   4.579   2.597  13.940 -0.7212 -0.6514 -0.0790
  985SOL    HW214592   4.520   2.531  13.830 -0.7531  1.6739 -0.1695
  986SOL     OW14593   1.958   0.504  13.427  0.2352 -0.3823  0.3526
  986SOL    HW114594   1.877   0.550  13.450 -0.7144 -2.1461  0.5722
  986SOL    HW214595   2.032   0.561  13.449 -2.6018  2.3629  2.6749
  987SOL     OW14596   4.385   3.118  17.737 -0.2315 -0.3899 -0.6629
  987SOL    HW114597   4.406   3.145   0.085 -0.4544  0.3402 -0.8323
  987SOL    HW214598   4.337   3.035   0.004 -0.4266 -0.0513  1.6225
  988SOL     OW14599   1.284   4.209   0.214 -1.2908  0.2063 -1.0245
  988SOL    HW114600   1.274   4.143   0.282 -1.3661  2.1240  0.8295
  988SOL    HW214601   1.193   4.239   0.216 -0.5639  2.4275 -1.3288
  989SOL     OW14602   2.287   3.763   2.222 -0.1150 -0.3451  0.2192
  989SOL    HW114603   2.262   3.839   2.275 -0.7454  0.3055 -1.0307
  989SOL    HW214604   2.199   3.733   2.200 -0.7464  1.0614  0.8067
  990SOL     OW14605   3.540   1.181   6.875  0.1796 -0.8814  0.3216
  990SOL    HW114606   3.502   1.207   6.959 -1.3557  0.0273 -0.6563
  990SOL    HW214607   3.455   1.178   6.832 -0.0936 -1.1672  0.8787
  991SOL     OW14608   1.457   0.474   7.978  0.2080 -0.0287 -0.1969
  991SOL    HW114609   1.398   0.419   7.927 -0.8001 -0.1612  1.1434
  991SOL    HW214610   1.539   0.426   7.991  0.4389  0.3274 -0.3066
  992SOL     OW14611   2.214   4.156   0.409 -0.3850 -0.1062 -0.3794
  992SOL    HW114612   2.247   4.079   0.457  0.0692 -0.0805 -0.6546
  992SOL    HW214613   2.190   4.122   0.323 -0.7830 -0.5344 -0.0987
  993SOL     OW14614   0.874   0.050  11.423  0.2625  0.2832 -0.0227
  993SOL    HW114615   0.949   0.011  11.378 -1.9792 -1.2507 -2.4400
  993SOL    HW214616   0.884   0.145  11.413 -1.2527  0.2822 -1.6009
  994SOL     OW14617   1.334   1.715   5.820  0.2338  0.4848 -0.4248
  994SOL    HW114618   1.343   1.783   5.887 -0.0024 -0.9262  1.0370
  994SOL    HW214619   1.350   1.643   5.881 -0.7572 -1.3076 -2.2920
  995SOL     OW14620   2.452   3.765  11.638 -0.6059 -0.6743  0.8921
  995SOL    HW114621   2.421   3.853  11.660 -0.1395 -0.3443  0.2529
  995SOL    HW214622   2.379   3.728  11.588  1.8026 -0.2614 -2.9073
  996SOL     OW14623   2.543   3.834   4.276  0.2148 -0.3670  0.2672
  996SOL    HW114624   2.499   3.863   4.195 -2.5816 -0.6269  1.6990
  996SOL    HW214625   2.477   3.865   4.338 -1.1903 -1.6562 -0.6020
  997SOL     OW14626   2.794   0.068  11.544  0.1683  0.5823  0.1516
  997SOL    HW114627   2.857   0.063  11.616 -0.4039  2.6796  0.8093
  997SOL    HW214628   2.816   0.155  11.511  1.0643  0.1089 -0.4772
  998SOL     OW14629   2.537   0.469   2.135  0.3216  0.2932  0.1633
  998SOL    HW114630   2.510   0.480   2.226 -0.6442  2.7747 -0.4335
  998SOL    HW214631   2.631   0.484   2.151  0.3899 -0.7093  0.6923
  999SOL     OW14632   3.563   3.779   0.356 -0.4119 -0.3365  0.5238
  999SOL    HW114633   3.611   3.780   0.273 -1.5102  1.6266 -0.0720
  999SOL    HW214634   3.589   3.869   0.376 -1.2043  0.1854 -0.8551
 1000SOL     OW14635   3.203   2.301   3.145  0.3288 -0.5729  0.2570
 1000SOL    HW114636   3.121   2.335   3.181 -0.3978 -1.5988 -0.4251
 1000SOL    HW214637   3.165   2.215   3.128  1.2744 -0.4796 -2.3525
 1001SOL     OW14638   4.202   2.820   3.379  0.0752 -1.2458  0.8444
 1001SOL    HW114639   4.270   2.755   3.365  0.9295  0.0804 -1.1404
 1001SOL    HW214640   4.163   2.833   3.292 -1.2535 -1.3150  1.4230
 1002SOL     OW14641   0.237   2.223  15.025  0.4075 -0.4422  0.5590
 1002SOL    HW114642   0.161   2.204  15.080 -0.5841 -2.5185 -1.5121
 1002SOL    HW214643   0.238   2.316  15.045 -1.1116  0.0355 -1.5840
 1003SOL     OW14644   3.535   1.252   3.370 -0.0186  0.0590  0.3648
 1003SOL    HW114645   3.450   1.289   3.345  0.8394  1.1841 -0.9166
 1003SOL    HW214646   3.585   1.282   3.294 -1.0083  1.2253  0.1694
 1004SOL     OW14647   2.736   2.813   6.575 -0.0851  0.0603  0.3866
 1004SOL    HW114648   2.750   2.790   6.483 -1.7183  1.5688 -0.2279
 1004SOL    HW214649   2.670   2.746   6.587  1.0069 -1.0462  0.1872
 1005SOL     OW14650   1.791   0.438   8.090  0.0309 -0.1046 -0.0968
 1005SOL    HW114651   1.752   0.445   8.177 -1.1639  2.1084 -0.8119
 1005SOL    HW214652   1.818   0.347   8.087  2.6856  0.6441  1.1133
 1006SOL     OW14653   0.003   0.104   6.764  0.1877  0.5766  0.4980
 1006SOL    HW114654   0.017   0.069   6.852 -1.8752  0.5597  0.8340
 1006SOL    HW214655   0.092   0.125   6.737  0.9462 -0.4102  2.2022
 1007SOL     OW14656   1.987   2.364   5.021  0.0444  0.1840 -0.4895
 1007SOL    HW114657   1.945   2.376   4.935  0.5854 -0.5071 -0.8528
 1007SOL    HW214658   1.918   2.384   5.084  0.3443 -1.8957  0.4993
 1008SOL     OW14659   2.907   2.619  12.794 -0.3282  0.0983  0.5360
 1008SOL    HW114660   2.849   2.544  12.779  1.2650 -0.8188 -1.0721
 1008SOL    HW214661   2.953   2.579  12.868  1.0878  2.3418  0.8768
 1009SOL     OW14662   1.731   1.853   8.757  0.0416 -0.5150 -0.6094
 1009SOL    HW114663   1.765   1.848   8.846  1.1745 -0.9170 -1.0687
 1009SOL    HW214664   1.694   1.940   8.744  0.8819  0.0655  0.9270
 1010SOL     OW14665   2.520   2.182   1.838  0.3476 -0.0120  0.3301
 1010SOL    HW114666   2.466   2.156   1.912  0.2760 -2.8884 -0.7519
 1010SOL    HW214667   2.578   2.251   1.871 -0.7999  0.8730  0.5113
 1011SOL     OW14668   1.258   3.630   2.662 -0.8182 -0.6331 -0.1548
 1011SOL    HW114669   1.333   3.619   2.721  0.4118 -0.5529 -1.7099
 1011SOL    HW214670   1.191   3.628   2.730 -0.0571  1.7052  0.6518
 1012SOL     OW14671   1.146   1.397   5.391 -0.1379  0.2956  0.0961
 1012SOL    HW114672   1.107   1.476   5.354  0.6245  0.6092 -0.0426
 1012SOL    HW214673   1.205   1.379   5.318 -1.2388  0.3145 -0.7959
 1013SOL     OW14674   3.110   0.186   9.022 -0.2045 -0.2193 -0.2256
 1013SOL    HW114675   3.140   0.096   9.017 -0.6559 -0.5742  3.5394
 1013SOL    HW214676   3.018   0.171   9.043  0.0385 -2.3698 -0.7741
 1014SOL     OW14677   1.495   3.692   7.502 -0.1340  0.0920 -0.1437
 1014SOL    HW114678   1.407   3.673   7.534  0.6810 -3.5004 -0.0308
 1014SOL    HW214679   1.531   3.606   7.483 -1.0224 -0.5171  0.9436
 1015SOL     OW14680   3.353   0.743  12.001  0.2782  0.2137  0.2076
 1015SOL    HW114681   3.268   0.706  12.022 -0.2125  1.1307 -0.1917
 1015SOL    HW214682   3.352   0.721  11.908  2.4351  0.2814  0.1576
 1016SOL     OW14683   2.773   2.663  13.127 -0.0745 -0.2598  0.6486
 1016SOL    HW114684   2.725   2.594  13.173 -1.8452  0.0761 -0.6698
 1016SOL    HW214685   2.841   2.610  13.085 -0.2322 -0.9026  1.2000
 1017SOL     OW14686   1.575   1.382   9.576  0.0367 -0.5525 -0.0309
 1017SOL    HW114687   1.522   1.442   9.628  0.3365 -0.0524 -0.3004
 1017SOL    HW214688   1.585   1.303   9.629 -0.6205 -0.2888  0.4915
 1018SOL     OW14689   0.880   0.467   8.635 -0.1586 -0.5925  0.2153
 1018SOL    HW114690   0.820   0.396   8.614 -0.5155 -0.5900  1.2440
 1018SOL    HW214691   0.830   0.543   8.606 -0.7647 -0.5258  1.4360
 1019SOL     OW14692   3.317   2.504   8.960 -0.7391 -0.2125 -0.4269
 1019SOL    HW114693   3.248   2.465   8.907  0.6986 -1.1177 -1.6631
 1019SOL    HW214694   3.302   2.597   8.974  1.7349  0.3264 -1.3630
 1020SOL     OW14695   1.860   2.476   4.229 -0.2028 -0.8144 -0.7286
 1020SOL    HW114696   1.830   2.389   4.255 -0.7088 -0.1589  0.8844
 1020SOL    HW214697   1.775   2.518   4.224  0.8147  1.1750 -1.2204
 1021SOL     OW14698   3.137   2.180  15.891  0.6498 -0.2383 -0.1533
 1021SOL    HW114699   3.173   2.101  15.851  1.4430 -0.9155  1.8771
 1021SOL    HW214700   3.191   2.242  15.841  0.9185  2.0719  2.9686
 1022SOL     OW14701   3.422   2.245   3.751  0.4942 -0.2663 -0.8171
 1022SOL    HW114702   3.342   2.194   3.766  0.3300  0.9043  2.4996
 1022SOL    HW214703   3.433   2.283   3.839 -0.3109  1.6996 -1.5690
 1023SOL     OW14704   2.418   1.803   6.669 -1.1031  0.1586 -0.0611
 1023SOL    HW114705   2.369   1.849   6.600 -0.3455  0.6362 -0.2764
 1023SOL    HW214706   2.360   1.816   6.744  1.1300  2.3055  1.2892
 1024SOL     OW14707   4.607   2.192  15.378  0.2055 -0.5404  0.2156
 1024SOL    HW114708   4.640   2.114  15.423  0.7441 -0.6271 -0.3243
 1024SOL    HW214709   4.512   2.182  15.387  0.4283 -3.4958 -0.4232
 1025SOL     OW14710   3.544   2.665  10.976  0.2024  0.4815  0.5271
 1025SOL    HW114711   3.456   2.684  10.943  0.3198  0.1047 -0.0105
 1025SOL    HW214712   3.529   2.584  11.026  1.3874 -0.2253 -0.2740
 1026SOL     OW14713   1.180   0.702  14.540 -0.2560  0.2369  0.2645
 1026SOL    HW114714   1.220   0.619  14.513  1.6647  1.3047 -0.1832
 1026SOL    HW214715   1.091   0.682  14.509 -0.0703  0.8831 -0.6956
 1027SOL     OW14716   4.623   3.542   2.281 -0.1409 -0.1691  0.6080
 1027SOL    HW114717   4.714   3.571   2.273 -0.5854  1.1422  0.3007
 1027SOL    HW214718   4.584   3.584   2.205  0.4984 -0.7107 -0.0156
 1028SOL     OW14719   2.590   0.223  12.438 -0.2233  0.1028 -0.6674
 1028SOL    HW114720   2.655   0.227  12.368 -2.1317  1.4274 -2.3564
 1028SOL    HW214721   2.511   0.233  12.385  0.9887  0.0042 -2.5027
 1029SOL     OW14722   1.267   0.729  11.482  0.4665  0.3411  0.2071
 1029SOL    HW114723   1.287   0.671  11.408 -2.8795  0.8909 -1.1486
 1029SOL    HW214724   1.173   0.715  11.493  0.2795  1.8465  0.5066
 1030SOL     OW14725   1.811   0.590   1.999  0.5329  0.0551 -0.0650
 1030SOL    HW114726   1.824   0.585   2.094  0.0237 -0.1632 -0.0024
 1030SOL    HW214727   1.748   0.662   1.993  3.1275  2.2453 -1.0678
 1031SOL     OW14728   3.212   4.284   5.768  0.0370 -0.0781  0.2756
 1031SOL    HW114729   3.251   4.243   5.845  0.6577 -0.7955 -0.4116
 1031SOL    HW214730   3.222   4.205   5.714 -1.6065 -0.8257  1.0560
 1032SOL     OW14731   2.444   4.293  12.921  0.7980  0.0743  0.0513
 1032SOL    HW114732   2.374   4.239  12.883  1.0082  0.3935 -0.8040
 1032SOL    HW214733   2.483   4.322  12.838  0.5895 -2.4704 -0.9364
 1033SOL     OW14734   2.617   1.700  11.641  0.4866  0.8496  0.0833
 1033SOL    HW114735   2.703   1.728  11.671  0.6164  0.4137  0.1283
 1033SOL    HW214736   2.657   1.650  11.569  2.5423  2.2566  0.2555
 1034SOL     OW14737   3.832   1.284   5.344 -0.0910  0.4287 -0.2602
 1034SOL    HW114738   3.849   1.315   5.433 -0.0155  0.0604 -0.1464
 1034SOL    HW214739   3.868   1.196   5.360  0.4594  0.4291 -1.4837
 1035SOL     OW14740   2.771   1.948   1.705  0.5434 -0.0737  0.0765
 1035SOL    HW114741   2.833   2.017   1.682  1.2308 -0.8810 -0.4721
 1035SOL    HW214742   2.713   1.952   1.629  1.5511  0.5520 -0.6546
 1036SOL     OW14743   0.698   3.665  13.342  0.2170 -0.5096 -0.5480
 1036SOL    HW114744   0.654   3.750  13.343 -0.0239 -0.6107 -3.5595
 1036SOL    HW214745   0.720   3.638  13.431 -2.8556 -0.1067  0.3154
 1037SOL     OW14746   3.842   0.216   6.538 -0.4445 -0.1995  0.3949
 1037SOL    HW114747   3.815   0.133   6.577  0.2068 -0.7433 -0.3191
 1037SOL    HW214748   3.820   0.213   6.445 -1.1007  2.2658  0.4646
 1038SOL     OW14749   3.618   2.218   4.390  0.2198 -0.2353 -0.2577
 1038SOL    HW114750   3.623   2.314   4.393  2.4812 -0.4219  1.9214
 1038SOL    HW214751   3.529   2.195   4.363 -0.3984  0.9256  0.8198
 1039SOL     OW14752   2.187   2.105   2.255 -0.4090  0.0086 -0.1834
 1039SOL    HW114753   2.129   2.119   2.179 -0.6676 -1.1564 -0.1955
 1039SOL    HW214754   2.127   2.072   2.321  1.4752 -1.1774  0.9293
 1040SOL     OW14755   2.372   4.653   7.025  0.1550 -0.5432 -0.7071
 1040SOL    HW114756   2.388   4.571   6.977 -0.2863 -0.0242 -1.7381
 1040SOL    HW214757   2.457   4.697   7.019  0.0316 -0.0238  1.3875
 1041SOL     OW14758   3.009   4.552  12.033 -0.3953  0.1445  0.0851
 1041SOL    HW114759   3.104   4.555  12.026 -0.1960 -4.6911  0.6774
 1041SOL    HW214760   2.994   4.478  11.975 -0.3679  0.5959 -0.4987
 1042SOL     OW14761   2.985   1.714  16.248 -0.0970 -0.3285  0.2238
 1042SOL    HW114762   2.992   1.744  16.157 -0.2610 -1.0241 -0.0179
 1042SOL    HW214763   3.020   1.787  16.298  0.6282 -0.3694 -0.2245
 1043SOL     OW14764   3.091   2.657   6.781  0.3847  0.2257  0.0604
 1043SOL    HW114765   3.124   2.741   6.812 -0.0726  1.0794 -1.7573
 1043SOL    HW214766   3.114   2.600   6.854  1.0298  2.3930  1.5665
 1044SOL     OW14767   0.958   2.389  10.339 -0.1273  0.5096  0.6392
 1044SOL    HW114768   1.042   2.348  10.360  0.9385  2.1170 -0.4696
 1044SOL    HW214769   0.954   2.452  10.411 -2.3800 -0.9197  1.7596
 1045SOL     OW14770   0.664   0.554  15.928 -0.5207 -0.3576 -0.0524
 1045SOL    HW114771   0.614   0.495  15.871 -2.6035 -1.6457  3.1038
 1045SOL    HW214772   0.720   0.584  15.856 -0.9926 -3.2686 -1.6381
 1046SOL     OW14773   1.188   0.583  16.739  0.0484  0.1680  0.0555
 1046SOL    HW114774   1.165   0.668  16.775  0.6427 -0.3929  1.7756
 1046SOL    HW214775   1.219   0.537  16.817 -1.3638  0.9500  1.0959
 1047SOL     OW14776   3.041   1.835   5.235 -0.5544  0.1337 -0.3781
 1047SOL    HW114777   3.106   1.904   5.234 -1.0835  0.6116 -2.2426
 1047SOL    HW214778   2.960   1.883   5.214 -0.3167  0.7093  0.0278
 1048SOL     OW14779   4.280   4.704   7.340 -0.8836 -0.5220 -0.5156
 1048SOL    HW114780   4.190   4.725   7.367 -0.0587  2.1949  0.1806
 1048SOL    HW214781   4.268   4.643   7.267  0.5858  2.4112 -3.2147
 1049SOL     OW14782   4.480   3.821   1.248  0.2608 -0.0343 -0.3429
 1049SOL    HW114783   4.524   3.745   1.209  0.5053 -0.5135  0.8894
 1049SOL    HW214784   4.445   3.789   1.331 -0.2951  0.2739 -0.4549
 1050SOL     OW14785   3.846   1.750   5.626  0.0907 -0.5735  0.3920
 1050SOL    HW114786   3.892   1.785   5.703  0.2926  1.0845 -0.4782
 1050SOL    HW214787   3.846   1.655   5.633 -0.4276 -0.7296 -1.8434
 1051SOL     OW14788   0.772   4.415   4.814  0.3827 -0.4741 -0.4529
 1051SOL    HW114789   0.751   4.338   4.760 -0.4367 -0.5206 -0.0629
 1051SOL    HW214790   0.691   4.452   4.851  1.6819  1.1700  0.7412
 1052SOL     OW14791   1.467   3.673   4.748  0.0330  0.5892 -0.2037
 1052SOL    HW114792   1.387   3.631   4.779 -0.6356  2.1098  0.1527
 1052SOL    HW214793   1.430   3.709   4.667 -1.6549 -3.1518 -1.0662
 1053SOL     OW14794   3.275   0.546   3.142 -0.1646 -0.3615 -0.1691
 1053SOL    HW114795   3.284   0.451   3.136 -1.2046 -0.5062  0.4995
 1053SOL    HW214796   3.211   0.564   3.073 -1.2735 -1.4947  0.5652
 1054SOL     OW14797   3.851   1.824   1.441  0.0522 -0.2132  0.2131
 1054SOL    HW114798   3.890   1.893   1.494 -0.6228 -0.1376  0.6020
 1054SOL    HW214799   3.788   1.788   1.503 -0.1427  1.4623  0.9805
 1055SOL     OW14800   2.170   0.863   9.417 -0.2000  0.1109  0.0839
 1055SOL    HW114801   2.221   0.880   9.338 -1.1489 -1.5755 -0.8992
 1055SOL    HW214802   2.227   0.809   9.471 -0.2992  0.5535  0.6278
 1056SOL     OW14803   1.887   4.499  10.105 -0.1924 -0.4000  0.7205
 1056SOL    HW114804   1.873   4.432  10.038  0.2239 -0.7851  1.0163
 1056SOL    HW214805   1.797   4.533  10.100  0.6942  1.3705 -2.9500
 1057SOL     OW14806   4.045   1.384   3.443  0.2599  0.5140 -0.0591
 1057SOL    HW114807   4.068   1.440   3.517 -1.8726  1.0372  0.1870
 1057SOL    HW214808   3.968   1.344   3.484 -0.4335  0.3163 -1.5635
 1058SOL     OW14809   2.247   1.637   2.283  0.3496 -0.2144 -0.1633
 1058SOL    HW114810   2.216   1.548   2.265  0.2326 -0.6302  2.1602
 1058SOL    HW214811   2.165   1.681   2.263 -0.1293 -0.1694  1.9250
 1059SOL     OW14812   3.001   4.400   5.643  0.3485 -0.0978 -0.1036
 1059SOL    HW114813   3.084   4.359   5.669 -0.2887 -0.5191  1.2867
 1059SOL    HW214814   2.974   4.343   5.571 -0.4675  2.2869 -1.7039
 1060SOL     OW14815   2.556   4.518  17.343 -0.0565  0.2951  0.5290
 1060SOL    HW114816   2.480   4.572  17.365 -1.3099 -0.9970 -0.6539
 1060SOL    HW214817   2.583   4.566  17.265  0.1683 -0.7776 -0.0551
 1061SOL     OW14818   3.913   2.820   6.064  0.2364 -0.0370  0.3763
 1061SOL    HW114819   3.864   2.901   6.054 -1.9149 -1.6481 -1.8564
 1061SOL    HW214820   3.996   2.840   6.109  1.6831 -0.7458 -1.9688
 1062SOL     OW14821   1.994   2.005   5.161  0.2324  0.4553  0.2756
 1062SOL    HW114822   1.907   2.040   5.141  0.7382  1.4450 -0.1986
 1062SOL    HW214823   2.029   1.976   5.077  0.1918  0.2086  0.3461
 1063SOL     OW14824   0.467   2.693   5.062 -0.1043  0.1631 -0.2769
 1063SOL    HW114825   0.433   2.747   5.134 -1.8468  0.8411 -1.6116
 1063SOL    HW214826   0.430   2.605   5.072 -0.1465  0.4600  2.2831
 1064SOL     OW14827   3.544   0.847   5.015 -0.4633 -0.0921 -0.4823
 1064SOL    HW114828   3.589   0.800   4.944  1.2178  1.2454 -0.3168
 1064SOL    HW214829   3.544   0.940   4.992 -1.5054  0.2563  0.9806
 1065SOL     OW14830   0.926   3.410   6.288  0.4400 -0.2062  0.4807
 1065SOL    HW114831   0.950   3.430   6.198  0.6920 -0.0117  0.5920
 1065SOL    HW214832   0.951   3.319   6.301  0.0881 -0.2194  1.0649
 1066SOL     OW14833   3.900   4.347   3.555  0.1663  0.2884  0.4943
 1066SOL    HW114834   3.808   4.335   3.579  0.2642 -1.6467 -0.0629
 1066SOL    HW214835   3.927   4.255   3.555  3.3136  1.1973  0.7427
 1067SOL     OW14836   1.798   3.340  10.209  0.9206  0.3118  0.1728
 1067SOL    HW114837   1.818   3.430  10.233 -1.1201  0.8639 -0.2665
 1067SOL    HW214838   1.888   3.307  10.213  0.6483 -0.6074 -1.1165
 1068SOL     OW14839   1.514   1.625   6.610  0.4058  0.4725  0.4552
 1068SOL    HW114840   1.429   1.662   6.635 -0.0546  1.3312 -2.4174
 1068SOL    HW214841   1.528   1.557   6.676  1.5384  0.3175  0.0492
 1069SOL     OW14842   2.540   0.909  16.441 -0.5423 -0.4537 -0.2024
 1069SOL    HW114843   2.512   0.923  16.531  1.1860 -1.5975  0.5277
 1069SOL    HW214844   2.623   0.954  16.427  0.1956 -1.5065  0.8308
 1070SOL     OW14845   2.587   4.062   3.552 -0.5229 -0.6541  0.1675
 1070SOL    HW114846   2.522   4.128   3.528 -0.6033 -0.4974  0.8090
 1070SOL    HW214847   2.642   4.065   3.474 -0.9750 -0.3219 -0.1358
 1071SOL     OW14848   1.463   0.474   3.068 -0.1722 -0.4555 -0.2854
 1071SOL    HW114849   1.428   0.563   3.059 -0.7955 -0.6306  0.3957
 1071SOL    HW214850   1.525   0.483   3.140  0.3164  1.3884 -0.9281
 1072SOL     OW14851   4.621   3.931   4.500 -0.5303 -0.5684  0.0226
 1072SOL    HW114852   4.530   3.928   4.531 -0.7249 -1.9711 -0.6469
 1072SOL    HW214853   4.646   3.838   4.497 -0.2912 -0.4723 -0.9207
 1073SOL     OW14854   1.060   1.590   5.792 -0.7592  0.0349  0.3680
 1073SOL    HW114855   1.026   1.600   5.702  1.1272  0.2645 -0.3175
 1073SOL    HW214856   1.150   1.619   5.780 -0.6479 -0.2945  0.4326
 1074SOL     OW14857   4.378   4.525   2.407 -0.3845 -0.3237 -0.5972
 1074SOL    HW114858   4.436   4.465   2.454 -0.0702  0.1049 -0.4390
 1074SOL    HW214859   4.321   4.533   2.483 -0.8428  1.5500 -1.1417
 1075SOL     OW14860   0.310   2.487   2.701 -0.0933 -0.4990 -0.5382
 1075SOL    HW114861   0.404   2.470   2.693  0.4717  1.7210  1.6296
 1075SOL    HW214862   0.275   2.398   2.703 -1.8817  0.2635  1.7696
 1076SOL     OW14863   4.203   1.482   9.854  0.1561 -0.3483 -0.0778
 1076SOL    HW114864   4.275   1.512   9.909  0.6373 -1.5416 -0.0609
 1076SOL    HW214865   4.193   1.389   9.874  0.0741  0.3399  3.0180
 1077SOL     OW14866   3.635   2.343   8.442 -0.0470 -0.4470  0.1568
 1077SOL    HW114867   3.683   2.274   8.395  1.8152  0.1271  1.1938
 1077SOL    HW214868   3.708   2.401   8.462 -1.7758  2.4902 -2.1300
 1078SOL     OW14869   1.015   3.390   8.253  0.2918 -0.0051  0.0287
 1078SOL    HW114870   0.951   3.403   8.182  0.7741 -0.8210 -0.5505
 1078SOL    HW214871   1.078   3.461   8.243 -0.7896  0.7406 -1.5860
 1079SOL     OW14872   3.123   3.459   8.158  0.0200 -0.7548 -0.1938
 1079SOL    HW114873   3.173   3.434   8.080  0.6575 -0.7609  0.2166
 1079SOL    HW214874   3.099   3.548   8.132 -1.0826 -1.0766 -0.2689
 1080SOL     OW14875   1.401   3.680   5.658  0.0199 -0.0358  0.5031
 1080SOL    HW114876   1.441   3.760   5.623 -0.6764  0.0209 -0.1759
 1080SOL    HW214877   1.362   3.717   5.737 -0.7940  0.5401 -0.1565
 1081SOL     OW14878   1.218   1.784   4.297 -0.1790  0.4241 -0.1198
 1081SOL    HW114879   1.288   1.848   4.284 -0.1764  0.4661  0.0961
 1081SOL    HW214880   1.161   1.803   4.222  0.2859  1.1292 -0.2992
 1082SOL     OW14881   1.441   1.048   3.473  0.7481  0.8972 -0.3747
 1082SOL    HW114882   1.505   1.076   3.408  1.8032 -2.6105 -0.8350
 1082SOL    HW214883   1.369   1.010   3.422 -0.3660  0.2654  1.6644
 1083SOL     OW14884   3.039   3.118   6.931 -0.0267 -0.3897  0.4734
 1083SOL    HW114885   3.113   3.171   6.900 -0.9318 -0.6099 -2.0551
 1083SOL    HW214886   3.046   3.121   7.027 -0.9183 -4.0769  0.6740
 1084SOL     OW14887   4.593   1.390   2.128 -0.1458 -0.8438  0.4280
 1084SOL    HW114888   4.685   1.413   2.134 -0.3789 -0.2218  1.5221
 1084SOL    HW214889   4.564   1.440   2.052  0.8127 -1.4641 -0.3512
 1085SOL     OW14890   1.946   3.835   3.937 -0.4258  0.4019  0.2664
 1085SOL    HW114891   1.911   3.923   3.951 -0.0683  0.2439  2.1693
 1085SOL    HW214892   2.039   3.848   3.955  0.0826 -2.1914 -0.4872
 1086SOL     OW14893   1.243   0.266   5.650 -0.0658  0.6660  0.3940
 1086SOL    HW114894   1.296   0.325   5.597 -0.2207  0.7096  0.2879
 1086SOL    HW214895   1.273   0.300   5.735 -1.7142 -2.5354  2.2406
 1087SOL     OW14896   1.266   0.995   9.532 -0.2426 -0.1961  0.3410
 1087SOL    HW114897   1.259   1.089   9.551 -2.6969  0.0790 -1.9765
 1087SOL    HW214898   1.339   0.970   9.589 -0.7725  0.0094  1.1152
 1088SOL     OW14899   1.466   0.476   8.495  0.0707  0.5609 -0.3876
 1088SOL    HW114900   1.417   0.422   8.557  1.8287 -0.0104  0.5093
 1088SOL    HW214901   1.415   0.557   8.496 -0.9893 -0.1070 -0.8183
 1089SOL     OW14902   3.176   3.743  15.770  0.1553  0.3796 -0.0354
 1089SOL    HW114903   3.258   3.773  15.810  0.7416 -1.6458  0.2635
 1089SOL    HW214904   3.122   3.821  15.775  1.9070  1.6890 -1.2526
 1090SOL     OW14905   1.783   4.735   8.731 -0.0323  0.2732  0.6165
 1090SOL    HW114906   1.804   0.090   8.710  0.0903  0.4915  1.6489
 1090SOL    HW214907   1.845   4.685   8.678 -0.3981  0.1495  0.3136
 1091SOL     OW14908   2.701   0.737   8.179  0.2896 -0.1055  0.2896
 1091SOL    HW114909   2.739   0.695   8.102  0.4953 -0.2015  0.4417
 1091SOL    HW214910   2.768   0.803   8.195 -0.5066  0.4318  1.3980
 1092SOL     OW14911   0.495   0.335   6.715 -0.2407 -0.1679  0.0343
 1092SOL    HW114912   0.558   0.312   6.647  0.2007  0.2227  0.3032
 1092SOL    HW214913   0.534   0.419   6.740 -0.0502 -1.1838  3.1186
 1093SOL     OW14914   4.509   3.642   3.657  0.2157 -0.5915 -0.1991
 1093SOL    HW114915   4.419   3.616   3.676 -0.0176 -1.7616 -3.0028
 1093SOL    HW214916   4.549   3.602   3.734  0.2155 -0.0695  0.0733
 1094SOL     OW14917   2.002   2.208   7.501  0.1235  0.2720  0.2260
 1094SOL    HW114918   1.967   2.195   7.412  1.7325 -1.3984 -0.1741
 1094SOL    HW214919   2.042   2.121   7.510 -1.2622 -0.3746  0.1236
 1095SOL     OW14920   1.011   0.492   8.088  1.0361 -0.3993 -0.2419
 1095SOL    HW114921   0.931   0.530   8.052  1.2187 -0.2340 -0.4710
 1095SOL    HW214922   1.010   0.400   8.060 -0.3813 -0.7997  1.1329
 1096SOL     OW14923   4.441   2.725   0.110 -0.1986 -0.0919 -0.5741
 1096SOL    HW114924   4.484   2.689   0.032  0.7568  1.1235 -0.6034
 1096SOL    HW214925   4.516   2.740   0.168  0.3270  0.7275 -1.4770
 1097SOL     OW14926   2.306   0.898  13.062 -0.2531 -0.1279  0.5636
 1097SOL    HW114927   2.236   0.883  12.999 -0.2267 -0.2070  0.5529
 1097SOL    HW214928   2.262   0.942  13.134 -1.0976  2.7479 -1.6988
 1098SOL     OW14929   3.028   1.043   1.562  0.0958 -0.1261  0.0469
 1098SOL    HW114930   2.941   1.080   1.546  0.6397  1.2817  0.3645
 1098SOL    HW214931   3.077   1.121   1.586  1.4147 -1.0130  0.2299
 1099SOL     OW14932   4.630   3.178  14.339  0.2408  0.2133  0.0231
 1099SOL    HW114933   4.568   3.205  14.407  0.7396  2.8005 -0.5791
 1099SOL    HW214934   4.591   3.205  14.256 -1.5578 -1.4437  0.3303
 1100SOL     OW14935   3.441   2.201   8.572  0.1413  0.6092 -0.8360
 1100SOL    HW114936   3.361   2.198   8.519 -0.0432  2.0905 -0.6350
 1100SOL    HW214937   3.488   2.274   8.531 -0.1213  0.6410 -1.0862
 1101SOL     OW14938   1.075   1.683   3.620  0.2761 -0.3925 -0.4280
 1101SOL    HW114939   1.013   1.756   3.621  2.2590  1.3419 -1.7022
 1101SOL    HW214940   1.114   1.690   3.707 -0.9363 -2.3991  0.2566
 1102SOL     OW14941   1.329   3.720   0.371 -0.0603 -0.2016 -0.4698
 1102SOL    HW114942   1.397   3.673   0.419 -1.2006 -0.3765  0.9679
 1102SOL    HW214943   1.378   3.801   0.357  0.1915 -0.1805  0.5045
 1103SOL     OW14944   4.471   4.701   5.053 -0.4763 -0.8222 -0.0893
 1103SOL    HW114945   4.555   4.729   5.019 -2.0510  0.5392 -2.8650
 1103SOL    HW214946   4.446   0.048   5.095 -1.5590 -1.1937  0.0184
 1104SOL     OW14947   4.406   1.484  11.331 -0.2864 -0.6601 -0.0397
 1104SOL    HW114948   4.478   1.537  11.363  0.1504 -1.1563 -0.1918
 1104SOL    HW214949   4.423   1.506  11.240  3.1063  2.1966  1.3015
 1105SOL     OW14950   3.789   4.523  16.069 -0.2017  0.4742 -0.5103
 1105SOL    HW114951   3.785   4.609  16.111  0.4437 -0.2045  0.9459
 1105SOL    HW214952   3.837   4.474  16.136  1.8387  1.7465 -1.0550
 1106SOL     OW14953   2.263   4.290   7.544 -0.6492 -0.0887 -0.1977
 1106SOL    HW114954   2.226   4.251   7.623  3.1068 -0.3541  1.4431
 1106SOL    HW214955   2.350   4.250   7.543 -1.0796 -1.0246 -0.0311
 1107SOL     OW14956   4.138   2.426   4.184 -0.2731 -0.0697 -0.3131
 1107SOL    HW114957   4.167   2.426   4.093  2.1086 -0.1045  0.4339
 1107SOL    HW214958   4.095   2.511   4.194 -1.1659 -0.4227 -1.1146
 1108SOL     OW14959   4.350   3.112   7.738 -0.3751 -0.2350 -0.4649
 1108SOL    HW114960   4.397   3.050   7.794  0.5649  0.4878 -0.4390
 1108SOL    HW214961   4.303   3.173   7.795 -2.0031 -2.3871  0.4752
 1109SOL     OW14962   1.476   1.643   8.116 -0.4410  0.6616 -0.2521
 1109SOL    HW114963   1.547   1.689   8.071 -0.1962 -0.3524 -0.9064
 1109SOL    HW214964   1.490   1.655   8.210  1.9985 -1.1034 -0.3730
 1110SOL     OW14965   3.476   4.565  10.457 -0.8227 -0.1837 -0.2595
 1110SOL    HW114966   3.465   4.502  10.527 -1.4688 -0.1230 -0.3074
 1110SOL    HW214967   3.568   4.556  10.430 -0.5333  2.3062 -0.1213
 1111SOL     OW14968   0.064   0.542   8.986  0.1518  0.4962 -0.3285
 1111SOL    HW114969   0.025   0.594   9.056  1.3501 -0.4648  1.0528
 1111SOL    HW214970   0.118   0.483   9.038 -1.9621  0.3820  1.7249
 1112SOL     OW14971   1.349   1.318   5.189 -0.0918 -0.5121 -0.0009
 1112SOL    HW114972   1.337   1.318   5.094  2.2817  3.4245 -0.2743
 1112SOL    HW214973   1.426   1.373   5.204 -1.1535  0.4920  1.6872
 1113SOL     OW14974   0.025   0.128  17.400  0.0156 -0.0427  0.1466
 1113SOL    HW114975   0.095   0.165  17.454  0.6802 -0.6207 -0.3165
 1113SOL    HW214976   4.689   0.190  17.404 -0.1766 -0.2668  0.1825
 1114SOL     OW14977   4.066   4.467   1.668  0.0896 -0.0125  0.1838
 1114SOL    HW114978   4.078   4.562   1.667  0.4080 -0.0490  1.0389
 1114SOL    HW214979   3.986   4.453   1.617 -0.4373 -0.3373  1.1111
 1115SOL     OW14980   4.020   1.120   1.429 -0.2528  0.6434  0.1964
 1115SOL    HW114981   4.040   1.067   1.351  0.9843  0.2729  0.7651
 1115SOL    HW214982   4.105   1.160   1.447  0.2583  0.1303 -1.0574
 1116SOL     OW14983   4.081   0.872   9.402  0.1240 -0.5947  0.1206
 1116SOL    HW114984   4.076   0.882   9.498  0.7110  0.4209  0.0444
 1116SOL    HW214985   3.992   0.902   9.380  0.4142 -0.9704 -1.5070
 1117SOL     OW14986   0.605   3.839  14.250 -0.1220  0.1494  0.5184
 1117SOL    HW114987   0.524   3.804  14.288 -0.0455 -0.0405  0.5056
 1117SOL    HW214988   0.645   3.878  14.327  0.6208  1.0191 -0.2976
 1118SOL     OW14989   3.007   1.909  11.934  0.2239 -0.4460  0.3958
 1118SOL    HW114990   2.968   1.995  11.952 -0.3235 -0.4004 -1.0561
 1118SOL    HW214991   3.101   1.927  11.925 -0.0700  1.2219  0.5360
 1119SOL     OW14992   4.222   3.975   5.847 -0.3960 -0.1797  0.7065
 1119SOL    HW114993   4.133   3.941   5.857 -0.4577  0.6753  3.2380
 1119SOL    HW214994   4.267   3.909   5.899  1.0168 -0.9337 -1.4854
 1120SOL     OW14995   3.936   3.861   7.692  0.8071 -0.4364 -0.3321
 1120SOL    HW114996   3.889   3.883   7.612 -1.3263  1.4183  1.4635
 1120SOL    HW214997   3.883   3.785   7.717 -3.3865  2.1862 -1.4069
 1121SOL     OW14998   2.823   2.222   2.405 -0.8232 -0.1258  0.1977
 1121SOL    HW114999   2.817   2.180   2.491 -1.1391  0.3092  0.3889
 1121SOL    HW215000   2.902   2.275   2.407 -1.0690  0.2691 -0.6091
 1122SOL     OW15001   1.556   1.744  13.398  0.4622 -0.3378  0.0157
 1122SOL    HW115002   1.491   1.679  13.426  0.0637  0.7234  1.6136
 1122SOL    HW215003   1.496   1.809  13.361  1.8645  0.1128 -1.4557
 1123SOL     OW15004   4.168   0.943   7.223  0.0246  0.4562 -0.8198
 1123SOL    HW115005   4.249   0.949   7.173  0.7017  2.4372  0.5348
 1123SOL    HW215006   4.102   0.911   7.161 -0.6051  1.2832 -0.5835
 1124SOL     OW15007   3.507   0.184   6.311 -0.4821 -0.4514 -0.0155
 1124SOL    HW115008   3.554   0.268   6.316 -0.5115 -0.6264  3.5315
 1124SOL    HW215009   3.560   0.144   6.243  0.6702  2.4277 -0.8081
 1125SOL     OW15010   1.815   4.030   5.109  0.1561 -0.7202  0.1820
 1125SOL    HW115011   1.903   4.061   5.128 -0.5346  1.0440  0.5189
 1125SOL    HW215012   1.807   4.051   5.016  0.9509  0.2289  0.3288
 1126SOL     OW15013   2.461   2.702   3.413 -0.3425  0.2648  0.0127
 1126SOL    HW115014   2.369   2.716   3.436 -0.8462 -1.2244 -1.1046
 1126SOL    HW215015   2.482   2.763   3.483  0.4686  1.2792 -1.1323
 1127SOL     OW15016   3.860   4.225   9.419 -0.4378 -0.4284  0.1232
 1127SOL    HW115017   3.876   4.269   9.502  2.2947 -0.9441 -0.1215
 1127SOL    HW215018   3.788   4.171   9.450  0.7704 -2.6405 -0.8912
 1128SOL     OW15019   0.567   1.033   7.995  0.2643  0.4180 -0.0128
 1128SOL    HW115020   0.511   0.962   8.028  1.8707  0.1580  2.1836
 1128SOL    HW215021   0.653   1.005   8.027 -0.2796 -0.7751  0.4386
 1129SOL     OW15022   2.592   3.923  16.637 -0.2427  0.1420 -0.3412
 1129SOL    HW115023   2.583   3.834  16.669  1.8329  0.5882  1.4578
 1129SOL    HW215024   2.519   3.922  16.575 -0.4067  0.2734 -0.1510
 1130SOL     OW15025   3.353   2.685   9.199 -0.0224  0.5131 -0.2033
 1130SOL    HW115026   3.314   2.747   9.138  1.7320  0.5374 -1.2861
 1130SOL    HW215027   3.353   2.750   9.270 -0.8306  1.8591 -1.4354
 1131SOL     OW15028   0.983   3.747   8.452  0.3522 -0.5619 -0.4430
 1131SOL    HW115029   0.888   3.742   8.448  0.4216 -1.5222 -0.9418
 1131SOL    HW215030   1.006   3.743   8.359 -0.6769 -0.8671 -0.6790
 1132SOL     OW15031   1.316   4.331   7.122 -0.6280 -0.4596 -0.0346
 1132SOL    HW115032   1.252   4.400   7.104  0.1308  0.2922  0.1235
 1132SOL    HW215033   1.380   4.340   7.052  1.1682 -4.4284  1.0478
 1133SOL     OW15034   2.639   0.782   1.478  0.3048 -0.0957 -0.0610
 1133SOL    HW115035   2.648   0.810   1.387 -0.1527 -0.9935 -0.3853
 1133SOL    HW215036   2.566   0.837   1.505  0.3987  0.3305 -0.6777
 1134SOL     OW15037   3.120   4.235   0.917  0.5404 -0.5031  0.0603
 1134SOL    HW115038   3.103   4.167   0.852 -1.5252  1.2749 -1.2338
 1134SOL    HW215039   3.045   4.221   0.975 -0.2203 -1.8839 -1.2724
 1135SOL     OW15040   2.577   0.860  10.596  0.3803 -0.3366  0.1471
 1135SOL    HW115041   2.606   0.834  10.683 -0.8760 -0.3680  0.5599
 1135SOL    HW215042   2.595   0.954  10.595 -3.4752  0.3780 -1.4502
 1136SOL     OW15043   0.745   0.591   1.636  0.1482 -0.0815 -0.0060
 1136SOL    HW115044   0.772   0.624   1.722 -1.8844  0.4129  0.4410
 1136SOL    HW215045   0.715   0.678   1.609  0.1992  0.3865  1.3967
 1137SOL     OW15046   1.486   4.474   8.753  0.2174 -0.4032 -0.3598
 1137SOL    HW115047   1.412   4.529   8.778 -0.0291  0.1813 -2.3378
 1137SOL    HW215048   1.509   4.509   8.667  0.8378  1.4011  0.5406
 1138SOL     OW15049   4.733   1.161   8.538  0.3145 -0.6509 -0.0325
 1138SOL    HW115050   4.695   1.241   8.575 -0.0967 -1.2612  0.8444
 1138SOL    HW215051   0.006   1.182   8.444 -1.7412 -0.3084 -0.1377
 1139SOL     OW15052   1.031   4.389   4.426 -0.1613  0.4777 -0.7513
 1139SOL    HW115053   1.037   4.379   4.521  0.0814  0.9720 -0.7127
 1139SOL    HW215054   0.936   4.395   4.421 -0.1749 -1.6776 -3.0687
 1140SOL     OW15055   2.924   3.387   6.339 -0.5637  0.0744  0.1918
 1140SOL    HW115056   2.993   3.410   6.401  0.0889 -0.9196 -0.1741
 1140SOL    HW215057   2.914   3.293   6.355  3.2911 -0.5770 -1.1513
 1141SOL     OW15058   3.381   1.813   7.349 -0.7285 -0.0556 -0.0641
 1141SOL    HW115059   3.391   1.719   7.336 -1.1173 -0.1704  0.4657
 1141SOL    HW215060   3.461   1.856   7.319 -0.3335 -1.8185 -1.4865
 1142SOL     OW15061   2.877   1.260  11.633  0.0101 -0.8260  0.4701
 1142SOL    HW115062   2.878   1.244  11.727  1.4440 -0.3983  0.5260
 1142SOL    HW215063   2.893   1.169  11.606  0.9992 -0.7230  0.7098
 1143SOL     OW15064   1.609   0.300   7.126 -0.4947 -0.0961 -0.0546
 1143SOL    HW115065   1.648   0.216   7.101 -0.0549 -0.6640  2.6284
 1143SOL    HW215066   1.570   0.339   7.048  2.6691  2.4194 -0.3901
 1144SOL     OW15067   2.906   4.098   4.328  0.0123  0.3911  0.0747
 1144SOL    HW115068   2.868   4.081   4.242  0.0426  0.6968  0.0018
 1144SOL    HW215069   2.876   4.021   4.376 -0.7517  1.6354  1.5789
 1145SOL     OW15070   4.057   1.509   5.617 -0.6195  0.0885  0.2500
 1145SOL    HW115071   4.089   1.530   5.529 -0.4142 -1.7839 -0.1189
 1145SOL    HW215072   3.966   1.486   5.597 -0.4676 -1.2457  1.0837
 1146SOL     OW15073   0.022   0.039   9.037  0.1081 -0.2852  0.0793
 1146SOL    HW115074   4.700   0.115   9.029 -0.7946 -1.0617 -0.8280
 1146SOL    HW215075   0.035   0.043   9.132 -0.1525 -0.9369  0.1402
 1147SOL     OW15076   4.671   3.509  17.415 -0.3561  0.8350  0.0972
 1147SOL    HW115077   4.650   3.549  17.331  2.1457  0.1229 -0.8594
 1147SOL    HW215078   4.728   3.578  17.450  1.9320 -1.5931  1.2216
 1148SOL     OW15079   0.525   1.270   3.498 -0.1797 -0.1549  0.0702
 1148SOL    HW115080   0.501   1.360   3.476 -0.1116  0.0191  0.7139
 1148SOL    HW215081   0.452   1.237   3.551  0.4087 -1.8819 -0.2078
 1149SOL     OW15082   3.722   3.375  14.254  0.0683 -0.3190 -0.0433
 1149SOL    HW115083   3.798   3.356  14.310  0.5016 -0.5736 -0.7209
 1149SOL    HW215084   3.684   3.287  14.256 -0.0959 -0.2674 -1.1498
 1150SOL     OW15085   4.170   3.509  10.781 -0.5981 -0.1466 -0.2067
 1150SOL    HW115086   4.230   3.456  10.728  0.5098  0.1555  0.7404
 1150SOL    HW215087   4.201   3.489  10.869 -1.7139 -0.0289  0.2105
 1151SOL     OW15088   0.899   3.211   7.157 -0.1898  0.2440 -0.1189
 1151SOL    HW115089   0.884   3.160   7.236  0.5279  0.4385  0.1357
 1151SOL    HW215090   0.815   3.257   7.164 -0.2923 -0.2116  1.5061
 1152SOL     OW15091   2.678   4.192   2.145  0.8281 -0.4284 -0.7009
 1152SOL    HW115092   2.617   4.161   2.078 -0.0316 -0.1298 -0.0540
 1152SOL    HW215093   2.645   4.158   2.228 -1.5338  1.8118 -0.7179
 1153SOL     OW15094   2.722   3.849   0.284 -0.2750 -0.3218 -0.5323
 1153SOL    HW115095   2.682   3.779   0.232 -0.0347 -0.3139 -0.7242
 1153SOL    HW215096   2.764   3.806   0.359 -0.3832  1.1275  0.3604
 1154SOL     OW15097   0.662   0.872  12.389 -0.0304 -0.1260  0.5772
 1154SOL    HW115098   0.641   0.875  12.296 -0.4606 -0.3647  0.6625
 1154SOL    HW215099   0.659   0.777  12.401  0.1831 -0.6916 -3.8937
 1155SOL     OW15100   0.962   1.961   5.678  0.2662  0.2445  0.5873
 1155SOL    HW115101   0.993   1.958   5.768  0.4128  2.0964  0.5952
 1155SOL    HW215102   1.033   1.917   5.629  0.5034  1.7350 -0.4045
 1156SOL     OW15103   4.161   0.373   6.351  0.3246 -0.1218  0.7673
 1156SOL    HW115104   4.239   0.342   6.306 -0.0232 -0.6168  0.5056
 1156SOL    HW215105   4.189   0.440   6.414 -1.3415  0.6274  0.7216
 1157SOL     OW15106   4.231   0.438   5.853  0.1621 -0.4417  0.1168
 1157SOL    HW115107   4.185   0.435   5.769 -0.4513  2.6947  0.3302
 1157SOL    HW215108   4.320   0.467   5.833  0.5885 -0.9465  1.2833
 1158SOL     OW15109   1.445   0.088   5.106  0.0374  0.3301 -0.3961
 1158SOL    HW115110   1.357   0.118   5.128  0.3649 -0.0749  1.5181
 1158SOL    HW215111   1.497   0.156   5.149  0.6817  0.3761 -1.2479
 1159SOL     OW15112   2.335   0.372  13.511 -0.3437 -0.8575 -0.0759
 1159SOL    HW115113   2.337   0.460  13.473 -2.1183 -0.7527  0.0598
 1159SOL    HW215114   2.240   0.363  13.511 -0.6246  1.9782  0.5965
 1160SOL     OW15115   4.341   1.296   7.694 -0.4706 -0.1865  0.3598
 1160SOL    HW115116   4.419   1.297   7.639 -0.3557 -0.9155  0.5153
 1160SOL    HW215117   4.388   1.292   7.778 -0.8283 -0.5364  0.5386
 1161SOL     OW15118   3.023   2.536   9.183 -0.2115  0.3796 -0.2963
 1161SOL    HW115119   2.934   2.570   9.189  0.2460  1.1998  1.6991
 1161SOL    HW215120   3.012   2.533   9.087 -3.0120  0.7256  0.0172
 1162SOL     OW15121   4.008   0.001   6.234 -0.1359 -0.1826  0.3664
 1162SOL    HW115122   4.068   4.735   6.308  2.2426 -2.5506 -1.5564
 1162SOL    HW215123   4.008   4.642   6.218  0.7850 -0.2786  0.9396
 1163SOL     OW15124   4.244   2.336   7.956 -0.7182  0.3148 -0.1510
 1163SOL    HW115125   4.244   2.250   7.913  2.8341  1.2362 -2.0418
 1163SOL    HW215126   4.154   2.363   7.937 -0.4781  0.8967 -0.4687
 1164SOL     OW15127   1.909   3.965  13.761 -0.0471  0.3970  0.2784
 1164SOL    HW115128   1.952   4.036  13.714  2.0088  0.8747  2.8560
 1164SOL    HW215129   1.817   3.988  13.757 -0.3819 -1.2501 -1.4369
 1165SOL     OW15130   0.103   0.978   1.725 -0.1426  0.3536 -0.0646
 1165SOL    HW115131   0.134   1.045   1.664 -0.8325  0.2493 -0.5300
 1165SOL    HW215132   0.105   1.011   1.814 -2.1699  2.4675 -0.8245
 1166SOL     OW15133   2.670   2.088   8.520 -0.4503 -0.3386  0.0032
 1166SOL    HW115134   2.630   2.004   8.497  2.4042 -1.0387 -2.3357
 1166SOL    HW215135   2.672   2.132   8.436  0.9004 -2.6543 -1.1652
 1167SOL     OW15136   1.190   2.143   4.201  0.1980 -0.2275 -0.0426
 1167SOL    HW115137   1.120   2.200   4.171  0.0342 -0.1252  0.5475
 1167SOL    HW215138   1.166   2.147   4.294 -0.7660  0.4617 -0.3203
 1168SOL     OW15139   1.645   2.968   0.363 -0.2367  0.0211 -0.4085
 1168SOL    HW115140   1.649   2.902   0.294  3.8215  0.2834 -0.3938
 1168SOL    HW215141   1.738   2.972   0.384 -0.0835  0.1156 -1.1030
 1169SOL     OW15142   3.982   1.196  12.106  0.1835  0.6758  0.0368
 1169SOL    HW115143   4.059   1.171  12.157 -0.8055 -0.2124  1.0982
 1169SOL    HW215144   3.910   1.149  12.149 -2.1174  4.4658  0.3895
 1170SOL     OW15145   2.592   2.486  14.409 -0.0462  0.6475  0.0684
 1170SOL    HW115146   2.664   2.424  14.392  0.8000  2.2674 -2.2702
 1170SOL    HW215147   2.619   2.562  14.358  0.7043 -0.7687 -1.6888
 1171SOL     OW15148   2.056   1.242   0.778  0.3189  0.1898 -0.0776
 1171SOL    HW115149   2.073   1.199   0.694 -3.2977 -2.1144  0.4107
 1171SOL    HW215150   1.964   1.217   0.786  0.2025  0.5860 -0.1738
 1172SOL     OW15151   2.632   4.370   3.569  0.2560  0.2879  0.3106
 1172SOL    HW115152   2.682   4.452   3.569  3.0712 -1.4519  1.1675
 1172SOL    HW215153   2.692   4.312   3.523 -0.3429  1.5539 -2.0558
 1173SOL     OW15154   3.096   0.552   3.852 -0.4529  0.1917 -0.2892
 1173SOL    HW115155   3.022   0.508   3.894 -1.4673  1.7757 -0.4311
 1173SOL    HW215156   3.058   0.638   3.835  0.1499  0.0152 -2.5497
 1174SOL     OW15157   2.649   4.277   4.497 -0.3774  0.1481  0.0380
 1174SOL    HW115158   2.722   4.275   4.435  1.4052  1.1709  2.0993
 1174SOL    HW215159   2.657   4.371   4.517 -3.2259  0.2682  0.6080
 1175SOL     OW15160   2.979   0.942   6.669  0.5186 -0.0960 -0.0563
 1175SOL    HW115161   2.960   0.923   6.761 -0.7252 -2.8677 -0.8839
 1175SOL    HW215162   2.903   0.994   6.643 -0.3240 -1.4542 -0.2865
 1176SOL     OW15163   3.238   4.528   4.825 -0.4160  0.3852 -0.3785
 1176SOL    HW115164   3.209   4.453   4.877  0.0680 -0.0334 -0.7214
 1176SOL    HW215165   3.329   4.536   4.851 -1.1491 -0.2654  2.4036
 1177SOL     OW15166   1.878   0.054   4.404 -0.0890 -0.1192 -0.3807
 1177SOL    HW115167   1.823   4.715   4.430  1.5384 -0.4387  2.0617
 1177SOL    HW215168   1.965   0.021   4.424  0.0229 -0.6767 -1.7590
 1178SOL     OW15169   3.686   4.577   2.521 -0.4788 -0.3270  0.1192
 1178SOL    HW115170   3.698   4.671   2.510 -0.2805 -0.3937 -0.2316
 1178SOL    HW215171   3.682   4.534   2.436 -0.5077 -0.4814  0.1991
 1179SOL     OW15172   3.141   0.945   0.136  0.0035 -0.3598 -0.5324
 1179SOL    HW115173   3.147   0.927   0.230 -0.9226  3.0710  0.1711
 1179SOL    HW215174   3.047   0.965   0.136  0.2367  0.7294 -3.3153
 1180SOL     OW15175   2.180   1.439   0.550  0.7279  0.3528  0.3921
 1180SOL    HW115176   2.097   1.442   0.597  0.1257  2.0259 -0.7725
 1180SOL    HW215177   2.174   1.359   0.498 -1.1383  0.0367  1.0710
 1181SOL     OW15178   4.021   2.009   4.221  0.4416 -0.0522  0.1387
 1181SOL    HW115179   3.983   2.006   4.309  2.2046  0.6771  0.9381
 1181SOL    HW215180   3.945   1.968   4.181 -1.3754  1.8595  1.6172
 1182SOL     OW15181   2.172   4.547   3.750  0.7258  0.1636 -0.0575
 1182SOL    HW115182   2.225   4.584   3.821  0.3651  0.3051  0.1393
 1182SOL    HW215183   2.157   4.460   3.787 -1.8433  0.0218 -1.4739
 1183SOL     OW15184   0.786   2.127  15.743  0.0182 -0.3495  0.4509
 1183SOL    HW115185   0.752   2.213  15.720  0.9538 -0.4192 -1.1880
 1183SOL    HW215186   0.763   2.138  15.835 -0.9423  1.7526 -0.0503
 1184SOL     OW15187   0.699   2.103   2.670  0.1330  0.1226  0.1013
 1184SOL    HW115188   0.780   2.059   2.648  0.4281  1.4564 -1.4614
 1184SOL    HW215189   0.688   2.147   2.586 -1.4600  0.9042  0.7180
 1185SOL     OW15190   0.104   1.198   5.691  0.2445  0.0488  0.3175
 1185SOL    HW115191   0.013   1.210   5.663 -0.1977 -0.3439  1.5397
 1185SOL    HW215192   0.092   1.215   5.785  0.8689  1.0698  0.2101
 1186SOL     OW15193   1.144   0.056   7.072 -0.2661  0.1597 -0.8474
 1186SOL    HW115194   1.103   0.107   7.141  0.3763  0.9053 -1.0186
 1186SOL    HW215195   1.095   0.091   6.998 -0.7360 -1.3576 -1.2632
 1187SOL     OW15196   3.350   2.318  11.883 -0.3209  0.1536 -0.3340
 1187SOL    HW115197   3.419   2.382  11.902 -0.6534  0.5038 -0.3092
 1187SOL    HW215198   3.322   2.369  11.807 -0.9575  0.2809 -0.0105
 1188SOL     OW15199   4.457   2.829  17.150  0.4019  0.3076  0.2940
 1188SOL    HW115200   4.530   2.786  17.194 -1.5547  0.4857  3.6729
 1188SOL    HW215201   4.502   2.890  17.091  2.1621  0.3738  1.7226
 1189SOL     OW15202   0.688   2.359  15.648 -0.0647  0.7758 -0.5850
 1189SOL    HW115203   0.596   2.332  15.649 -0.1921  1.2684  1.4711
 1189SOL    HW215204   0.686   2.418  15.573 -1.3268 -1.1633 -2.0533
 1190SOL     OW15205   4.257   3.764  15.307 -0.1692  0.5699  0.0469
 1190SOL    HW115206   4.298   3.715  15.378 -0.5893 -1.4409 -1.1147
 1190SOL    HW215207   4.313   3.743  15.233  1.9468  0.2482  1.7442
 1191SOL     OW15208   2.035   3.042  11.244  0.1490  0.5543  0.1812
 1191SOL    HW115209   1.964   3.037  11.308  0.5112  1.1783  0.6345
 1191SOL    HW215210   2.113   3.038  11.299 -0.2084  1.6082  0.7678
 1192SOL     OW15211   4.696   2.552   7.424  0.5365 -0.2680 -0.0829
 1192SOL    HW115212   0.050   2.527   7.450  1.0150  0.1222 -1.3432
 1192SOL    HW215213   4.646   2.471   7.431 -2.1086  1.2384 -2.0412
 1193SOL     OW15214   2.060   3.764   3.474 -0.0157  0.0443  0.0711
 1193SOL    HW115215   2.006   3.759   3.395 -0.4341  1.2977  0.2742
 1193SOL    HW215216   2.023   3.697   3.531  2.2766 -1.7786 -0.5864
 1194SOL     OW15217   3.506   4.211   4.754 -0.6856  0.1676 -0.1536
 1194SOL    HW115218   3.579   4.156   4.726 -1.6724 -1.8668  1.3012
 1194SOL    HW215219   3.449   4.222   4.677  0.3498  0.8508 -0.8152
 1195SOL     OW15220   0.733   3.849   2.666  0.1696  0.0198  0.2507
 1195SOL    HW115221   0.682   3.907   2.723  1.0966  2.7352 -1.6633
 1195SOL    HW215222   0.802   3.824   2.728 -0.9798  0.5145  1.7159
 1196SOL     OW15223   1.223   0.434  11.114  0.1187  0.4317  0.3325
 1196SOL    HW115224   1.270   0.463  11.192  1.3591 -2.4062  0.6342
 1196SOL    HW215225   1.277   0.359  11.087 -0.7150 -0.1872  0.3688
 1197SOL     OW15226   2.440   0.667   9.509  0.2302  0.0973 -0.5012
 1197SOL    HW115227   2.349   0.637   9.505  0.1395  0.3133 -0.1150
 1197SOL    HW215228   2.487   0.589   9.480  1.1361  0.8785 -1.1154
 1198SOL     OW15229   2.214   3.505   9.295 -0.2301 -0.1116  0.1310
 1198SOL    HW115230   2.171   3.442   9.351 -0.7046 -0.5836 -0.7703
 1198SOL    HW215231   2.187   3.478   9.207 -1.0373 -0.8826  0.6240
 1199SOL     OW15232   4.554   1.589   6.360 -0.0407  0.3445  0.4117
 1199SOL    HW115233   4.610   1.665   6.343 -1.9068  1.3984 -0.9949
 1199SOL    HW215234   4.529   1.613   6.449  0.8893  0.2607  0.7018
 1200SOL     OW15235   1.141   0.567   5.920  0.3692 -0.0019  0.1200
 1200SOL    HW115236   1.049   0.562   5.947 -0.1748 -0.0973 -1.8053
 1200SOL    HW215237   1.169   0.481   5.953  3.1903  0.5666 -0.8361
 1201SOL     OW15238   4.600   2.167   6.629  0.2228  0.5068 -0.1574
 1201SOL    HW115239   4.676   2.221   6.608 -0.8349  2.3456  0.8391
 1201SOL    HW215240   4.575   2.141   6.540 -0.9794  0.1264  0.2855
 1202SOL     OW15241   3.555   1.529   8.595  0.0098  0.7169 -0.9348
 1202SOL    HW115242   3.482   1.482   8.556 -0.5096  1.6465 -1.0792
 1202SOL    HW215243   3.595   1.452   8.636  0.0673  0.8376 -0.7616
 1203SOL     OW15244   1.428   3.448  11.237 -0.2827 -0.2487  0.1834
 1203SOL    HW115245   1.398   3.511  11.302  1.6522 -1.2682  2.0675
 1203SOL    HW215246   1.451   3.508  11.166 -1.1150  0.4480  0.5034
 1204SOL     OW15247   0.340   0.471  14.000  0.4969  0.1007  0.1472
 1204SOL    HW115248   0.268   0.520  13.962  0.5025 -0.5712 -0.7130
 1204SOL    HW215249   0.413   0.504  13.948  2.0950 -0.2113  2.1836
 1205SOL     OW15250   3.802   1.382  12.041  0.2895  0.6489 -0.0235
 1205SOL    HW115251   3.857   1.307  12.065 -0.2305 -0.1113 -1.2180
 1205SOL    HW215252   3.732   1.347  11.986 -0.9731  3.7927 -0.4075
 1206SOL     OW15253   0.855   3.318   5.396 -1.1734 -0.0258 -0.3725
 1206SOL    HW115254   0.948   3.299   5.405 -1.2605 -1.1875 -2.0163
 1206SOL    HW215255   0.828   3.249   5.336  2.2636 -0.6490 -1.1803
 1207SOL     OW15256   4.376   4.264   3.319 -0.8322  0.1565  0.4709
 1207SOL    HW115257   4.353   4.342   3.369 -2.1922  0.1904 -0.2094
 1207SOL    HW215258   4.446   4.288   3.258 -2.2573  0.6024 -0.9841
 1208SOL     OW15259   3.813   1.800  11.301  0.5928 -0.1944  0.6609
 1208SOL    HW115260   3.810   1.890  11.269 -1.2011 -0.2306  0.7142
 1208SOL    HW215261   3.720   1.777  11.308  0.5155 -0.4489 -1.3814
 1209SOL     OW15262   1.439   1.525  16.276 -0.0361 -0.3281 -0.8806
 1209SOL    HW115263   1.498   1.507  16.202  4.7178  1.3037  2.5053
 1209SOL    HW215264   1.498   1.519  16.351  1.9858  0.5068 -2.3908
 1210SOL     OW15265   0.842   1.994   9.487 -0.3370  0.2863  0.9891
 1210SOL    HW115266   0.832   2.085   9.459  1.2991 -0.4040 -1.7736
 1210SOL    HW215267   0.855   1.950   9.403 -1.4079  1.1689  0.3583
 1211SOL     OW15268   3.843   2.365   3.246  0.5931 -0.6668 -0.0276
 1211SOL    HW115269   3.915   2.410   3.292  0.5822  0.1573 -0.8067
 1211SOL    HW215270   3.833   2.282   3.293 -1.3555 -0.1359  0.4984
 1212SOL     OW15271   3.459   3.505  12.108  0.0474 -0.3955  0.4300
 1212SOL    HW115272   3.480   3.538  12.020 -0.3861  2.9891  1.5825
 1212SOL    HW215273   3.482   3.413  12.113  1.6406 -0.0847 -1.1121
 1213SOL     OW15274   1.135   3.871   7.925 -0.5528  0.4695  0.1360
 1213SOL    HW115275   1.075   3.900   7.856 -2.1092  0.7500  1.6120
 1213SOL    HW215276   1.226   3.891   7.903  0.0270  1.1941  3.1234
 1214SOL     OW15277   2.433   2.455   4.497 -0.1717  0.4241 -0.1288
 1214SOL    HW115278   2.435   2.509   4.418  1.1138  0.4108 -0.1024
 1214SOL    HW215279   2.340   2.433   4.499 -0.6298  2.3471 -0.4681
 1215SOL     OW15280   3.641   3.199   6.772 -0.4657 -0.6756 -0.1647
 1215SOL    HW115281   3.581   3.240   6.835  0.3202 -0.6913  0.5835
 1215SOL    HW215282   3.711   3.166   6.828  0.4533  1.8018  0.1259
 1216SOL     OW15283   3.240   3.569  14.614 -0.3171  0.3448 -0.3033
 1216SOL    HW115284   3.187   3.612  14.546  0.9046  1.4531 -0.5396
 1216SOL    HW215285   3.318   3.557  14.560 -0.7927  1.8931 -1.3300
 1217SOL     OW15286   4.000   1.471  12.935  0.0820 -0.3175  0.6365
 1217SOL    HW115287   4.007   1.379  12.958 -0.6333 -0.4798  0.1859
 1217SOL    HW215288   4.078   1.480  12.881 -0.0798 -1.3942  0.2309
 1218SOL     OW15289   1.705   2.172  17.470 -0.5538 -0.4138 -0.4345
 1218SOL    HW115290   1.627   2.120  17.453 -0.6133 -0.9213  1.3679
 1218SOL    HW215291   1.678   2.254  17.428  1.0759 -0.7109 -2.0852
 1219SOL     OW15292   4.455   0.224   5.133  0.7607  0.3657  0.3839
 1219SOL    HW115293   4.442   0.269   5.050 -1.9986  1.1388  1.2417
 1219SOL    HW215294   4.527   0.271   5.175  1.4077  0.9814 -1.4381
 1220SOL     OW15295   2.125   4.475  10.976 -0.3325 -0.3137 -0.1617
 1220SOL    HW115296   2.142   4.441  10.888 -0.6053 -0.5590 -0.1222
 1220SOL    HW215297   2.093   4.393  11.015 -1.4914  0.5786  0.7437
 1221SOL     OW15298   0.270   1.868   6.862  0.8425 -0.1524  0.2655
 1221SOL    HW115299   0.276   1.772   6.860  0.5536 -0.1734  0.5592
 1221SOL    HW215300   0.178   1.875   6.837  0.2395  4.2457  3.7366
 1222SOL     OW15301   2.730   3.717   7.209 -0.2511 -0.1887 -0.0156
 1222SOL    HW115302   2.671   3.653   7.249 -1.8627  1.0552 -0.4207
 1222SOL    HW215303   2.668   3.754   7.146  0.3623 -0.7747 -0.9719
 1223SOL     OW15304   1.217   2.006   4.570 -0.1381 -0.5088  0.1671
 1223SOL    HW115305   1.125   1.988   4.553 -0.2898 -0.5359  1.0051
 1223SOL    HW215306   1.216   2.043   4.659 -2.8714 -0.9691  0.3125
 1224SOL     OW15307   0.152   3.639   0.094  0.0394  0.5675 -0.5467
 1224SOL    HW115308   0.107   3.554   0.101 -0.8205  1.0454 -0.1786
 1224SOL    HW215309   0.091   3.676   0.030 -0.2136  0.5151 -0.3408
 1225SOL     OW15310   3.992   3.837  13.755 -0.1383 -0.2377 -0.7692
 1225SOL    HW115311   3.995   3.874  13.842 -0.8288 -3.2177  0.5348
 1225SOL    HW215312   3.922   3.886  13.712 -0.5825 -1.5521 -1.5786
 1226SOL     OW15313   3.603   0.883  12.102 -0.1792  0.6329  0.0744
 1226SOL    HW115314   3.574   0.961  12.055 -0.8277  1.6181  2.1157
 1226SOL    HW215315   3.514   0.849  12.108 -0.6072  1.5427 -1.2563
 1227SOL     OW15316   3.960   0.332   8.890  0.0331 -0.0398 -0.1134
 1227SOL    HW115317   3.878   0.310   8.935  0.4315 -0.0253  0.6252
 1227SOL    HW215318   4.002   0.246   8.893 -1.6111 -0.9098 -2.3435
 1228SOL     OW15319   2.518   2.158   9.079 -0.6648 -0.2612 -0.3718
 1228SOL    HW115320   2.482   2.101   9.146 -0.2625  0.6406  0.6223
 1228SOL    HW215321   2.560   2.232   9.124 -1.6778 -0.7712  1.4123
 1229SOL     OW15322   4.022   2.056   1.632 -0.0341  0.0625 -0.4812
 1229SOL    HW115323   4.029   2.104   1.715  0.7207 -0.0786 -0.4648
 1229SOL    HW215324   4.108   2.026   1.604 -0.5633 -0.8205 -1.1430
 1230SOL     OW15325   3.260   3.347   4.284 -0.2863 -0.4286  0.1855
 1230SOL    HW115326   3.254   3.396   4.202 -1.5514 -2.6895 -1.0604
 1230SOL    HW215327   3.355   3.343   4.296 -0.4013  2.3268  2.0772
 1231SOL     OW15328   3.142   4.451   8.778  0.2519  1.0652 -0.3001
 1231SOL    HW115329   3.179   4.532   8.743  2.7782 -0.0287 -0.2017
 1231SOL    HW215330   3.146   4.478   8.870  1.2033 -0.6285  0.1637
 1232SOL     OW15331   3.406   1.578   2.849 -0.5032 -0.0363 -0.6767
 1232SOL    HW115332   3.330   1.630   2.823  0.3738  1.0941 -0.9692
 1232SOL    HW215333   3.458   1.630   2.910 -0.9409  0.5526 -0.8070
 1233SOL     OW15334   0.308   0.516   2.472 -0.2693 -0.0503 -0.4626
 1233SOL    HW115335   0.336   0.559   2.391 -1.9724  1.8933 -0.0206
 1233SOL    HW215336   0.297   0.425   2.445  1.3074  1.0040 -4.6559
 1234SOL     OW15337   3.504   4.512  16.080  0.1848  0.3630 -0.4170
 1234SOL    HW115338   3.489   4.599  16.043  2.1829 -0.5841 -3.4981
 1234SOL    HW215339   3.599   4.499  16.085 -0.3107 -2.5285  1.2898
 1235SOL     OW15340   0.050   2.959   5.391 -0.2270 -0.5089  0.0595
 1235SOL    HW115341   0.094   2.969   5.307  1.4967 -0.1594  1.0126
 1235SOL    HW215342   0.066   2.867   5.412 -3.1927 -1.1436 -0.4723
 1236SOL     OW15343   3.658   1.399  11.579  0.1318 -0.5405  0.3135
 1236SOL    HW115344   3.622   1.328  11.526  0.1857  0.5363 -1.1517
 1236SOL    HW215345   3.612   1.475  11.542  1.2698 -0.0419 -0.0709
 1237SOL     OW15346   1.154   4.350  16.804 -0.0502  0.6458 -0.5168
 1237SOL    HW115347   1.213   4.285  16.767 -1.0881 -0.4539 -0.2241
 1237SOL    HW215348   1.210   4.378  16.877 -0.4453 -0.3356  0.1620
 1238SOL     OW15349   3.812   3.999   2.894  0.0174  0.3420  0.1243
 1238SOL    HW115350   3.896   4.041   2.910  0.6888 -1.5477  1.4755
 1238SOL    HW215351   3.833   3.954   2.812 -0.1723 -0.1334  0.3360
 1239SOL     OW15352   1.175   0.029   8.732 -0.3271 -0.5674  0.1977
 1239SOL    HW115353   1.132   0.110   8.759  2.2488  0.5520  1.0097
 1239SOL    HW215354   1.159   0.055   8.642 -1.0389 -1.2907  0.1219
 1240SOL     OW15355   1.768   3.262  15.558 -0.1747 -0.3492 -0.6181
 1240SOL    HW115356   1.717   3.255  15.477  0.0958  0.0621 -0.8280
 1240SOL    HW215357   1.834   3.197  15.535  0.1562 -0.1732 -0.1517
 1241SOL     OW15358   2.775   4.108   6.329 -0.0198  0.3269  0.4509
 1241SOL    HW115359   2.714   4.084   6.398 -0.4418  0.0563 -0.0123
 1241SOL    HW215360   2.726   4.090   6.249  0.2658 -0.9696  0.5606
 1242SOL     OW15361   3.691   3.719   5.735  0.7253  0.1838  0.6582
 1242SOL    HW115362   3.729   3.670   5.661 -0.1837  0.5055 -0.0160
 1242SOL    HW215363   3.700   3.808   5.700 -1.2191 -0.3204 -1.1418
 1243SOL     OW15364   2.966   3.768   9.573  0.1706  0.4614  0.3975
 1243SOL    HW115365   2.907   3.707   9.528  0.2574  0.0766  0.8035
 1243SOL    HW215366   2.956   3.742   9.665  0.6795 -0.0544  0.3031
 1244SOL     OW15367   1.738   2.917   4.107  0.3031  0.1679  0.3614
 1244SOL    HW115368   1.807   2.882   4.051  0.4963 -0.1679  0.8148
 1244SOL    HW215369   1.733   2.854   4.179  0.4953  0.4767  0.6495
 1245SOL     OW15370   3.081   3.887   8.995 -0.6955  0.9943  0.5230
 1245SOL    HW115371   3.071   3.854   9.085  1.2970  1.1656  0.8164
 1245SOL    HW215372   3.104   3.979   9.008 -2.7080  1.2708  2.2134
 1246SOL     OW15373   3.339   3.454   0.954  0.0018 -0.1055  0.0667
 1246SOL    HW115374   3.433   3.445   0.969 -0.0446 -1.0964 -0.2105
 1246SOL    HW215375   3.306   3.378   1.003  0.1195 -0.3367 -0.2142
 1247SOL     OW15376   1.918   3.664   3.710  0.1051  0.1150  0.7629
 1247SOL    HW115377   1.847   3.609   3.742 -0.2471  0.4280  0.5056
 1247SOL    HW215378   1.947   3.719   3.782 -0.1523  0.8137  0.3321
 1248SOL     OW15379   1.855   3.701   7.730  0.0572  0.3306  0.1938
 1248SOL    HW115380   1.937   3.731   7.769  0.0504  1.0723 -0.3636
 1248SOL    HW215381   1.893   3.629   7.680  2.1427 -0.7288  3.2957
 1249SOL     OW15382   4.388   3.653   3.081  0.2135 -0.1833 -0.1184
 1249SOL    HW115383   4.460   3.714   3.062  0.5290 -0.5628 -0.1236
 1249SOL    HW215384   4.382   3.655   3.176 -1.0493  0.9832 -0.2181
 1250SOL     OW15385   3.456   1.815   3.416  0.0788  0.3175  0.0469
 1250SOL    HW115386   3.490   1.886   3.470  0.2178  0.7606 -0.6333
 1250SOL    HW215387   3.417   1.756   3.482  0.8505  0.5812  0.7322
 1251SOL     OW15388   3.196   1.641   5.115 -0.1212  0.1092  0.2421
 1251SOL    HW115389   3.255   1.690   5.057 -0.2089 -1.6406 -1.3339
 1251SOL    HW215390   3.124   1.701   5.135 -2.1009 -1.2051 -3.0503
 1252SOL     OW15391   0.277   4.319   2.784 -0.3281  0.0102  0.0672
 1252SOL    HW115392   0.217   4.387   2.756 -1.4763 -1.1044 -0.1791
 1252SOL    HW215393   0.232   4.284   2.861 -0.3374  1.8758  0.9053
 1253SOL     OW15394   3.792   2.011  10.290 -0.0902  0.1570  0.1212
 1253SOL    HW115395   3.701   2.012  10.319 -0.0501 -0.5030  0.2693
 1253SOL    HW215396   3.839   1.961  10.356  2.1887 -0.5031 -1.9734
 1254SOL     OW15397   3.078   2.554   5.153 -0.1263  0.4408 -0.1494
 1254SOL    HW115398   3.149   2.511   5.202 -1.8054 -0.7689  1.2563
 1254SOL    HW215399   3.111   2.637   5.119  0.7681  0.4243  0.6796
 1255SOL     OW15400   4.204   1.120  17.583 -0.0947 -0.1389 -0.5459
 1255SOL    HW115401   4.179   1.166  17.503  1.3102 -0.2481 -1.0368
 1255SOL    HW215402   4.132   1.058  17.594 -0.3670  0.9645  3.9971
 1256SOL     OW15403   0.017   0.203  11.361 -0.6540 -0.2338  0.1957
 1256SOL    HW115404   4.707   0.129  11.321  1.5302 -0.2383 -2.2398
 1256SOL    HW215405   4.702   0.279  11.332 -0.8772  0.4326  2.2808
 1257SOL     OW15406   3.799   2.669   0.050 -0.0176 -0.5993  0.2545
 1257SOL    HW115407   3.775   2.713   0.132 -1.7846  1.1720 -1.2175
 1257SOL    HW215408   3.733   2.600   0.049 -0.9839  0.3254  0.6247
 1258SOL     OW15409   0.877   3.493   6.720 -0.1694  0.1655 -0.2318
 1258SOL    HW115410   0.936   3.497   6.645 -1.3094 -1.9465 -1.2522
 1258SOL    HW215411   0.826   3.414   6.703  0.8098 -0.4772 -0.2090
 1259SOL     OW15412   1.594   1.771  14.875  0.2273 -0.1913 -0.1507
 1259SOL    HW115413   1.609   1.865  14.873  0.7945 -0.2692  0.5110
 1259SOL    HW215414   1.542   1.765  14.794  1.8833 -1.4646 -1.1296
 1260SOL     OW15415   0.737   1.917   0.151 -0.1856 -0.1796 -0.4875
 1260SOL    HW115416   0.737   1.890   0.059  0.1218 -3.4171  0.4868
 1260SOL    HW215417   0.807   1.858   0.180 -0.0180 -0.9985 -2.5690
 1261SOL     OW15418   2.995   3.033   2.638 -0.2470 -0.7380 -0.5478
 1261SOL    HW115419   2.900   3.036   2.651 -0.1766 -1.4408  0.0893
 1261SOL    HW215420   2.990   3.058   2.545  1.5353 -0.4175 -0.5545
 1262SOL     OW15421   4.307   3.545  11.523 -0.1741  0.1716  0.2483
 1262SOL    HW115422   4.394   3.503  11.522 -1.3382 -2.2259 -2.6876
 1262SOL    HW215423   4.265   3.523  11.606 -0.4407  2.1556  0.6263
 1263SOL     OW15424   4.293   0.333   7.499 -0.0363 -0.0344 -0.0069
 1263SOL    HW115425   4.282   0.288   7.583 -0.0913 -0.0670 -0.0316
 1263SOL    HW215426   4.388   0.331   7.490 -0.0685  1.5097 -0.6142
 1264SOL     OW15427   0.852   1.619   3.853  0.7314  0.1438  0.4853
 1264SOL    HW115428   0.799   1.575   3.919  0.7411 -0.9167 -0.2127
 1264SOL    HW215429   0.909   1.544   3.834 -0.8810 -0.7876 -0.6489
 1265SOL     OW15430   0.510   0.247   4.213 -0.1061  0.1828  0.1813
 1265SOL    HW115431   0.546   0.315   4.156  0.2602 -0.3259 -0.1999
 1265SOL    HW215432   0.511   0.178   4.146  0.4578 -1.1943  1.6000
 1266SOL     OW15433   0.853   4.010   3.409 -0.2817 -0.0259 -0.4578
 1266SOL    HW115434   0.790   4.004   3.481 -0.1376  1.7199 -0.1993
 1266SOL    HW215435   0.921   4.065   3.448 -0.4001 -0.0939 -0.1592
 1267SOL     OW15436   3.418   3.659   3.434 -0.1362 -0.3135 -0.7384
 1267SOL    HW115437   3.445   3.751   3.429  1.6365 -0.6957  1.6352
 1267SOL    HW215438   3.452   3.626   3.351  1.9589 -0.3874  0.1574
 1268SOL     OW15439   0.316   0.087  17.345 -0.9456  0.1905  0.6167
 1268SOL    HW115440   0.266   0.009  17.322  0.3140  0.3004 -2.5220
 1268SOL    HW215441   0.262   0.146  17.292 -1.0500 -0.3274  0.1498
 1269SOL     OW15442   2.004   2.267  12.217 -0.5721 -0.0917 -0.2628
 1269SOL    HW115443   2.046   2.216  12.147 -2.8785 -2.6473  0.2190
 1269SOL    HW215444   2.072   2.260  12.284 -1.7383 -1.2650  0.7836
 1270SOL     OW15445   2.377   2.961   2.512 -0.0797  0.2843  0.0152
 1270SOL    HW115446   2.386   3.020   2.587 -2.4625 -1.0152  1.3238
 1270SOL    HW215447   2.324   3.010   2.450  2.0354 -1.4159 -3.1269
 1271SOL     OW15448   0.613   3.255   6.340  0.2817  0.1776 -0.2110
 1271SOL    HW115449   0.704   3.282   6.322 -0.0286  0.4512 -1.3411
 1271SOL    HW215450   0.606   3.203   6.261 -0.9476  1.3010 -0.8325
 1272SOL     OW15451   2.191   2.932  12.074  0.0766 -0.5670 -0.3401
 1272SOL    HW115452   2.244   2.988  12.017  0.8077 -0.8519  0.0616
 1272SOL    HW215453   2.250   2.923  12.149  0.8870  1.2873 -0.7631
 1273SOL     OW15454   1.906   3.156   9.648 -0.0160  0.0471 -0.3037
 1273SOL    HW115455   1.852   3.233   9.665 -1.1911 -0.9150  0.3414
 1273SOL    HW215456   1.879   3.103   9.724 -0.4157  1.6151  0.6548
 1274SOL     OW15457   2.690   0.359   3.573 -0.6386 -0.2022 -0.0723
 1274SOL    HW115458   2.704   0.345   3.667 -1.7992  1.1437  0.2973
 1274SOL    HW215459   2.715   0.451   3.563  1.1325 -0.5881  0.6991
 1275SOL     OW15460   2.741   1.154  13.273 -0.0330 -0.9440 -0.0123
 1275SOL    HW115461   2.785   1.220  13.219 -0.7460  0.6998  1.4137
 1275SOL    HW215462   2.775   1.072  13.237  2.2423 -0.0408  0.0282
 1276SOL     OW15463   3.204   1.374   3.711  0.2905 -0.0650 -0.0054
 1276SOL    HW115464   3.253   1.292   3.705  0.4845  0.0223  0.3566
 1276SOL    HW215465   3.143   1.357   3.639 -0.9983  0.2205  1.0291
 1277SOL     OW15466   3.152   3.787   1.309  0.4242 -0.2989  0.2072
 1277SOL    HW115467   3.201   3.864   1.280 -0.5149 -0.3253 -1.4442
 1277SOL    HW215468   3.191   3.726   1.246 -0.7097 -1.7155  0.8965
 1278SOL     OW15469   4.623   4.318   3.176 -0.4467 -0.0663  0.4526
 1278SOL    HW115470   4.650   4.240   3.225  1.4153  1.4849  1.8526
 1278SOL    HW215471   4.689   4.380   3.206 -1.7804  1.9856 -0.8120
 1279SOL     OW15472   0.893   0.079  16.143 -0.3107 -0.5556 -0.4166
 1279SOL    HW115473   0.939   0.015  16.089  1.9707  0.6718  0.0589
 1279SOL    HW215474   0.931   0.162  16.116 -2.1599 -0.2995 -2.1873
 1280SOL     OW15475   1.052   1.479   6.487  0.1605 -0.5441  0.5902
 1280SOL    HW115476   0.989   1.544   6.520 -0.0706 -2.0014  3.0103
 1280SOL    HW215477   0.995   1.407   6.462 -0.4271 -0.1234  0.6991
 1281SOL     OW15478   3.708   1.581   5.151 -0.3563  0.5949  0.0262
 1281SOL    HW115479   3.763   1.636   5.208 -1.5980  1.4523  0.3937
 1281SOL    HW215480   3.701   1.649   5.084 -0.6689  0.8556  0.3224
 1282SOL     OW15481   3.271   0.200   6.480 -0.1569 -0.3115  0.1118
 1282SOL    HW115482   3.355   0.214   6.437 -0.0418  2.1447  1.1446
 1282SOL    HW215483   3.228   0.282   6.454  0.1867 -0.6084 -1.3842
 1283SOL     OW15484   3.755   4.576   8.696 -0.1902  0.3339 -0.2933
 1283SOL    HW115485   3.671   4.563   8.651 -0.4220  2.7427 -0.5347
 1283SOL    HW215486   3.739   4.664   8.728  3.2501  1.5547 -1.9289
 1284SOL     OW15487   4.051   3.599   6.036 -0.5290 -0.6738  0.6558
 1284SOL    HW115488   4.059   3.662   6.108 -0.3659 -0.9675  0.8952
 1284SOL    HW215489   4.111   3.534   6.072 -1.2678 -1.4826  0.4359
 1285SOL     OW15490   2.475   4.120  16.151  0.6843  0.2342 -0.3756
 1285SOL    HW115491   2.511   4.208  16.136  0.9823 -0.0654 -1.4450
 1285SOL    HW215492   2.398   4.131  16.096 -0.0891 -0.5244  0.5666
 1286SOL     OW15493   2.324   2.690   3.759 -0.1502  0.1706  0.4995
 1286SOL    HW115494   2.280   2.721   3.839  2.3737  0.7118  1.6859
 1286SOL    HW215495   2.411   2.731   3.764 -0.1093  0.2529 -1.1991
 1287SOL     OW15496   0.569   4.489   2.694 -0.4544  0.4260  0.0248
 1287SOL    HW115497   0.574   4.582   2.716  0.2071  0.3417  0.2322
 1287SOL    HW215498   0.491   4.486   2.639  0.0999  0.3342 -0.7446
 1288SOL     OW15499   4.285   0.004   6.072 -0.3204 -0.2784 -0.2073
 1288SOL    HW115500   4.281   0.094   6.103  0.5003 -0.4996  0.5336
 1288SOL    HW215501   4.263   4.709   6.159 -1.4999  0.3225 -0.2998
 1289SOL     OW15502   4.065   2.375  13.384 -0.2547  0.0360  0.1911
 1289SOL    HW115503   3.973   2.385  13.410  0.0780  1.7918  0.7050
 1289SOL    HW215504   4.067   2.378  13.289 -0.5605  0.8825  0.2151
 1290SOL     OW15505   4.350   2.298   5.183  0.3013 -0.0676  0.9963
 1290SOL    HW115506   4.320   2.360   5.249 -1.0625  2.6607 -2.1728
 1290SOL    HW215507   4.443   2.292   5.201  0.2266  0.2375  1.4821
 1291SOL     OW15508   4.518   0.591  10.553 -0.3210 -0.0741 -0.1008
 1291SOL    HW115509   4.532   0.574  10.646 -0.2430 -1.8554 -0.4433
 1291SOL    HW215510   4.446   0.530  10.537 -1.5213  1.2851  0.1448
 1292SOL     OW15511   0.138   3.903   8.591  0.1242 -0.0880 -0.4942
 1292SOL    HW115512   0.085   3.905   8.671 -0.7570  1.2429 -1.0978
 1292SOL    HW215513   0.126   3.981   8.536 -2.7395  0.6599  1.1458
 1293SOL     OW15514   1.766   1.449  14.826 -0.1409 -0.0174 -0.0607
 1293SOL    HW115515   1.700   1.422  14.889  0.9691  1.5578  1.7603
 1293SOL    HW215516   1.827   1.499  14.879  1.1095 -0.8334 -0.7100
 1294SOL     OW15517   2.449   0.894   1.872 -0.4693  0.4418 -0.1483
 1294SOL    HW115518   2.532   0.925   1.909  0.2230 -2.2545  0.5515
 1294SOL    HW215519   2.457   0.922   1.781 -1.9682  1.3300 -0.0018
 1295SOL     OW15520   4.426   1.220   4.991 -0.0032  0.5943  0.4649
 1295SOL    HW115521   4.517   1.222   4.960  0.2419  0.6516  1.1957
 1295SOL    HW215522   4.443   1.246   5.081 -1.0716  0.2998  0.7492
 1296SOL     OW15523   1.829   4.333   9.912 -0.3369  0.4844  0.2266
 1296SOL    HW115524   1.752   4.283   9.886  0.6618 -0.1631 -1.4453
 1296SOL    HW215525   1.888   4.287   9.853 -1.0515 -1.8463  1.3132
 1297SOL     OW15526   2.327   1.698   0.709  0.8304 -0.5912  0.1468
 1297SOL    HW115527   2.271   1.650   0.648 -1.8927  2.0575  0.5884
 1297SOL    HW215528   2.408   1.647   0.703  0.7599 -1.1606  4.3819
 1298SOL     OW15529   2.969   1.711  12.157 -0.1580  0.2792  0.0383
 1298SOL    HW115530   2.994   1.769  12.085 -0.4285 -1.5727 -1.5562
 1298SOL    HW215531   3.039   1.647  12.141  1.1865  1.8381 -0.2600
 1299SOL     OW15532   3.866   0.167   7.579 -0.0001 -0.3614 -0.3397
 1299SOL    HW115533   3.905   0.244   7.621 -1.2166  0.0722  0.0086
 1299SOL    HW215534   3.867   0.106   7.653  0.1971 -0.5137 -0.4683
 1300SOL     OW15535   4.723   1.812  11.044  0.9225  0.0977 -0.2589
 1300SOL    HW115536   0.064   1.839  10.993  2.0655 -1.5871  0.6080
 1300SOL    HW215537   4.670   1.892  11.055  2.0397  0.5998  1.3581
 1301SOL     OW15538   4.222   4.135   4.477 -0.2045 -0.5402  0.2350
 1301SOL    HW115539   4.298   4.082   4.498 -0.0206  0.1715  1.3865
 1301SOL    HW215540   4.169   4.117   4.555  0.3544  0.9213  0.9640
 1302SOL     OW15541   0.956   3.552   4.984 -0.1108  0.6149  0.1347
 1302SOL    HW115542   0.904   3.482   5.024  0.1877  0.9524  1.1108
 1302SOL    HW215543   0.949   3.614   5.056 -0.0975  1.0901 -0.2719
 1303SOL     OW15544   2.821   2.325   4.392  0.8324  0.0074 -0.0299
 1303SOL    HW115545   2.851   2.391   4.330 -3.6335 -0.0370 -2.2152
 1303SOL    HW215546   2.726   2.324   4.389  0.7213  2.4433  2.5960
 1304SOL     OW15547   3.030   1.410   9.716 -0.4342 -0.2204 -0.4281
 1304SOL    HW115548   2.998   1.400   9.806 -0.4252 -0.6150 -0.4692
 1304SOL    HW215549   3.074   1.494   9.732 -0.5451  0.1565 -2.1221
 1305SOL     OW15550   3.248   3.571   2.096  0.0484  0.5283  0.0448
 1305SOL    HW115551   3.207   3.560   2.011 -1.1015  1.1855  0.5130
 1305SOL    HW215552   3.256   3.479   2.119  2.4985  0.1896 -2.2157
 1306SOL     OW15553   4.433   0.017  10.027 -0.0328 -0.5728  0.1934
 1306SOL    HW115554   4.517   0.055  10.052  0.2847 -1.4983  0.5342
 1306SOL    HW215555   4.437   4.659  10.047 -0.2389 -0.7380 -0.5402
 1307SOL     OW15556   2.651   3.152   7.583 -0.1479  0.2610 -0.0961
 1307SOL    HW115557   2.722   3.114   7.532  0.4152 -1.0377  1.6336
 1307SOL    HW215558   2.687   3.138   7.671 -1.7655 -1.1911  0.3301
 1308SOL     OW15559   1.684   1.468   2.878  0.2719 -0.3488  0.3967
 1308SOL    HW115560   1.743   1.540   2.856  1.5057 -1.5593 -0.2269
 1308SOL    HW215561   1.715   1.400   2.818  1.3596  1.1042 -0.7055
 1309SOL     OW15562   3.257   3.470   0.680 -0.0863  0.6104  0.5335
 1309SOL    HW115563   3.316   3.397   0.699 -1.3818 -0.9398 -1.2253
 1309SOL    HW215564   3.275   3.513   0.763 -4.2167 -0.9638  2.2642
 1310SOL     OW15565   4.543   3.217   4.634  0.3460 -1.0016 -0.1086
 1310SOL    HW115566   4.528   3.191   4.725  1.1731  1.2420  0.6594
 1310SOL    HW215567   4.473   3.179   4.582  0.1842  3.6544 -3.3005
 1311SOL     OW15568   3.709   2.723  12.070 -0.6228  0.9581  0.0988
 1311SOL    HW115569   3.705   2.791  12.137 -0.5668 -0.3722  1.4233
 1311SOL    HW215570   3.690   2.788  12.002 -2.7031  1.4357  1.1588
 1312SOL     OW15571   4.526   0.700  14.560  0.1734  0.2335  0.4040
 1312SOL    HW115572   4.460   0.766  14.541  0.1950  0.3021  0.5710
 1312SOL    HW215573   4.547   0.669  14.471 -0.4789  0.7429  0.0765
 1313SOL     OW15574   2.234   1.926   8.909  0.6389 -0.8203  0.5852
 1313SOL    HW115575   2.294   1.865   8.953  1.5530 -1.4770 -1.5515
 1313SOL    HW215576   2.292   1.998   8.885 -0.4944 -0.4102 -0.8788
 1314SOL     OW15577   2.397   2.796  16.802 -0.2970  0.0715 -0.1512
 1314SOL    HW115578   2.368   2.709  16.828 -1.0757  0.6957  1.0410
 1314SOL    HW215579   2.484   2.774  16.768 -1.4463 -0.7358 -2.5859
 1315SOL     OW15580   1.347   3.840   4.555 -0.1283 -0.3258  0.6006
 1315SOL    HW115581   1.263   3.830   4.600  0.3503  1.7968  1.9342
 1315SOL    HW215582   1.319   3.858   4.465 -0.3658  1.4033  1.0200
 1316SOL     OW15583   1.061   2.854   7.524  0.1740  0.2561  0.2018
 1316SOL    HW115584   1.122   2.878   7.594  2.2179  0.7412 -1.7117
 1316SOL    HW215585   0.986   2.894   7.568  0.2896  2.2588 -1.4020
 1317SOL     OW15586   2.014   1.106   5.428  0.1100  0.0602  0.2879
 1317SOL    HW115587   1.990   1.061   5.347  2.1817 -0.6529  0.0777
 1317SOL    HW215588   2.109   1.097   5.435 -0.1410 -1.8375  1.2458
 1318SOL     OW15589   3.868   4.662   4.481 -0.3803  0.6379 -0.0635
 1318SOL    HW115590   3.889   0.019   4.470 -0.5654  0.9062  1.7292
 1318SOL    HW215591   3.871   4.627   4.392  0.1836 -2.0399  1.0038
 1319SOL     OW15592   2.358   1.988   5.022 -0.5290 -0.2698 -0.0298
 1319SOL    HW115593   2.444   2.018   5.050 -0.8491  0.7927 -0.1466
 1319SOL    HW215594   2.314   2.073   5.028 -0.3252 -0.2005  0.4322
 1320SOL     OW15595   1.026   3.918   9.203 -0.2713  0.0078 -0.6326
 1320SOL    HW115596   1.063   3.830   9.197  2.0524  1.0503 -1.7251
 1320SOL    HW215597   0.933   3.902   9.218 -0.8364  0.6452 -3.4520
 1321SOL     OW15598   3.568   1.251   2.508 -0.5422 -0.5591  0.6570
 1321SOL    HW115599   3.521   1.169   2.524 -1.0206 -0.3139  0.5385
 1321SOL    HW215600   3.621   1.215   2.437 -0.5346 -0.8575  0.8178
 1322SOL     OW15601   3.532   4.406  15.756  0.5246 -0.2382  0.3457
 1322SOL    HW115602   3.446   4.415  15.798  1.0736 -0.9723  1.6308
 1322SOL    HW215603   3.515   4.392  15.663  0.3704  1.1011  0.1653
 1323SOL     OW15604   2.194   4.344   9.668  0.3740 -0.1583 -0.7125
 1323SOL    HW115605   2.179   4.298   9.585  1.5382  1.3294 -1.7512
 1323SOL    HW215606   2.183   4.434   9.637 -2.7940 -0.0751  0.6693
 1324SOL     OW15607   4.250   3.162   5.670  0.4016  0.1851  0.5195
 1324SOL    HW115608   4.186   3.108   5.716 -1.4952  1.0578 -1.0740
 1324SOL    HW215609   4.202   3.241   5.694  0.2733  0.3132 -0.1574
 1325SOL     OW15610   3.487   4.301   6.652 -0.4220  0.2589  0.1866
 1325SOL    HW115611   3.559   4.281   6.592  0.3451  0.4651  1.0240
 1325SOL    HW215612   3.422   4.341   6.595 -2.1461 -0.1240  1.8735
 1326SOL     OW15613   4.453   4.165   4.047  0.5479  0.1177 -0.0802
 1326SOL    HW115614   4.423   4.208   3.966 -0.8261  0.3684  0.5718
 1326SOL    HW215615   4.539   4.208   4.046  0.9091 -0.6104 -0.9239
 1327SOL     OW15616   4.566   4.558   4.028 -0.0153  0.5329  0.5433
 1327SOL    HW115617   4.621   4.549   4.106 -0.7633  1.2177  1.1593
 1327SOL    HW215618   4.610   4.501   3.966 -0.6252 -1.2222  1.7201
 1328SOL     OW15619   2.865   4.203  11.678 -0.7738 -0.0096  0.0373
 1328SOL    HW115620   2.862   4.279  11.621  0.0405 -0.5055 -0.6628
 1328SOL    HW215621   2.801   4.225  11.746 -0.2404  1.5110  0.0462
 1329SOL     OW15622   2.498   0.710   3.529  0.5787 -0.1281  0.1999
 1329SOL    HW115623   2.581   0.665   3.518  1.9177  1.9974  1.6309
 1329SOL    HW215624   2.465   0.715   3.440 -0.8645  1.4062  0.8103
 1330SOL     OW15625   3.909   4.490   2.120 -0.0422 -0.3589  0.3310
 1330SOL    HW115626   4.002   4.490   2.094  0.0712  0.3515  0.7477
 1330SOL    HW215627   3.871   4.441   2.047  0.8514  2.8925 -2.3349
 1331SOL     OW15628   0.623   0.642   7.098 -0.0768 -0.9720 -0.2524
 1331SOL    HW115629   0.620   0.721   7.044 -1.2954 -0.5584  0.4227
 1331SOL    HW215630   0.598   0.687   7.179  0.9005  1.2454 -1.1925
 1332SOL     OW15631   2.891   0.757   5.245 -0.6719 -0.0230 -0.2410
 1332SOL    HW115632   2.971   0.795   5.280 -0.0215 -1.5411 -0.0738
 1332SOL    HW215633   2.850   0.705   5.314 -0.1536  0.0862  0.1482
 1333SOL     OW15634   2.904   2.232   7.832  0.0750  0.1935  0.1862
 1333SOL    HW115635   2.848   2.294   7.785  0.9695  0.7224 -0.1900
 1333SOL    HW215636   2.990   2.268   7.807  0.8564 -0.7746  1.5029
 1334SOL     OW15637   4.367   2.562   8.078  0.3428  0.0246  0.4938
 1334SOL    HW115638   4.342   2.475   8.045  0.6666  0.5413 -1.1226
 1334SOL    HW215639   4.289   2.617   8.066  0.2397 -0.2267 -0.0114
 1335SOL     OW15640   1.605   4.576  14.077 -0.1110 -0.3323  0.0251
 1335SOL    HW115641   1.683   4.580  14.133  0.3521  0.3758 -0.6696
 1335SOL    HW215642   1.549   4.637  14.123  0.7481 -0.3211  1.0484
 1336SOL     OW15643   3.111   3.094   7.178  0.0408  0.2194  0.1920
 1336SOL    HW115644   3.148   3.022   7.229 -2.0603 -0.6989  0.4325
 1336SOL    HW215645   3.102   3.155   7.251  0.9597  0.9683 -0.3190
 1337SOL     OW15646   1.439   0.675   1.839 -0.4552 -0.1461  0.2989
 1337SOL    HW115647   1.484   0.743   1.889 -2.1599 -1.0408  3.0074
 1337SOL    HW215648   1.506   0.662   1.772 -1.8213  0.5195 -1.2072
 1338SOL     OW15649   4.390   3.112   9.278 -0.1557 -0.4130  0.2742
 1338SOL    HW115650   4.428   3.041   9.226  0.0482  0.1136 -0.2908
 1338SOL    HW215651   4.386   3.077   9.368  2.7307  1.2710  1.0605
 1339SOL     OW15652   1.865   4.224  13.033 -0.4135 -0.2798  0.3281
 1339SOL    HW115653   1.778   4.186  13.045 -0.6523  0.0902 -0.2543
 1339SOL    HW215654   1.895   4.216  13.124  2.1051  2.9514 -0.2141
 1340SOL     OW15655   0.815   1.432   2.437  0.3928 -0.1147  0.0020
 1340SOL    HW115656   0.808   1.496   2.507  0.4457 -0.0834 -0.0209
 1340SOL    HW215657   0.727   1.399   2.420  0.5614  0.4736 -2.1113
 1341SOL     OW15658   4.030   2.307   0.257 -0.2680  0.0240  0.1032
 1341SOL    HW115659   4.057   2.227   0.211  1.5861 -0.6313  2.3154
 1341SOL    HW215660   3.960   2.347   0.205 -1.7115 -0.5743  1.5911
 1342SOL     OW15661   3.618   2.331   5.888  0.0241 -0.6790  0.1792
 1342SOL    HW115662   3.534   2.292   5.911  0.1677 -1.0952  0.0106
 1342SOL    HW215663   3.627   2.390   5.962  1.5693 -0.0083 -0.5515
 1343SOL     OW15664   1.728   0.429   1.780 -0.3231  0.0626  0.4268
 1343SOL    HW115665   1.766   0.481   1.851 -1.6893  1.7952 -0.1319
 1343SOL    HW215666   1.717   0.345   1.825  1.8954  1.0475  2.7946
 1344SOL     OW15667   1.694   1.433  11.659  1.1523  0.5692 -0.5017
 1344SOL    HW115668   1.757   1.367  11.686 -0.8476 -0.3711  1.8800
 1344SOL    HW215669   1.698   1.475  11.745  2.3049 -0.6810  0.0597
 1345SOL     OW15670   0.080   3.554   6.300  0.2131  0.1002 -0.3893
 1345SOL    HW115671   0.016   3.488   6.275 -0.7614  1.7562 -2.3331
 1345SOL    HW215672   0.148   3.553   6.232  2.1558 -0.8498  1.5645
 1346SOL     OW15673   3.963   0.257  10.752 -0.4491  0.1482 -0.0093
 1346SOL    HW115674   4.041   0.311  10.759  1.3318 -2.8171  3.4794
 1346SOL    HW215675   4.012   0.175  10.743 -0.0037  0.8245 -3.4560
 1347SOL     OW15676   3.214   1.301   2.169  0.0641 -0.7217  0.2431
 1347SOL    HW115677   3.132   1.260   2.196  1.4907 -2.0186  2.6244
 1347SOL    HW215678   3.230   1.265   2.082  0.8281 -0.5542  0.3129
 1348SOL     OW15679   4.138   3.681   1.145  0.7379  0.3617  0.0246
 1348SOL    HW115680   4.055   3.678   1.098  0.1043 -0.2691  1.1903
 1348SOL    HW215681   4.145   3.771   1.176 -0.8552  0.3803  0.3492
 1349SOL     OW15682   3.683   0.014  16.243  0.0568 -0.1324  0.0209
 1349SOL    HW115683   3.655   0.105  16.231 -0.9714 -0.6426 -1.4712
 1349SOL    HW215684   3.701   0.015  16.337  1.2240 -0.4455 -0.2114
 1350SOL     OW15685   2.856   2.965   7.103 -0.3197 -0.7958  0.2851
 1350SOL    HW115686   2.908   3.000   7.030  0.5921 -0.1884  1.2337
 1350SOL    HW215687   2.767   2.977   7.069  0.1928  2.2407  0.0246
 1351SOL     OW15688   1.437   3.527   5.144  0.6382 -0.1208 -0.3141
 1351SOL    HW115689   1.447   3.432   5.137 -0.8084 -0.5492  3.4099
 1351SOL    HW215690   1.494   3.567   5.078  3.8918 -2.0735  1.2670
 1352SOL     OW15691   3.415   2.629  17.482  0.8905 -0.5610 -0.6722
 1352SOL    HW115692   3.424   2.544  17.526 -0.5380 -0.9554 -1.1675
 1352SOL    HW215693   3.365   2.680  17.546 -1.8558 -2.7199 -1.1060
 1353SOL     OW15694   3.774   1.294  10.283  0.1023  0.0312 -0.2786
 1353SOL    HW115695   3.754   1.216  10.336 -0.5727  0.0528 -0.5059
 1353SOL    HW215696   3.860   1.324  10.312 -1.0976 -0.5018  3.9238
 1354SOL     OW15697   1.857   1.807   2.434  0.1542 -0.1339  0.3499
 1354SOL    HW115698   1.900   1.722   2.437 -0.6042 -0.5027  1.0791
 1354SOL    HW215699   1.800   1.806   2.511  0.5584 -0.2785  0.6495
 1355SOL     OW15700   2.320   3.770  13.595 -0.5504 -0.0651 -0.4847
 1355SOL    HW115701   2.264   3.815  13.532 -1.0119  3.3644  2.3916
 1355SOL    HW215702   2.337   3.836  13.662  0.4744  0.3338 -1.1489
 1356SOL     OW15703   3.632   3.807   7.512 -0.2758 -0.0056  0.1626
 1356SOL    HW115704   3.672   3.890   7.536 -0.0666 -0.2420  0.6355
 1356SOL    HW215705   3.569   3.830   7.444  1.8754  0.9705 -1.4972
 1357SOL     OW15706   2.122   1.626  16.162  0.6745 -0.4705 -0.1387
 1357SOL    HW115707   2.194   1.589  16.213  1.3425 -0.6068 -1.1696
 1357SOL    HW215708   2.086   1.701  16.210  0.4136  0.6902 -2.1355
 1358SOL     OW15709   0.227   1.697  14.244  0.1430 -0.5043  0.5149
 1358SOL    HW115710   0.265   1.747  14.172  1.6234 -2.2351  0.0891
 1358SOL    HW215711   0.306   1.657  14.281  2.0584  0.7582 -2.2244
 1359SOL     OW15712   0.190   1.921  17.696  0.7053  0.4135 -0.9453
 1359SOL    HW115713   0.230   2.007  17.682 -1.3675  1.6322  0.6300
 1359SOL    HW215714   0.098   1.945  17.704  0.7173 -0.2304  1.3304
 1360SOL     OW15715   0.116   0.575  10.275  0.6018 -0.3428 -0.5327
 1360SOL    HW115716   0.149   0.522  10.203  2.4665 -2.3855  1.8088
 1360SOL    HW215717   0.176   0.649  10.272 -0.0719  0.2824  1.1272
 1361SOL     OW15718   4.023   4.300   9.048  0.1688 -0.2987 -0.4104
 1361SOL    HW115719   3.970   4.221   9.044  1.5860 -1.1840 -1.7607
 1361SOL    HW215720   3.987   4.360   8.983 -0.3032  2.1518  2.1397
 1362SOL     OW15721   3.109   4.058   4.963  0.4788  0.1017  0.4522
 1362SOL    HW115722   3.121   3.984   5.023 -1.1612  0.8122  1.6551
 1362SOL    HW215723   3.113   4.012   4.879 -1.5253  0.4252  0.1762
 1363SOL     OW15724   0.239   4.320   4.959 -0.4802 -0.1536  0.1541
 1363SOL    HW115725   0.237   4.280   5.046  3.0897 -2.3111 -0.7609
 1363SOL    HW215726   0.185   4.398   4.967 -0.0857  0.2902 -1.4767
 1364SOL     OW15727   3.854   2.685  12.718  0.6927  0.2013  0.5362
 1364SOL    HW115728   3.922   2.742  12.684 -0.3463 -0.1768 -2.1665
 1364SOL    HW215729   3.804   2.758  12.755  0.5162  0.2187  0.2610
 1365SOL     OW15730   2.182   3.872  14.586  0.0409 -0.2364  0.1570
 1365SOL    HW115731   2.205   3.849  14.676  2.6272  2.5526  0.1952
 1365SOL    HW215732   2.088   3.859  14.592  0.3733 -1.9316  1.8621
 1366SOL     OW15733   2.968   3.808  17.263 -0.6229 -0.3189  0.3010
 1366SOL    HW115734   3.057   3.794  17.295 -0.5602 -0.2814  0.1426
 1366SOL    HW215735   2.930   3.831  17.348  1.1847  3.0808  0.2103
 1367SOL     OW15736   1.315   3.122   7.274 -0.2670  0.1614  0.7597
 1367SOL    HW115737   1.392   3.125   7.218 -0.3917 -1.2528  0.5006
 1367SOL    HW215738   1.242   3.147   7.217 -0.3438 -0.0194  0.7799
 1368SOL     OW15739   1.848   3.457  17.610  0.5034 -0.1828  0.2328
 1368SOL    HW115740   1.802   3.376  17.634 -1.4620  0.5229 -1.1437
 1368SOL    HW215741   1.938   3.426  17.604  0.5837 -0.0637  0.7930
 1369SOL     OW15742   0.035   3.933   8.165  0.0830  1.0014 -0.2493
 1369SOL    HW115743   0.093   3.921   8.090  1.3948  0.7061  0.8092
 1369SOL    HW215744   0.105   3.955   8.226  0.1103 -0.0212  0.0914
 1370SOL     OW15745   3.776   3.241   0.082  0.6312  0.2731 -0.2300
 1370SOL    HW115746   3.700   3.193   0.050 -0.8985  1.9482  0.8912
 1370SOL    HW215747   3.844   3.182   0.049 -0.3476 -2.6585  3.1313
 1371SOL     OW15748   3.430   1.871   0.293  0.2755 -0.6171  0.8721
 1371SOL    HW115749   3.516   1.902   0.323  0.5488 -1.0327  0.5308
 1371SOL    HW215750   3.370   1.945   0.288 -1.4470 -2.1805 -1.3410
 1372SOL     OW15751   2.151   2.349  17.246  0.1765  0.3391  0.0178
 1372SOL    HW115752   2.195   2.277  17.292 -1.0995 -0.5223 -0.1316
 1372SOL    HW215753   2.078   2.347  17.308  0.1385 -0.4928 -0.0485
 1373SOL     OW15754   3.298   4.013   3.441 -0.1986 -0.0390  0.2426
 1373SOL    HW115755   3.317   4.066   3.364  0.5564 -1.3307 -0.4669
 1373SOL    HW215756   3.228   3.955   3.411  0.3314  1.1203 -3.2270
 1374SOL     OW15757   2.193   2.236   7.962  0.0326  0.1005 -0.3139
 1374SOL    HW115758   2.172   2.190   8.043  0.4976  0.2301 -0.1152
 1374SOL    HW215759   2.193   2.326   7.995 -1.2986 -0.5586  1.4427
 1375SOL     OW15760   0.193   2.629  17.567 -0.5677 -0.5390 -0.3181
 1375SOL    HW115761   0.118   2.675  17.605  0.3581 -0.3108  1.2350
 1375SOL    HW215762   0.225   2.702  17.514  2.3343 -1.9048 -0.4750
 1376SOL     OW15763   1.556   4.615   9.502  0.1449  0.1722  0.2079
 1376SOL    HW115764   1.549   4.667   9.422  1.1386 -0.7305 -0.4680
 1376SOL    HW215765   1.630   4.555   9.492  1.1270  1.4088 -0.0686
 1377SOL     OW15766   1.830   1.033   2.107  0.3763  0.0720 -0.0566
 1377SOL    HW115767   1.888   1.000   2.175 -1.8004 -1.8212  0.8830
 1377SOL    HW215768   1.775   1.091   2.159  2.1196  0.3653  1.4325
 1378SOL     OW15769   4.697   0.479   7.129  0.6467  0.2904 -0.2480
 1378SOL    HW115770   4.728   0.503   7.216  0.3475  0.1452 -0.1017
 1378SOL    HW215771   4.603   0.480   7.147  1.1311  1.3813  2.1794
 1379SOL     OW15772   1.774   0.147   3.823 -0.3427 -0.1759 -0.3443
 1379SOL    HW115773   1.722   0.193   3.889 -0.6280  0.7706 -1.2261
 1379SOL    HW215774   1.800   0.217   3.763 -2.3719  1.2682  0.4820
 1380SOL     OW15775   3.539   4.548   1.426 -0.0580  0.3964  0.2501
 1380SOL    HW115776   3.546   4.585   1.514 -0.5616  1.3346 -0.1079
 1380SOL    HW215777   3.464   4.491   1.443  0.2554 -0.2191 -0.3923
 1381SOL     OW15778   2.069   2.412  16.459 -0.3450  0.4138  0.7121
 1381SOL    HW115779   2.086   2.331  16.508 -2.9149 -0.2054  0.5649
 1381SOL    HW215780   2.134   2.394  16.391  0.3182  1.1722  1.1477
 1382SOL     OW15781   4.617   1.815   8.476  0.5552 -0.0782  0.2382
 1382SOL    HW115782   4.642   1.873   8.403  2.4559 -1.5963 -0.3397
 1382SOL    HW215783   4.560   1.864   8.535 -1.1290 -1.1897 -0.4753
 1383SOL     OW15784   0.683   0.130   8.940  0.1292  0.5620 -0.5253
 1383SOL    HW115785   0.627   0.116   9.017 -0.4284  1.8031 -0.7117
 1383SOL    HW215786   0.737   0.204   8.969  0.3901  0.3106 -0.3663
 1384SOL     OW15787   3.942   2.872   1.340 -0.0443  0.4997 -0.3147
 1384SOL    HW115788   3.888   2.902   1.414 -0.5404  0.9820 -0.8782
 1384SOL    HW215789   3.911   2.782   1.329 -1.1323  0.6591  1.4080
 1385SOL     OW15790   4.049   0.580   5.995  0.3465  0.1637  0.0275
 1385SOL    HW115791   4.117   0.533   5.946 -0.9547 -1.0444 -0.6480
 1385SOL    HW215792   4.102   0.648   6.035  0.0201  0.2392  0.3376
 1386SOL     OW15793   1.810   3.726   0.570  0.2210 -0.0924  0.2376
 1386SOL    HW115794   1.785   3.744   0.480  1.9490  3.4900  0.4549
 1386SOL    HW215795   1.895   3.682   0.561 -1.2587 -2.5362 -1.5991
 1387SOL     OW15796   2.087   0.014   2.732 -0.1791  0.0989 -0.2389
 1387SOL    HW115797   2.178   0.044   2.728  0.6673 -2.4535 -0.1909
 1387SOL    HW215798   2.085   4.689   2.658  1.9299  0.4802 -0.6247
 1388SOL     OW15799   3.374   3.833   8.917  0.2993 -0.1251  0.2717
 1388SOL    HW115800   3.421   3.755   8.949  0.2826 -0.7440 -1.2221
 1388SOL    HW215801   3.297   3.794   8.876  0.6183 -0.3020 -0.1517
 1389SOL     OW15802   0.497   4.491   1.359 -0.4316 -0.4667 -0.9673
 1389SOL    HW115803   0.592   4.498   1.348 -0.3777 -1.2675 -1.0587
 1389SOL    HW215804   0.465   4.503   1.269  0.5858 -0.2686 -1.2982
 1390SOL     OW15805   2.575   1.956   7.250  0.4168 -0.1965  0.9501
 1390SOL    HW115806   2.514   2.029   7.262  0.8532  0.3887 -0.4371
 1390SOL    HW215807   2.634   1.973   7.323 -0.9202 -0.1351  2.0358
 1391SOL     OW15808   4.046   0.415   7.423 -0.0259  0.3322 -0.2174
 1391SOL    HW115809   4.039   0.429   7.329 -2.0173  0.2991 -0.0764
 1391SOL    HW215810   4.139   0.392   7.425  0.1249  0.7642 -2.5520
 1392SOL     OW15811   1.978   0.352  16.844  0.1766  0.1723  1.0184
 1392SOL    HW115812   1.944   0.421  16.902 -1.1801  0.5071 -0.1486
 1392SOL    HW215813   2.065   0.386  16.824 -0.0891  1.3934  1.9344
 1393SOL     OW15814   4.204   0.919   4.522  0.2369 -0.1205 -0.1508
 1393SOL    HW115815   4.203   0.994   4.462 -0.7526  0.8426  1.0789
 1393SOL    HW215816   4.180   0.854   4.455 -0.4705 -0.2748  0.2519
 1394SOL     OW15817   3.890   0.687   8.591  0.6164 -0.0660  0.1087
 1394SOL    HW115818   3.924   0.724   8.510 -0.8334  2.4011  0.6451
 1394SOL    HW215819   3.960   0.628   8.619  0.8013  0.6290  1.1118
 1395SOL     OW15820   3.512   2.966   8.190 -0.6268  0.0590  0.2536
 1395SOL    HW115821   3.468   3.045   8.158  1.4775  0.8364 -0.6856
 1395SOL    HW215822   3.573   2.958   8.117 -1.3503  0.5972 -0.4020
 1396SOL     OW15823   3.354   3.702   0.471  0.6146  0.2516 -0.5096
 1396SOL    HW115824   3.440   3.729   0.439  0.5918  1.0779  0.1477
 1396SOL    HW215825   3.384   3.640   0.537  1.5502  0.8095 -0.4109
 1397SOL     OW15826   0.369   1.189   8.713  0.4005 -0.4379  0.3231
 1397SOL    HW115827   0.380   1.264   8.654  1.5139 -0.2204  0.8118
 1397SOL    HW215828   0.299   1.223   8.768 -0.8389 -0.2828 -1.3544
 1398SOL     OW15829   3.209   3.427   7.703 -0.0153  0.1678 -0.0896
 1398SOL    HW115830   3.268   3.408   7.630  1.3635 -2.5072  1.7220
 1398SOL    HW215831   3.232   3.519   7.718  0.2651  0.0382  0.2602
 1399SOL     OW15832   1.538   1.688   2.215 -0.0910  0.6171 -0.6642
 1399SOL    HW115833   1.598   1.615   2.203 -0.4216  0.6236 -2.3562
 1399SOL    HW215834   1.546   1.695   2.311  0.2204 -3.0642 -0.4522
 1400SOL     OW15835   4.537   0.533  10.843 -0.5733 -0.9882 -0.4242
 1400SOL    HW115836   4.628   0.504  10.853 -0.5366 -0.8314 -0.3166
 1400SOL    HW215837   4.514   0.551  10.934  1.0865 -0.0026 -0.1977
 1401SOL     OW15838   4.396   2.879  11.848 -0.5361  0.5910  0.0496
 1401SOL    HW115839   4.313   2.832  11.843  0.2769 -0.9149  0.3959
 1401SOL    HW215840   4.406   2.888  11.943 -0.8795 -0.6911  0.2123
 1402SOL     OW15841   1.323   2.034   7.246 -0.1806 -0.3166 -0.0696
 1402SOL    HW115842   1.336   2.065   7.336  0.9295 -0.0266 -0.3296
 1402SOL    HW215843   1.313   1.940   7.257 -2.0865 -0.1296 -0.1101
 1403SOL     OW15844   2.114   0.306   4.890  0.4980  0.1493  0.1143
 1403SOL    HW115845   2.164   0.278   4.814  2.3194 -0.0737  1.3828
 1403SOL    HW215846   2.055   0.231   4.884 -1.8745  2.3080 -2.9663
 1404SOL     OW15847   0.441   4.335   4.614  0.4018  0.4169  0.3980
 1404SOL    HW115848   0.464   4.420   4.652 -0.4264  0.9255 -0.2234
 1404SOL    HW215849   0.515   4.284   4.646  0.6523  0.4175 -0.1748
 1405SOL     OW15850   4.086   4.210   8.213 -0.7259 -0.2359 -0.1837
 1405SOL    HW115851   4.164   4.154   8.216  0.1021  0.8915 -0.8460
 1405SOL    HW215852   4.017   4.147   8.235 -1.6565  0.8063 -0.1620
 1406SOL     OW15853   3.511   0.894  11.058 -0.0118 -0.1623 -0.2883
 1406SOL    HW115854   3.552   0.955  11.120 -1.7854 -0.9038  1.6268
 1406SOL    HW215855   3.565   0.909  10.980  0.2240  2.4135  0.3594
 1407SOL     OW15856   3.542   2.007   3.587 -0.2907 -0.4467  0.3563
 1407SOL    HW115857   3.550   2.078   3.650 -2.2551 -1.3251  1.5610
 1407SOL    HW215858   3.625   1.961   3.604  0.7758  2.0435  1.8915
 1408SOL     OW15859   4.088   1.025   3.502  0.1862 -0.5227  0.1075
 1408SOL    HW115860   4.048   0.945   3.467 -1.7080  0.7834 -0.7146
 1408SOL    HW215861   4.093   1.005   3.596  0.6079 -2.0385 -0.2318
 1409SOL     OW15862   3.783   1.776   2.365 -0.2877 -0.0534 -0.1643
 1409SOL    HW115863   3.765   1.722   2.289 -0.8743  0.6444 -0.5259
 1409SOL    HW215864   3.707   1.762   2.422 -0.2850 -1.2257 -0.4636
 1410SOL     OW15865   1.623   0.708   4.588 -0.1843 -0.2529  0.3267
 1410SOL    HW115866   1.593   0.671   4.671 -1.2729 -1.2791 -0.5335
 1410SOL    HW215867   1.667   0.782   4.629 -0.0876 -1.7561  2.9495
 1411SOL     OW15868   2.626   2.470   6.992 -0.5029 -0.1876 -0.0868
 1411SOL    HW115869   2.693   2.533   6.966 -1.5040  0.8875 -0.0564
 1411SOL    HW215870   2.678   2.401   7.033 -0.3950  0.3421  0.6729
 1412SOL     OW15871   0.916   0.398  17.500  0.3154  0.3185 -0.0299
 1412SOL    HW115872   0.859   0.321  17.508 -0.9085  1.3738  1.5164
 1412SOL    HW215873   0.968   0.362  17.428 -0.1739 -0.2337 -0.1077
 1413SOL     OW15874   3.233   2.200   9.596 -0.4907 -0.2557 -0.0953
 1413SOL    HW115875   3.225   2.284   9.551 -2.0734  0.7648  2.1553
 1413SOL    HW215876   3.169   2.147   9.547  1.4914 -1.3282 -1.5397
 1414SOL     OW15877   0.124   3.662   4.901 -0.4187  0.5587  0.2360
 1414SOL    HW115878   0.197   3.681   4.960 -0.4410  1.6375 -0.0717
 1414SOL    HW215879   0.169   3.681   4.819  1.7958 -3.3130  0.5956
 1415SOL     OW15880   3.460   2.380  17.600  0.7697 -0.0647 -0.4599
 1415SOL    HW115881   3.458   2.363  17.694 -1.2270  1.4817 -0.2126
 1415SOL    HW215882   3.397   2.312  17.575 -0.0830  0.3860  0.4685
 1416SOL     OW15883   1.804   1.890   7.534  0.1205 -0.2688  0.3373
 1416SOL    HW115884   1.856   1.944   7.474 -1.8186  1.2602  0.0422
 1416SOL    HW215885   1.727   1.875   7.478  1.3051 -1.9631 -0.8477
 1417SOL     OW15886   2.306   4.664   3.982  0.4049  0.4604  0.9419
 1417SOL    HW115887   2.358   4.602   4.033  0.2736 -0.7893 -0.4724
 1417SOL    HW215888   2.373   4.713   3.933 -0.8894  0.7307 -0.5458
 1418SOL     OW15889   3.158   1.680   5.976 -0.2436 -0.0801 -0.3916
 1418SOL    HW115890   3.107   1.602   5.957 -0.7358  0.2925 -0.6077
 1418SOL    HW215891   3.213   1.654   6.050  0.6080 -1.1767 -1.4108
 1419SOL     OW15892   4.527   4.409   0.866  0.2130  0.4743  0.0050
 1419SOL    HW115893   4.606   4.385   0.818  1.1461  1.3440  1.1348
 1419SOL    HW215894   4.578   4.442   0.940 -0.9893  1.9213  0.1935
 1420SOL     OW15895   2.806   2.681   6.896  0.2519  0.0841  0.7242
 1420SOL    HW115896   2.875   2.676   6.829  0.2735  2.3657  0.5546
 1420SOL    HW215897   2.834   2.748   6.959  0.3551 -1.3000  2.1390
 1421SOL     OW15898   4.330   2.872   5.980  0.0948  0.2151  0.4812
 1421SOL    HW115899   4.376   2.793   5.951 -0.8999 -0.7035  1.4160
 1421SOL    HW215900   4.397   2.941   5.980 -0.1354  0.4454  2.0017
 1422SOL     OW15901   0.378   1.395   8.579  0.1007 -0.3407  0.2417
 1422SOL    HW115902   0.374   1.397   8.483  0.9700 -0.7618  0.1995
 1422SOL    HW215903   0.361   1.488   8.596  1.4300 -0.1669  0.6328
 1423SOL     OW15904   1.529   3.048   2.201 -0.8141  0.3424  0.3304
 1423SOL    HW115905   1.553   3.134   2.236  0.5734  0.4276 -0.8561
 1423SOL    HW215906   1.546   3.078   2.112  1.0936 -2.4976 -0.2512
 1424SOL     OW15907   4.351   1.282  15.829 -0.1957 -0.2041 -0.4165
 1424SOL    HW115908   4.388   1.211  15.777 -0.6898 -0.4148 -0.4814
 1424SOL    HW215909   4.383   1.357  15.779 -0.1126  0.2712  0.3475
 1425SOL     OW15910   4.658   1.119   7.784 -0.0612  0.1524  0.2571
 1425SOL    HW115911   4.607   1.147   7.708  0.1314 -2.0338 -0.6841
 1425SOL    HW215912   4.660   1.193   7.844 -0.7891 -0.7492  1.4184
 1426SOL     OW15913   3.601   2.421   5.185 -0.0124  0.1959  0.1062
 1426SOL    HW115914   3.626   2.334   5.154  0.3432  0.5465 -0.5952
 1426SOL    HW215915   3.645   2.427   5.270  0.2782  0.4506 -0.0641
 1427SOL     OW15916   1.708   0.062   3.022 -0.6154 -0.6784  0.6482
 1427SOL    HW115917   1.803   0.057   3.018 -0.7416 -0.1335 -2.5848
 1427SOL    HW215918   1.683   0.002   3.093 -0.5154 -2.3515 -0.7112
 1428SOL     OW15919   0.009   1.780   8.104  0.7280 -0.4873 -0.5051
 1428SOL    HW115920   4.714   1.859   8.148  2.6100  1.0267 -1.8964
 1428SOL    HW215921   4.666   1.779   8.050  0.0818  0.5974  0.4299
 1429SOL     OW15922   4.423   0.346   7.983  0.1905 -0.1053 -0.5043
 1429SOL    HW115923   4.392   0.360   8.073  1.9341  2.0628 -0.2240
 1429SOL    HW215924   4.455   0.435   7.964  2.0553 -0.7818 -0.4865
 1430SOL     OW15925   2.917   4.617  13.389 -0.1308  0.1196 -0.6598
 1430SOL    HW115926   2.857   4.546  13.365  1.2469 -1.2140 -0.2403
 1430SOL    HW215927   2.860   4.693  13.378  1.2965  1.3573  0.5206
 1431SOL     OW15928   2.117   4.403   0.240  0.7219  0.0937  0.1992
 1431SOL    HW115929   2.131   4.349   0.161 -3.3744  0.3464 -0.7070
 1431SOL    HW215930   2.161   4.353   0.309  0.3741  0.3227  0.5825
 1432SOL     OW15931   2.264   1.426   6.760 -0.0717  0.4670 -0.7642
 1432SOL    HW115932   2.275   1.459   6.849 -0.4840  2.2628 -1.3802
 1432SOL    HW215933   2.169   1.437   6.753 -0.4134 -1.8722  0.2496
 1433SOL     OW15934   0.690   3.579   6.098  0.5377  0.0026  0.2836
 1433SOL    HW115935   0.704   3.607   6.188  0.3781 -0.8665  0.5715
 1433SOL    HW215936   0.712   3.659   6.050  2.4352  0.2489  1.5586
 1434SOL     OW15937   3.298   1.305   6.330  0.2281  0.5456 -0.4931
 1434SOL    HW115938   3.282   1.225   6.379 -0.3147  0.5497 -0.6601
 1434SOL    HW215939   3.393   1.305   6.343  0.2775 -0.3965 -0.8398
 1435SOL     OW15940   0.820   2.620   9.991 -0.5853 -0.8775 -0.3185
 1435SOL    HW115941   0.863   2.539  10.018 -0.3231  0.2437  2.6334
 1435SOL    HW215942   0.762   2.580   9.926 -2.9722  3.1742 -0.6828
 1436SOL     OW15943   3.709   0.126   8.793 -0.3772 -0.2061 -0.4893
 1436SOL    HW115944   3.741   0.192   8.731  0.4610  1.1518  1.3652
 1436SOL    HW215945   3.734   0.151   8.882 -1.8770 -2.8870  0.6845
 1437SOL     OW15946   4.108   3.221   9.023  0.0029 -0.1633  0.4061
 1437SOL    HW115947   4.195   3.220   9.063 -1.0759 -0.7078  2.7789
 1437SOL    HW215948   4.061   3.149   9.067  1.3616 -1.2334  0.0962
 1438SOL     OW15949   3.964   1.004   0.663  0.4909 -0.2361 -0.1728
 1438SOL    HW115950   3.995   0.999   0.573 -3.3492 -2.3352 -1.3842
 1438SOL    HW215951   3.869   1.020   0.655  0.2931 -0.7174  1.2336
 1439SOL     OW15952   2.516   0.612  16.447 -0.4052 -0.7406 -0.1497
 1439SOL    HW115953   2.546   0.702  16.441  2.1439 -1.6747 -1.5167
 1439SOL    HW215954   2.425   0.636  16.433 -0.3540 -0.9448 -0.8223
 1440SOL     OW15955   2.789   2.471   7.725 -0.1957 -0.3474 -0.4903
 1440SOL    HW115956   2.809   2.488   7.633  0.2572  0.2816 -0.2744
 1440SOL    HW215957   2.693   2.465   7.726 -0.1763 -1.0896 -2.3138
 1441SOL     OW15958   3.549   1.089  17.670  0.1883 -0.3893 -0.3228
 1441SOL    HW115959   3.497   1.056   0.003  1.9775  1.2169  1.6627
 1441SOL    HW215960   3.530   1.014  17.613 -1.2330 -1.2654  1.2949
 1442SOL     OW15961   4.246   2.601   6.092 -0.0084 -0.3195  0.7720
 1442SOL    HW115962   4.305   2.654   6.145 -2.9623  2.0851  1.6617
 1442SOL    HW215963   4.295   2.590   6.010 -0.3540  0.1612  0.5043
 1443SOL     OW15964   3.581   0.920   8.111 -0.1863  0.0926 -0.1537
 1443SOL    HW115965   3.612   0.844   8.062  0.0372 -0.1725  0.3878
 1443SOL    HW215966   3.664   0.944   8.152  0.0364  0.3155 -0.7411
 1444SOL     OW15967   1.958   0.228   5.244  0.0845  0.5781 -0.5952
 1444SOL    HW115968   1.932   0.264   5.159 -1.1026  1.4803  0.1472
 1444SOL    HW215969   1.909   0.146   5.242  0.9210  0.0447  0.9011
 1445SOL     OW15970   1.101   0.301   6.300  0.6713  0.2368  0.8289
 1445SOL    HW115971   1.006   0.305   6.306  0.6108  1.8193 -1.0890
 1445SOL    HW215972   1.107   0.206   6.301 -1.9814  0.0450 -1.1927
 1446SOL     OW15973   0.479   1.673   5.925  0.2345  0.5819 -0.5210
 1446SOL    HW115974   0.574   1.669   5.917  0.3731  1.6311  0.6290
 1446SOL    HW215975   0.449   1.582   5.938 -0.2605  0.9263  0.8296
 1447SOL     OW15976   3.505   2.992  10.804  0.4223  0.6372 -0.0700
 1447SOL    HW115977   3.496   3.086  10.793 -3.6631  0.2680 -0.0409
 1447SOL    HW215978   3.556   2.993  10.885  2.8694  0.4242 -1.6154
 1448SOL     OW15979   1.555   2.230   2.901  0.6441  0.3807 -0.1700
 1448SOL    HW115980   1.620   2.294   2.872 -0.1100  0.2276 -2.2659
 1448SOL    HW215981   1.512   2.212   2.817  1.7623  1.3614 -0.9396
 1449SOL     OW15982   1.005   3.776   5.854 -0.1884 -0.0484  0.2331
 1449SOL    HW115983   1.001   3.684   5.827  0.1008  0.5086 -1.6516
 1449SOL    HW215984   1.018   3.811   5.766  1.1426 -0.9016  0.0974
 1450SOL     OW15985   3.450   0.126   2.874  0.5152  0.5183  0.0410
 1450SOL    HW115986   3.400   0.176   2.809 -0.0514  0.1404  0.1876
 1450SOL    HW215987   3.377   0.078   2.913  0.2898  1.2150  0.4687
 1451SOL     OW15988   4.427   3.457   7.334  0.1437 -0.2759  0.1332
 1451SOL    HW115989   4.428   3.494   7.246 -0.1217  1.3793  0.8216
 1451SOL    HW215990   4.422   3.369   7.299  2.2015  1.0837 -3.5733
 1452SOL     OW15991   1.549   3.437   7.414  0.0201 -0.5716  0.1077
 1452SOL    HW115992   1.512   3.426   7.326 -2.8635  0.6484  1.1425
 1452SOL    HW215993   1.489   3.371   7.450 -2.4754  2.5796  1.7574
 1453SOL     OW15994   2.792   4.607  16.591  0.0182 -0.0754 -0.2011
 1453SOL    HW115995   2.856   4.566  16.649  0.9405 -1.3041 -2.1126
 1453SOL    HW215996   2.823   4.697  16.594  1.8951 -0.7045 -1.4532
 1454SOL     OW15997   0.937   1.762   8.842 -0.6540  0.3728  0.1583
 1454SOL    HW115998   0.975   1.755   8.930  0.8834 -2.6298 -0.7583
 1454SOL    HW215999   1.009   1.740   8.783  0.7448  0.0791  1.9789
 1455SOL     OW16000   1.322   3.041   5.092 -0.2708 -0.2804  0.1205
 1455SOL    HW116001   1.303   3.010   5.004 -1.2124 -1.1629  0.6489
 1455SOL    HW216002   1.269   2.985   5.148 -2.3776  1.1424 -0.4837
 1456SOL     OW16003   4.324   4.717   8.660  0.3500 -0.0877  0.2660
 1456SOL    HW116004   4.397   4.656   8.669  1.8233  1.5813 -0.1984
 1456SOL    HW216005   4.255   4.660   8.627 -2.7321  1.1863  4.4605
 1457SOL     OW16006   4.422   2.094   2.558 -0.1548 -0.0552 -0.3315
 1457SOL    HW116007   4.491   2.027   2.551  0.2537  0.2386  0.7555
 1457SOL    HW216008   4.418   2.115   2.651 -1.2226  1.9514 -0.8282
 1458SOL     OW16009   2.453   1.051  10.355  0.3532  0.1849 -0.0477
 1458SOL    HW116010   2.478   1.048  10.263  2.8650 -1.7580  0.7102
 1458SOL    HW216011   2.534   1.065  10.402  0.8713 -1.9574 -0.2948
 1459SOL     OW16012   3.301   2.008   0.966  0.6129  0.3466 -0.0601
 1459SOL    HW116013   3.278   2.094   1.003  0.8068  0.1039  0.6241
 1459SOL    HW216014   3.369   2.031   0.903  2.5793 -1.0610  1.5594
 1460SOL     OW16015   0.158   3.814   5.380  0.2282  0.8505 -0.0471
 1460SOL    HW116016   0.063   3.804   5.376  0.3303 -0.5814  0.7584
 1460SOL    HW216017   0.178   3.730   5.422 -0.0639  0.2486 -1.0975
 1461SOL     OW16018   2.707   0.987   3.490  0.3361 -0.0299 -0.0954
 1461SOL    HW116019   2.793   1.010   3.524  0.5897 -1.2889  0.1193
 1461SOL    HW216020   2.685   0.926   3.560 -0.2178 -0.0754 -0.3035
 1462SOL     OW16021   3.546   4.248   7.487  0.6294  0.4755  0.0371
 1462SOL    HW116022   3.575   4.272   7.399  1.6890 -0.6652  0.0837
 1462SOL    HW216023   3.601   4.178   7.522  1.4798  2.5148  2.8133
 1463SOL     OW16024   2.688   3.908   9.441 -0.3485  0.2880 -0.5885
 1463SOL    HW116025   2.612   3.941   9.488  0.1582  1.3284 -0.5205
 1463SOL    HW216026   2.663   3.819   9.416  1.2865 -0.6731  1.2111
 1464SOL     OW16027   2.353   2.781   8.032  0.0934 -0.6561  0.1909
 1464SOL    HW116028   2.422   2.721   8.062 -0.4429 -0.5086  1.7437
 1464SOL    HW216029   2.302   2.784   8.113 -1.7780 -1.7022 -0.9447
 1465SOL     OW16030   3.299   4.626   2.714  0.0489 -0.1168  0.1779
 1465SOL    HW116031   3.269   4.607   2.625  1.8229  0.2751 -0.5052
 1465SOL    HW216032   3.338   4.713   2.701  0.0199 -0.1915 -0.4069
 1466SOL     OW16033   1.561   3.748   4.300  0.0894  0.1605  0.3684
 1466SOL    HW116034   1.542   3.740   4.394  0.0119  1.3262  0.4433
 1466SOL    HW216035   1.631   3.683   4.296 -0.1741 -0.3612  4.1104
 1467SOL     OW16036   3.178   0.868  16.491  0.5509  0.0123 -0.1328
 1467SOL    HW116037   3.086   0.873  16.465  0.5905  4.0614  0.5085
 1467SOL    HW216038   3.227   0.937  16.447  0.9108 -0.0739  0.1355
 1468SOL     OW16039   1.209   4.428   6.751  0.1179  0.1846 -0.7700
 1468SOL    HW116040   1.244   4.443   6.839 -0.2531 -1.1979 -0.3925
 1468SOL    HW216041   1.161   4.511   6.743 -1.6953 -0.7379  0.7448
 1469SOL     OW16042   3.617   4.396   9.687 -1.0904 -0.0546  0.5081
 1469SOL    HW116043   3.603   4.400   9.592 -1.1391 -0.0586  0.5153
 1469SOL    HW216044   3.711   4.379   9.687 -1.4165 -1.8820 -0.3705
 1470SOL     OW16045   1.614   4.081  13.728 -0.2078 -0.0916  0.9101
 1470SOL    HW116046   1.543   4.026  13.760  0.5109 -1.2208  0.5609
 1470SOL    HW216047   1.618   4.047  13.639 -1.5795 -1.9777  1.5523
 1471SOL     OW16048   0.659   3.382   4.303 -0.3187 -0.1552 -0.0938
 1471SOL    HW116049   0.631   3.402   4.393  0.0312 -0.1801  0.0214
 1471SOL    HW216050   0.582   3.373   4.248 -0.5851  3.3243 -0.2687
 1472SOL     OW16051   3.038   4.261   3.372 -0.0311  0.7024  0.0279
 1472SOL    HW116052   2.945   4.280   3.362  0.2147  0.9141 -1.9975
 1472SOL    HW216053   3.050   4.229   3.461 -1.0764  0.3348  0.0395
 1473SOL     OW16054   1.624   3.958  13.484  0.3189  0.6100  0.3921
 1473SOL    HW116055   1.649   3.868  13.462  1.1913  0.3982  2.2083
 1473SOL    HW216056   1.548   3.962  13.426 -0.7778 -1.0826  1.7316
 1474SOL     OW16057   3.207   3.261   6.296 -0.2832  0.1135  0.7247
 1474SOL    HW116058   3.179   3.195   6.233 -1.9265  1.9364 -0.4821
 1474SOL    HW216059   3.290   3.298   6.266 -0.3631 -0.2588  0.0643
 1475SOL     OW16060   0.798   4.084  11.033  0.1404  0.1579 -0.1684
 1475SOL    HW116061   0.713   4.052  11.003 -0.2874  0.7703  0.4086
 1475SOL    HW216062   0.805   4.011  11.095  0.0432 -1.7056 -2.3296
 1476SOL     OW16063   2.447   4.240   9.666  1.0009  0.0149 -0.3355
 1476SOL    HW116064   2.360   4.279   9.656  2.3635  3.1986  0.1340
 1476SOL    HW216065   2.434   4.149   9.639  2.5572  0.5157 -2.7643
 1477SOL     OW16066   3.554   4.650  14.330 -0.0087 -0.0644  0.1159
 1477SOL    HW116067   3.545   0.009  14.337  0.4126 -0.1140  1.5004
 1477SOL    HW216068   3.465   4.625  14.354 -0.1588  0.2303 -0.1374
 1478SOL     OW16069   2.012   0.329   3.078 -0.4185  0.3445 -0.1083
 1478SOL    HW116070   1.936   0.358   3.029 -0.5847  2.1567  1.2080
 1478SOL    HW216071   2.022   0.237   3.056 -0.6750  0.0026  1.2101
 1479SOL     OW16072   1.588   3.862   8.311  0.0622 -0.0766 -0.2925
 1479SOL    HW116073   1.648   3.788   8.320  0.3048  0.0665 -0.6937
 1479SOL    HW216074   1.505   3.816   8.297 -0.1572 -0.6703  3.0017
 1480SOL     OW16075   4.459   4.016   2.524  0.2440 -0.1406  0.4970
 1480SOL    HW116076   4.499   3.950   2.580 -1.3585 -0.4175  1.3327
 1480SOL    HW216077   4.403   3.967   2.465  1.1343 -1.5231  0.8048
 1481SOL     OW16078   3.249   4.577  11.922 -1.0825 -0.4143  0.3330
 1481SOL    HW116079   3.344   4.565  11.917 -1.0618  0.1967 -0.6295
 1481SOL    HW216080   3.227   4.600  11.832  0.1634 -1.6605 -0.2874
 1482SOL     OW16081   3.517   3.194   7.807 -0.5264  0.7271 -0.0824
 1482SOL    HW116082   3.431   3.199   7.764 -0.3342  2.7438 -0.2384
 1482SOL    HW216083   3.562   3.275   7.786  0.0260  0.0897 -1.3527
 1483SOL     OW16084   2.376   2.498  16.060 -0.3764  0.6594  0.2859
 1483SOL    HW116085   2.286   2.470  16.078  1.2222 -2.5137  3.2742
 1483SOL    HW216086   2.356   2.583  16.021  1.4580  1.4914  1.2120
 1484SOL     OW16087   1.148   1.102   6.868  0.2458  0.1284 -0.4270
 1484SOL    HW116088   1.141   1.187   6.824 -2.3289 -0.7281 -1.6531
 1484SOL    HW216089   1.218   1.065   6.815 -0.9464 -1.0378 -1.1840
 1485SOL     OW16090   2.538   4.586   2.654 -0.4611 -0.3753  0.3924
 1485SOL    HW116091   2.457   4.552   2.692 -1.0345 -0.3315 -0.7937
 1485SOL    HW216092   2.508   4.677   2.657 -0.7450 -0.5197  1.8174
 1486SOL     OW16093   3.574   1.928   1.853  0.1710 -0.0089  0.0037
 1486SOL    HW116094   3.647   1.913   1.913  0.4954  2.8566  0.3390
 1486SOL    HW216095   3.580   2.023   1.840  0.0286  0.2774  2.0219
 1487SOL     OW16096   2.946   3.691   3.154 -0.4805  0.0996  1.4796
 1487SOL    HW116097   3.022   3.675   3.099 -1.0761  0.0009  0.6782
 1487SOL    HW216098   2.890   3.727   3.085 -2.0465 -4.1168  0.5252
 1488SOL     OW16099   4.475   1.157   9.747  0.2535 -0.0730  0.0042
 1488SOL    HW116100   4.379   1.148   9.742  0.3963 -1.0954 -1.0635
 1488SOL    HW216101   4.490   1.229   9.808  0.4973 -1.8272  2.0167
 1489SOL     OW16102   4.307   2.377   6.233 -0.1921 -0.2452 -0.2238
 1489SOL    HW116103   4.258   2.455   6.207 -0.5077  0.3909  2.3162
 1489SOL    HW216104   4.247   2.312   6.194 -1.4122  1.0515 -0.5060
 1490SOL     OW16105   3.240   2.300   5.672  1.0006  0.0036 -0.0643
 1490SOL    HW116106   3.327   2.319   5.636  2.0052  0.0773  2.4194
 1490SOL    HW216107   3.243   2.360   5.746  0.7694  0.4270 -0.3952
 1491SOL     OW16108   1.605   4.696   4.161 -0.1989  0.8024 -0.5244
 1491SOL    HW116109   1.601   0.001   4.074  2.7279  1.2886 -0.4472
 1491SOL    HW216110   1.518   4.668   4.186  0.2463 -0.3275 -0.2721
 1492SOL     OW16111   1.530   1.443  12.250  0.0254  0.1758 -0.1427
 1492SOL    HW116112   1.501   1.387  12.322 -2.8314  1.8929  0.0456
 1492SOL    HW216113   1.499   1.399  12.170  0.8460 -1.8412  0.6735
 1493SOL     OW16114   1.056   1.618   5.260 -0.2028  0.4419  0.1619
 1493SOL    HW116115   1.053   1.710   5.285 -1.0513  0.8365 -1.3580
 1493SOL    HW216116   1.137   1.620   5.209 -1.4170 -1.2168 -1.8561
 1494SOL     OW16117   0.365   3.838   4.043 -0.0342 -0.0112 -0.1576
 1494SOL    HW116118   0.396   3.792   4.121  2.3673  2.0949  0.1464
 1494SOL    HW216119   0.293   3.893   4.073  0.0625 -1.2592  2.3240
 1495SOL     OW16120   4.177   2.984   1.825 -0.0727  0.0644 -0.1774
 1495SOL    HW116121   4.240   3.019   1.889  1.1978 -3.4416  0.4826
 1495SOL    HW216122   4.217   2.900   1.801  0.3659  0.7770 -1.9278
 1496SOL     OW16123   2.685   4.201   8.207 -0.1507 -0.0409 -0.4920
 1496SOL    HW116124   2.660   4.195   8.115 -0.6433 -1.8106 -0.2368
 1496SOL    HW216125   2.634   4.128   8.240 -0.6316 -0.0804 -1.3416
 1497SOL     OW16126   3.091   0.582   6.978  0.4201  0.3414  0.1969
 1497SOL    HW116127   3.054   0.509   6.929  1.1579 -0.0273  0.1956
 1497SOL    HW216128   3.141   0.536   7.046 -1.8860  0.7998  2.2183
 1498SOL     OW16129   2.878   1.209  12.691  0.4193 -0.6068 -0.4564
 1498SOL    HW116130   2.833   1.250  12.764  1.3520 -1.2445  0.4786
 1498SOL    HW216131   2.894   1.284  12.633 -1.1050 -0.2333 -0.3801
 1499SOL     OW16132   0.615   2.971   8.656 -0.2974  0.6067 -1.0432
 1499SOL    HW116133   0.530   3.006   8.629 -1.4609 -2.3437 -1.1771
 1499SOL    HW216134   0.596   2.878   8.668 -1.0879  1.1484  1.8223
 1500SOL     OW16135   4.296   2.014   4.487  0.2888  0.3793 -0.3057
 1500SOL    HW116136   4.203   2.029   4.468 -0.0617 -1.8827 -0.3769
 1500SOL    HW216137   4.298   2.092   4.544  0.7742  0.7559 -0.8377
 1501SOL     OW16138   3.674   0.435  14.475  0.4426  0.4669  0.3627
 1501SOL    HW116139   3.692   0.402  14.387  0.0033 -1.6028  1.0562
 1501SOL    HW216140   3.594   0.391  14.503  0.4766  0.4361  0.4117
 1502SOL     OW16141   1.344   2.279   2.327  0.1866  0.1093  0.1370
 1502SOL    HW116142   1.292   2.198   2.325 -1.5431  1.1895  2.2490
 1502SOL    HW216143   1.342   2.301   2.234 -1.7052 -0.8083 -0.0587
 1503SOL     OW16144   4.136   0.534  15.944 -0.3122  0.0560 -0.2748
 1503SOL    HW116145   4.071   0.481  15.989 -2.1056  0.5360 -2.3174
 1503SOL    HW216146   4.107   0.622  15.965  1.4355  0.8882 -1.2998
 1504SOL     OW16147   1.387   2.423   9.235  0.3566 -0.0141 -0.1538
 1504SOL    HW116148   1.475   2.429   9.272  0.8838 -0.4846 -1.3277
 1504SOL    HW216149   1.382   2.497   9.175 -0.3647 -0.9373 -1.2266
 1505SOL     OW16150   3.593   1.692   4.691  0.1294  0.0094 -0.1459
 1505SOL    HW116151   3.619   1.689   4.599 -0.8624  0.8617 -0.4555
 1505SOL    HW216152   3.679   1.661   4.720 -0.9445 -0.4671  2.5900
 1506SOL     OW16153   1.672   3.507   7.777  0.2879  0.0107  0.4512
 1506SOL    HW116154   1.610   3.576   7.802 -0.5561 -0.8516  0.7530
 1506SOL    HW216155   1.745   3.567   7.762 -0.0194  1.0025  2.8414
 1507SOL     OW16156   4.183   2.569   7.292 -0.4622  0.1146 -0.8789
 1507SOL    HW116157   4.182   2.646   7.349  0.9583 -0.3353 -0.2543
 1507SOL    HW216158   4.197   2.606   7.204 -0.4806  1.8663 -0.1487
 1508SOL     OW16159   4.064   0.824   8.074  0.0319 -0.3431 -0.9512
 1508SOL    HW116160   3.996   0.850   8.012  0.1687 -0.0728 -0.9873
 1508SOL    HW216161   4.056   0.904   8.127 -1.5710 -0.3861 -1.1469
 1509SOL     OW16162   1.163   4.715   5.645  0.2191 -0.2511  0.3730
 1509SOL    HW116163   1.156   0.073   5.630 -0.9114 -0.4916 -0.6442
 1509SOL    HW216164   1.244   4.688   5.601  0.4897 -0.5062  1.0392
 1510SOL     OW16165   2.076   0.071   1.956  0.6575 -0.0981 -0.3292
 1510SOL    HW116166   2.015   4.735   1.936  0.1444  0.5926 -1.1917
 1510SOL    HW216167   2.141   0.046   1.891 -0.8737 -0.4646 -1.7057
 1511SOL     OW16168   1.319   4.417   4.419  0.2149  0.2022 -0.0312
 1511SOL    HW116169   1.337   4.490   4.360  0.2930  1.3901  1.4428
 1511SOL    HW216170   1.236   4.388   4.383  0.5122  0.7306 -1.1321
 1512SOL     OW16171   2.764   2.710  13.963  0.7831  0.3580  0.1575
 1512SOL    HW116172   2.707   2.765  13.909 -1.1460  2.5209  4.3318
 1512SOL    HW216173   2.718   2.718  14.047  0.1885 -0.1554 -0.1270
 1513SOL     OW16174   2.088   4.517   5.611  0.1957  0.4087 -0.1190
 1513SOL    HW116175   2.155   4.554   5.668 -0.2083 -0.8210  1.1602
 1513SOL    HW216176   2.075   4.432   5.653  3.8857 -0.4900 -0.8801
 1514SOL     OW16177   3.637   2.839   2.597  0.4056 -0.0591  0.0449
 1514SOL    HW116178   3.550   2.843   2.635 -0.2600 -1.3777 -1.3194
 1514SOL    HW216179   3.690   2.793   2.662  1.2282 -0.1361 -0.6694
 1515SOL     OW16180   1.500   0.902  12.062 -0.3779 -0.1319  0.2820
 1515SOL    HW116181   1.565   0.919  12.130 -2.0917  0.2879  1.8156
 1515SOL    HW216182   1.418   0.904  12.112  0.4971 -2.3748  1.8233
 1516SOL     OW16183   4.388   3.755   4.855 -0.4462 -0.1282  0.6902
 1516SOL    HW116184   4.475   3.741   4.892  0.4226  1.9365 -0.5724
 1516SOL    HW216185   4.333   3.719   4.924 -1.9099 -0.2356 -0.5256
 1517SOL     OW16186   1.853   0.360  10.568  0.0314  0.0705  0.0822
 1517SOL    HW116187   1.922   0.410  10.613  0.6824  0.2001 -1.0551
 1517SOL    HW216188   1.882   0.273  10.597  1.5671 -0.0988 -1.9720
 1518SOL     OW16189   1.097   3.908   3.958 -0.2566  0.4651 -0.5274
 1518SOL    HW116190   1.023   3.916   4.018  0.1317 -1.5221  0.2095
 1518SOL    HW216191   1.167   3.894   4.022 -0.3410  1.3820 -0.2237
 1519SOL     OW16192   2.744   2.357   8.972 -0.9606  0.4674  0.1265
 1519SOL    HW116193   2.710   2.353   8.882 -1.0914 -1.5479  0.2666
 1519SOL    HW216194   2.822   2.412   8.959 -1.3567  0.4561 -2.3691
 1520SOL     OW16195   2.901   1.280   3.014 -0.0476 -0.3668 -0.0268
 1520SOL    HW116196   2.882   1.202   2.963  0.1112  0.3352 -1.1428
 1520SOL    HW216197   2.947   1.333   2.949 -0.4588  1.0425  0.8257
 1521SOL     OW16198   3.742   3.492   6.722  0.0126 -0.2724 -0.2494
 1521SOL    HW116199   3.710   3.418   6.671 -1.4998  1.4933 -1.8511
 1521SOL    HW216200   3.726   3.458   6.810  0.2035 -0.1770 -0.1782
 1522SOL     OW16201   3.750   0.719  13.345  0.2143  0.5517  1.0168
 1522SOL    HW116202   3.742   0.632  13.384 -1.1865  0.5296  0.6936
 1522SOL    HW216203   3.700   0.718  13.263  0.2685 -0.1961  0.9876
 1523SOL     OW16204   2.781   4.594  11.360  0.1214  0.0689  0.4500
 1523SOL    HW116205   2.766   4.676  11.408 -2.0685 -0.2308  0.2415
 1523SOL    HW216206   2.847   4.619  11.295 -0.8343  1.6137  0.0650
 1524SOL     OW16207   4.041   0.774   5.228  0.1157 -0.6528 -0.0424
 1524SOL    HW116208   4.009   0.704   5.284 -2.5189 -0.2398 -1.0149
 1524SOL    HW216209   4.122   0.802   5.271 -0.6193  2.0479 -0.3896
 1525SOL     OW16210   4.458   0.161   5.887  0.1946 -0.3821  0.2798
 1525SOL    HW116211   4.536   0.111   5.912 -1.0358 -1.5937  1.7333
 1525SOL    HW216212   4.457   0.170   5.792  1.6064  0.1365  0.3209
 1526SOL     OW16213   4.341   0.630   5.038 -0.1476  0.5249  0.8876
 1526SOL    HW116214   4.338   0.633   5.133  0.0500 -1.2552  0.9387
 1526SOL    HW216215   4.407   0.698   5.023  0.8999 -0.5545  0.6717
 1527SOL     OW16216   4.257   3.363  17.184 -0.0749 -0.1128 -0.2072
 1527SOL    HW116217   4.348   3.345  17.209  0.2317  0.9928 -0.4867
 1527SOL    HW216218   4.244   3.296  17.117  0.2451 -3.2624  2.9168
 1528SOL     OW16219   1.697   2.112   4.838 -0.1402 -0.1116 -0.8100
 1528SOL    HW116220   1.740   2.196   4.825 -2.1569  0.6481 -2.4767
 1528SOL    HW216221   1.679   2.092   4.746 -1.0891  1.4285 -0.9505
 1529SOL     OW16222   2.232   2.645   5.109  0.3673 -0.3300 -0.2147
 1529SOL    HW116223   2.325   2.653   5.132 -0.4211 -2.2855  3.6688
 1529SOL    HW216224   2.204   2.586   5.179  1.5041  0.9157  1.3146
 1530SOL     OW16225   3.990   3.188   2.773  0.2770 -0.4803 -0.1044
 1530SOL    HW116226   3.921   3.143   2.724 -0.3359  0.6082 -0.2231
 1530SOL    HW216227   3.952   3.258   2.825 -1.2802 -1.4117  0.0042
 1531SOL     OW16228   0.949   4.606   7.441 -0.0003 -0.0096 -0.5754
 1531SOL    HW116229   1.037   4.643   7.428 -0.4539  1.3461  0.2130
 1531SOL    HW216230   0.973   4.522   7.403  1.5323 -0.3632  1.2147
 1532SOL     OW16231   2.848   0.052   9.772 -0.3726  0.1915  0.1180
 1532SOL    HW116232   2.779   0.058   9.838 -0.3311  0.8711  0.0943
 1532SOL    HW216233   2.858   4.694   9.754  0.2591  0.6527 -1.8748
 1533SOL     OW16234   1.619   4.462   3.007 -0.3442 -0.2064 -0.3059
 1533SOL    HW116235   1.686   4.500   3.064 -3.0549 -0.1387  2.8521
 1533SOL    HW216236   1.560   4.433   3.077  1.4061  0.0864  1.2845
 1534SOL     OW16237   0.659   2.644   8.062  0.4464  0.1274  0.5216
 1534SOL    HW116238   0.592   2.584   8.094  0.8496 -0.2721  0.6129
 1534SOL    HW216239   0.693   2.676   8.146  0.7851  1.6555 -0.1884
 1535SOL     OW16240   2.704   1.815  14.965  0.2046 -0.1648  0.1224
 1535SOL    HW116241   2.733   1.888  15.021 -2.4599 -0.0471  1.3201
 1535SOL    HW216242   2.707   1.860  14.881  0.0842  2.9560  1.7909
 1536SOL     OW16243   0.734   2.798   6.597  0.1444  0.2854 -0.4519
 1536SOL    HW116244   0.708   2.823   6.686 -1.1675  0.5079 -0.9068
 1536SOL    HW216245   0.694   2.866   6.542 -0.2998 -0.4600 -1.0484
 1537SOL     OW16246   1.820   2.442   9.229 -0.3522 -0.2047  0.7449
 1537SOL    HW116247   1.898   2.483   9.266 -0.0383 -0.5953  0.5172
 1537SOL    HW216248   1.752   2.468   9.291 -0.8191 -1.6549  0.8501
 1538SOL     OW16249   1.194   2.598   5.972 -0.1015 -0.3602 -0.6227
 1538SOL    HW116250   1.160   2.553   6.049  1.1172  1.4456  0.9729
 1538SOL    HW216251   1.210   2.690   5.995 -0.2425 -0.6514  0.6545
 1539SOL     OW16252   0.465   3.898   9.329 -0.1733 -0.0819 -0.4136
 1539SOL    HW116253   0.492   3.909   9.421 -0.5390  1.8084 -0.5279
 1539SOL    HW216254   0.383   3.946   9.337  0.4808  1.1562 -1.1281
 1540SOL     OW16255   3.787   4.249   8.605 -0.2299 -0.3854 -0.0614
 1540SOL    HW116256   3.692   4.255   8.592 -0.5219 -1.7155  1.4048
 1540SOL    HW216257   3.827   4.307   8.541 -0.0008 -1.7022 -1.1158
 1541SOL     OW16258   4.616   1.701   7.042 -0.1356 -0.2406 -0.2688
 1541SOL    HW116259   4.685   1.737   7.099  1.4767 -1.1036 -1.6708
 1541SOL    HW216260   4.532   1.708   7.087 -0.5057  1.9852 -1.3184
 1542SOL     OW16261   0.846   0.341   4.813 -0.2144 -0.1120 -0.2308
 1542SOL    HW116262   0.831   0.275   4.746 -1.3250 -0.3636  0.2614
 1542SOL    HW216263   0.853   0.277   4.884  0.5205  0.6277  0.3651
 1543SOL     OW16264   3.419   2.629   5.609 -0.1937 -0.0470 -0.2262
 1543SOL    HW116265   3.331   2.647   5.644 -0.9670 -3.7015 -0.2138
 1543SOL    HW216266   3.436   2.538   5.636 -1.7454 -0.5409 -0.8656
 1544SOL     OW16267   2.221   1.785  12.063  0.1806 -0.2567 -0.6040
 1544SOL    HW116268   2.158   1.752  12.000  0.9391 -0.7616 -1.0882
 1544SOL    HW216269   2.270   1.857  12.024 -0.3276 -0.2878 -1.2817
 1545SOL     OW16270   0.221   3.221   6.938  0.0647 -0.7678  0.2669
 1545SOL    HW116271   0.296   3.189   6.989  0.5949 -0.2460 -0.1817
 1545SOL    HW216272   0.242   3.314   6.931 -2.4809 -0.1241  1.3257
 1546SOL     OW16273   0.004   0.920   4.838 -0.0933  0.0363 -0.0604
 1546SOL    HW116274   0.007   0.886   4.749  1.3422  2.6421 -1.0243
 1546SOL    HW216275   0.024   1.011   4.816 -2.5345  0.3095 -1.1924
 1547SOL     OW16276   4.213   1.752  17.241  0.1239  0.3385  0.0815
 1547SOL    HW116277   4.136   1.762  17.185  0.4589 -3.4762 -1.0671
 1547SOL    HW216278   4.248   1.841  17.233  2.3357 -0.4196  1.4002
 1548SOL     OW16279   0.268   3.207   6.045 -0.3533 -0.4933  0.0998
 1548SOL    HW116280   0.253   3.216   6.139 -0.7071 -0.0389 -0.0032
 1548SOL    HW216281   0.348   3.259   6.051  1.0993 -2.8066  0.7903
 1549SOL     OW16282   0.970   3.622  13.651 -0.2250  0.3975  0.2715
 1549SOL    HW116283   0.891   3.660  13.612  0.1638  2.0663  1.1215
 1549SOL    HW216284   0.946   3.630  13.743 -0.4030  2.1793  0.0745
 1550SOL     OW16285   3.204   0.576   8.256  0.4859  0.0572  0.0887
 1550SOL    HW116286   3.218   0.624   8.174  1.2265 -1.0336 -0.4267
 1550SOL    HW216287   3.115   0.604   8.279  1.3785  1.5756  1.6394
 1551SOL     OW16288   0.930   2.537   2.800 -0.1676 -0.5868 -0.4145
 1551SOL    HW116289   0.963   2.473   2.736  1.0607 -0.1135 -0.2596
 1551SOL    HW216290   1.009   2.545   2.854  1.3986 -1.4846 -2.5815
 1552SOL     OW16291   2.394   0.209  12.967  0.0545  0.5043 -0.1002
 1552SOL    HW116292   2.309   0.252  12.958  0.5797  0.7946 -3.6445
 1552SOL    HW216293   2.408   0.189  12.874 -2.7064  0.1889 -0.4495
 1553SOL     OW16294   0.266   1.497   5.506 -0.1458 -0.4329 -0.2492
 1553SOL    HW116295   0.263   1.416   5.454  2.7684 -0.1737 -0.8212
 1553SOL    HW216296   0.205   1.553   5.459 -0.0587 -0.1925 -0.0758
 1554SOL     OW16297   0.485   1.338  11.869 -0.3107  0.8086 -0.0337
 1554SOL    HW116298   0.498   1.264  11.809 -0.3475  0.5194  0.3098
 1554SOL    HW216299   0.464   1.402  11.801 -1.9511  0.6046  0.2945
 1555SOL     OW16300   1.381   0.758   3.156 -0.1980  0.0550 -0.2568
 1555SOL    HW116301   1.443   0.764   3.229 -1.1111 -2.1228  0.6959
 1555SOL    HW216302   1.424   0.829   3.109 -0.4640  0.5444  0.2428
 1556SOL     OW16303   0.605   1.649   4.669 -0.3958 -0.1340  0.3414
 1556SOL    HW116304   0.676   1.683   4.614 -1.4362 -3.0608 -2.8097
 1556SOL    HW216305   0.619   1.554   4.670  0.6741  0.0264  0.6467
 1557SOL     OW16306   0.893   2.866  13.707 -0.4796 -1.0059  0.2755
 1557SOL    HW116307   0.912   2.807  13.780  2.2724 -2.6094 -1.7554
 1557SOL    HW216308   0.827   2.921  13.750  1.1452  1.9245 -0.9714
 1558SOL     OW16309   0.195   1.671   8.275 -0.3805  0.3399  0.0808
 1558SOL    HW116310   0.135   1.698   8.205  0.0663  0.2875 -0.3307
 1558SOL    HW216311   0.278   1.670   8.227 -0.7422  1.9978 -0.5851
 1559SOL     OW16312   3.409   0.661  12.273  0.3215  0.0041 -0.1242
 1559SOL    HW116313   3.408   0.685  12.180  0.1442 -2.1278 -0.6725
 1559SOL    HW216314   3.429   0.568  12.272  0.6430  0.0663  1.1822
 1560SOL     OW16315   2.285   3.791   8.186 -0.4710 -0.3618  0.1363
 1560SOL    HW116316   2.240   3.865   8.226 -1.6672 -1.8090  1.4970
 1560SOL    HW216317   2.247   3.721   8.239 -1.4513 -1.0173 -1.4271
 1561SOL     OW16318   3.698   2.352  10.767  0.6413 -0.7164 -0.2826
 1561SOL    HW116319   3.765   2.336  10.701  0.1488 -0.6603 -0.7911
 1561SOL    HW216320   3.700   2.447  10.765 -2.9992 -0.5863  0.8447
 1562SOL     OW16321   4.252   1.575   2.413 -0.8465  0.4874  0.2302
 1562SOL    HW116322   4.338   1.537   2.393 -0.0661  1.8688  0.9302
 1562SOL    HW216323   4.270   1.669   2.413  2.4379 -0.1232  0.5344
 1563SOL     OW16324   1.692   4.214   8.751 -0.6076 -0.6335 -0.1749
 1563SOL    HW116325   1.658   4.301   8.771 -0.2740 -0.2848 -1.1091
 1563SOL    HW216326   1.616   4.172   8.711  0.0990 -1.6667 -0.4664
 1564SOL     OW16327   2.636   2.659   7.198  0.6628 -0.0454  0.3528
 1564SOL    HW116328   2.563   2.620   7.151 -1.7852  1.6053  2.8130
 1564SOL    HW216329   2.599   2.656   7.286  0.2702 -0.1304  0.1835
 1565SOL     OW16330   1.900   1.598   4.863  0.1405  0.3303  0.0552
 1565SOL    HW116331   1.959   1.660   4.904  1.2050 -0.7642  0.1747
 1565SOL    HW216332   1.849   1.568   4.938  0.3460  0.2714  0.1701
 1566SOL     OW16333   2.696   0.755   2.279  0.2086 -0.6827 -0.0658
 1566SOL    HW116334   2.751   0.813   2.331 -0.5489  1.7089 -1.9301
 1566SOL    HW216335   2.751   0.747   2.201  1.7451 -1.3808  1.1124
 1567SOL     OW16336   0.776   4.488  13.785 -0.0841  0.6722 -0.1391
 1567SOL    HW116337   0.749   4.486  13.877 -0.4883  0.0545 -0.2731
 1567SOL    HW216338   0.817   4.574  13.783 -0.0564  0.6337 -1.0940
 1568SOL     OW16339   2.392   0.527  12.993  0.3701  0.1356 -0.2281
 1568SOL    HW116340   2.332   0.456  12.968 -0.0192 -0.4161  2.2074
 1568SOL    HW216341   2.477   0.484  13.001  0.6484  0.6507 -0.4519
 1569SOL     OW16342   3.158   0.653   1.503  0.3196 -0.0681 -0.1586
 1569SOL    HW116343   3.158   0.657   1.599 -0.9277  1.3458 -0.2216
 1569SOL    HW216344   3.064   0.655   1.484  0.3030  0.1783 -0.0526
 1570SOL     OW16345   2.440   1.815   6.148  0.2002  0.5640  0.4408
 1570SOL    HW116346   2.501   1.787   6.080  1.3957  0.0148  1.7342
 1570SOL    HW216347   2.437   1.910   6.132 -1.1850  0.3391 -0.6313
 1571SOL     OW16348   3.871   0.990   1.600  0.8053  0.0277  0.3072
 1571SOL    HW116349   3.954   0.954   1.628  1.2898  0.9271  0.0278
 1571SOL    HW216350   3.897   1.049   1.529 -0.7214 -0.0626 -0.3404
 1572SOL     OW16351   1.160   2.786   3.719  0.2158 -0.2746 -0.1447
 1572SOL    HW116352   1.076   2.772   3.677 -0.8792  2.0406  1.2865
 1572SOL    HW216353   1.137   2.771   3.811  0.7416 -2.4048 -0.3495
 1573SOL     OW16354   0.715   3.672   8.403  0.3967  0.1449 -0.2378
 1573SOL    HW116355   0.647   3.617   8.441  1.3670 -0.4573  0.6153
 1573SOL    HW216356   0.695   3.760   8.436 -0.0956 -0.0139 -0.1131
 1574SOL     OW16357   2.195   0.400   3.265  0.1902 -0.6095 -0.4140
 1574SOL    HW116358   2.138   0.366   3.196 -1.0701 -1.5526  1.0990
 1574SOL    HW216359   2.235   0.474   3.220  1.7223 -0.0036  1.9130
 1575SOL     OW16360   2.669   3.259   0.501  0.2029 -0.5244 -0.2352
 1575SOL    HW116361   2.661   3.219   0.415  0.1130 -0.7246 -0.1334
 1575SOL    HW216362   2.760   3.242   0.526 -0.4075  0.0683  2.3673
 1576SOL     OW16363   3.478   0.089  16.958  0.2534 -0.5075  0.6060
 1576SOL    HW116364   3.411   0.149  16.992 -0.5571 -0.6432 -0.7439
 1576SOL    HW216365   3.428   0.009  16.973 -0.0068  0.0005  2.5155
 1577SOL     OW16366   0.687   0.779   7.855  0.2190  0.5027  0.3508
 1577SOL    HW116367   0.739   0.820   7.786  2.2501 -2.6642  0.0071
 1577SOL    HW216368   0.690   0.850   7.920 -0.0290 -0.1850  1.1020
 1578SOL     OW16369   2.698   0.052   0.242 -1.1432 -0.1496 -0.2240
 1578SOL    HW116370   2.749   4.709   0.223  1.3786  1.4746 -0.0992
 1578SOL    HW216371   2.615   0.013   0.272 -0.8981  0.4769  1.2819
 1579SOL     OW16372   1.716   1.131   2.330  0.2394 -0.7403  0.3579
 1579SOL    HW116373   1.626   1.112   2.357 -0.4114  0.1647 -1.1997
 1579SOL    HW216374   1.770   1.080   2.391  0.4602  0.0500  0.8251
 1580SOL     OW16375   0.474   3.324   3.065  0.1400 -0.3628  0.3027
 1580SOL    HW116376   0.440   3.238   3.042  1.3728 -0.7071 -0.2030
 1580SOL    HW216377   0.546   3.329   3.002 -1.8153 -0.6756 -1.9393
 1581SOL     OW16378   0.417   2.968   7.730 -0.5647  0.1300 -0.1425
 1581SOL    HW116379   0.394   2.928   7.814  1.3199  2.1118  1.2993
 1581SOL    HW216380   0.466   3.044   7.760 -0.7642 -0.3776  1.4741
 1582SOL     OW16381   2.732   1.534  15.014  0.5226  0.0865 -0.1805
 1582SOL    HW116382   2.822   1.502  15.000  1.2428  2.3349 -0.5764
 1582SOL    HW216383   2.741   1.614  14.962  2.6740 -1.7881 -2.7525
 1583SOL     OW16384   2.677   4.269   2.576 -0.6247 -0.1294 -0.0301
 1583SOL    HW116385   2.741   4.236   2.512 -1.0553 -0.9431 -0.0432
 1583SOL    HW216386   2.719   4.257   2.661  0.6569 -0.6119 -0.7328
 1584SOL     OW16387   2.463   0.860   2.154  0.5963  0.6783 -0.0567
 1584SOL    HW116388   2.550   0.846   2.190  1.0897  2.2596 -0.6869
 1584SOL    HW216389   2.453   0.792   2.087  0.1506  1.8959 -1.2214
 1585SOL     OW16390   0.362   1.734   3.270 -0.3771 -0.5679  0.0763
 1585SOL    HW116391   0.355   1.772   3.357  1.8411  2.7938 -1.2373
 1585SOL    HW216392   0.451   1.754   3.242  0.0636 -0.1593  1.7868
 1586SOL     OW16393   3.618   1.347   7.475 -0.3232 -0.4109  0.0677
 1586SOL    HW116394   3.705   1.373   7.505 -1.0895  1.6786  0.4664
 1586SOL    HW216395   3.650   1.285   7.409 -3.7638 -2.8094  0.6120
 1587SOL     OW16396   2.332   1.260  16.509 -0.1962  0.2721  0.2691
 1587SOL    HW116397   2.239   1.270  16.531 -0.5419  0.7047 -1.4074
 1587SOL    HW216398   2.357   1.272  16.600  1.7990  2.0868 -0.5192
 1588SOL     OW16399   0.887   1.818   6.410 -0.0667 -0.1458 -0.0236
 1588SOL    HW116400   0.976   1.852   6.424 -0.3420  0.5596  0.0391
 1588SOL    HW216401   0.872   1.768   6.489 -0.1113  1.1133  0.7668
 1589SOL     OW16402   4.031   2.200   8.417 -0.1587  0.2550 -0.0949
 1589SOL    HW116403   3.991   2.287   8.421  0.6698  0.5549  1.9265
 1589SOL    HW216404   3.955   2.141   8.411  0.9546 -1.0825 -0.9209
 1590SOL     OW16405   1.610   1.202   9.343 -0.3936  0.0603  0.2706
 1590SOL    HW116406   1.704   1.188   9.341 -0.5312 -1.0352  1.4778
 1590SOL    HW216407   1.600   1.273   9.407 -0.3840  0.3988 -0.1051
 1591SOL     OW16408   3.565   4.103   3.478  0.0214  0.0284 -0.2737
 1591SOL    HW116409   3.570   4.133   3.387  1.8375  1.4936  0.3138
 1591SOL    HW216410   3.477   4.066   3.476 -0.3664  0.9000  0.6904
 1592SOL     OW16411   0.850   2.197   9.836  0.0444 -0.3772  0.0963
 1592SOL    HW116412   0.789   2.248   9.890  0.5600  0.3098  0.0321
 1592SOL    HW216413   0.809   2.203   9.750  2.7316  2.8197 -0.9462
 1593SOL     OW16414   1.200   3.205   6.274 -0.1562 -0.0232  0.1111
 1593SOL    HW116415   1.145   3.132   6.301 -0.3563 -0.1022 -0.5166
 1593SOL    HW216416   1.278   3.184   6.326  0.5309 -0.1980 -0.9844
 1594SOL     OW16417   2.374   3.273   7.168 -0.2508 -0.2644 -0.0546
 1594SOL    HW116418   2.460   3.310   7.146 -0.4145  1.3844  2.0991
 1594SOL    HW216419   2.358   3.315   7.253  0.8564  0.2501 -0.0996
 1595SOL     OW16420   4.207   0.177  10.111  0.7259 -0.1414 -0.0221
 1595SOL    HW116421   4.292   0.143  10.083 -0.7347 -2.0152 -2.2281
 1595SOL    HW216422   4.186   0.247  10.049  0.2792  0.7082  1.0925
 1596SOL     OW16423   1.206   3.816  16.321  0.5595 -0.0457 -0.8090
 1596SOL    HW116424   1.244   3.728  16.315 -1.1147 -0.8214  0.0751
 1596SOL    HW216425   1.290   3.854  16.346  0.4072 -0.2124 -0.0203
 1597SOL     OW16426   2.998   1.458  12.614 -0.3447 -0.3141 -0.1427
 1597SOL    HW116427   2.961   1.530  12.562  2.5169  1.3365  0.0777
 1597SOL    HW216428   3.082   1.464  12.567  0.1314  1.6377  0.9430
 1598SOL     OW16429   0.371   1.215   2.049 -0.0039  0.3332 -0.0746
 1598SOL    HW116430   0.387   1.309   2.056  0.9205  0.3191 -1.7910
 1598SOL    HW216431   0.439   1.179   2.105  0.3904  1.4190  0.1307
 1599SOL     OW16432   1.308   3.487   5.511 -0.1593  0.2817 -0.3516
 1599SOL    HW116433   1.243   3.546   5.472  1.8841  3.1315  0.5307
 1599SOL    HW216434   1.345   3.542   5.580  1.7083 -0.1223 -1.0170
 1600SOL     OW16435   3.267   0.094   4.628  0.7329 -0.5065 -0.1682
 1600SOL    HW116436   3.259   4.734   4.626  0.2190 -0.4458 -0.9563
 1600SOL    HW216437   3.362   0.106   4.633  0.6015 -0.2124  1.6996
 1601SOL     OW16438   3.746   1.324   5.834 -0.2770 -0.5423 -0.3272
 1601SOL    HW116439   3.787   1.289   5.913  3.8463  3.2975 -0.7867
 1601SOL    HW216440   3.658   1.286   5.840  0.2103 -1.5844  0.1662
 1602SOL     OW16441   3.462   2.903   5.371  0.2358  0.3508  1.0344
 1602SOL    HW116442   3.393   2.889   5.436 -1.4406  1.1648 -0.5754
 1602SOL    HW216443   3.418   2.956   5.304 -0.5831 -1.7825 -0.1203
 1603SOL     OW16444   1.914   0.264   9.219 -0.3087  0.9096  0.5306
 1603SOL    HW116445   1.852   0.323   9.176 -0.2504 -0.9015 -2.0227
 1603SOL    HW216446   1.989   0.320   9.242 -1.2831  1.7334  1.6937
 1604SOL     OW16447   1.480   0.207   9.398 -0.5396  0.2428  0.1604
 1604SOL    HW116448   1.483   0.144   9.326 -1.0303 -0.2716  0.5875
 1604SOL    HW216449   1.573   0.226   9.413 -0.0444 -1.5134 -0.6353
 1605SOL     OW16450   3.973   1.846   6.507  0.3417  0.7267 -0.2406
 1605SOL    HW116451   3.935   1.905   6.573  0.7219 -1.5765  2.0568
 1605SOL    HW216452   3.901   1.851   6.444 -1.0275 -1.8422  1.1340
 1606SOL     OW16453   3.108   3.535   3.941  1.0446  0.1971 -0.1012
 1606SOL    HW116454   3.089   3.472   3.872  0.0122 -0.1047  0.4671
 1606SOL    HW216455   3.027   3.521   3.989  0.2945  0.6474 -1.2264
 1607SOL     OW16456   3.933   2.444   8.480  0.0169 -0.1076 -0.3852
 1607SOL    HW116457   3.982   2.499   8.419  1.7369 -0.7805  0.4013
 1607SOL    HW216458   3.957   2.485   8.564 -0.3050  0.2896 -0.4847
 1608SOL     OW16459   2.618   3.720  15.319  0.4716 -0.2755  0.1231
 1608SOL    HW116460   2.651   3.700  15.232  0.9994 -2.9402  0.9213
 1608SOL    HW216461   2.648   3.642  15.367  0.3656 -1.3273 -1.5421
 1609SOL     OW16462   2.932   0.224   7.877  0.2493  0.2549 -0.3463
 1609SOL    HW116463   3.018   0.257   7.903  0.1753  1.3977 -1.5471
 1609SOL    HW216464   2.950   0.180   7.794 -2.4097 -0.3332 -0.6145
 1610SOL     OW16465   3.731   3.419   7.241  0.3796  0.0575 -0.8567
 1610SOL    HW116466   3.809   3.466   7.272 -0.6120  1.5654 -0.6827
 1610SOL    HW216467   3.700   3.376   7.321  0.6553  2.1588  0.3916
 1611SOL     OW16468   0.998   1.066   2.158  0.4708  0.2202 -0.0573
 1611SOL    HW116469   0.927   1.130   2.150  0.4480 -0.0768 -2.3358
 1611SOL    HW216470   1.021   1.101   2.244 -1.1128 -0.9904  0.8596
 1612SOL     OW16471   1.523   1.171  17.387  0.0961  0.7531 -0.3533
 1612SOL    HW116472   1.509   1.109  17.316  2.5903  1.2987 -1.3275
 1612SOL    HW216473   1.579   1.229  17.334  1.0413 -0.6611 -0.8945
 1613SOL     OW16474   2.363   2.222  16.851  0.4387 -0.9063 -0.3433
 1613SOL    HW116475   2.281   2.241  16.897 -0.0711  2.2067 -2.5467
 1613SOL    HW216476   2.435   2.270  16.892  0.5782  0.2955 -2.0011
 1614SOL     OW16477   1.115   1.361   7.320 -0.0674  0.4837 -0.7713
 1614SOL    HW116478   1.088   1.370   7.228 -0.7624 -2.6737 -0.8540
 1614SOL    HW216479   1.169   1.285   7.301 -0.5863  0.0656 -0.5543
 1615SOL     OW16480   1.836   3.602  10.236  0.4073  0.0286 -0.0208
 1615SOL    HW116481   1.804   3.670  10.177 -3.2410 -0.9107  0.8596
 1615SOL    HW216482   1.808   3.617  10.326  0.5429  0.3103 -0.0257
 1616SOL     OW16483   0.262   4.730   3.516 -0.2783  0.0837 -0.2507
 1616SOL    HW116484   0.231   4.654   3.564 -1.8407 -0.2865 -1.8589
 1616SOL    HW216485   0.338   4.696   3.468 -0.2158 -0.9416  0.5852
 1617SOL     OW16486   4.222   3.727   3.350  0.3835 -0.0569  0.0100
 1617SOL    HW116487   4.172   3.783   3.291 -1.0375 -0.1380  1.1499
 1617SOL    HW216488   4.253   3.799   3.405  0.3356  0.5877 -0.7954
 1618SOL     OW16489   4.438   0.899  10.700 -0.9486 -0.2380  0.0250
 1618SOL    HW116490   4.413   0.856  10.618  1.1966  0.3721 -0.9640
 1618SOL    HW216491   4.517   0.941  10.665 -1.3384  0.5844  0.1169
 1619SOL     OW16492   2.331   3.324   2.187 -0.0104  0.4512  0.2715
 1619SOL    HW116493   2.273   3.265   2.235  1.6247 -0.7264  0.8110
 1619SOL    HW216494   2.293   3.328   2.099  1.0930 -0.7722 -0.2614
 1620SOL     OW16495   1.743   0.261  17.065 -0.2453  0.1417  0.0526
 1620SOL    HW116496   1.780   0.196  17.006 -0.9309 -0.9000  0.7854
 1620SOL    HW216497   1.825   0.307  17.087  0.5908 -2.4970  2.4321
 1621SOL     OW16498   3.919   3.956   7.357  0.3812  0.3444 -0.1677
 1621SOL    HW116499   4.012   3.954   7.379  0.5638  0.5735 -0.9277
 1621SOL    HW216500   3.917   3.958   7.262 -0.8214 -1.7958 -0.1952
 1622SOL     OW16501   3.265   1.066   2.303 -0.4008 -0.1897 -0.4102
 1622SOL    HW116502   3.293   1.141   2.251 -2.2259  0.5279 -0.3341
 1622SOL    HW216503   3.340   1.007   2.313 -0.0489 -0.1440 -2.9425
 1623SOL     OW16504   3.994   2.307  14.558  0.4563  0.0774 -0.1796
 1623SOL    HW116505   3.942   2.375  14.603  0.8056  1.8125 -2.4090
 1623SOL    HW216506   4.061   2.363  14.520 -2.1822  3.4909  0.1619
 1624SOL     OW16507   0.024   2.194  11.554  0.1629  0.1704 -0.0853
 1624SOL    HW116508   0.005   2.253  11.481  0.5327 -0.2450 -0.5132
 1624SOL    HW216509   4.675   2.207  11.597 -0.5116 -0.0677 -1.3465
 1625SOL     OW16510   3.527   3.992   6.502 -0.2883  0.3350  0.1540
 1625SOL    HW116511   3.436   3.968   6.483 -0.3160  0.3130  0.3136
 1625SOL    HW216512   3.531   4.078   6.461  0.7539  0.4047  0.4069
 1626SOL     OW16513   4.269   1.223   3.465  0.1985 -0.2293  0.3074
 1626SOL    HW116514   4.202   1.285   3.439  1.5271  1.1897  0.2558
 1626SOL    HW216515   4.218   1.142   3.470  0.5350 -0.4842 -0.3516
 1627SOL     OW16516   2.095   2.848   5.738  0.1434 -0.2765 -0.7075
 1627SOL    HW116517   2.061   2.829   5.650 -0.3967 -0.2417 -0.5038
 1627SOL    HW216518   2.168   2.786   5.729  0.0548 -0.2890 -1.3877
 1628SOL     OW16519   3.714   2.937   5.737 -0.1002  0.0953  0.2627
 1628SOL    HW116520   3.774   2.982   5.796 -0.4739 -0.1128  0.8098
 1628SOL    HW216521   3.748   2.971   5.654  0.2136 -0.7262  0.0570
 1629SOL     OW16522   0.595   3.917  13.311 -0.0498  0.1482  0.1115
 1629SOL    HW116523   0.525   3.951  13.366 -0.6196  1.2526 -1.2905
 1629SOL    HW216524   0.622   3.982  13.246 -0.7099 -1.9644 -2.2987
 1630SOL     OW16525   0.845   3.758  12.117  0.1278 -0.4246 -0.4317
 1630SOL    HW116526   0.761   3.805  12.120 -0.5063 -1.6110  0.1437
 1630SOL    HW216527   0.904   3.833  12.114 -0.9007  0.3917 -0.3928
 1631SOL     OW16528   2.874   2.095   2.650  0.0077 -0.6128  0.1482
 1631SOL    HW116529   2.888   2.001   2.641  0.3203 -0.6071  0.6116
 1631SOL    HW216530   2.955   2.141   2.671  0.1109 -1.9176  2.5556
 1632SOL     OW16531   1.462   4.122   9.440  0.2474 -0.0027  0.0707
 1632SOL    HW116532   1.506   4.171   9.370  1.0259 -2.6122 -1.2924
 1632SOL    HW216533   1.375   4.108   9.403  0.1625  0.4593  0.0986
 1633SOL     OW16534   4.609   3.870   3.502  0.1141 -0.2548 -0.0291
 1633SOL    HW116535   4.700   3.854   3.525 -0.0964  1.9998  2.3305
 1633SOL    HW216536   4.565   3.811   3.563 -0.9188  0.2493 -0.2880
 1634SOL     OW16537   2.447   2.535  15.181 -0.1229  0.2602  0.6872
 1634SOL    HW116538   2.492   2.609  15.139 -1.4537 -0.7156 -2.4768
 1634SOL    HW216539   2.390   2.585  15.240 -0.9691  1.1509 -0.8956
 1635SOL     OW16540   0.556   0.285   9.165 -0.4243  0.3281  0.1144
 1635SOL    HW116541   0.631   0.331   9.127  2.9419 -3.7265  1.7946
 1635SOL    HW216542   0.593   0.202   9.197 -0.1282  1.8153  3.6545
 1636SOL     OW16543   2.879   2.605   2.751 -0.6361  0.3587  0.0292
 1636SOL    HW116544   2.963   2.645   2.727 -0.2866 -0.1107  0.4715
 1636SOL    HW216545   2.818   2.673   2.723 -0.1714  1.0278  0.6469
 1637SOL     OW16546   1.032   3.943   7.231 -0.2889 -0.1715 -0.1465
 1637SOL    HW116547   1.034   4.030   7.191  1.2195 -0.0151  0.2763
 1637SOL    HW216548   1.126   3.936   7.249  0.1079 -1.2337 -2.5725
 1638SOL     OW16549   3.471   1.486   7.044 -0.6013 -0.1337 -0.6949
 1638SOL    HW116550   3.515   1.437   6.974 -1.5827 -2.0091 -0.0114
 1638SOL    HW216551   3.406   1.420   7.069 -0.7630  0.6330  0.8847
 1639SOL     OW16552   3.914   2.517   6.572  0.0946  0.3198 -0.6490
 1639SOL    HW116553   3.824   2.542   6.551  0.5491  1.0792 -1.7139
 1639SOL    HW216554   3.911   2.539   6.665  1.6009  0.0842 -0.5592
 1640SOL     OW16555   3.896   3.564   2.095 -0.3682  0.1819 -0.1685
 1640SOL    HW116556   3.830   3.626   2.124 -0.7959 -0.5879  0.4879
 1640SOL    HW216557   3.845   3.515   2.030 -1.9324  2.2341 -0.4992
 1641SOL     OW16558   0.869   3.755   2.925 -0.5593 -0.3380 -0.1438
 1641SOL    HW116559   0.796   3.734   2.983 -0.2937  4.5904  2.0337
 1641SOL    HW216560   0.918   3.808   2.988 -0.8289  0.4341 -0.5723
 1642SOL     OW16561   3.593   3.292   7.418  0.3539  0.0044 -0.0669
 1642SOL    HW116562   3.500   3.275   7.403  0.3896  0.4058 -0.7378
 1642SOL    HW216563   3.578   3.372   7.468 -0.9839 -0.5715  0.4720
 1643SOL     OW16564   3.810   4.028  13.664  0.1153  0.1151  0.1417
 1643SOL    HW116565   3.875   4.097  13.656  0.7377 -0.4078  0.7582
 1643SOL    HW216566   3.762   4.051  13.584  3.2967  1.6028 -1.3608
 1644SOL     OW16567   0.065   3.218   8.496  0.1375  0.3180  0.2290
 1644SOL    HW116568   0.003   3.288   8.515 -0.0858 -0.3183  1.8815
 1644SOL    HW216569   0.077   3.225   8.401  0.6322  2.2257  0.4287
 1645SOL     OW16570   4.722   1.548   8.396 -0.8754 -0.1424  0.1925
 1645SOL    HW116571   4.673   1.629   8.413  0.8013  0.7519  0.7778
 1645SOL    HW216572   0.065   1.582   8.353 -0.2870 -0.0866  1.3114
 1646SOL     OW16573   3.402   2.695   9.722 -0.1588 -0.6319  0.0976
 1646SOL    HW116574   3.455   2.726   9.795  0.8363  2.2778 -1.8810
 1646SOL    HW216575   3.479   2.700   9.666 -0.9323 -2.3402 -1.1183
 1647SOL     OW16576   3.291   3.701   5.359  0.2694 -0.6688  0.1236
 1647SOL    HW116577   3.365   3.642   5.373 -0.2467 -0.5193  3.5958
 1647SOL    HW216578   3.320   3.781   5.403 -0.2569 -0.6716  0.4843
 1648SOL     OW16579   0.472   0.091   3.693  0.6231  0.1119 -0.1154
 1648SOL    HW116580   0.516   0.024   3.640 -2.0985 -0.4939 -1.5971
 1648SOL    HW216581   0.382   0.077   3.665  1.6564 -3.0601 -1.9232
 1649SOL     OW16582   1.915   4.092   4.476 -0.0541  0.1694  0.7812
 1649SOL    HW116583   1.877   4.006   4.491  2.7504 -1.5702 -2.3250
 1649SOL    HW216584   1.843   4.150   4.453  0.4882  0.0986 -1.0424
 1650SOL     OW16585   2.614   0.296   5.515  0.0990  0.3529 -0.3974
 1650SOL    HW116586   2.663   0.374   5.488 -0.5072  1.5090  1.8257
 1650SOL    HW216587   2.664   0.238   5.458 -0.3601 -1.3198  0.9142
 1651SOL     OW16588   2.878   4.660   6.314  0.6477  0.3319 -0.2550
 1651SOL    HW116589   2.812   4.613   6.263  0.0983  3.0262 -2.0601
 1651SOL    HW216590   2.937   4.697   6.249  0.0510  2.1464  0.2038
 1652SOL     OW16591   4.181   1.039  10.748  0.5416  0.8652 -0.4665
 1652SOL    HW116592   4.245   0.968  10.751 -1.7230 -1.2682 -2.0446
 1652SOL    HW216593   4.211   1.092  10.675  1.2979  0.0797 -0.7274
 1653SOL     OW16594   1.890   1.300  12.283  0.1936  0.0315 -0.2342
 1653SOL    HW116595   1.843   1.258  12.210  0.2655  1.2159 -0.9554
 1653SOL    HW216596   1.836   1.378  12.295 -1.0222 -0.9063  0.4062
 1654SOL     OW16597   1.574   1.478   5.117  0.1156 -0.2460  0.3148
 1654SOL    HW116598   1.629   1.403   5.092  2.0126  0.1873  3.2002
 1654SOL    HW216599   1.646   1.541   5.108 -1.6207  1.5258 -0.9164
 1655SOL     OW16600   1.337   2.565   2.341 -0.3881  0.4669 -0.0180
 1655SOL    HW116601   1.370   2.576   2.431  1.4826 -3.6534 -0.1988
 1655SOL    HW216602   1.270   2.498   2.353 -0.4367  0.2252 -1.7340
 1656SOL     OW16603   1.018   3.494   2.279 -0.1491 -0.1328 -0.0563
 1656SOL    HW116604   1.074   3.458   2.347  0.4382 -2.4150 -1.7461
 1656SOL    HW216605   1.091   3.536   2.232 -0.2643  1.5009  1.2380
 1657SOL     OW16606   4.597   1.711  13.867 -0.9930 -0.2096 -0.3670
 1657SOL    HW116607   4.680   1.758  13.879 -0.4424 -1.6574  1.4359
 1657SOL    HW216608   4.615   1.630  13.914 -0.7995 -0.5655 -1.0529
 1658SOL     OW16609   3.476   4.692   7.746  0.6996 -0.3637  0.0672
 1658SOL    HW116610   3.380   4.696   7.741  0.8803 -0.7428 -3.1239
 1658SOL    HW216611   3.480   4.597   7.740  0.1687 -0.4706  1.2628
 1659SOL     OW16612   2.011   1.242  11.371  0.1688  0.1478  0.0191
 1659SOL    HW116613   1.953   1.318  11.376  0.2912  0.1069  1.8049
 1659SOL    HW216614   2.027   1.230  11.464 -1.0137  0.7490  0.3039
 1660SOL     OW16615   2.888   3.869   2.498 -0.2658 -0.1119  0.0971
 1660SOL    HW116616   2.967   3.923   2.508 -0.0303 -0.7160  1.4976
 1660SOL    HW216617   2.868   3.879   2.405 -0.2877  0.8829  0.2045
 1661SOL     OW16618   4.731   4.633   3.683  0.1584  0.5275  0.4261
 1661SOL    HW116619   0.041   4.572   3.624  0.4305  3.0528 -1.9934
 1661SOL    HW216620   4.651   4.584   3.700  0.2028  0.8029  1.4357
 1662SOL     OW16621   3.683   3.612   2.476  0.5025 -0.0584  0.0485
 1662SOL    HW116622   3.771   3.581   2.494  0.4611  0.4459  1.1220
 1662SOL    HW216623   3.673   3.691   2.529 -0.6815  0.0374 -0.3153
 1663SOL     OW16624   2.412   0.622   7.438 -0.2071  0.3844 -0.1929
 1663SOL    HW116625   2.357   0.606   7.515 -0.4431 -1.9264 -0.8495
 1663SOL    HW216626   2.496   0.577   7.449 -0.1405  0.5748  0.0692
 1664SOL     OW16627   2.311   4.347   2.520 -0.5111  0.4469  0.3266
 1664SOL    HW116628   2.290   4.263   2.563  0.7901 -0.5330 -0.9618
 1664SOL    HW216629   2.321   4.403   2.596 -1.2101  3.6230 -1.9489
 1665SOL     OW16630   3.579   1.066   3.557 -0.0587  0.6120  0.2104
 1665SOL    HW116631   3.505   1.022   3.515  0.7202  0.0944 -0.5943
 1665SOL    HW216632   3.577   1.143   3.501 -1.5395  2.3234  2.5803
 1666SOL     OW16633   4.353   0.916   4.774  0.1182 -0.1186  0.3188
 1666SOL    HW116634   4.299   0.984   4.815  0.2522  0.9732 -1.2965
 1666SOL    HW216635   4.333   0.944   4.685 -1.3253  1.0391  0.9984
 1667SOL     OW16636   1.282   4.077  11.312 -0.3270 -0.1004 -0.6188
 1667SOL    HW116637   1.266   4.124  11.230 -0.0882 -1.8145 -1.6386
 1667SOL    HW216638   1.372   4.048  11.297 -0.8141 -1.8405 -0.1290
 1668SOL     OW16639   4.039   2.535   3.630 -0.1478 -0.4803  0.0726
 1668SOL    HW116640   3.981   2.589   3.577  0.3002 -1.4794 -1.4202
 1668SOL    HW216641   4.072   2.482   3.558 -0.5404 -1.7676  0.8345
 1669SOL     OW16642   1.439   4.668   7.138 -0.2830  0.1882 -0.7996
 1669SOL    HW116643   1.450   4.635   7.049  0.7245  0.0684 -0.6403
 1669SOL    HW216644   1.354   4.710   7.144 -0.2292  0.3053 -0.8636
 1670SOL     OW16645   2.417   1.566   5.841  0.2891  0.2080 -0.1515
 1670SOL    HW116646   2.501   1.592   5.879  1.7332 -1.8199 -1.9267
 1670SOL    HW216647   2.394   1.653   5.809 -0.9311  0.4714  1.4838
 1671SOL     OW16648   0.644   0.564  13.013  0.2337  0.3021  0.0605
 1671SOL    HW116649   0.590   0.502  13.061  1.1267  1.3193  2.3610
 1671SOL    HW216650   0.722   0.512  12.994 -0.4661 -0.7362  0.0735
 1672SOL     OW16651   3.746   2.875   1.872  0.5684  0.2746 -0.5222
 1672SOL    HW116652   3.692   2.799   1.893 -0.7179  1.2041 -0.4728
 1672SOL    HW216653   3.833   2.837   1.888  1.1792  1.4498 -1.0159
 1673SOL     OW16654   3.158   4.264   9.963  0.0890 -0.4978  0.2481
 1673SOL    HW116655   3.146   4.213   9.883 -1.4935 -2.2867  1.6251
 1673SOL    HW216656   3.220   4.209  10.010  1.0328 -0.0391 -0.4677
 1674SOL     OW16657   2.443   1.249   4.326 -0.1683  0.3347 -0.1783
 1674SOL    HW116658   2.499   1.309   4.375 -0.6384  1.0903 -0.5561
 1674SOL    HW216659   2.494   1.170   4.313 -1.1144 -0.3618  0.3204
 1675SOL     OW16660   0.725   2.029  11.573  0.0603  0.4825  0.0852
 1675SOL    HW116661   0.721   2.118  11.539  0.5863 -0.0326 -1.3615
 1675SOL    HW216662   0.721   2.041  11.667  1.1607 -0.7035  0.2748
 1676SOL     OW16663   4.048   3.356   1.001  0.3593  0.5000 -0.4980
 1676SOL    HW116664   3.977   3.391   1.054  0.1726 -0.4641 -0.1246
 1676SOL    HW216665   4.076   3.284   1.057  1.9207  1.9914  0.6435
 1677SOL     OW16666   4.521   3.381   2.484 -0.2392  0.0744  0.4946
 1677SOL    HW116667   4.428   3.395   2.466 -0.5695 -2.8133 -0.0369
 1677SOL    HW216668   4.571   3.434   2.421 -0.6962  0.9756  0.8851
 1678SOL     OW16669   2.921   1.577   6.370  0.2416 -0.1186 -0.9730
 1678SOL    HW116670   2.882   1.662   6.350  0.8546  0.5573  0.6891
 1678SOL    HW216671   2.870   1.562   6.450 -1.9008 -0.0564 -2.3475
 1679SOL     OW16672   1.300   4.543  13.524 -0.2082 -0.4027  0.2422
 1679SOL    HW116673   1.353   4.471  13.557  0.1986 -0.3966 -0.3914
 1679SOL    HW216674   1.364   4.599  13.480 -0.6296  1.3879  1.9169
 1680SOL     OW16675   4.220   3.706  14.462  0.6665 -0.1690 -0.2984
 1680SOL    HW116676   4.211   3.617  14.427 -2.0102  0.9479 -2.4601
 1680SOL    HW216677   4.136   3.712  14.507  1.2091  0.1759  0.6527
 1681SOL     OW16678   1.369   3.100   5.681  0.1695 -0.1137 -0.4745
 1681SOL    HW116679   1.283   3.095   5.640 -0.6548  2.0803  0.9739
 1681SOL    HW216680   1.385   3.009   5.709 -2.6968 -0.6975 -0.7205
 1682SOL     OW16681   4.086   1.343  11.892 -0.4057 -0.3780  0.0903
 1682SOL    HW116682   4.054   1.306  11.975 -0.6021  1.2303  0.7332
 1682SOL    HW216683   4.006   1.357  11.842 -0.7638  1.8849  1.2694
 1683SOL     OW16684   1.217   1.428   8.142 -0.1990  0.1479 -0.0569
 1683SOL    HW116685   1.199   1.467   8.056  0.3759  0.5286 -0.0081
 1683SOL    HW216686   1.312   1.439   8.151 -0.0879 -0.7268 -0.1213
 1684SOL     OW16687   3.239   3.637  12.227 -0.3464  0.1690 -0.0005
 1684SOL    HW116688   3.181   3.604  12.159  0.9529  1.4286 -1.7150
 1684SOL    HW216689   3.325   3.618  12.190  0.3193  0.3921  1.4130
 1685SOL     OW16690   1.051   4.535   8.347  0.1041 -0.1979 -0.4812
 1685SOL    HW116691   1.132   4.585   8.335 -0.4904  0.5490 -1.3861
 1685SOL    HW216692   1.079   4.444   8.337  0.6584  0.2609 -3.2277
 1686SOL     OW16693   3.363   3.280  12.610  0.1442  0.0847  0.1354
 1686SOL    HW116694   3.321   3.331  12.540 -1.7386 -2.5112 -0.6437
 1686SOL    HW216695   3.279   3.246  12.642  1.3956 -1.2832  2.0026
 1687SOL     OW16696   3.760   3.113   3.500  1.1184 -0.1718 -0.2951
 1687SOL    HW116697   3.701   3.076   3.435 -1.5501  0.8232  1.5590
 1687SOL    HW216698   3.789   3.189   3.449  2.2873 -1.4741 -1.5953
 1688SOL     OW16699   1.810   2.061   0.022 -0.1475 -0.0072 -0.3431
 1688SOL    HW116700   1.860   2.038  17.684 -0.4111 -1.5667 -0.0653
 1688SOL    HW216701   1.751   2.128  17.730 -2.2546 -1.0644  1.2802
 1689SOL     OW16702   4.418   3.528   7.065 -0.0092 -0.5578  0.4603
 1689SOL    HW116703   4.434   3.622   7.056  2.1861 -0.9252  0.4953
 1689SOL    HW216704   4.334   3.518   7.020 -0.8284  0.2408  1.8084
 1690SOL     OW16705   4.083   4.635   9.191  0.4750 -0.5736  0.2747
 1690SOL    HW116706   4.170   4.595   9.181  0.0071 -1.4117 -0.3628
 1690SOL    HW216707   4.034   4.563   9.231  1.9448 -1.8035 -0.1444
 1691SOL     OW16708   2.826   1.219   1.458 -0.0982 -0.3694 -0.3000
 1691SOL    HW116709   2.737   1.216   1.494 -0.0916 -2.8304 -0.5082
 1691SOL    HW216710   2.822   1.302   1.410  0.5391 -0.4132 -0.4269
 1692SOL     OW16711   4.377   2.208   4.717 -1.0332  0.4005  0.0312
 1692SOL    HW116712   4.320   2.281   4.744 -1.3774  0.4611 -0.8320
 1692SOL    HW216713   4.459   2.257   4.713 -0.3070 -0.7867  0.4563
 1693SOL     OW16714   2.497   2.478  13.848 -0.7406  0.6731 -0.3895
 1693SOL    HW116715   2.499   2.521  13.933  2.6084 -0.3518  0.0458
 1693SOL    HW216716   2.584   2.501  13.814  0.2705 -2.9977 -0.3089
 1694SOL     OW16717   0.425   1.622  17.363  0.3482  0.5623  0.2351
 1694SOL    HW116718   0.406   1.679  17.438  1.4604  0.9922  0.1940
 1694SOL    HW216719   0.359   1.657  17.303  0.0682  2.4282  1.6128
 1695SOL     OW16720   0.587   3.020   5.814  0.6497 -0.4711  0.0578
 1695SOL    HW116721   0.508   3.055   5.773 -0.7288  0.5358  3.5931
 1695SOL    HW216722   0.628   2.986   5.734  0.1104 -0.7723 -0.0871
 1696SOL     OW16723   1.679   2.677   2.340 -0.3622 -0.3242 -0.3182
 1696SOL    HW116724   1.604   2.690   2.282  1.1605 -0.5662 -2.3549
 1696SOL    HW216725   1.735   2.621   2.286 -1.2057  0.4319 -1.9718
 1697SOL     OW16726   2.662   3.838   0.797  0.0947  0.0496  0.5535
 1697SOL    HW116727   2.583   3.889   0.816 -0.9173 -1.4732  0.3907
 1697SOL    HW216728   2.713   3.907   0.756  0.0931 -0.4923 -0.3565
 1698SOL     OW16729   1.589   3.090   9.413  0.4100  0.2947  0.4378
 1698SOL    HW116730   1.512   3.039   9.386 -0.9179  1.0842  2.7458
 1698SOL    HW216731   1.660   3.033   9.383 -0.7377 -1.4632  1.0374
 1699SOL     OW16732   3.871   0.923  10.137  0.5523  0.1855  0.1957
 1699SOL    HW116733   3.811   0.989  10.103 -0.5990 -0.7896  0.3292
 1699SOL    HW216734   3.813   0.871  10.193  2.8545 -0.2527  2.1871
 1700SOL     OW16735   3.017   4.490   9.997 -0.2422  0.7577  0.0940
 1700SOL    HW116736   3.020   4.521   9.906  2.2527 -0.9260 -0.4098
 1700SOL    HW216737   3.075   4.414   9.985 -0.5511  0.9398 -2.5817
 1701SOL     OW16738   2.332   4.503   2.783  0.1638 -0.2398  0.6557
 1701SOL    HW116739   2.374   4.468   2.862  2.3059 -1.5253 -1.0601
 1701SOL    HW216740   2.309   4.589   2.818  2.5195 -0.1245  1.9585
 1702SOL     OW16741   3.620   2.375  16.848 -0.2497 -0.0760  0.2926
 1702SOL    HW116742   3.586   2.460  16.822  0.0044 -0.0115  0.1667
 1702SOL    HW216743   3.685   2.347  16.784 -1.4571 -1.1616 -0.4507
 1703SOL     OW16744   3.445   2.966  12.035  0.3677  0.6394  0.1408
 1703SOL    HW116745   3.441   3.010  12.120  0.8001  0.6067  0.1773
 1703SOL    HW216746   3.534   2.991  12.011 -0.2519  0.5047 -2.2489
 1704SOL     OW16747   1.638   3.334   6.580  0.5124  0.0886 -0.1171
 1704SOL    HW116748   1.648   3.423   6.545  0.1425  1.6758  3.8421
 1704SOL    HW216749   1.731   3.316   6.589  0.7605  0.4683 -1.8018
 1705SOL     OW16750   3.260   2.922   5.939  0.0752 -0.0840 -0.0253
 1705SOL    HW116751   3.276   2.870   6.018  0.3113 -0.2633 -0.1913
 1705SOL    HW216752   3.251   3.006   5.982  0.4601  0.0996 -0.3014
 1706SOL     OW16753   1.872   4.550   5.379  0.0777 -0.2297  0.3587
 1706SOL    HW116754   1.921   4.485   5.429  0.3928 -0.0919  0.2283
 1706SOL    HW216755   1.844   4.615   5.444  0.1107  1.4278 -1.2748
 1707SOL     OW16756   1.496   3.276   3.411 -0.0453  0.2834 -0.2802
 1707SOL    HW116757   1.401   3.277   3.422 -0.1264 -1.0066 -0.9228
 1707SOL    HW216758   1.504   3.370   3.429 -0.1163 -0.1087  1.7844
 1708SOL     OW16759   0.275   3.502   6.105  0.5315  0.5718 -0.0906
 1708SOL    HW116760   0.348   3.449   6.073 -3.0105 -3.8286 -0.8088
 1708SOL    HW216761   0.270   3.571   6.039  0.0252 -0.4701 -1.1420
 1709SOL     OW16762   3.618   1.085   1.469 -0.5277  0.3158 -0.2276
 1709SOL    HW116763   3.702   1.077   1.512 -0.5622 -0.7513 -0.3573
 1709SOL    HW216764   3.611   1.006   1.416  0.8077 -0.0103  0.0969
 1710SOL     OW16765   3.346   2.768   8.000  0.0514 -0.6963 -0.1986
 1710SOL    HW116766   3.417   2.817   7.959 -0.5587  0.7908  0.5183
 1710SOL    HW216767   3.288   2.832   8.041 -0.0306 -0.4520 -0.7004
 1711SOL     OW16768   3.793   0.549   4.497  0.2279  0.3037  0.0642
 1711SOL    HW116769   3.753   0.621   4.448 -1.9545 -0.6845  0.4020
 1711SOL    HW216770   3.834   0.495   4.430  0.2649  0.2305  0.1462
 1712SOL     OW16771   1.069   3.824   5.586  0.1320  0.2383  0.5487
 1712SOL    HW116772   1.053   3.754   5.523 -0.1534 -0.4877  1.4290
 1712SOL    HW216773   1.149   3.863   5.551 -0.2240  0.6393  0.1751
 1713SOL     OW16774   0.582   4.579   6.926  0.2305  0.1049 -0.1863
 1713SOL    HW116775   0.605   4.636   6.852  1.6977 -0.2770 -0.0351
 1713SOL    HW216776   0.613   4.492   6.901 -1.9745 -0.8016  0.1993
 1714SOL     OW16777   2.258   4.020   8.802  0.3037  0.2141  0.2256
 1714SOL    HW116778   2.260   3.931   8.835 -1.4151  0.2732  0.4939
 1714SOL    HW216779   2.189   4.020   8.736  0.2324 -1.2018  0.3124
 1715SOL     OW16780   4.405   1.347   6.387 -0.1861 -0.2118 -0.1567
 1715SOL    HW116781   4.499   1.331   6.381  0.2605  2.9662 -1.5587
 1715SOL    HW216782   4.402   1.346   6.483 -3.5100 -0.4990 -0.2623
 1716SOL     OW16783   2.778   1.012   4.636  0.2388 -0.1207 -0.5597
 1716SOL    HW116784   2.717   1.001   4.709 -0.3306  3.1707 -0.5194
 1716SOL    HW216785   2.755   0.932   4.590  0.5898 -0.7137  0.2857
 1717SOL     OW16786   4.280   1.995   5.988  0.7460  0.0735  0.6363
 1717SOL    HW116787   4.243   1.943   6.059  0.9102  0.5473  1.0711
 1717SOL    HW216788   4.206   2.045   5.954  0.9022  0.1444  0.3943
 1718SOL     OW16789   2.544   4.385   1.112 -0.3506  0.1064  0.2736
 1718SOL    HW116790   2.457   4.374   1.075  0.0929 -0.4528 -0.5947
 1718SOL    HW216791   2.538   4.455   1.177  2.7267 -1.1886  1.9650
 1719SOL     OW16792   0.279   0.285  10.561  0.3631 -0.0638 -0.0035
 1719SOL    HW116793   0.197   0.334  10.560  0.3008 -0.1637  0.2300
 1719SOL    HW216794   0.334   0.333  10.499  3.4186 -0.7006  2.2077
 1720SOL     OW16795   1.242   3.278   3.542 -0.4150  0.2741  0.1895
 1720SOL    HW116796   1.253   3.221   3.618  0.9143  0.6745  0.2998
 1720SOL    HW216797   1.163   3.242   3.503 -1.1769  0.5410  1.4839
 1721SOL     OW16798   4.421   1.669   8.184 -0.0268  0.3134  0.1931
 1721SOL    HW116799   4.381   1.756   8.195 -0.5825  0.3080 -1.7077
 1721SOL    HW216800   4.402   1.628   8.268 -1.0394 -0.2953 -0.3368
 1722SOL     OW16801   2.653   3.970   5.423 -0.6702 -0.2680  0.9812
 1722SOL    HW116802   2.589   4.041   5.411 -1.4258 -0.7748  2.0123
 1722SOL    HW216803   2.730   4.018   5.453 -0.8115 -0.1537  1.1646
 1723SOL     OW16804   0.981   1.870   2.986 -0.4055  0.0568  0.1661
 1723SOL    HW116805   1.063   1.846   2.943  1.7062  2.2490  2.9861
 1723SOL    HW216806   0.987   1.848   3.079 -0.3004  0.4894  0.2597
 1724SOL     OW16807   3.911   4.628   2.831 -0.0024  0.2781 -0.0715
 1724SOL    HW116808   3.938   4.710   2.873 -2.8603  0.3522  1.6349
 1724SOL    HW216809   3.818   4.651   2.835 -0.1705 -0.0669 -1.9327
 1725SOL     OW16810   3.570   4.684   8.517  0.1355  0.2651  0.2474
 1725SOL    HW116811   3.604   4.627   8.447 -0.1964  1.4596 -0.8772
 1725SOL    HW216812   3.478   4.689   8.492 -0.0362  0.6180  0.9453
 1726SOL     OW16813   2.698   2.824   8.484 -0.0088  0.0093  0.1732
 1726SOL    HW116814   2.759   2.851   8.553 -3.3238  3.2058  1.8998
 1726SOL    HW216815   2.655   2.908   8.471  1.4038  1.2912  3.7307
 1727SOL     OW16816   2.398   0.098   5.955  0.1080 -0.4199  0.2138
 1727SOL    HW116817   2.457   0.169   5.977 -0.3152 -0.2484  0.7783
 1727SOL    HW216818   2.315   0.144   5.966 -0.1729 -0.9592  0.3319
 1728SOL     OW16819   3.286   4.137   7.874 -0.4389 -0.2517 -0.5391
 1728SOL    HW116820   3.346   4.091   7.934  1.1504  1.5456 -0.7439
 1728SOL    HW216821   3.296   4.229   7.900 -3.1027  0.5391 -2.3171
 1729SOL     OW16822   0.945   2.218  10.877 -0.6339  0.1967 -0.1807
 1729SOL    HW116823   0.947   2.173  10.962  0.5725  1.1196  0.2869
 1729SOL    HW216824   0.889   2.168  10.817 -2.6736  1.5709  0.5965
 1730SOL     OW16825   1.204   3.438   2.458  0.4998 -0.2174  0.0049
 1730SOL    HW116826   1.290   3.442   2.416  0.7018 -2.1705  0.2338
 1730SOL    HW216827   1.218   3.499   2.531  0.1578 -1.0946  0.8051
 1731SOL     OW16828   3.965   0.325   6.087  0.2443  0.2688 -0.3234
 1731SOL    HW116829   3.916   0.344   6.167 -0.6689 -0.7264 -0.6603
 1731SOL    HW216830   3.999   0.411   6.060  0.1961  0.5224  0.4120
 1732SOL     OW16831   4.629   3.758   6.475  0.4435 -0.5823  0.2088
 1732SOL    HW116832   4.583   3.831   6.516 -1.3502 -0.4061 -2.1569
 1732SOL    HW216833   4.617   3.687   6.537 -1.0118  1.0823  1.8269
 1733SOL     OW16834   4.155   0.669  10.793 -0.5434 -0.1392  0.2004
 1733SOL    HW116835   4.183   0.578  10.781 -0.7821 -0.1633 -0.1629
 1733SOL    HW216836   4.061   0.665  10.808 -0.5190 -0.7377  0.1960
 1734SOL     OW16837   0.673   2.894   5.592 -0.6623  0.1573 -0.6361
 1734SOL    HW116838   0.765   2.869   5.603 -0.4666  0.8675 -0.6041
 1734SOL    HW216839   0.637   2.813   5.557  0.6111 -0.6075 -0.1985
 1735SOL     OW16840   2.238   1.027  11.684  0.5425  0.4741  0.4793
 1735SOL    HW116841   2.284   1.111  11.689  0.5585  0.4861  0.1432
 1735SOL    HW216842   2.153   1.071  11.676 -0.4406 -1.1419  2.1744
 1736SOL     OW16843   1.554   0.253  17.257 -0.1555  0.2990  0.5817
 1736SOL    HW116844   1.605   0.275  17.180 -0.7901 -1.2982 -0.2941
 1736SOL    HW216845   1.466   0.246  17.220  0.6052 -0.7068 -0.9946
 1737SOL     OW16846   4.512   2.759   7.513 -0.0509 -0.1597 -0.0700
 1737SOL    HW116847   4.578   2.698   7.481 -0.7460 -1.7094  1.4463
 1737SOL    HW216848   4.555   2.845   7.512 -0.3913  0.0364  1.7044
 1738SOL     OW16849   1.584   3.789   0.010 -0.3057 -0.5891  0.4160
 1738SOL    HW116850   1.622   3.859   0.064 -1.9236 -1.1345  2.2557
 1738SOL    HW216851   1.490   3.807   0.005 -0.4900 -1.1516  1.7135
 1739SOL     OW16852   1.623   0.628   6.042  0.6539  0.4108  0.0095
 1739SOL    HW116853   1.572   0.700   6.006 -0.3505 -0.2606  0.0881
 1739SOL    HW216854   1.680   0.622   5.966  0.3206  0.3751 -0.2336
 1740SOL     OW16855   0.386   2.660   4.054 -0.0461 -0.1366 -0.0143
 1740SOL    HW116856   0.463   2.629   4.102  0.3559 -0.4766 -0.8737
 1740SOL    HW216857   0.367   2.744   4.096 -1.1490 -1.7752  2.6688
 1741SOL     OW16858   4.245   3.978   1.209  0.2515  0.2728 -0.2183
 1741SOL    HW116859   4.335   3.945   1.203  0.9651  2.4362 -1.1679
 1741SOL    HW216860   4.265   4.070   1.225 -0.6455  0.7257 -1.7267
 1742SOL     OW16861   4.705   0.821  14.012 -0.3480  0.2704  0.7567
 1742SOL    HW116862   4.656   0.756  14.062 -0.2464  0.1903  0.7502
 1742SOL    HW216863   4.656   0.835  13.931  2.6153 -4.2868 -1.7647
 1743SOL     OW16864   2.671   2.796   2.660  0.2477  0.6947 -0.7731
 1743SOL    HW116865   2.686   2.885   2.693 -0.0608  1.1312 -1.8404
 1743SOL    HW216866   2.582   2.779   2.689  0.7051 -0.2769  0.0838
 1744SOL     OW16867   0.234   3.195   4.531  0.1157  0.7816  0.0110
 1744SOL    HW116868   0.145   3.229   4.518 -0.3184 -0.2739  0.2258
 1744SOL    HW216869   0.217   3.128   4.598  0.3209  0.9418  0.2227
 1745SOL     OW16870   3.333   1.225   1.936  0.2958 -0.1167 -0.6080
 1745SOL    HW116871   3.418   1.238   1.977  0.6966  0.1733 -1.5309
 1745SOL    HW216872   3.331   1.294   1.868  0.0505 -1.4029 -1.9042
 1746SOL     OW16873   3.054   1.125  10.011 -0.5455 -0.1936 -0.2058
 1746SOL    HW116874   3.124   1.093   9.955  1.5337  2.9065  0.6184
 1746SOL    HW216875   2.973   1.099   9.966  0.4698 -2.4124 -0.7246
 1747SOL     OW16876   4.297   4.693   6.341  0.3213 -0.3319  0.1039
 1747SOL    HW116877   4.316   4.624   6.404 -0.6345 -0.3332  0.3834
 1747SOL    HW216878   4.350   0.031   6.373 -0.3421  0.0058  0.4207
 1748SOL     OW16879   2.600   0.260  13.585 -0.5917 -0.4905 -0.5969
 1748SOL    HW116880   2.505   0.274  13.583 -0.3728  0.4981 -3.4243
 1748SOL    HW216881   2.628   0.349  13.564  0.2085 -0.2341  1.5445
 1749SOL     OW16882   4.069   0.241  13.426 -0.4254  0.8039 -0.6229
 1749SOL    HW116883   4.101   0.327  13.400 -0.1602  1.9109  3.3877
 1749SOL    HW216884   4.118   0.208  13.501 -2.2507 -1.8943 -0.6213
 1750SOL     OW16885   4.233   1.883   3.856  0.1238 -0.1822 -0.1831
 1750SOL    HW116886   4.316   1.924   3.881 -1.3621  2.3997  0.4431
 1750SOL    HW216887   4.221   1.826   3.931  1.9731 -0.4635 -0.0893
 1751SOL     OW16888   2.444   1.742   1.431  0.0130  0.2194  0.5686
 1751SOL    HW116889   2.462   1.758   1.524 -0.2720  1.3495  0.4264
 1751SOL    HW216890   2.415   1.651   1.436 -0.4655  0.3586  0.3488
 1752SOL     OW16891   2.730   0.372   8.803 -0.6301 -0.1274 -0.2198
 1752SOL    HW116892   2.755   0.412   8.886  3.2199 -2.8858 -0.0573
 1752SOL    HW216893   2.664   0.312   8.838  0.7184 -1.6801 -0.3652
 1753SOL     OW16894   4.618   4.295  17.368 -0.1476 -0.2419 -0.0016
 1753SOL    HW116895   4.587   4.385  17.374 -2.2432 -0.9674  0.2755
 1753SOL    HW216896   4.636   4.286  17.462  0.2061  2.3597  0.1753
 1754SOL     OW16897   4.282   1.233   1.446  0.2431  0.1522  0.6196
 1754SOL    HW116898   4.253   1.301   1.508  2.1195  2.1509 -0.6874
 1754SOL    HW216899   4.369   1.265   1.423 -0.8346  0.2862 -3.1831
 1755SOL     OW16900   3.208   4.711   7.654  0.9184  0.4905 -0.0292
 1755SOL    HW116901   3.132   0.030   7.632  2.6580  2.4973 -1.0303
 1755SOL    HW216902   3.241   4.685   7.569  0.9327 -0.6281  0.3206
 1756SOL     OW16903   1.716   1.777   4.167 -0.4037  0.0884 -0.0556
 1756SOL    HW116904   1.722   1.722   4.245 -0.6507 -2.2968 -1.7194
 1756SOL    HW216905   1.780   1.844   4.191  1.3746 -1.2727 -1.0247
 1757SOL     OW16906   4.576   1.088  15.415 -0.1736 -1.0383 -0.1118
 1757SOL    HW116907   4.548   1.107  15.504  0.3521 -1.5105  0.1564
 1757SOL    HW216908   4.599   1.175  15.384  2.3271 -0.6873  2.6547
 1758SOL     OW16909   3.969   0.283  16.065  0.0734  0.2463 -0.8626
 1758SOL    HW116910   3.915   0.203  16.059  0.1920  0.1527 -0.6952
 1758SOL    HW216911   3.936   0.322  16.146  2.0208  0.1742 -0.0544
 1759SOL     OW16912   2.613   0.284   6.646  0.6559  0.3417  1.0068
 1759SOL    HW116913   2.543   0.335   6.606  1.5136 -0.6434 -1.7892
 1759SOL    HW216914   2.625   0.336   6.725  1.1740 -1.1516  1.9128
 1760SOL     OW16915   3.168   2.775   2.387  0.0854  0.2659  0.4573
 1760SOL    HW116916   3.081   2.778   2.348  0.8828 -2.6432 -1.5208
 1760SOL    HW216917   3.222   2.780   2.308 -0.1380  0.8825  0.3388
 1761SOL     OW16918   3.076   3.927   7.629 -0.2162 -0.5425 -0.0404
 1761SOL    HW116919   3.067   3.983   7.552 -0.8576  0.4420  0.7413
 1761SOL    HW216920   3.062   3.995   7.695  0.5145 -1.4068  1.0035
 1762SOL     OW16921   0.186   2.567   8.952 -0.5737  0.0455 -0.6813
 1762SOL    HW116922   0.189   2.509   9.028 -2.9176  0.9174  0.0826
 1762SOL    HW216923   0.275   2.601   8.944 -0.3454 -0.4899 -0.4463
 1763SOL     OW16924   1.646   2.602  14.789 -0.3864  0.7930  0.0958
 1763SOL    HW116925   1.584   2.641  14.850  1.7820  3.2817  0.6941
 1763SOL    HW216926   1.722   2.657  14.806  0.4868 -0.5178  0.4691
 1764SOL     OW16927   4.156   1.138   4.925 -0.2175  0.6708 -0.1593
 1764SOL    HW116928   4.132   1.229   4.908  1.4379  0.9828 -0.8399
 1764SOL    HW216929   4.239   1.155   4.969  0.7277 -2.4388 -0.7212
 1765SOL     OW16930   3.345   3.939   3.701  0.5868 -0.6373  0.5053
 1765SOL    HW116931   3.419   3.880   3.697  0.3842 -0.7569 -1.6496
 1765SOL    HW216932   3.340   3.966   3.609  4.1543 -1.9419 -0.0495
 1766SOL     OW16933   2.135   1.943  13.814  0.2319  0.4568  0.6019
 1766SOL    HW116934   2.101   1.912  13.898 -1.9424  2.7670  0.5788
 1766SOL    HW216935   2.061   1.998  13.787  0.8740 -0.4405 -3.0639
 1767SOL     OW16936   2.927   0.387   6.857  0.3636 -0.4390 -0.6521
 1767SOL    HW116937   2.951   0.296   6.843 -1.9260 -1.0095 -0.7450
 1767SOL    HW216938   2.893   0.425   6.776  1.2652  0.9133 -0.4016
 1768SOL     OW16939   0.882   3.800  17.214  0.9521  0.3798  0.3010
 1768SOL    HW116940   0.959   3.850  17.188 -0.1806  2.0775  0.2103
 1768SOL    HW216941   0.922   3.722  17.251 -1.5814 -1.7174 -1.3703
 1769SOL     OW16942   2.345   1.957  12.393  0.0137 -0.1195 -0.0664
 1769SOL    HW116943   2.348   2.044  12.432 -2.4589 -0.6747  1.3227
 1769SOL    HW216944   2.254   1.932  12.408  1.1784 -3.9686  0.7185
 1770SOL     OW16945   3.097   4.004   8.054 -0.2996 -0.4739 -0.3688
 1770SOL    HW116946   3.097   4.032   7.963  1.3000  1.4655  0.2333
 1770SOL    HW216947   3.155   4.066   8.099 -1.3048 -0.1731  0.5124
 1771SOL     OW16948   4.063   2.350  14.859 -0.2081 -0.7920  0.1615
 1771SOL    HW116949   4.041   2.349  14.952 -0.7504  1.4165  0.0700
 1771SOL    HW216950   4.007   2.276  14.834 -1.0866 -0.5837  1.4804
 1772SOL     OW16951   2.286   0.221   4.701  0.0827  0.4092 -0.6229
 1772SOL    HW116952   2.368   0.185   4.734 -0.2853  0.9868  0.9333
 1772SOL    HW216953   2.317   0.236   4.612 -0.3625  0.3358 -0.7909
 1773SOL     OW16954   4.292   4.662  16.427 -0.1391  0.5043 -0.6147
 1773SOL    HW116955   4.240   4.663  16.507  1.1194 -1.4893  0.2152
 1773SOL    HW216956   4.226   4.659  16.357 -1.9647  0.8040  1.0940
 1774SOL     OW16957   0.769   2.258   7.687 -0.1303 -0.3331 -0.2235
 1774SOL    HW116958   0.793   2.349   7.703  0.8236 -0.5928 -0.1739
 1774SOL    HW216959   0.706   2.239   7.757  0.7221  0.8044  0.8590
 1775SOL     OW16960   3.310   0.876   9.622  0.1413 -0.4613  0.1009
 1775SOL    HW116961   3.303   0.780   9.617  1.4075 -0.4710 -1.3733
 1775SOL    HW216962   3.247   0.901   9.555 -1.9122 -1.8279  1.5038
 1776SOL     OW16963   3.451   3.800   1.925 -0.3342 -0.1198 -0.7852
 1776SOL    HW116964   3.519   3.733   1.919 -0.1710 -0.2146  2.3956
 1776SOL    HW216965   3.481   3.862   1.991  0.5719 -0.6082 -0.7391
 1777SOL     OW16966   1.619   0.702   9.387 -0.2067 -0.0671  0.4815
 1777SOL    HW116967   1.589   0.784   9.348  1.3603  0.5885  0.6656
 1777SOL    HW216968   1.544   0.642   9.384 -1.1485  0.9705  3.3702
 1778SOL     OW16969   0.519   2.618   6.280 -0.0799 -0.2542  0.7970
 1778SOL    HW116970   0.544   2.533   6.318 -0.6836 -0.7461  0.0853
 1778SOL    HW216971   0.440   2.638   6.330 -0.7146 -0.7145 -0.0428
 1779SOL     OW16972   4.693   1.704   5.703 -0.2823  0.6011  0.1602
 1779SOL    HW116973   4.635   1.649   5.756  0.1227  1.1628  1.1825
 1779SOL    HW216974   0.045   1.679   5.733 -0.1673 -0.3063 -0.9304
 1780SOL     OW16975   2.810   0.448   9.517 -0.1861 -0.1335 -0.7655
 1780SOL    HW116976   2.850   0.410   9.439 -0.4615 -0.6257 -0.6688
 1780SOL    HW216977   2.892   0.480   9.554 -0.6461 -0.0919  0.2060
 1781SOL     OW16978   3.869   1.503   8.153  0.1179  0.1173  0.1047
 1781SOL    HW116979   3.793   1.526   8.206  0.5071 -0.2142  0.8027
 1781SOL    HW216980   3.828   1.443   8.090  0.1243  1.9203 -1.6265
 1782SOL     OW16981   3.287   4.110  16.898  0.3543 -0.2587  0.2218
 1782SOL    HW116982   3.220   4.121  16.830 -0.8664  0.6478  1.5409
 1782SOL    HW216983   3.239   4.131  16.979  0.4319  0.0567  0.1856
 1783SOL     OW16984   2.139   1.264  10.749  0.5347  0.2158  0.4193
 1783SOL    HW116985   2.189   1.183  10.737  0.9762  0.7521 -1.2746
 1783SOL    HW216986   2.112   1.283  10.659  1.3865  1.0216  0.3345
 1784SOL     OW16987   2.918   4.298   0.632 -0.5441 -0.0577  0.0406
 1784SOL    HW116988   2.899   4.387   0.658  1.0105 -0.4359  2.4147
 1784SOL    HW216989   3.010   4.320   0.619 -0.2545 -0.5210  1.2979
 1785SOL     OW16990   4.549   2.853   2.992 -0.0886  0.1454 -0.1775
 1785SOL    HW116991   4.572   2.853   2.899 -0.3948 -0.1962 -0.2523
 1785SOL    HW216992   4.638   2.868   3.025 -0.0196  3.1873 -1.6875
 1786SOL     OW16993   3.641   3.252   0.328 -0.3357  0.0408  0.0233
 1786SOL    HW116994   3.622   3.158   0.334 -0.5373  0.0511 -0.4201
 1786SOL    HW216995   3.690   3.257   0.245 -1.7013  0.4988 -0.7628
 1787SOL     OW16996   3.693   3.506   9.473  0.1981 -0.4556  0.3099
 1787SOL    HW116997   3.674   3.414   9.491 -3.7970 -0.0888 -1.9600
 1787SOL    HW216998   3.750   3.525   9.548  0.8313  0.9865 -0.5302
 1788SOL     OW16999   1.987   0.783   9.794  0.2299 -0.6908  0.1914
 1788SOL    HW117000   1.986   0.692   9.764  0.8039  0.0626 -2.1186
 1788SOL    HW217001   2.032   0.768   9.877  0.0738 -0.6981  0.2744
 1789SOL     OW17002   1.800   0.444   8.371  0.2516 -0.1493  0.0016
 1789SOL    HW117003   1.713   0.408   8.391 -0.2393 -0.0857 -2.0952
 1789SOL    HW217004   1.806   0.508   8.442 -0.1156  0.0945 -0.1926
 1790SOL     OW17005   3.839   1.079   9.909 -0.2831  0.2931 -0.6297
 1790SOL    HW117006   3.846   0.990   9.944  0.0739 -0.1776 -1.8864
 1790SOL    HW217007   3.824   1.067   9.815 -1.6417  1.6068 -0.5785
 1791SOL     OW17008   4.672   3.088   3.786 -1.0171 -0.2899  0.0927
 1791SOL    HW117009   4.691   3.176   3.818  0.2961 -0.5882  0.1407
 1791SOL    HW217010   4.679   3.096   3.690  2.0103  0.5780  0.4061
 1792SOL     OW17011   4.402   1.374   2.316  0.1975 -0.0954 -0.1804
 1792SOL    HW117012   4.386   1.281   2.305  1.7200 -0.0685 -2.4805
 1792SOL    HW217013   4.463   1.382   2.243 -0.2004  0.6852 -0.4228
 1793SOL     OW17014   3.236   1.252   6.028  0.3955 -0.1862 -0.1101
 1793SOL    HW117015   3.200   1.175   6.073 -1.9847  2.0039  1.7288
 1793SOL    HW217016   3.171   1.320   6.047 -0.3268 -0.6056 -1.0300
 1794SOL     OW17017   3.180   3.545   9.709  0.3842  0.4741 -0.3695
 1794SOL    HW117018   3.166   3.480   9.640 -1.3987 -0.9516  1.3537
 1794SOL    HW217019   3.129   3.505   9.780  1.3842  0.1077  0.1503
 1795SOL     OW17020   1.343   3.757   8.208 -0.0001 -0.2399  0.1450
 1795SOL    HW117021   1.340   3.678   8.262 -0.4647  0.2676  0.8565
 1795SOL    HW217022   1.272   3.748   8.145 -0.1543 -1.8432  0.5473
 1796SOL     OW17023   0.175   3.014   4.707 -0.5555  0.4283  0.0802
 1796SOL    HW117024   0.171   2.932   4.656 -0.2603  0.3938  0.1095
 1796SOL    HW217025   0.253   3.000   4.761 -0.9525 -1.8450  0.0945
 1797SOL     OW17026   1.114   3.701   6.086  0.0667  0.2556 -0.6003
 1797SOL    HW117027   1.069   3.745   6.014 -1.8396 -0.0276  0.4225
 1797SOL    HW217028   1.114   3.612   6.050 -0.4600 -0.7423  1.8715
 1798SOL     OW17029   3.480   1.421   4.163  0.4394  0.1267 -0.0581
 1798SOL    HW117030   3.510   1.507   4.133  0.6075  0.0091 -0.2311
 1798SOL    HW217031   3.411   1.408   4.098 -0.8860  0.2938  1.3239
 1799SOL     OW17032   3.995   2.372  15.149 -0.5177 -0.3919 -0.6319
 1799SOL    HW117033   4.033   2.451  15.187  0.8973 -1.1619 -0.4415
 1799SOL    HW217034   4.004   2.316  15.226  0.9478  1.3429  0.4545
 1800SOL     OW17035   3.654   3.092   4.191 -0.1024 -0.5268  0.2845
 1800SOL    HW117036   3.693   3.178   4.206 -2.0617  0.0913  1.7352
 1800SOL    HW217037   3.692   3.046   4.266  0.2107 -1.2302 -0.2997
 1801SOL     OW17038   4.037   1.202  11.558 -0.4284  0.1588  0.0920
 1801SOL    HW117039   3.996   1.254  11.627 -0.9516 -2.0707  1.4949
 1801SOL    HW217040   4.106   1.264  11.535 -1.3553  1.6331  1.2984
 1802SOL     OW17041   3.283   0.720   2.039 -0.4044  0.4167 -0.2607
 1802SOL    HW117042   3.321   0.633   2.053  1.0801  1.1760  0.5571
 1802SOL    HW217043   3.308   0.736   1.949  1.3247 -0.3904  0.0599
 1803SOL     OW17044   3.913   4.054   5.380  0.3228  0.3085 -0.1404
 1803SOL    HW117045   3.866   4.126   5.340 -1.4903 -2.1055 -2.3476
 1803SOL    HW217046   3.915   3.978   5.321  1.3598 -0.9668  1.5355
 1804SOL     OW17047   3.049   2.347   8.240  0.2357 -0.1145 -0.0339
 1804SOL    HW117048   3.139   2.337   8.271  0.8399 -1.2339 -2.1528
 1804SOL    HW217049   3.029   2.255   8.222 -1.2653  0.1839  0.1308
 1805SOL     OW17050   2.064   0.819   9.080 -0.1175 -0.3766 -0.1189
 1805SOL    HW117051   1.987   0.850   9.126 -0.4593 -2.2624  0.5955
 1805SOL    HW217052   2.084   0.884   9.013  2.1547 -0.9017  0.0294
 1806SOL     OW17053   4.336   4.180  13.270 -0.0100  0.1863 -0.2573
 1806SOL    HW117054   4.381   4.096  13.271  1.3559  0.8968 -1.7114
 1806SOL    HW217055   4.245   4.151  13.278  0.6760 -1.7149  0.4500
 1807SOL     OW17056   2.034   3.559   0.578 -0.2259  0.5268 -0.2497
 1807SOL    HW117057   2.119   3.594   0.604  0.7539 -1.6820 -0.4303
 1807SOL    HW217058   2.051   3.471   0.543  1.2488  1.1270 -1.0330
 1808SOL     OW17059   2.305   2.211   4.190 -1.2798  0.1519  0.5766
 1808SOL    HW117060   2.314   2.134   4.134 -2.2497  2.1690 -2.3721
 1808SOL    HW217061   2.262   2.273   4.131 -0.3487  0.0260 -0.2317
 1809SOL     OW17062   3.115   0.314   3.386 -0.0156 -0.5266 -0.0886
 1809SOL    HW117063   3.129   0.256   3.461 -1.4394 -1.5783 -0.6332
 1809SOL    HW217064   3.189   0.281   3.334  0.2077  1.5863 -1.0851
 1810SOL     OW17065   1.446   2.055   9.156  0.4151  0.8324 -0.2735
 1810SOL    HW117066   1.510   2.054   9.227  0.5015 -2.9468 -0.4038
 1810SOL    HW217067   1.471   2.127   9.098 -2.3251  2.3988  0.4895
 1811SOL     OW17068   3.855   2.751   3.214  0.8685  0.2966 -0.3297
 1811SOL    HW117069   3.938   2.781   3.177  2.1871 -1.2355  1.3915
 1811SOL    HW217070   3.799   2.823   3.185 -0.0934 -0.0450  0.6917
 1812SOL     OW17071   2.490   2.664   6.573  0.5853 -0.2938 -0.1836
 1812SOL    HW117072   2.494   2.611   6.653  2.8601 -1.1318 -0.8504
 1812SOL    HW217073   2.394   2.663   6.571  0.6006  0.0359 -0.7979
 1813SOL     OW17074   0.374   0.868   3.384 -0.2381  0.3899  0.1982
 1813SOL    HW117075   0.432   0.937   3.351 -0.3471  0.6295  0.5107
 1813SOL    HW217076   0.302   0.927   3.407 -0.8302 -0.6250  0.9577
 1814SOL     OW17077   0.117   3.291  10.033  0.5699 -0.0092 -0.0420
 1814SOL    HW117078   0.047   3.235  10.068  0.0581  0.4641 -0.3005
 1814SOL    HW217079   0.185   3.258  10.092  0.0306  0.0953  0.6367
 1815SOL     OW17080   1.986   1.278   4.877  0.2260  0.4927 -0.0322
 1815SOL    HW117081   2.066   1.311   4.918  1.0901  0.5009 -1.7467
 1815SOL    HW217082   2.029   1.244   4.799 -0.2501  2.1781 -1.0191
 1816SOL     OW17083   0.747   0.239   8.163  0.2121  0.9719  0.1496
 1816SOL    HW117084   0.754   0.329   8.195  1.6468  0.1526  2.1637
 1816SOL    HW217085   0.815   0.238   8.096  1.1804 -0.4449  1.1316
 1817SOL     OW17086   0.886   0.872  16.844 -0.2835  0.5407  0.0952
 1817SOL    HW117087   0.921   0.869  16.933  1.5819 -0.1910 -0.6709
 1817SOL    HW217088   0.949   0.922  16.793 -0.8041 -0.4145 -1.4798
 1818SOL     OW17089   2.287   0.861  13.633  0.5619  0.3410 -0.7344
 1818SOL    HW117090   2.343   0.812  13.694  1.2358  2.3803  0.2621
 1818SOL    HW217091   2.216   0.875  13.696  0.6335 -0.4480 -0.4767
 1819SOL     OW17092   4.539   0.779  17.391 -0.0561  0.5887 -0.6253
 1819SOL    HW117093   4.514   0.809  17.478 -0.6784  0.7314 -0.8564
 1819SOL    HW217094   4.542   0.865  17.349 -0.0259  1.4341  1.1071
 1820SOL     OW17095   2.649   2.135   6.334  0.0688 -0.3124 -0.0013
 1820SOL    HW117096   2.741   2.130   6.307 -0.3071  2.1481 -1.6299
 1820SOL    HW217097   2.649   2.081   6.413  0.5314  0.3342  0.4398
 1821SOL     OW17098   4.686   4.516  12.823  0.2808  0.0278  0.0374
 1821SOL    HW117099   4.718   4.586  12.880  1.4659  0.7800 -1.5645
 1821SOL    HW217100   4.633   4.471  12.890 -0.2472  0.3762 -0.1434
 1822SOL     OW17101   3.389   0.148   0.211  0.0312  0.4584 -0.6744
 1822SOL    HW117102   3.372   0.234   0.249  1.3788  0.0809  0.7893
 1822SOL    HW217103   3.402   0.101   0.293  0.6002  1.5077 -0.1682
 1823SOL     OW17104   3.895   4.359   5.676 -0.5402  0.1763  0.5120
 1823SOL    HW117105   3.929   4.448   5.677 -0.7419  0.2736 -2.1424
 1823SOL    HW217106   3.807   4.364   5.638  1.3642  1.6793 -3.5991
 1824SOL     OW17107   1.471   2.186  15.572  0.6879  0.1254 -0.1707
 1824SOL    HW117108   1.435   2.252  15.631  0.8955 -0.3990  0.5328
 1824SOL    HW217109   1.481   2.243  15.495 -0.9991  1.1090  0.3419
 1825SOL     OW17110   1.714   0.224  17.447  0.2002 -0.0917 -0.0075
 1825SOL    HW117111   1.641   0.241  17.388  1.0345  1.1325 -0.7009
 1825SOL    HW217112   1.777   0.292  17.422 -1.1542  0.1902 -2.6446
 1826SOL     OW17113   4.624   1.343   9.104  0.8383 -0.0460 -0.3574
 1826SOL    HW117114   4.547   1.393   9.130 -0.3482 -1.2511 -1.6278
 1826SOL    HW217115   4.647   1.286   9.178  0.8214  1.9652  1.2077
 1827SOL     OW17116   2.781   2.278   7.115 -0.4678 -0.6376  0.5247
 1827SOL    HW117117   2.741   2.240   7.193 -1.4619 -1.3581 -0.3191
 1827SOL    HW217118   2.871   2.266   7.143 -0.4677  0.1723  0.8784
 1828SOL     OW17119   1.931   4.123   7.968  0.2649 -0.2442 -0.2291
 1828SOL    HW117120   1.892   4.036   7.966 -0.8326  0.2145  1.2269
 1828SOL    HW217121   1.857   4.182   7.980 -0.2189 -0.9200  0.1210
 1829SOL     OW17122   1.855   4.395  16.851  0.3882  0.4025 -0.8487
 1829SOL    HW117123   1.949   4.407  16.864  0.6086 -0.8072 -1.3587
 1829SOL    HW217124   1.824   4.480  16.820  2.7957  2.0139  1.2132
 1830SOL     OW17125   3.836   0.006  10.397 -0.0617 -0.3461 -0.3881
 1830SOL    HW117126   3.909   4.702  10.446 -0.1550  2.3282  1.8522
 1830SOL    HW217127   3.835   0.098  10.421 -0.8719 -0.2260 -0.8672
 1831SOL     OW17128   1.125   4.374  14.097 -0.0022 -0.0667  0.3802
 1831SOL    HW117129   1.077   4.438  14.149  0.9741  0.6687  0.3746
 1831SOL    HW217130   1.187   4.434  14.056 -0.8852  0.4836 -0.1241
 1832SOL     OW17131   1.009   2.534   6.178  0.5367 -0.0655  0.2358
 1832SOL    HW117132   0.927   2.492   6.151  1.0392 -0.3711 -0.8023
 1832SOL    HW217133   0.989   2.552   6.270  1.2771  0.6300  0.2578
 1833SOL     OW17134   0.710   2.454  15.190  0.1064 -0.4568 -0.4792
 1833SOL    HW117135   0.787   2.419  15.235 -1.1243 -1.6770  0.6880
 1833SOL    HW217136   0.739   2.511  15.119  0.7862  0.5105  0.5757
 1834SOL     OW17137   2.484   1.516   4.908 -0.1162 -0.1866  0.4515
 1834SOL    HW117138   2.546   1.470   4.965 -0.6375 -1.0712  0.2975
 1834SOL    HW217139   2.490   1.461   4.830  1.1947 -0.1155  0.4944
 1835SOL     OW17140   1.357   2.757   3.513  0.6861  0.0195  0.2027
 1835SOL    HW117141   1.292   2.791   3.574  2.5898 -0.7517  2.6365
 1835SOL    HW217142   1.427   2.821   3.528 -0.1014  0.9220  0.0411
 1836SOL     OW17143   3.013   3.593   5.399  0.4418  0.1958  0.2728
 1836SOL    HW117144   2.971   3.580   5.484 -1.5929  1.8954 -0.4645
 1836SOL    HW217145   3.105   3.606   5.420 -0.1218  1.5916  1.8453
 1837SOL     OW17146   1.848   3.888   9.141 -0.2847  0.2972 -0.0216
 1837SOL    HW117147   1.941   3.896   9.158 -0.0546  1.3722 -1.8698
 1837SOL    HW217148   1.808   3.905   9.227  2.9078 -0.2445  1.5596
 1838SOL     OW17149   1.472   2.491   6.816  0.5599  0.2772 -0.5523
 1838SOL    HW117150   1.381   2.479   6.843  0.3483 -0.4342 -1.5514
 1838SOL    HW217151   1.525   2.450   6.884 -0.0031 -0.9116 -0.8352
 1839SOL     OW17152   2.375   0.923   1.236 -0.0209  0.5369 -0.2554
 1839SOL    HW117153   2.468   0.919   1.258  0.0047 -0.6110 -0.5564
 1839SOL    HW217154   2.368   1.019   1.241  0.1417  0.5647 -0.5531
 1840SOL     OW17155   1.254   3.342  12.913 -0.6286 -0.0449 -0.0061
 1840SOL    HW117156   1.311   3.341  12.990  0.1105 -1.8808 -0.5893
 1840SOL    HW217157   1.166   3.346  12.951 -0.9752 -0.6245 -0.7439
 1841SOL     OW17158   2.097   1.965   7.483  0.3695  0.1727  0.4107
 1841SOL    HW117159   2.078   1.907   7.409  1.8352  1.9551 -1.3854
 1841SOL    HW217160   2.086   1.908   7.559 -0.7167 -0.9764 -0.6068
 1842SOL     OW17161   3.210   3.850   9.490 -0.3411  0.1078  0.2284
 1842SOL    HW117162   3.278   3.783   9.499  1.2885  1.6891 -0.2909
 1842SOL    HW217163   3.130   3.809   9.520 -1.1381  0.7051 -1.0734
 1843SOL     OW17164   2.415   2.080   2.573 -0.0897 -0.5938 -0.2182
 1843SOL    HW117165   2.489   2.059   2.630  0.9741 -0.0796 -1.4338
 1843SOL    HW217166   2.407   1.996   2.529  3.4158 -0.7946 -0.4890
 1844SOL     OW17167   0.404   2.803   5.301  0.0636 -0.2129  0.4755
 1844SOL    HW117168   0.390   2.897   5.306  0.4050 -0.2712  2.5752
 1844SOL    HW217169   0.331   2.770   5.354 -0.3719  0.9772  0.6138
 1845SOL     OW17170   4.122   0.317   4.672 -0.2101  0.5068  0.3552
 1845SOL    HW117171   4.162   0.284   4.753 -0.6707  0.2830  0.4911
 1845SOL    HW217172   4.037   0.335   4.714 -1.7272  0.0750 -2.5238
 1846SOL     OW17173   2.501   2.671   8.259 -0.8820 -0.7015 -0.4773
 1846SOL    HW117174   2.584   2.677   8.212 -1.1345  1.0271 -0.6975
 1846SOL    HW217175   2.523   2.750   8.310  0.0632 -0.0981 -1.8310
 1847SOL     OW17176   1.910   0.229   2.705 -0.0063  0.0880  0.5017
 1847SOL    HW117177   1.845   0.172   2.665 -2.2457  0.7769  3.1531
 1847SOL    HW217178   1.989   0.174   2.701 -1.3439 -1.7052 -0.9987
 1848SOL     OW17179   4.487   1.723   8.802  0.3869  0.3694 -0.0525
 1848SOL    HW117180   4.498   1.807   8.757 -0.9508  0.9041  0.6305
 1848SOL    HW217181   4.460   1.678   8.723 -0.6111 -0.9007  1.0207
 1849SOL     OW17182   2.781   2.843  16.457 -0.4010  0.8040  0.1414
 1849SOL    HW117183   2.794   2.789  16.379 -0.7933  1.6144 -0.4826
 1849SOL    HW217184   2.786   2.931  16.419  0.1600  1.2545  1.2379
 1850SOL     OW17185   1.345   0.506   4.988 -0.0936  0.6903 -0.0752
 1850SOL    HW117186   1.278   0.533   5.051  0.4167  4.0263 -0.9574
 1850SOL    HW217187   1.298   0.432   4.950 -0.3038  1.2377 -0.8989
 1851SOL     OW17188   4.369   1.695   3.346 -0.2783  0.2867 -0.1170
 1851SOL    HW117189   4.452   1.674   3.303 -0.8864 -0.4004 -0.9271
 1851SOL    HW217190   4.391   1.686   3.439 -1.3396  1.0940  0.2065
 1852SOL     OW17191   3.922   0.767   2.624  0.1873  0.0688 -0.7018
 1852SOL    HW117192   3.831   0.753   2.600  0.6491 -1.2005 -1.7164
 1852SOL    HW217193   3.964   0.684   2.600 -1.6733 -1.4188  1.1240
 1853SOL     OW17194   1.169   1.215  11.669  0.1209 -0.1587  0.2254
 1853SOL    HW117195   1.264   1.230  11.668  0.2803 -1.0226  2.1220
 1853SOL    HW217196   1.161   1.196  11.575 -3.3432 -1.8536  0.8828
 1854SOL     OW17197   2.350   0.113  13.348 -1.0670 -0.0151  0.0343
 1854SOL    HW117198   2.363   0.198  13.391 -1.5642  1.4176 -2.6898
 1854SOL    HW217199   2.263   0.093  13.384 -0.0873 -1.2525  1.7076
 1855SOL     OW17200   3.902   3.679   7.128  0.2453 -0.0772  0.2142
 1855SOL    HW117201   3.899   3.661   7.222  0.0320  1.1255  0.4349
 1855SOL    HW217202   3.878   3.772   7.122  2.3711  0.3864 -0.9930
 1856SOL     OW17203   3.578   0.464   4.234 -0.1678 -0.2209  0.7195
 1856SOL    HW117204   3.658   0.428   4.196 -1.2372 -0.4989 -1.2490
 1856SOL    HW217205   3.608   0.543   4.280  0.8979 -0.1067 -0.1807
 1857SOL     OW17206   3.404   1.468  10.386 -0.1131  0.0219  0.8489
 1857SOL    HW117207   3.437   1.458  10.475 -0.6472  0.7346  1.1265
 1857SOL    HW217208   3.469   1.417  10.337 -0.8479 -1.9347  1.9411
 1858SOL     OW17209   0.110   3.181   3.221  0.2137 -0.2251  0.4548
 1858SOL    HW117210   0.039   3.186   3.157  0.7499 -2.9812 -0.3940
 1858SOL    HW217211   0.120   3.274   3.241  1.4244 -1.1322  3.9882
 1859SOL     OW17212   4.362   2.720   9.347 -0.9395 -0.7835  0.1050
 1859SOL    HW117213   4.288   2.773   9.377 -0.9350  0.5531 -2.2063
 1859SOL    HW217214   4.390   2.780   9.278 -1.1415  0.7275  1.3303
 1860SOL     OW17215   2.389   1.454   9.037 -1.0703  0.1808 -0.1714
 1860SOL    HW117216   2.302   1.480   9.067 -1.1860  1.6077 -1.7201
 1860SOL    HW217217   2.435   1.450   9.121 -0.7154  0.4961 -0.3517
 1861SOL     OW17218   3.221   4.151   3.188 -0.0034  0.0836  0.6937
 1861SOL    HW117219   3.183   4.069   3.157  0.6509  0.2400 -0.5125
 1861SOL    HW217220   3.149   4.189   3.239 -0.3553  0.3096  0.0329
 1862SOL     OW17221   2.272   4.399   6.680 -0.2938  0.4286 -0.3090
 1862SOL    HW117222   2.212   4.417   6.753 -0.1171 -0.2515  0.0071
 1862SOL    HW217223   2.253   4.472   6.621 -2.3617 -0.4462 -0.7276
 1863SOL     OW17224   0.049   4.646   7.710  0.7031 -0.2305 -0.4525
 1863SOL    HW117225   0.131   4.628   7.755 -0.0314  2.7561  2.0392
 1863SOL    HW217226   0.052   4.621   7.618 -1.9141 -0.3963 -0.4952
 1864SOL     OW17227   2.695   0.497   4.197 -0.1026  0.1017  0.7108
 1864SOL    HW117228   2.704   0.509   4.292  1.4637 -1.1860  0.7310
 1864SOL    HW217229   2.669   0.405   4.193  1.7096 -0.4147  0.9518
 1865SOL     OW17230   4.576   3.247   5.366  0.2498 -0.1356 -0.0326
 1865SOL    HW117231   4.580   3.238   5.461 -0.6810  1.8060  0.1916
 1865SOL    HW217232   4.533   3.332   5.353 -1.0033 -0.5803  1.2212
 1866SOL     OW17233   1.767   2.175   9.719  0.1779  0.2156  0.2930
 1866SOL    HW117234   1.713   2.246   9.754 -1.6109 -1.0718  0.1684
 1866SOL    HW217235   1.705   2.133   9.659 -0.6761  1.0463  0.5923
 1867SOL     OW17236   4.664   1.841   5.488  0.2182 -0.0842  0.0718
 1867SOL    HW117237   4.678   1.805   5.576  0.2173 -0.1621  0.0400
 1867SOL    HW217238   4.670   1.936   5.500  0.3075 -0.1245  0.3313
 1868SOL     OW17239   2.976   3.179  11.564 -0.2389 -0.0171 -0.0652
 1868SOL    HW117240   2.977   3.191  11.469 -0.2588  0.0352 -0.0588
 1868SOL    HW217241   2.885   3.150  11.567 -0.2172 -0.0382  0.3180
 1869SOL     OW17242   3.426   0.928   9.100  0.0833  0.4130  0.1062
 1869SOL    HW117243   3.395   0.912   9.011  0.3542  0.5079 -0.0068
 1869SOL    HW217244   3.481   1.005   9.083  1.7324 -1.1877 -1.9300
 1870SOL     OW17245   4.221   3.288   0.230 -0.3118  0.3857  0.0986
 1870SOL    HW117246   4.198   3.371   0.188  1.4245 -0.6786 -2.9556
 1870SOL    HW217247   4.308   3.270   0.193 -1.2627 -0.0936 -1.8977
 1871SOL     OW17248   3.731   4.590   7.422 -0.3588  0.0838 -0.5069
 1871SOL    HW117249   3.811   4.536   7.425 -1.0350 -0.8669  0.4590
 1871SOL    HW217250   3.740   4.661   7.485  0.4446  0.8076 -1.4323
 1872SOL     OW17251   3.678   1.220   8.261 -0.1334  0.2466  0.5829
 1872SOL    HW117252   3.660   1.140   8.212  0.2731  0.7829 -0.4435
 1872SOL    HW217253   3.644   1.291   8.206  0.1043 -0.6434 -0.7159
 1873SOL     OW17254   3.651   2.462   1.943  0.0148  0.0123 -0.2603
 1873SOL    HW117255   3.563   2.497   1.951 -0.7983 -2.3714  1.1906
 1873SOL    HW217256   3.708   2.518   1.997 -0.6878  0.7097 -0.2410
 1874SOL     OW17257   3.178   0.858   6.952  0.2726  0.1866 -0.0555
 1874SOL    HW117258   3.098   0.910   6.956  0.6142  0.7564 -0.6843
 1874SOL    HW217259   3.155   0.772   6.986 -0.0906  0.4356  0.3239
 1875SOL     OW17260   1.843   4.120   2.453  0.1823 -0.1736  0.0105
 1875SOL    HW117261   1.816   4.039   2.496  1.7090 -0.5032  0.3372
 1875SOL    HW217262   1.782   4.115   2.380  2.8026 -0.9170 -2.1226
 1876SOL     OW17263   3.999   1.510   3.199 -0.9417 -0.0960  0.6453
 1876SOL    HW117264   4.066   1.576   3.212  0.0691 -1.3688  1.8586
 1876SOL    HW217265   4.015   1.461   3.280 -1.2727  0.9291  1.3399
 1877SOL     OW17266   3.538   2.412   9.108 -0.1513 -0.7840 -0.4440
 1877SOL    HW117267   3.485   2.429   9.186 -1.7253 -0.0621 -1.6751
 1877SOL    HW217268   3.465   2.428   9.048  1.1256  0.7525 -1.5743
 1878SOL     OW17269   2.792   4.533   2.742  0.0397  0.2517 -0.3801
 1878SOL    HW117270   2.701   4.551   2.718  0.7346  2.1196 -1.6851
 1878SOL    HW217271   2.829   4.618   2.767  0.6782 -0.3337  0.6585
 1879SOL     OW17272   0.873   0.076   5.152 -0.2783  0.2263 -0.1410
 1879SOL    HW117273   0.880   0.070   5.057  1.4273 -2.0778  0.1424
 1879SOL    HW217274   0.864   4.721   5.181 -1.6374  0.3355 -0.2147
 1880SOL     OW17275   2.511   1.370   5.378  0.4345 -0.3803 -0.1183
 1880SOL    HW117276   2.566   1.430   5.428 -0.7263  0.5245  0.0772
 1880SOL    HW217277   2.461   1.330   5.449 -1.3590  0.8926 -0.6789
 1881SOL     OW17278   0.454   1.190  15.226  0.6420 -0.2617 -0.7714
 1881SOL    HW117279   0.507   1.147  15.159 -1.0354 -1.7536 -1.1314
 1881SOL    HW217280   0.516   1.225  15.290  0.4244  1.9194 -1.7329
 1882SOL     OW17281   4.451   4.040   7.879  0.0105  0.5171 -0.1150
 1882SOL    HW117282   4.454   4.062   7.973 -2.6269 -0.0853  0.1027
 1882SOL    HW217283   4.401   3.959   7.878  1.6551 -0.4716 -1.7287
 1883SOL     OW17284   1.121   1.920   6.395 -0.3869  0.0586  0.9651
 1883SOL    HW117285   1.188   1.876   6.342  0.6733  2.2507  0.4518
 1883SOL    HW217286   1.118   2.013   6.374 -0.9282 -0.0182  0.7126
 1884SOL     OW17287   2.418   0.799  15.446  0.2847  0.3548 -0.1628
 1884SOL    HW117288   2.489   0.735  15.435 -0.6486 -0.4598 -1.5010
 1884SOL    HW217289   2.349   0.757  15.395 -1.4612  1.1673  1.5267
 1885SOL     OW17290   1.197   1.962   9.235 -0.7041  0.4568 -0.0436
 1885SOL    HW117291   1.274   1.998   9.190  3.5627 -2.7475  4.5807
 1885SOL    HW217292   1.193   2.010   9.318  2.1819 -2.0180  1.5496
 1886SOL     OW17293   3.876   4.573   8.082 -0.0774  0.4044  0.2236
 1886SOL    HW117294   3.953   4.521   8.101 -2.5564 -2.7758  1.5051
 1886SOL    HW217295   3.830   4.573   8.166 -0.8324 -0.3178 -0.1858
 1887SOL     OW17296   4.653   3.362  13.646  0.4585 -0.3119  0.0691
 1887SOL    HW117297   4.565   3.346  13.681  0.6796 -0.5037  0.5476
 1887SOL    HW217298   4.636   3.346  13.553  0.8319  0.1120 -0.0695
 1888SOL     OW17299   0.867   1.581  15.811  0.1619 -0.1943 -0.9472
 1888SOL    HW117300   0.893   1.662  15.855 -2.2228 -0.1404  0.4252
 1888SOL    HW217301   0.926   1.516  15.847 -1.5062 -1.2925 -0.1614
 1889SOL     OW17302   0.885   3.946  15.194  0.0941  0.3934 -0.0336
 1889SOL    HW117303   0.857   3.934  15.285  0.5957 -0.3869  0.0216
 1889SOL    HW217304   0.980   3.937  15.205 -0.3589 -0.9548  2.9676
 1890SOL     OW17305   3.495   4.373   6.195 -0.1382 -0.6712  0.2043
 1890SOL    HW117306   3.521   4.384   6.286  0.9244 -0.8843 -0.0783
 1890SOL    HW217307   3.569   4.415   6.150 -0.9016 -0.6232 -1.0213
 1891SOL     OW17308   3.623   1.490   8.328 -0.4226  0.2423 -0.2769
 1891SOL    HW117309   3.545   1.443   8.358 -1.3614  2.1546  0.2652
 1891SOL    HW217310   3.655   1.521   8.413 -0.3194 -1.0656  0.1566
 1892SOL     OW17311   1.395   4.080   7.493 -0.4784 -0.1140 -0.5441
 1892SOL    HW117312   1.438   4.020   7.433  0.8524  0.0888  0.1918
 1892SOL    HW217313   1.459   4.063   7.563 -0.6582 -1.1613 -0.6362
 1893SOL     OW17314   1.571   1.338   0.284 -0.2658  0.1457  0.2910
 1893SOL    HW117315   1.665   1.347   0.301 -0.1051 -1.1748  0.0965
 1893SOL    HW217316   1.545   1.292   0.364 -0.7426  0.0913  0.1065
 1894SOL     OW17317   2.981   3.839   4.070 -0.4070 -0.4729  0.4953
 1894SOL    HW117318   3.061   3.826   4.121 -0.2272 -0.3314  0.2467
 1894SOL    HW217319   2.948   3.749   4.070 -1.9510  0.0996 -0.5043
 1895SOL     OW17320   4.581   1.382  12.807 -0.2382 -0.0684  0.2913
 1895SOL    HW117321   4.514   1.369  12.739  0.8393 -0.9633 -0.5946
 1895SOL    HW217322   4.536   1.323  12.867 -2.5713  2.2680  0.8339
 1896SOL     OW17323   0.558   2.123  13.999  0.2169 -0.4273 -0.3046
 1896SOL    HW117324   0.574   2.122  13.904  0.5882 -0.5754 -0.2390
 1896SOL    HW217325   0.640   2.089  14.034  0.1720 -1.3412 -1.0693
 1897SOL     OW17326   4.297   1.584   6.197 -0.3330  0.0796  0.2972
 1897SOL    HW117327   4.221   1.633   6.230 -0.8703 -0.0115 -0.7849
 1897SOL    HW217328   4.363   1.583   6.266 -0.1820 -0.1914  0.1498
 1898SOL     OW17329   1.500   4.294   6.902  0.4130  0.2036  0.1759
 1898SOL    HW117330   1.544   4.227   6.955  2.2489  1.6439  0.5038
 1898SOL    HW217331   1.471   4.248   6.824 -0.2585 -2.0122  1.7306
 1899SOL     OW17332   3.324   0.656  15.354  0.2641 -0.0420  0.1090
 1899SOL    HW117333   3.270   0.624  15.426  1.2576 -0.0455  0.8391
 1899SOL    HW217334   3.410   0.674  15.391  0.6259 -1.6074  0.0088
 1900SOL     OW17335   4.534   0.931  12.139  0.7448  0.1627  0.4522
 1900SOL    HW117336   4.518   0.837  12.146  0.7924  0.3385  2.7750
 1900SOL    HW217337   4.482   0.971  12.069  1.5677 -0.6521 -0.6271
 1901SOL     OW17338   3.876   2.344   7.520  0.5550 -0.1965 -0.0978
 1901SOL    HW117339   3.938   2.303   7.581  0.2795 -0.7548 -0.1858
 1901SOL    HW217340   3.914   2.320   7.435 -0.5539  1.5003 -1.0624
 1902SOL     OW17341   0.973   3.473   0.192 -0.2821  0.4155  0.5538
 1902SOL    HW117342   1.013   3.553   0.160  1.9897 -0.4939  1.0823
 1902SOL    HW217343   0.938   3.503   0.276  1.5699 -0.5191  1.6723
 1903SOL     OW17344   2.997   4.359  10.989 -0.1863  0.5504 -0.1763
 1903SOL    HW117345   3.006   4.400  10.903 -2.3428 -0.7477 -1.0287
 1903SOL    HW217346   2.927   4.299  10.963 -1.6498  2.3368 -0.3797
 1904SOL     OW17347   2.048   0.517   5.753  0.0265  0.2611 -0.0397
 1904SOL    HW117348   2.107   0.579   5.797 -0.0372  0.9311 -0.9097
 1904SOL    HW217349   2.066   0.533   5.661  1.7509 -0.9335  0.0833
 1905SOL     OW17350   3.199   1.612   2.570  0.2794  0.6434 -0.2031
 1905SOL    HW117351   3.194   1.589   2.478  3.5188 -0.3134 -0.1323
 1905SOL    HW217352   3.242   1.537   2.611 -2.5833 -1.9528 -1.9902
 1906SOL     OW17353   0.661   1.322   8.533 -0.3126 -0.7885  0.2645
 1906SOL    HW117354   0.597   1.336   8.604 -1.8246  0.9542 -1.4441
 1906SOL    HW217355   0.599   1.296   8.465  1.4432 -0.9214 -1.2898
 1907SOL     OW17356   1.159   3.981   7.597  0.2485 -0.6754  0.1678
 1907SOL    HW117357   1.186   3.889   7.601  3.3402  0.1786 -1.3999
 1907SOL    HW217358   1.230   4.017   7.545 -1.0238  1.4192 -0.1042
 1908SOL     OW17359   2.016   4.281   6.519 -0.2696  0.5370  0.0459
 1908SOL    HW117360   2.023   4.243   6.606 -0.9619  2.0002  0.7264
 1908SOL    HW217361   2.034   4.203   6.466 -0.2988 -0.7142  1.8849
 1909SOL     OW17362   1.411   2.541   2.611 -0.0366 -0.6558 -0.1567
 1909SOL    HW117363   1.374   2.518   2.696 -0.2673  2.0308  0.4620
 1909SOL    HW217364   1.498   2.575   2.632  1.2066 -3.4506 -0.6818
 1910SOL     OW17365   3.380   0.483   8.758 -0.3570 -0.6014  0.2664
 1910SOL    HW117366   3.364   0.555   8.696  3.0337  0.0295  0.0908
 1910SOL    HW217367   3.395   0.406   8.703 -1.8638 -0.3258 -0.5268
 1911SOL     OW17368   1.700   2.156   5.963 -0.2818  0.6804 -0.7618
 1911SOL    HW117369   1.632   2.220   5.942 -1.4214 -0.9210 -1.9669
 1911SOL    HW217370   1.649   2.100   6.021 -1.4605  1.7821 -0.7286
 1912SOL     OW17371   2.256   3.671  11.438 -0.0353 -0.1264 -0.6322
 1912SOL    HW117372   2.169   3.712  11.434 -1.0202 -1.9277  2.3832
 1912SOL    HW217373   2.295   3.712  11.361  0.8700  0.6970  0.2638
 1913SOL     OW17374   3.634   0.283   0.078 -0.6947 -0.2897 -0.1594
 1913SOL    HW117375   3.546   0.294   0.112 -0.6282 -1.5590  0.4249
 1913SOL    HW217376   3.683   0.324   0.150  0.7569 -1.7948 -0.3046
 1914SOL     OW17377   0.634   2.970   4.193  1.0257 -0.3885  0.4374
 1914SOL    HW117378   0.573   2.971   4.267  1.8189 -0.1199  1.0968
 1914SOL    HW217379   0.699   3.035   4.220 -0.8955  1.2702  1.1042
 1915SOL     OW17380   4.143   2.057   0.093 -0.2426  0.4115  0.1920
 1915SOL    HW117381   4.190   2.132   0.056  1.4448  0.3728  2.2325
 1915SOL    HW217382   4.165   1.996   0.023  0.3530  0.3724  0.4111
 1916SOL     OW17383   1.513   3.260   9.698 -0.2078 -0.3778  0.4598
 1916SOL    HW117384   1.490   3.167   9.703 -0.5583 -0.3595 -0.7401
 1916SOL    HW217385   1.592   3.256   9.752 -0.1769  0.0662  0.4420
 1917SOL     OW17386   0.404   0.963   4.463 -0.0029 -0.2037  0.4076
 1917SOL    HW117387   0.335   0.929   4.407 -1.1677  0.6814  1.2868
 1917SOL    HW217388   0.453   0.891   4.501  3.9289  1.7132 -1.0701
 1918SOL     OW17389   1.485   2.631   4.843 -0.2677  0.2215  0.0095
 1918SOL    HW117390   1.561   2.684   4.868 -0.7127  0.8393  0.0390
 1918SOL    HW217391   1.430   2.691   4.793 -0.0738  0.4400  0.0560
 1919SOL     OW17392   3.587   1.223  17.438  0.3319 -0.1947  0.6179
 1919SOL    HW117393   3.585   1.179  17.523 -0.6626  0.7549  1.0927
 1919SOL    HW217394   3.497   1.257  17.430 -0.0623 -1.2586  0.5841
 1920SOL     OW17395   4.496   1.497   7.986  0.7086  0.1608  0.1931
 1920SOL    HW117396   4.405   1.472   7.970  0.6395 -0.2717  1.2917
 1920SOL    HW217397   4.485   1.564   8.053  1.0053  1.9105 -1.5047
 1921SOL     OW17398   2.062   1.997  15.129 -0.5214  0.0162 -0.5704
 1921SOL    HW117399   2.109   1.925  15.172 -0.8447 -0.0842 -0.3844
 1921SOL    HW217400   1.979   1.951  15.117  0.0401 -1.2745  0.4439
 1922SOL     OW17401   3.761   3.385  17.514  0.1561  0.5306 -0.0657
 1922SOL    HW117402   3.729   3.296  17.502  2.9642 -0.6466  1.3600
 1922SOL    HW217403   3.847   3.365  17.477  0.3448  2.4053 -0.6716
 1923SOL     OW17404   4.673   3.129   4.857 -0.2244 -0.4331 -0.5740
 1923SOL    HW117405   0.025   3.092   4.844  0.7494  1.4771  0.6332
 1923SOL    HW217406   4.682   3.162   4.946 -1.3971 -0.4963 -0.4261
 1924SOL     OW17407   1.622   1.194   7.880 -0.2721  0.6750  0.0151
 1924SOL    HW117408   1.638   1.256   7.809 -1.2995 -1.2231 -1.8777
 1924SOL    HW217409   1.526   1.193   7.879 -0.2641 -2.1119  0.8297
 1925SOL     OW17410   2.632   2.613   1.834  0.3127 -0.0622 -0.4323
 1925SOL    HW117411   2.706   2.594   1.777  0.2741 -1.4511 -0.0216
 1925SOL    HW217412   2.612   2.528   1.874 -1.3941  1.2182  1.4879
 1926SOL     OW17413   3.558   2.056   4.788  1.1563 -0.2789  0.0147
 1926SOL    HW117414   3.501   1.983   4.764 -0.3633  1.2537 -1.0740
 1926SOL    HW217415   3.498   2.129   4.806  3.7280  1.6611  0.7481
 1927SOL     OW17416   0.495   2.843   3.158  0.4277  0.7058  0.5548
 1927SOL    HW117417   0.477   2.784   3.231 -2.2919  0.7803 -0.0429
 1927SOL    HW217418   0.449   2.800   3.085  1.7536 -1.2475  0.8839
 1928SOL     OW17419   0.938   2.182   2.412  0.5597  0.3115 -0.3911
 1928SOL    HW117420   0.935   2.111   2.477 -0.2905  1.2664  0.6021
 1928SOL    HW217421   1.001   2.142   2.352  1.1216 -0.3971  0.6645
 1929SOL     OW17422   4.223   3.409   2.734 -0.2300  0.4401  0.4196
 1929SOL    HW117423   4.132   3.433   2.753 -0.0387 -0.1426  2.0279
 1929SOL    HW217424   4.236   3.436   2.643 -1.7158  0.9928  0.3777
 1930SOL     OW17425   2.883   3.048   4.977  0.6887 -0.0744  0.1996
 1930SOL    HW117426   2.971   3.024   4.947  1.1152  1.5352  0.1797
 1930SOL    HW217427   2.902   3.093   5.059  1.3809  0.4121 -0.2276
 1931SOL     OW17428   3.597   2.274   2.926  0.5752 -0.1625  0.5530
 1931SOL    HW117429   3.570   2.330   2.853  1.1691  0.1728  0.5868
 1931SOL    HW217430   3.578   2.338   2.995 -0.4876 -1.8991  1.8645
 1932SOL     OW17431   2.344   3.031  16.905 -0.3916  0.3987  0.7770
 1932SOL    HW117432   2.421   3.016  16.959 -0.0351 -0.7860 -0.0430
 1932SOL    HW217433   2.351   2.947  16.858  0.0692  1.1007 -0.4100
 1933SOL     OW17434   4.706   3.581  11.537 -0.1794 -0.3086 -0.2099
 1933SOL    HW117435   0.064   3.562  11.533 -0.3738 -1.6917  2.1742
 1933SOL    HW217436   4.661   3.542  11.612 -0.3485  0.6194  0.1691
 1934SOL     OW17437   2.098   1.757   4.206  0.4577  0.0616 -0.4986
 1934SOL    HW117438   2.184   1.743   4.246  0.1928  1.8627  0.7013
 1934SOL    HW217439   2.070   1.667   4.192 -0.6638  0.3589 -0.1507
 1935SOL     OW17440   0.351   0.706   7.423  0.0700  0.1937  0.3494
 1935SOL    HW117441   0.343   0.754   7.506  1.5798 -1.1238  1.2562
 1935SOL    HW217442   0.425   0.749   7.379  0.3724  1.8000  2.3701
 1936SOL     OW17443   0.319   0.603  11.889 -0.0795  0.4012  0.0333
 1936SOL    HW117444   0.370   0.679  11.859  1.2584 -0.3313  0.4695
 1936SOL    HW217445   0.238   0.647  11.915 -0.5691  0.2322 -1.1889
 1937SOL     OW17446   1.918   4.318   1.459 -0.3474  0.1594 -0.1628
 1937SOL    HW117447   1.909   4.291   1.368 -0.9174 -1.4837  0.3764
 1937SOL    HW217448   1.851   4.269   1.507  0.9234 -0.5605  0.9044
 1938SOL     OW17449   0.522   1.800  10.732 -0.5955 -0.2780 -0.0798
 1938SOL    HW117450   0.561   1.729  10.681  0.0442  0.5786 -0.7767
 1938SOL    HW217451   0.592   1.813  10.796 -0.2873 -0.4318 -0.3832
 1939SOL     OW17452   1.667   3.037   9.887 -0.1581  0.1984 -0.3750
 1939SOL    HW117453   1.639   3.121   9.923  1.0013  0.0423  0.9183
 1939SOL    HW217454   1.758   3.046   9.917  0.7991 -0.1500 -3.1530
 1940SOL     OW17455   2.650   1.722   9.066  0.2251  0.1714 -0.6244
 1940SOL    HW117456   2.674   1.644   9.116 -0.4000 -0.9154 -1.9998
 1940SOL    HW217457   2.635   1.787   9.135 -0.3510 -0.2085 -0.3851
 1941SOL     OW17458   1.274   0.432  12.106 -0.2260  0.2573  0.1526
 1941SOL    HW117459   1.222   0.400  12.032  0.5525 -3.6215  1.2663
 1941SOL    HW217460   1.226   0.514  12.107  1.6944  1.3515  2.1824
 1942SOL     OW17461   0.016   2.959   8.197  0.6082  0.0364  0.0493
 1942SOL    HW117462   0.089   2.917   8.242 -3.1410 -0.2013  5.9129
 1942SOL    HW217463   4.684   2.913   8.248  2.0876 -0.4701  1.5420
 1943SOL     OW17464   4.095   2.233   7.642 -0.1393 -0.1157  0.0791
 1943SOL    HW117465   4.113   2.195   7.727 -1.1293 -0.7633 -0.0006
 1943SOL    HW217466   4.165   2.188   7.595 -1.5526 -0.6206 -1.5760
 1944SOL     OW17467   1.335   0.100   7.978  0.7050 -0.0707 -0.3299
 1944SOL    HW117468   1.302   0.011   7.985 -0.7576  0.3614 -1.6532
 1944SOL    HW217469   1.356   0.123   8.069 -0.1547  0.9701 -0.3973
 1945SOL     OW17470   4.047   3.154  17.207 -0.6259 -0.1752  1.0397
 1945SOL    HW117471   4.001   3.214  17.148 -2.7078 -2.1107  0.6927
 1945SOL    HW217472   4.097   3.106  17.140  2.3606  2.2986  1.4926
 1946SOL     OW17473   4.703   4.174   6.352  0.0355 -0.0097  0.2508
 1946SOL    HW117474   4.624   4.185   6.300  0.7496  1.3339 -0.5445
 1946SOL    HW217475   4.696   4.251   6.408 -2.9234 -0.3511  0.3481
 1947SOL     OW17476   4.506   1.408  15.412  0.4250  0.0189 -0.3349
 1947SOL    HW117477   4.494   1.415  15.507 -1.5009  0.6679 -0.6224
 1947SOL    HW217478   4.533   1.496  15.384  2.3132 -0.6762 -0.7047
 1948SOL     OW17479   0.071   0.846   6.095 -0.0188 -0.0015 -0.7841
 1948SOL    HW117480   0.137   0.832   6.027 -0.6780  2.2848 -1.8948
 1948SOL    HW217481   0.124   0.909   6.142 -0.8727  1.0115 -1.1878
 1949SOL     OW17482   0.572   3.963   4.213 -0.2235  0.2168 -0.0670
 1949SOL    HW117483   0.603   3.946   4.124 -0.8348 -1.8879  0.1278
 1949SOL    HW217484   0.514   4.036   4.194 -1.9301 -0.8365  1.1439
 1950SOL     OW17485   1.592   4.124   7.801 -0.3124 -0.2173  0.3856
 1950SOL    HW117486   1.601   4.218   7.782  0.0344  0.0133  1.6821
 1950SOL    HW217487   1.658   4.101   7.736 -0.9039  1.5389 -0.8442
 1951SOL     OW17488   2.821   3.746   8.702 -0.1536 -0.2243 -0.0553
 1951SOL    HW117489   2.848   3.660   8.670  3.4622  0.6182  0.7033
 1951SOL    HW217490   2.849   3.812   8.638 -0.0906 -0.1565  0.0411
 1952SOL     OW17491   2.535   1.388   4.679 -0.0936  0.1622  0.2429
 1952SOL    HW117492   2.561   1.454   4.615  1.6429 -1.5290 -0.8271
 1952SOL    HW217493   2.590   1.313   4.654  0.9486  0.9475  0.1521
 1953SOL     OW17494   4.334   2.258   8.710 -0.4708 -0.1663  0.4886
 1953SOL    HW117495   4.290   2.191   8.657 -0.6703 -0.1627  0.6541
 1953SOL    HW217496   4.267   2.290   8.770  0.1251 -0.2857  1.2189
 1954SOL     OW17497   3.950   0.853   7.071  0.1831 -0.4122 -0.2849
 1954SOL    HW117498   3.945   0.771   7.121 -1.9632 -0.7897 -1.0914
 1954SOL    HW217499   3.859   0.846   7.040  0.4107 -0.5726 -0.9166
 1955SOL     OW17500   2.860   0.138  17.675  0.6747  0.2386  0.0531
 1955SOL    HW117501   2.850   0.101  17.587 -2.8281 -1.1060  1.0246
 1955SOL    HW217502   2.901   0.061  17.713 -1.6771 -1.7467 -1.4831
 1956SOL     OW17503   4.356   0.170   6.787 -0.0997 -0.1972  0.4429
 1956SOL    HW117504   4.274   0.175   6.738  0.5551  1.4498 -0.4613
 1956SOL    HW217505   4.360   0.258   6.823 -0.6366 -0.1372  0.3683
 1957SOL     OW17506   1.887   1.891   1.686  0.4666 -0.4354 -0.2112
 1957SOL    HW117507   1.980   1.911   1.674  0.2739 -0.6741 -2.1350
 1957SOL    HW217508   1.845   1.950   1.624  1.8128  1.0309  0.2602
 1958SOL     OW17509   4.644   3.759  12.386 -0.3796 -0.4678 -0.2859
 1958SOL    HW117510   4.552   3.767  12.361 -0.4765 -0.6084  0.0252
 1958SOL    HW217511   4.638   3.664  12.397  0.1025 -0.4010  0.5935
 1959SOL     OW17512   1.584   2.794   4.488  0.5226 -0.2652  0.1689
 1959SOL    HW117513   1.602   2.823   4.577 -1.2548  0.3687  0.3207
 1959SOL    HW217514   1.541   2.873   4.456 -0.4825 -0.0391  2.0834
 1960SOL     OW17515   3.984   1.071  16.206 -0.3195  0.7186 -0.4767
 1960SOL    HW117516   3.950   0.999  16.259  0.5793  1.0246  0.5267
 1960SOL    HW217517   3.916   1.100  16.145 -0.8637 -2.7443 -1.4928
 1961SOL     OW17518   2.703   0.715   7.585  0.3091 -0.5594 -0.1615
 1961SOL    HW117519   2.637   0.763   7.635  1.7266  1.5622 -0.3407
 1961SOL    HW217520   2.675   0.732   7.495 -2.8950  1.2689  1.1909
 1962SOL     OW17521   0.554   0.410   3.981  0.2930 -0.3427  0.1024
 1962SOL    HW117522   0.631   0.464   3.996 -0.1627  0.6487 -1.1128
 1962SOL    HW217523   0.536   0.431   3.889  2.0278  1.3530  0.1411
 1963SOL     OW17524   2.928   0.969   0.823 -0.8045 -0.5972 -0.2934
 1963SOL    HW117525   2.845   0.923   0.836 -0.5152 -0.7478  0.9478
 1963SOL    HW217526   2.979   0.932   0.894  0.1616  0.9052 -0.2134
 1964SOL     OW17527   2.253   0.322   7.244 -0.4289  0.5564 -0.3240
 1964SOL    HW117528   2.237   0.233   7.212 -0.4778  0.8602 -1.1480
 1964SOL    HW217529   2.274   0.305   7.336  2.8687 -2.1012 -1.5793
 1965SOL     OW17530   0.185   3.658   3.923  0.3126  0.0619 -0.5771
 1965SOL    HW117531   0.268   3.705   3.929 -0.7400  1.7629  0.6543
 1965SOL    HW217532   0.130   3.735   3.910 -1.7112 -1.3460 -0.3812
 1966SOL     OW17533   4.689   0.286  16.183 -0.4687  0.5956  0.2877
 1966SOL    HW117534   4.596   0.268  16.170 -0.4889  0.6305  0.3812
 1966SOL    HW217535   4.699   0.367  16.133 -1.7445 -0.8947 -2.3855
 1967SOL     OW17536   0.890   2.474  10.968 -0.5343  0.1426 -0.6224
 1967SOL    HW117537   0.917   2.388  10.933 -0.6892  0.1091 -0.6586
 1967SOL    HW217538   0.964   2.509  11.017 -0.0585 -1.5900 -0.0889
 1968SOL     OW17539   3.806   3.320   4.272  0.1548 -0.3477 -0.2089
 1968SOL    HW117540   3.825   3.309   4.365  0.2081  1.8876  0.0460
 1968SOL    HW217541   3.831   3.412   4.278  0.2945 -0.5125  1.9172
 1969SOL     OW17542   3.520   0.144   9.684  0.3556 -0.0130  0.5282
 1969SOL    HW117543   3.450   0.202   9.713 -0.7368 -1.6404  1.1012
 1969SOL    HW217544   3.541   0.080   9.753 -1.1069 -0.1345  0.8453
 1970SOL     OW17545   1.681   3.781   0.328  0.2363  0.4053  0.4854
 1970SOL    HW117546   1.641   3.710   0.379 -0.9218 -1.4425 -2.9747
 1970SOL    HW217547   1.617   3.851   0.328  1.3921  1.4611  1.8687
 1971SOL     OW17548   2.111   4.277  15.293  0.0544  0.0312 -0.7016
 1971SOL    HW117549   2.176   4.268  15.223 -0.8682  0.5073 -1.6253
 1971SOL    HW217550   2.155   4.267  15.377  2.4084 -1.3359 -2.0852
 1972SOL     OW17551   2.193   3.277   7.512 -0.3540 -0.4463  0.4372
 1972SOL    HW117552   2.262   3.229   7.558 -1.1436  0.3391  2.4341
 1972SOL    HW217553   2.136   3.203   7.491 -1.2769  1.2285 -3.0195
 1973SOL     OW17554   2.930   4.087  16.787  0.7207  0.4790  0.1541
 1973SOL    HW117555   3.004   4.136  16.750  0.6625  0.6239  0.2292
 1973SOL    HW217556   2.963   3.998  16.774 -0.6951  0.1174 -1.0459
 1974SOL     OW17557   3.471   2.769   4.728  0.3728 -0.0190  0.2479
 1974SOL    HW117558   3.486   2.861   4.752  2.4980 -0.3710  0.2756
 1974SOL    HW217559   3.556   2.725   4.732 -0.1736 -1.0395  0.5678
 1975SOL     OW17560   0.563   0.669  12.776  0.3053 -0.1148 -0.2506
 1975SOL    HW117561   0.558   0.763  12.791  0.9922 -0.0594 -0.3689
 1975SOL    HW217562   0.599   0.648  12.862  1.1695  2.7987  0.0880
 1976SOL     OW17563   2.363   4.435   5.461  0.1677  0.1164  0.2950
 1976SOL    HW117564   2.441   4.427   5.516  0.0458  0.8189  0.5823
 1976SOL    HW217565   2.374   4.530   5.449 -0.9182  0.4272  1.7262
 1977SOL     OW17566   1.751   4.298   8.061 -0.2168  0.1858  0.4914
 1977SOL    HW117567   1.707   4.374   8.024  0.6886 -0.2328 -1.4170
 1977SOL    HW217568   1.684   4.258   8.117 -1.8738 -0.6065 -2.0289
 1978SOL     OW17569   3.846   4.233   0.177  0.7852  0.7047  0.0507
 1978SOL    HW117570   3.788   4.270   0.244 -0.1882  0.7409 -0.7981
 1978SOL    HW217571   3.806   4.264   0.096  0.5996  0.0141 -0.1298
 1979SOL     OW17572   2.072   1.339   2.691  0.3292 -0.0873  0.4145
 1979SOL    HW117573   2.035   1.412   2.741 -0.8638 -1.0105  0.8591
 1979SOL    HW217574   2.111   1.297   2.768 -0.6671  0.2596  1.1045
 1980SOL     OW17575   1.692   2.017   8.215  0.0807 -0.0174 -0.1966
 1980SOL    HW117576   1.758   2.079   8.185  0.6098 -0.1207  0.7356
 1980SOL    HW217577   1.729   1.977   8.294 -1.2580  0.7414  0.8165
 1981SOL     OW17578   3.319   1.877   5.339 -0.4281  0.0347  0.6335
 1981SOL    HW117579   3.298   1.946   5.275  2.5783 -0.7453 -1.1942
 1981SOL    HW217580   3.251   1.900   5.403 -0.6830  0.0466  0.3607
 1982SOL     OW17581   0.827   4.291   9.214 -0.1551  0.2050 -0.0931
 1982SOL    HW117582   0.788   4.290   9.127  0.6443 -1.0976 -0.4470
 1982SOL    HW217583   0.904   4.239   9.187 -0.3275 -0.2084  0.2036
 1983SOL     OW17584   1.108   0.415   8.512 -0.6757  0.6267 -0.2469
 1983SOL    HW117585   1.176   0.417   8.580 -0.7653 -0.3271 -0.1203
 1983SOL    HW217586   1.035   0.446   8.565  0.0596  0.5300  0.8279
 1984SOL     OW17587   2.928   0.013  10.296 -0.2483 -0.4994 -0.6117
 1984SOL    HW117588   3.022   0.014  10.281 -0.5675 -1.5874 -2.5928
 1984SOL    HW217589   2.922   0.107  10.316  0.3860 -0.5964  0.0268
 1985SOL     OW17590   0.750   4.151   3.218  0.3806  0.0496 -0.1250
 1985SOL    HW117591   0.667   4.108   3.200 -0.8359  3.1981 -1.8948
 1985SOL    HW217592   0.784   4.096   3.289 -3.1407 -0.7952  0.9245
 1986SOL     OW17593   4.264   1.843   2.371  0.1624 -0.3043  0.0043
 1986SOL    HW117594   4.182   1.892   2.362  0.0838 -0.4268  0.0502
 1986SOL    HW217595   4.301   1.876   2.452 -1.4337  2.2813 -0.3102
 1987SOL     OW17596   2.946   1.108   3.603  0.0012  0.3664  0.0023
 1987SOL    HW117597   2.978   1.197   3.587 -1.0945  0.5524 -1.1413
 1987SOL    HW217598   2.994   1.079   3.680 -1.0345 -3.4638 -0.8127
 1988SOL     OW17599   1.570   1.458   6.804 -0.0114 -0.2483 -0.1189
 1988SOL    HW117600   1.622   1.388   6.842  1.4635  0.4006 -0.9449
 1988SOL    HW217601   1.630   1.531   6.813  1.0919 -1.5313  2.7606
 1989SOL     OW17602   3.121   4.550   2.933 -0.3741  0.1125 -0.2734
 1989SOL    HW117603   3.192   4.505   2.979 -0.5088  0.1744 -0.0051
 1989SOL    HW217604   3.160   4.591   2.856  0.6972  0.2861  0.3668
 1990SOL     OW17605   1.740   3.704  17.542  0.8698  0.4696 -0.3098
 1990SOL    HW117606   1.690   3.741  17.616 -0.6815 -0.1298 -1.0532
 1990SOL    HW217607   1.752   3.615  17.575 -1.6024  0.0861 -0.4660
 1991SOL     OW17608   2.848   2.117   6.634 -0.4759 -0.0483 -0.3320
 1991SOL    HW117609   2.893   2.201   6.632 -1.5514  0.5000 -1.2175
 1991SOL    HW217610   2.921   2.059   6.611 -0.7530 -0.7028  0.4436
 1992SOL     OW17611   3.418   0.735   7.727  0.5969 -0.0268 -0.4170
 1992SOL    HW117612   3.342   0.703   7.680 -1.7638 -0.2610  3.5670
 1992SOL    HW217613   3.458   0.788   7.658 -2.2528 -1.0190 -2.7679
 1993SOL     OW17614   4.434   1.721   4.607 -0.3304 -0.2686 -0.5610
 1993SOL    HW117615   4.385   1.657   4.658  0.5645  0.6073  1.4203
 1993SOL    HW217616   4.446   1.670   4.528 -0.1746 -0.4904 -0.3945
 1994SOL     OW17617   4.666   4.177   7.762  0.4064 -0.2027  0.6004
 1994SOL    HW117618   4.704   4.210   7.843  0.5021 -1.7047  1.1660
 1994SOL    HW217619   4.583   4.139   7.790  0.6692 -0.6445  0.7960
 1995SOL     OW17620   4.550   2.569   4.301 -0.3611  0.5166  0.1401
 1995SOL    HW117621   4.490   2.595   4.370 -1.8168 -1.9649 -0.1823
 1995SOL    HW217622   4.518   2.480   4.287 -1.0055  0.5963  1.1028
 1996SOL     OW17623   4.657   0.981   5.836 -0.0194  0.1451 -0.5771
 1996SOL    HW117624   4.677   0.935   5.917  1.8866 -0.5376 -1.4386
 1996SOL    HW217625   4.709   0.937   5.768  3.2753  3.2875 -0.1309
 1997SOL     OW17626   0.294   0.336   5.707  0.6419 -0.1276 -0.2433
 1997SOL    HW117627   0.326   0.307   5.793  1.4598  0.7243 -0.2547
 1997SOL    HW217628   0.338   0.270   5.653 -0.6053 -1.5102  0.4437
 1998SOL     OW17629   1.820   1.142   7.238 -0.1728 -0.2966  0.2870
 1998SOL    HW117630   1.818   1.117   7.146  1.0920 -2.0614  0.7302
 1998SOL    HW217631   1.890   1.083   7.267 -0.3582 -1.1890 -1.1073
 1999SOL     OW17632   1.109   3.718   0.197  0.1953  0.3310 -0.0981
 1999SOL    HW117633   1.172   3.764   0.141 -3.4141  2.3065 -2.5602
 1999SOL    HW217634   1.156   3.689   0.274  0.5565  0.3916 -0.2963
 2000SOL     OW17635   2.142   2.917  15.687  0.1106 -0.0293  0.3476
 2000SOL    HW117636   2.112   2.835  15.649  0.9128 -0.9459  1.6910
 2000SOL    HW217637   2.103   2.913  15.775  0.3746  0.4824  0.4931
 2001SOL     OW17638   0.867   3.220   0.382 -0.0441  0.1830  0.4283
 2001SOL    HW117639   0.881   3.315   0.390 -1.0351  0.1706  2.3168
 2001SOL    HW217640   0.793   3.203   0.440 -0.2345  1.0097  0.4307
 2002SOL     OW17641   4.333   0.873  11.368  0.4294  0.4361  0.1076
 2002SOL    HW117642   4.405   0.857  11.307  0.2990  1.3334 -0.2726
 2002SOL    HW217643   4.320   0.966  11.347 -0.6543  0.6194  1.5649
 2003SOL     OW17644   1.682   3.304   3.022 -0.2180 -0.2334 -0.3405
 2003SOL    HW117645   1.693   3.399   3.017  1.3295 -0.2388  2.8985
 2003SOL    HW217646   1.771   3.275   3.001 -0.5212  0.1479 -2.1191
 2004SOL     OW17647   2.763   3.968  10.281 -0.0411 -0.1341 -0.2815
 2004SOL    HW117648   2.737   4.039  10.221 -1.4842  1.9833  2.8775
 2004SOL    HW217649   2.772   3.895  10.219  1.7790 -0.1036 -0.0468
 2005SOL     OW17650   3.859   3.066   5.938 -0.3913 -0.4716  0.0886
 2005SOL    HW117651   3.924   3.136   5.937 -2.2359  1.2586  0.6873
 2005SOL    HW217652   3.784   3.114   5.973 -2.6235 -0.5423 -4.6898
 2006SOL     OW17653   2.284   2.590  17.189 -0.2115 -0.8777  0.1670
 2006SOL    HW117654   2.225   2.619  17.120  0.4710  0.1649  0.0089
 2006SOL    HW217655   2.274   2.495  17.191  1.4364 -1.0250  1.3917
 2007SOL     OW17656   4.052   3.224   1.399 -0.1596 -0.4499  0.2124
 2007SOL    HW117657   4.127   3.189   1.447 -0.0943  1.9163  1.8586
 2007SOL    HW217658   4.018   3.287   1.462 -0.2051  1.2990 -1.5299
 2008SOL     OW17659   1.140   2.076   2.276  0.5991 -0.0799 -0.5538
 2008SOL    HW117660   1.147   2.079   2.181  1.2184  1.6302 -0.4473
 2008SOL    HW217661   1.164   1.984   2.286  1.2149  0.1348 -0.0640
 2009SOL     OW17662   4.124   1.320   1.707  1.0341  0.7109 -0.0188
 2009SOL    HW117663   4.109   1.306   1.801  1.6622  1.2879  0.1644
 2009SOL    HW217664   4.218   1.336   1.716  1.6083 -2.1582 -0.9141
 2010SOL     OW17665   4.663   2.404   5.555 -0.0426 -0.3528  0.5648
 2010SOL    HW117666   0.009   2.427   5.599  0.3728 -1.3860  0.3293
 2010SOL    HW217667   4.690   2.314   5.539 -0.5537 -0.3456 -0.3072
 2011SOL     OW17668   0.383   0.857   8.097 -0.4064 -0.3325 -0.1686
 2011SOL    HW117669   0.398   0.778   8.150  0.6471 -0.4158 -0.5764
 2011SOL    HW217670   0.313   0.827   8.040  0.9427 -5.7583  1.0115
 2012SOL     OW17671   2.894   1.181   4.953 -0.0265  0.3177 -0.6429
 2012SOL    HW117672   2.841   1.102   4.944 -1.1858  0.8448  1.6095
 2012SOL    HW217673   2.906   1.172   5.047 -2.7852 -0.2096 -0.3522
 2013SOL     OW17674   1.161   2.129  14.129  0.1874 -0.2824  0.0887
 2013SOL    HW117675   1.096   2.193  14.158 -0.5698  0.1935 -2.6430
 2013SOL    HW217676   1.227   2.182  14.084 -0.1021  1.1731  1.3603
 2014SOL     OW17677   1.049   2.287   1.842  0.6576  0.6932 -0.5622
 2014SOL    HW117678   0.966   2.246   1.865  2.0788 -1.2012  1.1898
 2014SOL    HW217679   1.029   2.379   1.859  1.5100  0.4164  1.8996
 2015SOL     OW17680   2.837   0.709  11.050  0.2018  0.3069 -0.6273
 2015SOL    HW117681   2.836   0.659  10.968 -2.7249 -0.0174 -0.3836
 2015SOL    HW217682   2.766   0.674  11.103  2.2821  0.2918  2.1559
 2016SOL     OW17683   2.693   0.675   6.084 -0.6382  0.3896  0.3297
 2016SOL    HW117684   2.658   0.745   6.029  1.9742  1.0445 -0.4790
 2016SOL    HW217685   2.743   0.724   6.150 -0.4628  1.5902 -0.6976
 2017SOL     OW17686   4.146   1.916   7.614 -0.5358 -0.7272  0.2043
 2017SOL    HW117687   4.123   1.932   7.523  3.8267 -0.1728 -0.8185
 2017SOL    HW217688   4.099   1.841   7.651  0.9084 -0.3741  2.8077
 2018SOL     OW17689   3.461   0.915   2.188 -0.0469  0.2892 -0.3716
 2018SOL    HW117690   3.546   0.928   2.147 -0.8045 -1.2883 -2.4034
 2018SOL    HW217691   3.397   0.884   2.124 -1.0225 -0.6407  1.0567
 2019SOL     OW17692   2.925   1.251   1.932 -0.2774  0.1257  0.0490
 2019SOL    HW117693   2.901   1.309   1.860  1.9153  1.3719  0.3102
 2019SOL    HW217694   2.858   1.273   1.997  3.7234  1.9613  3.5425
 2020SOL     OW17695   3.756   3.862   9.214  0.2304  0.4847 -0.3484
 2020SOL    HW117696   3.749   3.957   9.217 -3.8100  0.1848 -1.1278
 2020SOL    HW217697   3.673   3.837   9.253  0.0948  0.5669 -0.5865
 2021SOL     OW17698   0.195   2.677  17.240  0.1503  0.0552  0.1793
 2021SOL    HW117699   0.230   2.588  17.250 -2.5550 -1.1775 -1.1944
 2021SOL    HW217700   0.260   2.726  17.289 -1.7396  1.0888  1.6395
 2022SOL     OW17701   0.522   3.193  10.620 -0.4928 -0.2534  0.3192
 2022SOL    HW117702   0.482   3.125  10.675 -1.9961  0.5713  0.2556
 2022SOL    HW217703   0.490   3.169  10.533  0.7965  1.6366 -0.6501
 2023SOL     OW17704   2.889   0.767   6.286  0.1459 -0.0134 -0.1735
 2023SOL    HW117705   2.903   0.861   6.286 -0.9103  0.1345 -1.3160
 2023SOL    HW217706   2.806   0.746   6.329  0.7649  1.3646  1.6892
 2024SOL     OW17707   2.043   1.070   8.664 -0.4802  0.3810 -0.0469
 2024SOL    HW117708   2.019   1.015   8.590 -2.3167  1.7620 -0.4861
 2024SOL    HW217709   1.966   1.060   8.720 -0.3925  1.9703  0.3757
 2025SOL     OW17710   1.105   0.700   3.479 -0.9261 -0.3130  0.3106
 2025SOL    HW117711   1.123   0.609   3.453 -2.6201  0.0511 -2.1536
 2025SOL    HW217712   1.038   0.714   3.412 -1.3042  0.8671  0.9288
 2026SOL     OW17713   0.005   3.297   4.465 -0.6495 -0.3582 -0.5227
 2026SOL    HW117714   4.671   3.259   4.519  0.0456  0.2853  0.8130
 2026SOL    HW217715   4.683   3.325   4.393  0.1973 -0.9540 -1.4359
 2027SOL     OW17716   3.914   0.816   9.853 -0.5252 -0.1114 -0.2721
 2027SOL    HW117717   3.854   0.760   9.901  0.4202 -2.5525 -1.9072
 2027SOL    HW217718   3.926   0.763   9.774 -0.5832 -1.1348  0.4134
 2028SOL     OW17719   3.864   2.663   3.497 -0.0242  0.1505 -0.0286
 2028SOL    HW117720   3.864   2.678   3.403  0.6105 -0.0178 -0.0580
 2028SOL    HW217721   3.852   2.750   3.535 -1.8854  0.2324 -0.8345
 2029SOL     OW17722   4.166   4.608   7.862  0.2398  0.0822 -0.0364
 2029SOL    HW117723   4.233   4.569   7.920  0.1224  0.9269  0.6648
 2029SOL    HW217724   4.118   4.671   7.916  0.3374  1.4883 -1.6040
 2030SOL     OW17725   2.713   2.488  12.553  0.3502  0.5081 -0.3363
 2030SOL    HW117726   2.793   2.496  12.501 -0.2103  0.2716 -1.2298
 2030SOL    HW217727   2.648   2.473  12.485  0.9022 -0.6664 -0.6139
 2031SOL     OW17728   4.251   4.350  10.029  0.3235  0.8392 -0.9342
 2031SOL    HW117729   4.317   4.418  10.045  0.2927  0.8428 -0.8215
 2031SOL    HW217730   4.295   4.275   9.990  0.9106  0.5614  0.2612
 2032SOL     OW17731   2.982   4.581  17.395 -0.2619 -0.3422 -0.1583
 2032SOL    HW117732   3.040   4.518  17.439 -2.0147 -1.3891  0.6391
 2032SOL    HW217733   2.933   4.525  17.335 -0.1520 -0.7720  0.1535
 2033SOL     OW17734   2.970   2.914   6.722  0.3454  0.5385  0.0459
 2033SOL    HW117735   2.978   2.970   6.799  0.8398 -1.2091  1.2613
 2033SOL    HW217736   2.874   2.911   6.721  0.4023 -0.8054 -2.2705
 2034SOL     OW17737   2.928   3.474   7.809 -0.4755  0.1486 -0.1991
 2034SOL    HW117738   2.974   3.539   7.756 -1.9567  0.6128 -0.9283
 2034SOL    HW217739   2.993   3.405   7.818 -0.2425 -0.1952 -4.1581
 2035SOL     OW17740   3.136   0.676   5.018 -0.3081 -0.0488  0.4784
 2035SOL    HW117741   3.099   0.588   5.028 -1.8145  0.5041 -0.0944
 2035SOL    HW217742   3.095   0.713   4.940 -0.5585 -0.0148  0.6246
 2036SOL     OW17743   0.144   0.764  15.431 -0.0638  0.2334 -0.3403
 2036SOL    HW117744   0.065   0.774  15.377 -0.6323 -1.4018  0.1837
 2036SOL    HW217745   0.118   0.691  15.487  0.7258  0.2983  0.0945
 2037SOL     OW17746   2.302   1.403   4.185  0.0477  0.1671 -0.1016
 2037SOL    HW117747   2.339   1.345   4.252  1.6349  0.2589 -0.9007
 2037SOL    HW217748   2.208   1.387   4.198  0.1065 -0.3886 -0.3593
 2038SOL     OW17749   1.678   1.811   5.959 -0.4333 -0.1729  0.0907
 2038SOL    HW117750   1.754   1.753   5.954  0.3609  0.4606  4.2554
 2038SOL    HW217751   1.635   1.781   6.039 -0.6324 -0.6195 -0.1859
 2039SOL     OW17752   2.020   1.039   9.724 -0.3754  0.2950 -0.1355
 2039SOL    HW117753   2.112   1.014   9.713 -0.2480  0.0971  1.4752
 2039SOL    HW217754   1.999   0.948   9.745  1.3453 -0.7241 -2.7625
 2040SOL     OW17755   2.680   0.011   1.584  0.8771 -0.2652 -0.5079
 2040SOL    HW117756   2.630   0.054   1.515 -0.2645  0.4675  0.7914
 2040SOL    HW217757   2.731   4.692   1.524  0.5905  1.2035 -2.0499
 2041SOL     OW17758   3.137   4.163   9.378 -0.0860  0.0203 -0.5169
 2041SOL    HW117759   3.103   4.085   9.422 -0.5661  1.3930  1.5544
 2041SOL    HW217760   3.052   4.196   9.347 -0.4101  0.7347  1.0911
 2042SOL     OW17761   3.795   3.816  16.537  0.2423  0.2168  0.0377
 2042SOL    HW117762   3.869   3.874  16.556  0.8880 -0.3647 -0.6727
 2042SOL    HW217763   3.852   3.740  16.526 -0.3983 -0.5570  2.1075
 2043SOL     OW17764   0.307   0.874   8.813  0.0744 -0.0329  0.4811
 2043SOL    HW117765   0.227   0.927   8.810  0.3062  0.3337  0.8481
 2043SOL    HW217766   0.380   0.935   8.818 -0.7424  1.0617 -0.8182
 2044SOL     OW17767   0.715   4.650   7.586 -0.4546 -0.0330  0.8976
 2044SOL    HW117768   0.693   0.007   7.576 -1.3011 -0.2530  0.7056
 2044SOL    HW217769   0.792   4.650   7.530 -0.4966  0.0553  0.8393
 2045SOL     OW17770   1.996   1.901   7.722 -0.0252  0.1174 -0.6067
 2045SOL    HW117771   1.925   1.888   7.659 -0.4181 -1.3582  0.1281
 2045SOL    HW217772   1.951   1.925   7.803 -0.4077 -0.2920 -0.6953
 2046SOL     OW17773   1.734   2.079   5.150  0.9559  0.6368 -0.3075
 2046SOL    HW117774   1.736   2.131   5.070 -0.4450  1.7069  0.3480
 2046SOL    HW217775   1.660   2.118   5.196 -1.6488 -1.8838 -2.4057
 2047SOL     OW17776   0.107   4.034   2.669  0.1715 -0.2608 -0.0029
 2047SOL    HW117777   0.031   4.091   2.677  0.8915  0.4434  1.8277
 2047SOL    HW217778   0.126   4.046   2.576 -0.6336 -1.1174 -0.2781
 2048SOL     OW17779   3.645   0.798  14.456 -0.1660 -0.2337 -0.2750
 2048SOL    HW117780   3.593   0.758  14.525 -0.5864  0.7497 -0.0204
 2048SOL    HW217781   3.658   0.885  14.493  0.8665 -0.4398 -0.1508
 2049SOL     OW17782   4.400   0.427   9.116 -0.6605  0.4344 -0.4821
 2049SOL    HW117783   4.403   0.522   9.106  0.3461  0.5270  0.6313
 2049SOL    HW217784   4.414   0.421   9.211  0.6244  1.0671 -0.6294
 2050SOL     OW17785   3.584   0.867  10.540 -0.2189  0.4541  0.3527
 2050SOL    HW117786   3.573   0.780  10.503 -0.3901  0.2307  0.9419
 2050SOL    HW217787   3.522   0.880  10.611 -1.1082  0.6006 -0.4437
 2051SOL     OW17788   2.837   1.057  14.220  0.0013 -0.2426  0.5515
 2051SOL    HW117789   2.752   1.031  14.185 -1.3034  1.1014  2.7571
 2051SOL    HW217790   2.829   1.137  14.271  0.0800 -0.1442  0.4104
 2052SOL     OW17791   2.279   0.899   0.574 -0.1433 -0.1802  0.2531
 2052SOL    HW117792   2.303   0.811   0.547  1.8252  0.3059  0.4519
 2052SOL    HW217793   2.194   0.899   0.618 -0.2636 -1.7527  0.0066
 2053SOL     OW17794   3.372   1.387  15.637 -0.0071  0.9906 -0.3076
 2053SOL    HW117795   3.332   1.378  15.551 -0.0586 -0.7298 -0.1065
 2053SOL    HW217796   3.446   1.326  15.633  0.9397  2.3208 -2.6614
 2054SOL     OW17797   2.606   3.659  16.671 -0.3843  0.2157 -0.0993
 2054SOL    HW117798   2.584   3.588  16.731 -3.4601 -0.7132 -2.3450
 2054SOL    HW217799   2.616   3.612  16.588 -0.5624  1.4751 -0.8371
 2055SOL     OW17800   2.774   1.910  12.174 -0.1569  0.0559  0.3828
 2055SOL    HW117801   2.689   1.868  12.183  0.4656 -1.4935 -1.0138
 2055SOL    HW217802   2.828   1.833  12.155 -1.6674 -1.4146  2.0354
 2056SOL     OW17803   0.116   1.052   8.778 -0.3210 -0.5363 -0.1828
 2056SOL    HW117804   0.084   1.087   8.695  3.9554  0.4692 -1.3863
 2056SOL    HW217805   0.085   1.120   8.838 -0.5402 -0.4500 -0.3944
 2057SOL     OW17806   1.234   2.201   1.679 -0.0147 -0.1305  0.7778
 2057SOL    HW117807   1.266   2.285   1.646  2.3102 -1.3607 -0.0837
 2057SOL    HW217808   1.161   2.237   1.731  0.4987  0.2707  1.2228
 2058SOL     OW17809   1.446   3.938  16.751 -0.4127 -0.0816  0.3037
 2058SOL    HW117810   1.423   4.028  16.774 -2.1118 -0.6962  1.0143
 2058SOL    HW217811   1.535   3.934  16.786 -1.1264  0.0138  2.1245
 2059SOL     OW17812   2.498   3.791   6.187  0.1450  0.2192 -0.3600
 2059SOL    HW117813   2.490   3.770   6.094  1.9779 -1.0056 -0.2336
 2059SOL    HW217814   2.448   3.724   6.234 -0.1370  0.5111 -0.2414
 2060SOL     OW17815   3.776   3.876   1.455 -0.2208  0.3028  0.1948
 2060SOL    HW117816   3.743   3.961   1.486  0.2698  0.2033  0.9777
 2060SOL    HW217817   3.865   3.901   1.429  0.0047 -0.7355 -0.0347
 2061SOL     OW17818   2.881   2.333   2.114  0.1317 -0.5695 -0.2908
 2061SOL    HW117819   2.912   2.247   2.142  1.8723  0.0101 -0.4358
 2061SOL    HW217820   2.967   2.376   2.116  0.0556 -0.3870 -0.9226
 2062SOL     OW17821   0.734   4.038  12.666 -0.2919 -0.4306  0.2234
 2062SOL    HW117822   0.720   4.132  12.661  1.1049 -0.1547  1.3772
 2062SOL    HW217823   0.828   4.035  12.648 -0.0493  1.5218  1.1121
 2063SOL     OW17824   4.305   3.607   1.744  0.5280 -0.5592  0.5746
 2063SOL    HW117825   4.280   3.609   1.836 -0.9168 -0.2348  0.1712
 2063SOL    HW217826   4.249   3.681   1.720  1.5488 -0.1766 -0.6999
 2064SOL     OW17827   3.605   3.434   7.775  0.3478  0.0731  0.5297
 2064SOL    HW117828   3.567   3.473   7.696  1.8977 -0.7343 -0.6043
 2064SOL    HW217829   3.627   3.515   7.822  0.4119 -0.1985  0.9695
 2065SOL     OW17830   4.258   3.500   2.029  0.1230 -0.2134 -0.0151
 2065SOL    HW117831   4.222   3.412   2.025 -0.7344  0.0728  1.4008
 2065SOL    HW217832   4.352   3.483   2.034  0.1947  0.0090 -0.5344
 2066SOL     OW17833   2.474   2.615   0.840  0.3303 -0.6453  0.0994
 2066SOL    HW117834   2.455   2.620   0.746  0.1761 -0.5303  0.1375
 2066SOL    HW217835   2.544   2.550   0.831 -0.4660 -1.4713 -0.1987
 2067SOL     OW17836   2.194   1.658   6.480 -0.0883  0.2300  0.3533
 2067SOL    HW117837   2.229   1.644   6.392 -0.0104  1.5123  0.1774
 2067SOL    HW217838   2.121   1.598   6.466  0.2279 -0.3744  1.2879
 2068SOL     OW17839   3.673   0.440   7.828  0.3071  0.5384 -0.4038
 2068SOL    HW117840   3.614   0.366   7.843 -0.9094  1.5248 -0.2371
 2068SOL    HW217841   3.711   0.427   7.741 -2.9543 -1.0317 -1.6321
 2069SOL     OW17842   2.717   3.459   2.136  0.3709 -0.3969 -0.1777
 2069SOL    HW117843   2.654   3.486   2.203 -1.2254 -1.3058 -1.3072
 2069SOL    HW217844   2.764   3.540   2.120 -0.0826 -0.1563 -0.2819
 2070SOL     OW17845   1.288   3.216   3.129  0.5241 -0.3115 -0.0195
 2070SOL    HW117846   1.337   3.298   3.117 -1.3116  0.8892  0.6163
 2070SOL    HW217847   1.221   3.240   3.065 -1.6035 -1.5255  1.7563
 2071SOL     OW17848   1.720   1.061  11.611  0.3759  0.0206  0.8352
 2071SOL    HW117849   1.682   0.983  11.570 -0.2405 -0.5231  2.4299
 2071SOL    HW217850   1.675   1.061  11.696 -0.6736  1.3279  0.2698
 2072SOL     OW17851   2.068   2.197   5.346  0.5072  0.1303 -0.0460
 2072SOL    HW117852   2.042   2.157   5.263 -0.6760 -0.9669  0.8600
 2072SOL    HW217853   2.092   2.125   5.403 -0.3380  0.6157  0.9252
 2073SOL     OW17854   2.307   1.765  16.512 -0.3629  0.2804 -0.9692
 2073SOL    HW117855   2.301   1.679  16.471 -3.5517 -0.3060  0.6661
 2073SOL    HW217856   2.381   1.742  16.568 -0.1264 -1.5718 -2.0523
 2074SOL     OW17857   2.803   0.514  14.922  0.1450  0.1476 -0.4733
 2074SOL    HW117858   2.848   0.440  14.881 -0.1108 -0.6129  0.6305
 2074SOL    HW217859   2.812   0.490  15.014 -2.6549 -0.7863 -0.4340
 2075SOL     OW17860   2.857   0.644   7.977  0.5056 -0.0154  0.3554
 2075SOL    HW117861   2.845   0.553   8.004 -0.7364 -0.3246 -1.2952
 2075SOL    HW217862   2.891   0.639   7.888 -0.0292  2.3564  0.0258
 2076SOL     OW17863   4.631   2.254   7.681  0.8423  0.1551  0.1912
 2076SOL    HW117864   4.564   2.221   7.622  1.2838  1.3003 -0.9576
 2076SOL    HW217865   4.584   2.293   7.755 -1.5239 -1.2500 -0.5641
 2077SOL     OW17866   4.433   3.929  16.785  0.2151 -0.1468 -0.4409
 2077SOL    HW117867   4.372   3.858  16.764 -0.0030 -0.1852  0.3386
 2077SOL    HW217868   4.510   3.907  16.731  0.6332  0.1627  0.0279
 2078SOL     OW17869   3.929   2.035  10.853 -0.0104  0.0245  0.1284
 2078SOL    HW117870   3.908   2.108  10.911  0.9823  0.5690 -0.1892
 2078SOL    HW217871   3.868   2.031  10.780  0.4956 -0.4976 -0.2726
 2079SOL     OW17872   3.150   0.215  14.307  0.1831  0.0644  0.4063
 2079SOL    HW117873   3.070   0.223  14.256 -0.8896 -0.6530  1.9983
 2079SOL    HW217874   3.124   0.271  14.380 -1.7021 -1.2970  0.7741
 2080SOL     OW17875   0.991   2.293   5.511 -0.4776  0.3227  0.0926
 2080SOL    HW117876   1.017   2.351   5.439 -0.6498  0.2053 -0.0639
 2080SOL    HW217877   0.905   2.257   5.491  1.0025 -2.2017 -1.8266
 2081SOL     OW17878   2.844   3.773  10.086 -0.1239  0.0276  0.3969
 2081SOL    HW117879   2.815   3.687  10.114  2.7474 -1.4898 -1.3682
 2081SOL    HW217880   2.937   3.765  10.067 -0.4180 -0.3551 -0.9268
 2082SOL     OW17881   3.576   0.799   5.850 -0.3129  0.0625 -0.3099
 2082SOL    HW117882   3.589   0.789   5.756  1.8098 -0.6330  0.0360
 2082SOL    HW217883   3.662   0.763   5.873 -0.4895 -1.4866 -2.1436
 2083SOL     OW17884   4.716   4.662   6.374  0.4064  1.1277 -0.5420
 2083SOL    HW117885   0.056   4.669   6.433 -1.1653  0.5206  1.5423
 2083SOL    HW217886   4.651   4.712   6.424  0.5099  0.7439 -0.0153
 2084SOL     OW17887   0.867   3.567   7.286  0.5842 -0.3677  0.2367
 2084SOL    HW117888   0.884   3.476   7.266 -3.1973 -0.8533 -0.7082
 2084SOL    HW217889   0.798   3.590   7.224  1.1542 -1.3448 -0.7431
 2085SOL     OW17890   1.164   0.125   2.328 -0.7903 -0.0287  0.6812
 2085SOL    HW117891   1.228   0.186   2.364  1.7148 -1.2856 -1.6481
 2085SOL    HW217892   1.104   0.198   2.311 -0.4325  0.3723  1.1363
 2086SOL     OW17893   1.445   3.435   6.143 -0.2304  0.0633  0.1966
 2086SOL    HW117894   1.437   3.527   6.168 -0.3000 -0.1111  0.8263
 2086SOL    HW217895   1.441   3.436   6.047  2.1215  0.7138  0.1217
 2087SOL     OW17896   3.485   4.646   6.751 -0.2781 -0.1376 -0.3798
 2087SOL    HW117897   3.471   4.713   6.817  1.4344  0.9622 -1.1341
 2087SOL    HW217898   3.400   4.604   6.742 -0.7953  1.0413 -0.9920
 2088SOL     OW17899   1.440   4.600  15.513  0.3727 -0.6813 -0.6234
 2088SOL    HW117900   1.527   4.641  15.509 -0.1281  0.5000  0.2271
 2088SOL    HW217901   1.412   4.593  15.422 -1.9686 -0.0595  0.0278
 2089SOL     OW17902   0.882   1.270   2.711 -0.2822 -0.2410  0.4457
 2089SOL    HW117903   0.805   1.326   2.709 -1.6341 -2.0973  0.2865
 2089SOL    HW217904   0.910   1.286   2.801  1.4643 -0.5577 -0.0361
 2090SOL     OW17905   4.192   3.740   8.993  0.4201  0.5095  0.1896
 2090SOL    HW117906   4.275   3.735   9.040  0.8663  3.5623 -0.2342
 2090SOL    HW217907   4.159   3.652   9.008 -1.0960  1.0504  0.1077
 2091SOL     OW17908   2.628   3.048   8.737 -0.1072  0.7103 -0.0231
 2091SOL    HW117909   2.562   3.100   8.782 -1.6592 -1.8062  0.5883
 2091SOL    HW217910   2.591   3.033   8.650 -0.5698  0.1018  0.2781
 2092SOL     OW17911   4.104   2.416   5.634  0.5698  0.0453  0.3730
 2092SOL    HW117912   4.188   2.371   5.648  0.5842 -0.1917 -0.4417
 2092SOL    HW217913   4.070   2.351   5.573 -0.5240  1.4782 -0.5503
 2093SOL     OW17914   0.843   2.123   4.310  0.7320  0.5143  0.4748
 2093SOL    HW117915   0.874   2.177   4.382  1.6137  1.4420 -0.6049
 2093SOL    HW217916   0.887   2.181   4.248 -0.4343  2.7118  1.6932
 2094SOL     OW17917   3.592   1.329   3.879  0.3289 -0.4758 -0.2099
 2094SOL    HW117918   3.619   1.421   3.871 -0.5345 -0.1584  0.5425
 2094SOL    HW217919   3.561   1.321   3.969 -1.8842 -0.2486 -0.9629
 2095SOL     OW17920   0.325   3.205  10.192 -0.6011 -0.3842  0.1684
 2095SOL    HW117921   0.396   3.268  10.192 -1.7214  0.8798 -1.4991
 2095SOL    HW217922   0.315   3.202  10.288  0.9867 -1.8640  0.2780
 2096SOL     OW17923   1.764   4.413  13.515  0.1486  0.3766 -0.1733
 2096SOL    HW117924   1.815   4.491  13.491  1.4556 -0.8722 -1.4962
 2096SOL    HW217925   1.690   4.423  13.456  0.8657  0.8509 -1.0023
 2097SOL     OW17926   2.347   1.911   1.902  0.6810  0.1966  0.4515
 2097SOL    HW117927   2.440   1.924   1.923  0.6935  2.4717 -0.9158
 2097SOL    HW217928   2.323   1.884   1.990 -0.1337 -0.1275  0.1311
 2098SOL     OW17929   2.771   2.124   3.192  0.0915  0.1483  0.1612
 2098SOL    HW117930   2.857   2.117   3.149  0.6081  1.1132  1.0293
 2098SOL    HW217931   2.714   2.051   3.166 -2.1305  2.7013 -2.1529
 2099SOL     OW17932   1.974   2.413   9.691  0.2814  0.3184 -0.4667
 2099SOL    HW117933   1.893   2.406   9.742  0.5385  0.0416 -0.0991
 2099SOL    HW217934   1.959   2.368   9.608  0.7113  2.5505 -1.7562
 2100SOL     OW17935   3.008   3.445   6.815 -0.5995 -0.2568 -0.4061
 2100SOL    HW117936   2.977   3.416   6.901 -0.1299 -2.0927 -0.8434
 2100SOL    HW217937   3.074   3.377   6.801  2.1706  2.1093  1.3690
 2101SOL     OW17938   1.493   1.453   4.388 -0.6098  0.4601  0.4790
 2101SOL    HW117939   1.582   1.487   4.398 -0.6797  0.8059 -0.0723
 2101SOL    HW217940   1.463   1.500   4.310  0.5164 -0.1834 -0.3411
 2102SOL     OW17941   1.864   3.268   6.140  0.1190 -0.4834  0.3845
 2102SOL    HW117942   1.822   3.183   6.125 -0.7983  0.2495 -1.1960
 2102SOL    HW217943   1.785   3.316   6.167  1.3262  1.6940 -0.0124
 2103SOL     OW17944   0.129   3.727   5.704  0.3433 -0.2527 -0.2643
 2103SOL    HW117945   0.214   3.750   5.739 -1.2549  0.0558  3.4358
 2103SOL    HW217946   0.099   3.680   5.783  2.6398 -1.7094 -0.2502
 2104SOL     OW17947   4.377   0.039  17.369 -0.0655  0.4534  0.0640
 2104SOL    HW117948   4.343   0.019  17.456 -0.0639  1.3858  0.2775
 2104SOL    HW217949   4.412   0.127  17.380  1.4382 -0.1738  0.3909
 2105SOL     OW17950   2.124   3.997   6.449  0.7337  0.6647  0.1995
 2105SOL    HW117951   2.038   3.973   6.414  0.3404  0.5625  1.2478
 2105SOL    HW217952   2.101   3.980   6.540 -0.4813 -1.5274 -0.5068
 2106SOL     OW17953   3.175   4.306   7.537  0.3115 -0.0318 -0.6105
 2106SOL    HW117954   3.131   4.228   7.501  0.9927 -1.2203  1.1245
 2106SOL    HW217955   3.141   4.371   7.476 -1.1362 -1.0218 -0.8656
 2107SOL     OW17956   1.034   4.412   1.953 -0.1566  0.2316 -0.4027
 2107SOL    HW117957   1.010   4.485   2.010  1.9885  0.9006 -0.3786
 2107SOL    HW217958   1.084   4.456   1.884  0.1446 -0.9371 -0.9337
 2108SOL     OW17959   1.753   1.178  12.071 -0.4134 -0.8160  0.6700
 2108SOL    HW117960   1.693   1.206  12.002  1.7300 -2.9683 -2.0341
 2108SOL    HW217961   1.699   1.106  12.103  0.2155 -2.6241 -2.3141
 2109SOL     OW17962   3.045   4.030   6.528  0.2812 -0.3596  0.2865
 2109SOL    HW117963   3.010   3.950   6.490 -0.4770  0.1365 -0.0583
 2109SOL    HW217964   3.061   4.076   6.445  0.9720 -3.3345 -1.2181
 2110SOL     OW17965   0.425   0.554   8.151  0.5959 -0.0142  0.4278
 2110SOL    HW117966   0.397   0.468   8.182  1.2643  0.5827  2.6572
 2110SOL    HW217967   0.476   0.523   8.077 -0.8241 -0.0398 -0.5557
 2111SOL     OW17968   4.297   3.993   3.479 -0.5947  0.6246 -0.3805
 2111SOL    HW117969   4.356   4.004   3.553  0.3738  0.9533 -1.1957
 2111SOL    HW217970   4.259   4.081   3.477 -0.6240  0.6068 -0.6552
 2112SOL     OW17971   1.612   2.757   6.085 -0.5522 -0.0233  0.3843
 2112SOL    HW117972   1.704   2.782   6.082  0.0131 -1.9548  1.6168
 2112SOL    HW217973   1.561   2.835   6.064  0.5234  0.1863 -1.4348
 2113SOL     OW17974   3.795   1.451   7.196 -1.0897 -0.0715  0.2624
 2113SOL    HW117975   3.744   1.496   7.129 -1.2549 -0.7207 -0.0505
 2113SOL    HW217976   3.882   1.445   7.156 -0.8199 -1.7317  1.0737
 2114SOL     OW17977   3.744   2.404  14.855 -0.4800 -0.2039  0.3822
 2114SOL    HW117978   3.718   2.488  14.818 -0.4194  0.3949  1.6993
 2114SOL    HW217979   3.676   2.349  14.816 -1.0288  0.2840  0.6397
 2115SOL     OW17980   4.103   3.636   4.516  0.5567 -0.2128 -0.1007
 2115SOL    HW117981   4.097   3.560   4.457 -1.9905 -1.3747  1.6382
 2115SOL    HW217982   4.198   3.645   4.523  0.4859 -0.4681  1.2007
 2116SOL     OW17983   3.543   1.151  13.607 -0.1283  0.2088  0.2959
 2116SOL    HW117984   3.543   1.069  13.558 -0.3475  1.8606 -2.4401
 2116SOL    HW217985   3.611   1.130  13.671 -0.8772 -1.5274  0.5359
 2117SOL     OW17986   1.625   0.628   1.631 -0.3066 -0.5212  0.5889
 2117SOL    HW117987   1.646   0.617   1.538  4.0472  1.0376  1.3822
 2117SOL    HW217988   1.663   0.547   1.666 -0.4536 -1.1992 -0.7920
 2118SOL     OW17989   1.997   1.880   1.100 -0.1054 -0.0133 -0.0423
 2118SOL    HW117990   2.048   1.852   1.025  1.4295  2.1344  0.2043
 2118SOL    HW217991   2.049   1.954   1.132  1.7710 -0.1865 -2.7395
 2119SOL     OW17992   3.976   4.457  16.517  0.4544  0.1370 -0.7792
 2119SOL    HW117993   3.914   4.430  16.585 -1.2419  2.9815 -1.2199
 2119SOL    HW217994   4.045   4.495  16.572  0.5867 -0.1146 -0.7679
 2120SOL     OW17995   3.573   2.230   0.461 -0.9638  0.0219 -0.3662
 2120SOL    HW117996   3.653   2.273   0.490  0.1036 -0.5302 -2.5333
 2120SOL    HW217997   3.600   2.150   0.415 -0.6042 -0.8453  1.3609
 2121SOL     OW17998   2.633   0.889   9.836  0.0665  0.3600  0.0054
 2121SOL    HW117999   2.549   0.844   9.839  0.2302 -0.0033 -1.1025
 2121SOL    HW218000   2.679   0.837   9.770 -0.5922  0.2240 -0.3355
 2122SOL     OW18001   0.674   0.359   8.482  0.2262  0.2713 -0.1620
 2122SOL    HW118002   0.604   0.424   8.474 -0.8367 -0.9526 -0.8501
 2122SOL    HW218003   0.727   0.385   8.407 -1.9484  0.4170 -1.6441
 2123SOL     OW18004   1.444   1.897  14.645  0.2935  0.1455  0.2273
 2123SOL    HW118005   1.371   1.880  14.706  0.6973 -1.7894  0.1630
 2123SOL    HW218006   1.432   1.989  14.624 -2.0389 -0.6236 -1.8804
 2124SOL     OW18007   1.625   1.927  11.416 -0.1602 -0.5648 -0.2393
 2124SOL    HW118008   1.551   1.930  11.476  1.1845 -1.7906  1.4802
 2124SOL    HW218009   1.669   2.010  11.438 -0.7804 -0.7860  1.8580
 2125SOL     OW18010   2.923   0.282  13.849  0.2034  0.0082  0.1322
 2125SOL    HW118011   2.831   0.265  13.867  0.3817  0.3367  1.3688
 2125SOL    HW218012   2.937   0.207  13.790  0.6570  0.9815 -0.9883
 2126SOL     OW18013   3.636   1.307  11.873 -0.1008  0.6199 -0.7315
 2126SOL    HW118014   3.603   1.365  11.805  1.2229  1.4541 -0.6662
 2126SOL    HW218015   3.571   1.238  11.868  0.0131  0.3782  1.3682
 2127SOL     OW18016   1.626   1.674  15.163  0.2645 -0.1418 -0.4309
 2127SOL    HW118017   1.535   1.699  15.177  0.0272 -1.2059 -0.0742
 2127SOL    HW218018   1.632   1.714  15.076  0.6645  0.6236 -0.0579
 2128SOL     OW18019   3.570   4.418   8.079  0.4620  0.2945 -0.3015
 2128SOL    HW118020   3.616   4.408   7.996  0.2306 -0.0871 -0.3828
 2128SOL    HW218021   3.485   4.454   8.051 -0.0897 -1.0461 -0.3383
 2129SOL     OW18022   1.044   2.618   2.538 -0.2407 -0.1012 -0.1002
 2129SOL    HW118023   1.023   2.633   2.630  2.5898  4.7740 -0.2674
 2129SOL    HW218024   1.138   2.636   2.537 -0.7741  2.7907  0.2373
 2130SOL     OW18025   1.310   0.642   2.650 -0.1885 -0.4226  0.4949
 2130SOL    HW118026   1.355   0.634   2.566 -0.1633 -0.3812  0.5043
 2130SOL    HW218027   1.342   0.731   2.668 -1.1626  0.1203 -0.4804
 2131SOL     OW18028   4.186   0.723   8.639 -0.3313 -0.2749 -0.0117
 2131SOL    HW118029   4.207   0.744   8.730 -0.3081 -0.1384 -0.0486
 2131SOL    HW218030   4.147   0.638   8.659  0.8969 -0.6083  0.9779
 2132SOL     OW18031   2.691   4.665   8.609 -0.6101  0.5933 -0.1879
 2132SOL    HW118032   2.605   4.636   8.641  0.2843 -1.2435  0.5280
 2132SOL    HW218033   2.674   4.672   8.515 -2.8302  0.8299  0.2208
 2133SOL     OW18034   3.044   2.143   7.503  0.1424 -0.1977 -0.1837
 2133SOL    HW118035   3.128   2.140   7.458 -0.8818 -0.4565 -2.0822
 2133SOL    HW218036   3.044   2.231   7.538 -1.4917 -0.0315 -0.5764
 2134SOL     OW18037   1.325   2.458   2.869  0.2723  0.7794 -0.7039
 2134SOL    HW118038   1.348   2.488   2.956  0.2875 -0.2018 -0.3708
 2134SOL    HW218039   1.289   2.371   2.885  2.2410 -0.4269 -2.7382
 2135SOL     OW18040   3.737   2.009   4.228  0.8137  0.2844  0.2822
 2135SOL    HW118041   3.668   2.027   4.165 -0.0681 -0.8721  0.9060
 2135SOL    HW218042   3.738   2.086   4.285 -0.1977 -0.9434  1.9492
 2136SOL     OW18043   0.955   3.398   3.273  0.2450 -0.0056 -0.7549
 2136SOL    HW118044   1.017   3.440   3.213  0.5690 -2.2447 -2.0174
 2136SOL    HW218045   0.894   3.358   3.211  0.5263  2.8447 -2.8406
 2137SOL     OW18046   0.418   0.828   6.177  0.5315  0.3705  0.8906
 2137SOL    HW118047   0.472   0.781   6.241  2.4254 -0.5405 -1.3596
 2137SOL    HW218048   0.374   0.894   6.230 -1.6341 -0.4617  0.1246
 2138SOL     OW18049   0.381   0.039   8.416  0.0584  0.3227  0.6745
 2138SOL    HW118050   0.422   0.100   8.477 -0.4580 -1.4334  2.7479
 2138SOL    HW218051   0.292   0.072   8.420 -0.0299  0.1532  0.1116
 2139SOL     OW18052   4.136   4.354   6.542  0.2744  0.4466  0.0495
 2139SOL    HW118053   4.119   4.421   6.608  0.7883  0.8941 -0.2730
 2139SOL    HW218054   4.125   4.277   6.598  1.3608 -0.4106 -0.9245
 2140SOL     OW18055   2.951   2.239   8.631 -0.3147 -0.6592 -0.4024
 2140SOL    HW118056   2.893   2.166   8.655  0.3237 -1.8603 -2.5532
 2140SOL    HW218057   2.886   2.304   8.605 -0.0410  0.0643  0.7225
 2141SOL     OW18058   1.334   3.355   0.648 -0.1744 -0.2422  0.2226
 2141SOL    HW118059   1.267   3.296   0.615 -0.6643  0.4116  0.0510
 2141SOL    HW218060   1.411   3.299   0.654  0.6852  1.1002  1.7119
 2142SOL     OW18061   3.014   1.345   3.527  0.1571  0.0798 -0.1738
 2142SOL    HW118062   2.988   1.340   3.435  0.2855 -1.0882 -0.1460
 2142SOL    HW218063   3.001   1.439   3.537  0.8825  0.0986  0.5760
 2143SOL     OW18064   2.912   3.767   3.544 -0.5475  0.7184  0.6003
 2143SOL    HW118065   2.888   3.677   3.524 -0.0646  0.4466  1.2097
 2143SOL    HW218066   2.975   3.756   3.616  0.4014  3.0389  0.1284
 2144SOL     OW18067   2.868   2.527   7.453  0.0071  0.7209  0.4016
 2144SOL    HW118068   2.878   2.530   7.358 -1.2390  0.6635  0.2612
 2144SOL    HW218069   2.950   2.484   7.479  1.8570  2.1477 -3.0938
 2145SOL     OW18070   2.338   3.540   7.669  0.3322  0.3942 -0.0766
 2145SOL    HW118071   2.322   3.628   7.636 -0.8986  0.2704  0.2113
 2145SOL    HW218072   2.373   3.510   7.585 -0.4785 -0.7390 -0.0088
 2146SOL     OW18073   1.353   1.235  11.228  0.4345  0.5857  0.3360
 2146SOL    HW118074   1.444   1.227  11.257 -0.0337  1.0571  1.9099
 2146SOL    HW218075   1.380   1.284  11.150 -0.3037 -0.6808 -0.7086
 2147SOL     OW18076   4.148   1.290   2.120  0.3071 -0.2483  0.0356
 2147SOL    HW118077   4.205   1.365   2.100 -1.4044  0.6209 -1.6598
 2147SOL    HW218078   4.210   1.228   2.158  0.7270  0.7856  1.0634
 2148SOL     OW18079   3.531   3.027   4.769  0.0079  0.4317 -0.2845
 2148SOL    HW118080   3.483   3.086   4.712 -0.4447  1.2280  0.9222
 2148SOL    HW218081   3.619   3.051   4.739  0.6445  0.5953  1.6909
 2149SOL     OW18082   1.060   2.956   4.958 -0.0626  0.4272  0.3982
 2149SOL    HW118083   1.085   2.874   4.914  0.6629 -0.8452  3.1721
 2149SOL    HW218084   0.984   2.935   5.011 -0.9514  0.3591 -0.8972
 2150SOL     OW18085   4.236   2.058   2.159 -0.6171 -0.6188 -0.3962
 2150SOL    HW118086   4.161   2.000   2.170 -1.5498  0.9730  1.6878
 2150SOL    HW218087   4.248   2.059   2.064  0.5598  1.2481 -0.2444
 2151SOL     OW18088   3.477   3.165  10.086  0.6341 -0.2014 -0.1992
 2151SOL    HW118089   3.426   3.230  10.135  0.2374  0.6654 -1.7479
 2151SOL    HW218090   3.564   3.182  10.122  1.1416  0.2237 -1.6374
 2152SOL     OW18091   0.047   3.630   8.141 -0.3312 -0.1604 -0.0510
 2152SOL    HW118092   0.017   3.677   8.219  0.3319 -0.3722  0.3283
 2152SOL    HW218093   4.695   3.601   8.114 -1.2440  0.9121  1.7756
 2153SOL     OW18094   2.927   2.680   7.887  0.0042 -0.0007 -0.4301
 2153SOL    HW118095   2.976   2.693   7.968 -1.0855  0.4677  0.1377
 2153SOL    HW218096   2.960   2.593   7.862  0.5715  0.2608 -0.5984
 2154SOL     OW18097   0.686   2.205   8.754  0.0219  0.2719  0.3312
 2154SOL    HW118098   0.763   2.251   8.789 -0.8587  2.5724 -0.7459
 2154SOL    HW218099   0.704   2.112   8.762 -0.4900  0.0792 -0.8303
 2155SOL     OW18100   1.227   0.898   7.282 -0.3692  0.4182  0.1221
 2155SOL    HW118101   1.215   0.971   7.344  0.0215 -1.0485  1.9051
 2155SOL    HW218102   1.245   0.940   7.198  0.0681 -1.2174 -0.5914
 2156SOL     OW18103   3.217   3.804   1.628 -0.3132  0.4755 -0.0261
 2156SOL    HW118104   3.282   3.795   1.559 -0.3975 -0.1820 -0.0252
 2156SOL    HW218105   3.145   3.752   1.594  0.9412 -0.5702 -1.0738
 2157SOL     OW18106   4.189   0.031   5.820 -0.8908 -0.9245 -0.3075
 2157SOL    HW118107   4.254   0.022   5.890  0.0721 -0.9466 -1.2114
 2157SOL    HW218108   4.112   0.047   5.874  0.0197  0.1014  0.7067
 2158SOL     OW18109   2.723   0.964  10.883  0.2693  0.0650 -0.6432
 2158SOL    HW118110   2.731   0.868  10.885  1.3422  0.1169 -2.6877
 2158SOL    HW218111   2.737   1.003  10.797 -0.1236  1.0452 -0.2613
 2159SOL     OW18112   1.970   0.538   9.710 -0.0292 -0.2007  0.0826
 2159SOL    HW118113   1.980   0.445   9.692  1.4439  0.5090 -2.8040
 2159SOL    HW218114   1.883   0.559   9.677 -0.1580 -2.3077 -0.9167
 2160SOL     OW18115   1.591   4.495   7.955  0.0312  0.2957 -0.0260
 2160SOL    HW118116   1.527   4.509   8.024  0.2684  1.8585 -0.1354
 2160SOL    HW218117   1.532   4.485   7.880  0.6490 -0.0653 -0.4753
 2161SOL     OW18118   0.116   2.899   5.026  0.1057 -0.1741  0.3541
 2161SOL    HW118119   0.076   2.823   5.067  2.2983 -1.2566  0.5209
 2161SOL    HW218120   0.141   2.860   4.942 -2.0265 -2.9800  1.0285
 2162SOL     OW18121   0.936   4.470   6.570 -0.3054  0.3451 -0.3485
 2162SOL    HW118122   0.956   4.387   6.614  1.7137  0.2516 -1.4425
 2162SOL    HW218123   0.842   4.454   6.573 -0.5448  1.7166 -0.8700
 2163SOL     OW18124   3.984   2.817  14.380 -0.6239  0.1224 -0.1968
 2163SOL    HW118125   4.036   2.897  14.377 -2.8882  1.6625  1.6898
 2163SOL    HW218126   3.902   2.865  14.368  0.1960  1.7089  0.4863
 2164SOL     OW18127   1.099   2.026  12.708  0.0660 -0.0631  0.5335
 2164SOL    HW118128   1.160   2.075  12.764 -0.6538 -0.4450  1.6351
 2164SOL    HW218129   1.158   1.990  12.641 -0.0917 -1.5990  1.2310
 2165SOL     OW18130   3.524   4.255   8.523 -0.0569  0.1583  0.5985
 2165SOL    HW118131   3.451   4.317   8.519  1.5193  2.1012  1.2099
 2165SOL    HW218132   3.499   4.188   8.460 -0.8543  0.5060  0.5515
 2166SOL     OW18133   0.582   1.088  17.734  0.2927  0.4877  0.6095
 2166SOL    HW118134   0.512   1.122   0.049  0.2938 -0.3395  1.1027
 2166SOL    HW218135   0.615   1.175  17.709 -1.0014  0.8061  0.0133
 2167SOL     OW18136   4.156   3.872   4.184 -0.1739 -0.3493 -0.1721
 2167SOL    HW118137   4.103   3.792   4.191  1.2715 -1.3133 -0.4064
 2167SOL    HW218138   4.109   3.927   4.247 -0.7072 -0.1266 -0.7625
 2168SOL     OW18139   3.692   1.412  13.458 -0.0725  0.2336  0.6639
 2168SOL    HW118140   3.717   1.358  13.534  0.8074 -0.1822  0.0842
 2168SOL    HW218141   3.766   1.391  13.401 -0.4776 -0.9839  0.5921
 2169SOL     OW18142   0.832   1.172  17.040  0.0170 -0.2758  0.0558
 2169SOL    HW118143   0.773   1.098  17.057 -0.3061  0.6844  3.1455
 2169SOL    HW218144   0.829   1.186  16.945 -2.0078  0.3356  0.2070
 2170SOL     OW18145   2.055   2.556   9.322  0.0317 -0.0331 -0.3654
 2170SOL    HW118146   2.146   2.581   9.334  0.5982 -1.0599 -2.5048
 2170SOL    HW218147   2.060   2.462   9.342  2.1351  0.3568  0.9629
 2171SOL     OW18148   0.841   2.180   3.913 -0.2642  0.0698 -0.5245
 2171SOL    HW118149   0.777   2.252   3.916 -0.0297  0.2430  0.2614
 2171SOL    HW218150   0.789   2.106   3.943  1.9037 -0.2395  2.3364
 2172SOL     OW18151   0.582   1.197   6.982 -0.2163  0.5820 -0.3777
 2172SOL    HW118152   0.574   1.163   7.072  0.6155 -1.5842 -1.1192
 2172SOL    HW218153   0.490   1.200   6.956 -0.6618 -3.0077  0.6797
 2173SOL     OW18154   3.695   2.588  12.514 -1.3344  0.1797  0.6005
 2173SOL    HW118155   3.637   2.661  12.534  0.4042  2.0193 -0.9965
 2173SOL    HW218156   3.739   2.592  12.599  0.5457 -0.1214 -0.3694
 2174SOL     OW18157   2.333   3.980   0.598  0.2885  0.0592  0.1370
 2174SOL    HW118158   2.420   3.954   0.568  0.6146 -0.2030  1.3197
 2174SOL    HW218159   2.354   3.997   0.690  1.1659 -0.1500 -0.0278
 2175SOL     OW18160   0.084   3.563   1.977 -0.4164  0.2261 -0.3870
 2175SOL    HW118161   0.134   3.622   2.034  2.7107 -0.9038 -1.9817
 2175SOL    HW218162   0.095   3.611   1.895 -0.2567 -0.8439 -0.9941
 2176SOL     OW18163   1.280   3.446  12.638  0.3479  1.1291 -0.2065
 2176SOL    HW118164   1.268   3.399  12.721  0.3924  1.5266  0.0298
 2176SOL    HW218165   1.355   3.503  12.659  1.5544 -1.5099  2.7924
 2177SOL     OW18166   3.016   0.220   1.496  0.1560  0.9604 -0.0837
 2177SOL    HW118167   2.939   0.202   1.442  0.0863  3.3100 -0.7664
 2177SOL    HW218168   2.967   0.276   1.556 -1.1855 -0.7910  0.4880
 2178SOL     OW18169   2.375   4.626   9.358  0.3840  0.0694 -0.4219
 2178SOL    HW118170   2.396   4.718   9.342  3.5081 -0.9581 -2.1219
 2178SOL    HW218171   2.352   4.636   9.451  0.0421 -0.9462 -0.4001
 2179SOL     OW18172   2.524   0.007   4.294  0.2635 -0.4430 -0.3434
 2179SOL    HW118173   2.494   4.680   4.360  0.4852 -0.9871 -0.7580
 2179SOL    HW218174   2.438   0.043   4.273  1.3224  1.4049 -1.4256
 2180SOL     OW18175   3.145   1.005   9.431 -0.0736  0.3399 -0.6922
 2180SOL    HW118176   3.162   1.092   9.468 -0.5026  0.8372 -1.6456
 2180SOL    HW218177   3.073   1.024   9.371 -1.1490 -0.5393  0.3212
 2181SOL     OW18178   0.526   0.523   1.396 -0.1688  0.1473 -0.4266
 2181SOL    HW118179   0.530   0.466   1.473 -0.2974  1.9215  0.8984
 2181SOL    HW218180   0.435   0.549   1.406 -0.1899 -0.2727  0.5043
 2182SOL     OW18181   0.963   0.491   8.904  0.4314  0.3245  0.0612
 2182SOL    HW118182   0.931   0.510   8.816  0.1931  0.9083  0.2724
 2182SOL    HW218183   0.949   0.576   8.947  0.5448  0.9243 -1.0942
 2183SOL     OW18184   3.954   0.904   3.860  0.3412  0.2315 -0.0949
 2183SOL    HW118185   4.026   0.941   3.807  0.0531  0.0645 -0.6067
 2183SOL    HW218186   3.878   0.931   3.809 -0.9025  1.4262  2.4362
 2184SOL     OW18187   0.172   1.739   4.193  0.8020 -0.1384 -0.7129
 2184SOL    HW118188   0.217   1.820   4.171  0.6200  0.0961 -0.1975
 2184SOL    HW218189   0.202   1.694   4.114  0.7684  2.2878 -2.1198
 2185SOL     OW18190   4.712   1.650  14.283  0.3836  0.1046 -0.4539
 2185SOL    HW118191   0.068   1.654  14.255  0.1332  1.9800 -1.0587
 2185SOL    HW218192   4.700   1.739  14.317 -0.5238  0.0915 -0.7288
 2186SOL     OW18193   2.021   0.579   4.880  0.2226  0.4221  0.4034
 2186SOL    HW118194   2.042   0.487   4.899 -1.4320 -0.5620 -2.4379
 2186SOL    HW218195   1.938   0.559   4.836  0.4970  1.2908 -0.5130
 2187SOL     OW18196   3.189   3.644   7.435 -0.0514  0.0879 -0.3987
 2187SOL    HW118197   3.159   3.590   7.362  0.2403  0.8099 -1.0534
 2187SOL    HW218198   3.215   3.728   7.397 -1.0205  0.6234  0.1088
 2188SOL     OW18199   3.743   2.977  14.295 -0.2723 -0.3001  0.3003
 2188SOL    HW118200   3.680   3.045  14.322 -0.0826 -0.7786  1.9861
 2188SOL    HW218201   3.787   3.009  14.217  1.4869 -0.6180  1.1518
 2189SOL     OW18202   3.748   1.324   4.185  0.0598 -0.6460  0.1628
 2189SOL    HW118203   3.667   1.373   4.167 -0.0520  0.0254  2.4746
 2189SOL    HW218204   3.728   1.233   4.205  0.1710 -0.7094 -0.0177
 2190SOL     OW18205   4.730   1.685   1.688  0.6807 -0.0159  0.1881
 2190SOL    HW118206   0.015   1.599   1.725 -0.9705 -0.2591  0.5652
 2190SOL    HW218207   4.685   1.725   1.762  0.4747 -0.0719  0.0951
 2191SOL     OW18208   2.892   4.296   5.423  0.2451 -0.2614  0.4887
 2191SOL    HW118209   2.809   4.309   5.379 -0.3538 -1.3888  1.2754
 2191SOL    HW218210   2.935   4.255   5.347  0.9668 -0.6600  1.1093
 2192SOL     OW18211   2.844   4.723  16.885 -0.1675 -0.2914 -0.3771
 2192SOL    HW118212   2.934   4.710  16.853  0.1451  0.0290  0.3913
 2192SOL    HW218213   2.841   0.077  16.919  2.3912 -0.1639 -0.4825
 2193SOL     OW18214   0.584   0.832   7.294  0.0174  0.0893 -0.0302
 2193SOL    HW118215   0.654   0.891   7.267  0.5966 -0.4437  0.3013
 2193SOL    HW218216   0.588   0.846   7.388 -1.1199 -2.4916  0.4018
 2194SOL     OW18217   2.617   4.716  16.111 -0.1503  0.4855 -0.8068
 2194SOL    HW118218   2.530   4.723  16.152  0.2354 -1.6812  0.3769
 2194SOL    HW218219   2.675   4.687  16.181 -1.9016  0.9850  0.8479
 2195SOL     OW18220   2.485   2.280   8.085 -0.9580 -0.2756  0.3437
 2195SOL    HW118221   2.400   2.284   8.127 -0.7619 -1.2316  0.8197
 2195SOL    HW218222   2.517   2.192   8.107 -3.0763 -1.6200 -2.0857
 2196SOL     OW18223   0.231   0.484  15.949  0.6148  0.1440  0.1341
 2196SOL    HW118224   0.300   0.487  15.882 -0.8323  0.8762 -1.3227
 2196SOL    HW218225   0.204   0.393  15.940  0.2832  0.4129 -1.5696
 2197SOL     OW18226   1.347   2.189  12.095  0.4755 -0.0483  0.0541
 2197SOL    HW118227   1.326   2.281  12.109 -1.2667 -0.1835 -1.7188
 2197SOL    HW218228   1.363   2.189  12.001 -0.8638  0.8510 -0.1695
 2198SOL     OW18229   1.582   4.395   0.221 -0.0767 -0.3204 -0.5755
 2198SOL    HW118230   1.666   4.359   0.250 -0.5398 -0.2063  0.8998
 2198SOL    HW218231   1.606   4.487   0.208 -0.6181 -0.1422 -0.3053
 2199SOL     OW18232   0.463   0.224  15.071 -0.0859 -0.2691 -1.2202
 2199SOL    HW118233   0.474   0.198  14.979  3.1231 -0.6790 -0.7138
 2199SOL    HW218234   0.515   0.304  15.075  0.1083 -0.4547 -0.0312
 2200SOL     OW18235   0.801   1.871   5.191  0.1294  0.2799  0.5246
 2200SOL    HW118236   0.754   1.948   5.160  1.3588  0.4490 -0.9181
 2200SOL    HW218237   0.885   1.885   5.148  0.6456  1.2376  1.8318
 2201SOL     OW18238   1.977   2.986   2.310  0.3099 -0.4378 -0.3742
 2201SOL    HW118239   1.888   2.961   2.336 -0.0511  0.6718 -0.5715
 2201SOL    HW218240   2.014   2.898   2.301 -0.8127 -0.8327 -1.2581
 2202SOL     OW18241   1.706   4.582   1.367  0.1591 -0.3778 -0.1809
 2202SOL    HW118242   1.619   4.616   1.390 -0.0000 -1.2293  0.5008
 2202SOL    HW218243   1.685   4.526   1.292 -0.6087 -1.4941  0.8606
 2203SOL     OW18244   2.381   2.694   7.102 -0.7458  0.0876 -0.1021
 2203SOL    HW118245   2.371   2.668   7.010 -3.7107  1.4029 -0.1565
 2203SOL    HW218246   2.336   2.616   7.135  1.0879  1.2354  5.1179
 2204SOL     OW18247   0.725   0.509  12.627  0.3153 -0.3410  0.0432
 2204SOL    HW118248   0.727   0.548  12.540  0.1422 -1.0721 -0.2933
 2204SOL    HW218249   0.674   0.569  12.681 -0.5280  0.7280 -1.9394
 2205SOL     OW18250   1.142   3.541   0.550  0.1005 -0.6269  0.0517
 2205SOL    HW118251   1.188   3.464   0.583  0.3307 -0.8049 -0.6970
 2205SOL    HW218252   1.209   3.581   0.495  0.0305  0.8188  1.0196
 2206SOL     OW18253   2.869   1.193  11.910  0.0861  0.0155 -0.8877
 2206SOL    HW118254   2.920   1.149  11.978  1.3091  3.1325  0.2373
 2206SOL    HW218255   2.797   1.131  11.903 -0.9607  1.1058  0.3812
 2207SOL     OW18256   3.161   3.335  17.333  0.8759  0.3590  0.2987
 2207SOL    HW118257   3.208   3.417  17.320 -1.3639  1.4744 -0.7241
 2207SOL    HW218258   3.074   3.365  17.358 -0.3492 -1.8144 -1.3129
 2208SOL     OW18259   1.295   2.787   4.047 -0.7754 -0.0595 -0.1563
 2208SOL    HW118260   1.340   2.861   4.089 -0.3369 -0.2004 -0.3754
 2208SOL    HW218261   1.331   2.799   3.959 -1.4133  2.7962 -0.0114
 2209SOL     OW18262   2.984   3.818   1.947  0.2436  0.1726 -0.0212
 2209SOL    HW118263   2.950   3.740   1.904 -1.5869  0.0408  1.6597
 2209SOL    HW218264   3.065   3.780   1.983 -0.0275 -0.9131 -0.5765
 2210SOL     OW18265   0.062   3.923  17.178  0.1374 -0.1910  0.3168
 2210SOL    HW118266   0.042   3.947  17.088  0.5773 -0.9892  0.0075
 2210SOL    HW218267   0.071   4.014  17.208 -0.7712 -0.1379  0.4067
 2211SOL     OW18268   1.891   1.513   7.279 -0.1872 -0.0028 -0.0028
 2211SOL    HW118269   1.805   1.528   7.318  1.2579  1.0258  2.7884
 2211SOL    HW218270   1.936   1.480   7.357 -1.7710 -2.2373 -0.0240
 2212SOL     OW18271   4.268   4.730   8.935  0.8427  0.1248  0.2740
 2212SOL    HW118272   4.266   0.090   8.944 -1.1439  0.0776  0.2421
 2212SOL    HW218273   4.264   4.728   8.839  2.3859  1.9680  0.1761
 2213SOL     OW18274   2.790   3.490   8.323 -0.3693 -0.2552  0.1469
 2213SOL    HW118275   2.779   3.553   8.252 -1.9186 -0.3645  0.2834
 2213SOL    HW218276   2.823   3.557   8.383 -3.5750  1.1610  0.3696
 2214SOL     OW18277   2.638   0.911   4.859 -0.0513 -0.1621  0.4752
 2214SOL    HW118278   2.598   0.831   4.892  2.7053 -0.3096  3.3702
 2214SOL    HW218279   2.641   0.973   4.931  0.0533 -0.4385  0.7081
 2215SOL     OW18280   3.163   4.684   0.614  0.0225  0.0627  0.4412
 2215SOL    HW118281   3.229   4.642   0.669 -0.8210 -0.4007  1.1002
 2215SOL    HW218282   3.204   4.683   0.528 -1.6588 -2.5219 -0.3089
 2216SOL     OW18283   0.998   3.190   3.454 -0.6624 -0.0520  0.3575
 2216SOL    HW118284   0.915   3.201   3.501 -1.5179  0.2089 -1.2106
 2216SOL    HW218285   1.001   3.266   3.396 -0.7931  0.1604  0.6321
 2217SOL     OW18286   1.328   1.804   6.280 -0.4036 -0.1737 -0.0770
 2217SOL    HW118287   1.395   1.862   6.318 -0.4577  1.3514 -2.3215
 2217SOL    HW218288   1.374   1.723   6.302  0.8249  0.3904 -0.5257
 2218SOL     OW18289   1.576   1.127   4.769 -0.0488 -0.0131  0.0240
 2218SOL    HW118290   1.608   1.198   4.713  1.0160  0.0918  0.7787
 2218SOL    HW218291   1.536   1.063   4.709  0.2260 -0.1071 -0.0568
 2219SOL     OW18292   0.154   0.937   7.225 -0.0675  0.1478  0.1685
 2219SOL    HW118293   0.175   0.874   7.157  3.0268  0.4836  0.7818
 2219SOL    HW218294   0.239   0.942   7.269  0.7146  1.8686 -1.4987
 2220SOL     OW18295   0.359   4.500   7.439  0.3032  0.6361 -0.6082
 2220SOL    HW118296   0.363   4.594   7.421  1.2003  0.3652 -1.7745
 2220SOL    HW218297   0.265   4.486   7.426  0.0891  0.0671  1.5572
 2221SOL     OW18298   0.694   4.032   1.957 -0.2412 -0.5651 -0.0937
 2221SOL    HW118299   0.601   4.043   1.980 -0.5109  0.0124 -1.5174
 2221SOL    HW218300   0.725   3.987   2.036  0.2420  0.2236  0.1654
 2222SOL     OW18301   3.019   2.946   8.913 -0.3844 -0.4785 -0.2068
 2222SOL    HW118302   3.030   3.012   8.845 -0.3573 -0.0938  0.1702
 2222SOL    HW218303   2.926   2.924   8.911 -1.0776  2.7218 -3.0824
 2223SOL     OW18304   2.877   4.273   1.388  0.1147  0.4749  0.1151
 2223SOL    HW118305   2.932   4.249   1.462 -3.3832 -1.1144  2.1813
 2223SOL    HW218306   2.866   4.365   1.413 -3.3600 -0.0474  0.5739
 2224SOL     OW18307   0.086   2.868   2.008 -0.1346 -0.2655 -0.8184
 2224SOL    HW118308   0.024   2.887   2.079  0.1471  1.4819 -1.0274
 2224SOL    HW218309   0.108   2.777   2.025  0.8014  0.1124  0.0177
 2225SOL     OW18310   1.341   0.700   3.620 -0.1302  0.0592  0.2680
 2225SOL    HW118311   1.308   0.776   3.668 -1.6329 -1.0878  1.0453
 2225SOL    HW218312   1.274   0.699   3.551  1.0021 -2.8489 -0.7886
 2226SOL     OW18313   3.255   4.242   4.055 -0.4325 -0.3145  0.3054
 2226SOL    HW118314   3.207   4.279   3.980  0.0613 -2.3074 -0.9968
 2226SOL    HW218315   3.343   4.250   4.017 -0.7285 -2.8317 -0.9272
 2227SOL     OW18316   2.850   2.729  17.120 -0.0270 -0.3166  0.4832
 2227SOL    HW118317   2.815   2.785  17.190 -0.8335 -0.1508 -0.0513
 2227SOL    HW218318   2.777   2.674  17.092  0.5643 -0.9930  0.2682
 2228SOL     OW18319   3.227   2.698  17.734  0.2110 -0.1748  0.3507
 2228SOL    HW118320   3.164   2.644  17.686  2.1919 -1.7798 -0.4229
 2228SOL    HW218321   3.163   2.737   0.053  2.0175  2.5072  0.5227
 2229SOL     OW18322   1.283   3.026   8.559  0.5958  0.2823 -0.2953
 2229SOL    HW118323   1.218   3.065   8.617 -1.5513 -0.7744 -1.9949
 2229SOL    HW218324   1.223   3.011   8.486  2.3208 -0.6740 -1.5312
 2230SOL     OW18325   0.315   1.436  11.050 -0.1658 -0.0850 -0.2695
 2230SOL    HW118326   0.250   1.375  11.015 -1.9981  1.1404  0.9724
 2230SOL    HW218327   0.372   1.381  11.103  0.8677  0.5508 -0.7124
 2231SOL     OW18328   0.731   3.899   9.250 -0.0969  0.0642  0.3345
 2231SOL    HW118329   0.640   3.922   9.232  0.4011 -0.2741 -2.5360
 2231SOL    HW218330   0.728   3.885   9.345 -0.0050  1.8225  0.6037
 2232SOL     OW18331   4.146   1.430   4.483  0.0710  0.6328  0.6960
 2232SOL    HW118332   4.071   1.381   4.448  0.5009  1.3172 -1.1715
 2232SOL    HW218333   4.220   1.396   4.432  1.0444 -0.5871  2.9288
 2233SOL     OW18334   3.736   2.461   5.423  0.6528  0.3144 -0.4445
 2233SOL    HW118335   3.768   2.447   5.512  0.8383 -3.2335 -1.0699
 2233SOL    HW218336   3.707   2.550   5.439  0.2528  0.3900 -1.6139
 2234SOL     OW18337   2.977   2.514  14.336 -0.1227  0.2231 -0.1552
 2234SOL    HW118338   3.020   2.567  14.403  0.1980 -0.5086  0.2144
 2234SOL    HW218339   3.004   2.564  14.259 -1.9959 -1.7703 -2.0798
 2235SOL     OW18340   4.494   1.962   4.721 -0.0492 -0.0850 -0.5228
 2235SOL    HW118341   4.474   1.889   4.663  1.0937 -0.4818 -0.4075
 2235SOL    HW218342   4.422   2.024   4.713  1.8796  2.3834  1.4487
 2236SOL     OW18343   4.204   1.357   5.789  0.2729  0.8353  0.3633
 2236SOL    HW118344   4.201   1.271   5.747  1.2889  0.2864  1.3859
 2236SOL    HW218345   4.168   1.415   5.723 -2.1484  0.0413  0.9839
 2237SOL     OW18346   4.438   0.086   8.294 -0.1472  0.7972 -0.2294
 2237SOL    HW118347   4.406   0.175   8.279 -0.2305  1.1060  1.7251
 2237SOL    HW218348   4.492   0.094   8.372 -1.5784  1.9400  0.6688
 2238SOL     OW18349   2.719   0.232   4.300 -1.0534  0.3358  0.8177
 2238SOL    HW118350   2.717   0.142   4.333 -2.5022 -0.7270 -2.2064
 2238SOL    HW218351   2.707   0.277   4.383  1.0450 -0.4195  1.5335
 2239SOL     OW18352   2.393   0.416   2.805 -0.7585 -0.3445  0.1506
 2239SOL    HW118353   2.447   0.487   2.770  0.7306 -1.1906  0.7264
 2239SOL    HW218354   2.310   0.458   2.826 -1.2668 -1.0970 -0.3508
 2240SOL     OW18355   1.722   3.320   4.412  0.1808 -0.2985 -0.6384
 2240SOL    HW118356   1.812   3.320   4.379 -0.5440  1.0702 -2.6320
 2240SOL    HW218357   1.667   3.312   4.334 -1.1984  2.3269  0.0605
 2241SOL     OW18358   4.135   1.708   1.825 -0.6023 -0.9231 -0.3560
 2241SOL    HW118359   4.166   1.758   1.901 -0.8672  1.7845 -2.0721
 2241SOL    HW218360   4.212   1.700   1.770  0.0482  1.4243  0.2164
 2242SOL     OW18361   3.183   1.668   8.095 -0.3526  0.1188  0.5683
 2242SOL    HW118362   3.274   1.646   8.116 -0.2960  0.2645  0.4781
 2242SOL    HW218363   3.174   1.758   8.124 -0.8760  0.3897 -0.4243
 2243SOL     OW18364   0.741   3.888   5.999  0.0203 -0.0211  0.0633
 2243SOL    HW118365   0.787   3.880   5.916 -0.5680  0.0243 -0.2597
 2243SOL    HW218366   0.795   3.956   6.040 -0.2111 -1.9602  3.6025
 2244SOL     OW18367   3.350   0.576   2.362  0.0018 -0.1193 -0.5563
 2244SOL    HW118368   3.279   0.514   2.348 -1.1201  1.4430 -1.7943
 2244SOL    HW218369   3.413   0.532   2.305 -0.0166 -1.9623  0.8442
 2245SOL     OW18370   3.705   0.040   4.886 -0.2568 -0.1838 -0.3448
 2245SOL    HW118371   3.793   0.010   4.863  0.7944  2.4765  0.2961
 2245SOL    HW218372   3.720   0.107   4.952  0.6582 -1.4209  0.7036
 2246SOL     OW18373   4.723   1.268  13.868 -0.1923  0.0463  0.2728
 2246SOL    HW118374   0.038   1.197  13.830  2.0008  1.5763  0.3104
 2246SOL    HW218375   0.038   1.279  13.948  1.1468 -2.5390 -0.2294
 2247SOL     OW18376   3.370   4.517  10.194  0.0032  0.0805 -0.0360
 2247SOL    HW118377   3.430   4.554  10.258 -0.1690 -1.2238  0.8686
 2247SOL    HW218378   3.426   4.506  10.117  0.3048 -0.2186  0.2294
 2248SOL     OW18379   4.408   2.780   2.167  0.0207 -0.5396  0.1663
 2248SOL    HW118380   4.335   2.824   2.211  1.0086  0.5990  0.6631
 2248SOL    HW218381   4.482   2.835   2.191  0.9954 -1.2794 -1.1658
 2249SOL     OW18382   4.560   2.667   1.131  0.1181 -0.0850 -0.4437
 2249SOL    HW118383   4.621   2.735   1.103  0.4681  0.4987  1.6778
 2249SOL    HW218384   4.487   2.716   1.169  0.4993  0.3493 -0.2530
 2250SOL     OW18385   3.754   3.792   8.248  0.2420 -0.5976 -0.5896
 2250SOL    HW118386   3.687   3.767   8.184 -1.3803  3.8140 -0.5905
 2250SOL    HW218387   3.757   3.721   8.312  2.0508 -0.7489 -0.8435
 2251SOL     OW18388   3.117   4.284  11.223 -0.1895  0.2783 -0.0711
 2251SOL    HW118389   3.149   4.195  11.212  1.2259  0.7365  0.3947
 2251SOL    HW218390   3.069   4.297  11.141 -1.3745  0.9372  0.7189
 2252SOL     OW18391   4.446   2.156  12.350  0.0535  0.0201 -0.2093
 2252SOL    HW118392   4.358   2.192  12.344 -0.0995 -0.0993  1.4354
 2252SOL    HW218393   4.497   2.222  12.302 -0.6278  0.6787 -0.0366
 2253SOL     OW18394   2.635   4.271   9.182 -0.1046  0.0582  0.2341
 2253SOL    HW118395   2.606   4.180   9.190  0.1629 -0.1339 -0.9998
 2253SOL    HW218396   2.554   4.317   9.206  0.7402  0.3865  2.3807
 2254SOL     OW18397   4.225   2.214   3.367  0.0589  0.2694 -0.2954
 2254SOL    HW118398   4.184   2.151   3.426  1.3979 -0.1218  0.2023
 2254SOL    HW218399   4.317   2.190   3.378 -0.7783 -1.9752  1.7825
 2255SOL     OW18400   1.453   0.887   3.955  0.2444  0.1745 -0.0982
 2255SOL    HW118401   1.513   0.814   3.944 -1.7546 -1.2474 -1.5827
 2255SOL    HW218402   1.455   0.886   4.051  1.7811  0.1766 -0.1316
 2256SOL     OW18403   1.492   4.310  13.893  0.2062  0.0618  0.6495
 2256SOL    HW118404   1.463   4.233  13.941  3.4318 -1.8439 -0.5291
 2256SOL    HW218405   1.569   4.335  13.943 -0.1790  0.1200  1.2122
 2257SOL     OW18406   3.159   1.681   4.625  0.0656 -0.0239 -0.4459
 2257SOL    HW118407   3.079   1.691   4.676 -0.8798 -0.0322 -1.9185
 2257SOL    HW218408   3.175   1.586   4.621  1.8529  0.2116  0.9183
 2258SOL     OW18409   4.628   0.598   4.329  0.1959 -0.0357 -0.1085
 2258SOL    HW118410   4.658   0.621   4.241  1.3010 -2.0408 -0.2637
 2258SOL    HW218411   4.647   0.679   4.375  2.4920 -0.0240 -1.0679
 2259SOL     OW18412   0.961   2.418   7.953 -0.6706  0.5191 -0.5656
 2259SOL    HW118413   0.956   2.334   7.908  3.2797  0.2056 -0.4037
 2259SOL    HW218414   0.880   2.416   8.004 -1.2106 -1.9653 -1.5122
 2260SOL     OW18415   1.563   0.588   3.772  0.3674 -0.5959  0.2321
 2260SOL    HW118416   1.548   0.527   3.844 -0.8410  1.6885  1.9227
 2260SOL    HW218417   1.474   0.619   3.752  1.4515  1.0340 -1.9962
 2261SOL     OW18418   2.688   2.213   8.279  0.3037  0.1036 -0.1987
 2261SOL    HW118419   2.668   2.144   8.215 -1.6890 -0.4399  0.9959
 2261SOL    HW218420   2.736   2.271   8.220 -0.0331  0.4556 -0.1269
 2262SOL     OW18421   1.294   2.897   7.665  0.1889 -0.0395  0.2609
 2262SOL    HW118422   1.356   2.844   7.615  1.5307  0.7861  1.0343
 2262SOL    HW218423   1.288   2.980   7.616  1.7593  0.4718  0.9248
 2263SOL     OW18424   0.412   4.420   8.031  0.1544  0.1800  0.0112
 2263SOL    HW118425   0.410   4.496   8.089 -2.1934  0.6960 -0.7556
 2263SOL    HW218426   0.499   4.432   7.993  0.1200  1.1583  0.2425
 2264SOL     OW18427   4.151   2.371   6.545  0.1868  0.2338  0.6168
 2264SOL    HW118428   4.064   2.408   6.539  0.4670  0.4036 -2.3092
 2264SOL    HW218429   4.205   2.436   6.500 -0.5835  0.1878 -0.3659
 2265SOL     OW18430   3.726   2.910   4.388 -0.0598  0.1349 -0.3880
 2265SOL    HW118431   3.744   2.928   4.480  1.8081  1.1798 -0.9673
 2265SOL    HW218432   3.634   2.883   4.381 -0.1547 -0.3082  2.6554
 2266SOL     OW18433   2.649   4.356  11.393 -0.2803 -0.6152 -0.2433
 2266SOL    HW118434   2.695   4.434  11.361  0.1249 -0.6886  0.1594
 2266SOL    HW218435   2.715   4.289  11.375  1.8974  0.6554  2.8591
 2267SOL     OW18436   1.814   1.781  15.358  0.5581  0.0479  0.1509
 2267SOL    HW118437   1.725   1.814  15.371  0.4881 -1.0938  2.5078
 2267SOL    HW218438   1.797   1.738  15.274  0.7080  1.9351 -0.8499
 2268SOL     OW18439   2.439   3.187   3.828  0.2092 -0.4531 -0.0046
 2268SOL    HW118440   2.523   3.216   3.792  1.3496 -0.3268  2.7355
 2268SOL    HW218441   2.397   3.146   3.753 -0.4983 -0.1560  0.2210
 2269SOL     OW18442   1.212   4.192  11.558  0.2168  0.3961 -0.4520
 2269SOL    HW118443   1.145   4.254  11.530  1.4027  2.1467  0.6101
 2269SOL    HW218444   1.248   4.159  11.476 -0.6982 -0.5042 -0.5003
 2270SOL     OW18445   0.293   1.436   2.288 -0.0790 -0.0205 -0.5053
 2270SOL    HW118446   0.337   1.442   2.204 -0.1909 -0.8851 -0.6221
 2270SOL    HW218447   0.375   1.447   2.337  0.1029  1.6232 -1.1677
 2271SOL     OW18448   2.718   1.933   7.734 -0.4517 -0.5960  0.1268
 2271SOL    HW118449   2.663   1.858   7.758  0.5577 -1.2742  0.3148
 2271SOL    HW218450   2.776   1.936   7.809 -0.1300 -0.4009 -0.1298
 2272SOL     OW18451   0.477   1.873   0.670 -0.2889  0.4835  0.1925
 2272SOL    HW118452   0.429   1.951   0.643 -1.3158  0.1441  1.0254
 2272SOL    HW218453   0.422   1.804   0.632  0.5869 -1.2789  2.1477
 2273SOL     OW18454   1.499   4.622   4.813 -0.2547  0.3636 -0.2925
 2273SOL    HW118455   1.501   4.531   4.782 -0.1501  0.0721  0.5745
 2273SOL    HW218456   1.526   4.610   4.904 -0.7962  3.7842  0.2932
 2274SOL     OW18457   4.049   0.479   8.655 -0.3107 -0.0023 -0.0324
 2274SOL    HW118458   4.110   0.408   8.635  0.5059  0.2070  1.6527
 2274SOL    HW218459   3.986   0.437   8.714 -0.2903  0.0671  0.0404
 2275SOL     OW18460   3.435   0.528   4.896  0.0657 -0.2015 -0.0179
 2275SOL    HW118461   3.384   0.605   4.870  2.1790  1.3398  0.4206
 2275SOL    HW218462   3.380   0.458   4.861  1.8895 -1.9201  0.5843
 2276SOL     OW18463   2.074   2.582   7.355  0.1331 -0.0836 -0.0978
 2276SOL    HW118464   2.122   2.522   7.298 -1.3065  0.9341 -2.3694
 2276SOL    HW218465   2.124   2.574   7.436  0.3570  0.2927 -0.1965
 2277SOL     OW18466   1.147   4.286   8.349 -0.4456 -0.5629 -0.4241
 2277SOL    HW118467   1.239   4.298   8.370 -0.4736 -2.1126  0.6187
 2277SOL    HW218468   1.159   4.194   8.323  1.6108 -0.0278 -1.3773
 2278SOL     OW18469   3.891   4.696   5.718 -0.0692  0.7400 -0.1189
 2278SOL    HW118470   3.876   4.701   5.624 -0.2694 -3.0923 -0.2942
 2278SOL    HW218471   3.895   0.054   5.738  0.3942  0.3661  1.5278
 2279SOL     OW18472   4.143   1.854  14.742  0.8171  0.1590 -0.5402
 2279SOL    HW118473   4.054   1.880  14.767  0.9692 -0.8360  1.0550
 2279SOL    HW218474   4.159   1.920  14.675  2.5597 -0.1255 -0.4117
 2280SOL     OW18475   3.252   3.237   8.897  0.1316  0.0678  0.4063
 2280SOL    HW118476   3.198   3.295   8.843  0.6197  0.5328  0.4176
 2280SOL    HW218477   3.305   3.193   8.831 -0.9056 -0.4913 -0.0476
 2281SOL     OW18478   0.775   4.566   8.367 -0.0147  0.4395 -0.3997
 2281SOL    HW118479   0.869   4.573   8.352  0.7218  0.7179  4.4541
 2281SOL    HW218480   0.769   4.565   8.463 -4.2058  0.2435 -0.6727
 2282SOL     OW18481   1.425   3.340   9.061 -0.1649 -0.0706  0.3369
 2282SOL    HW118482   1.458   3.430   9.060  1.4331 -0.6688 -2.5158
 2282SOL    HW218483   1.435   3.335   9.156 -1.4553  1.2088  0.5390
 2283SOL     OW18484   2.215   2.231  12.409 -0.4047 -0.1320  0.6129
 2283SOL    HW118485   2.159   2.259  12.481 -0.9479 -0.4226  0.3091
 2283SOL    HW218486   2.302   2.256  12.440  0.2290 -0.7655 -0.6619
 2284SOL     OW18487   0.641   4.396   3.733  0.3295  0.0845  0.3093
 2284SOL    HW118488   0.557   4.407   3.777  0.6213 -2.5451  1.5196
 2284SOL    HW218489   0.636   4.333   3.661 -1.5078 -1.1409  1.4945
 2285SOL     OW18490   0.435   2.004   5.900  0.4538  0.0798 -0.2674
 2285SOL    HW118491   0.467   1.927   5.854  0.6834 -0.7752  1.3351
 2285SOL    HW218492   0.492   2.009   5.976 -0.1830  1.6041  0.1237
 2286SOL     OW18493   2.184   0.992   1.461 -0.2551  0.1873 -0.3267
 2286SOL    HW118494   2.173   0.939   1.541 -1.2360  1.7732  0.5997
 2286SOL    HW218495   2.143   1.075   1.485  0.8186  0.2809  1.2355
 2287SOL     OW18496   1.764   1.194   4.256  0.1418  0.4523 -0.1607
 2287SOL    HW118497   1.822   1.241   4.316  1.0365 -0.9441  0.0914
 2287SOL    HW218498   1.823   1.186   4.181  1.8542 -0.8044  1.2894
 2288SOL     OW18499   1.960   4.407   7.731  0.1160  0.0775 -0.1786
 2288SOL    HW118500   2.030   4.459   7.691  0.6241  0.3498  1.0683
 2288SOL    HW218501   1.893   4.476   7.734 -1.3447 -1.2962 -1.6005
 2289SOL     OW18502   4.654   3.713   4.164  0.4447  0.8915 -0.6543
 2289SOL    HW118503   4.608   3.793   4.189  0.4889  0.6310  0.2687
 2289SOL    HW218504   4.692   3.734   4.079 -0.2087  2.2080 -0.6148
 2290SOL     OW18505   4.182   3.489   9.308 -0.2289 -0.1837 -0.3891
 2290SOL    HW118506   4.131   3.565   9.334 -0.0565 -0.3088  0.3145
 2290SOL    HW218507   4.263   3.516   9.350  0.0676  0.6345 -1.5107
 2291SOL     OW18508   0.058   3.764  17.458 -0.1643  0.0161  0.8257
 2291SOL    HW118509   0.019   3.830  17.516 -0.2924  0.9334 -0.2948
 2291SOL    HW218510   0.035   3.809  17.376  0.2038  0.2801  0.8697
 2292SOL     OW18511   3.075   1.893   1.528 -0.3111  0.0734  0.0954
 2292SOL    HW118512   3.126   1.950   1.471 -1.4172 -0.2461 -1.2392
 2292SOL    HW218513   3.102   1.913   1.617  2.4604 -1.1741 -0.4743
 2293SOL     OW18514   3.407   2.976   4.139 -0.3638 -0.6995 -0.0297
 2293SOL    HW118515   3.430   2.918   4.211  0.1594 -1.2396 -0.6257
 2293SOL    HW218516   3.490   3.023   4.125 -1.3662  1.1907  0.3206
 2294SOL     OW18517   3.475   1.359   0.832  0.6854  0.2009 -0.0286
 2294SOL    HW118518   3.417   1.403   0.894 -0.4071 -0.7913 -0.3479
 2294SOL    HW218519   3.473   1.412   0.753 -0.5101  1.2335  0.6898
 2295SOL     OW18520   3.924   2.752   4.631 -0.3228 -0.2993  0.5101
 2295SOL    HW118521   3.929   2.718   4.721  3.3073  2.3659  1.2878
 2295SOL    HW218522   3.917   2.666   4.588 -0.1236 -0.9324  1.7385
 2296SOL     OW18523   2.340   3.792   4.992  0.6468  0.1763 -0.1303
 2296SOL    HW118524   2.422   3.783   4.944  0.1585 -0.3617 -0.8605
 2296SOL    HW218525   2.326   3.702   5.020 -0.0732 -0.0731 -1.3035
 2297SOL     OW18526   4.176   0.846  16.042  0.0680  0.2557  0.1497
 2297SOL    HW118527   4.149   0.828  16.132 -2.9810  3.0488 -0.2273
 2297SOL    HW218528   4.243   0.913  16.057 -1.6879  1.7809  1.0947
 2298SOL     OW18529   1.708   2.119   1.629  0.7118  0.1629  0.6107
 2298SOL    HW118530   1.621   2.080   1.618  1.0353 -0.6399  0.8716
 2298SOL    HW218531   1.697   2.187   1.562  1.1151 -1.1995 -0.8605
 2299SOL     OW18532   2.357   0.104   4.984  0.2315 -0.7563  0.2400
 2299SOL    HW118533   2.300   0.077   5.056 -1.7495  1.2349 -0.5964
 2299SOL    HW218534   2.337   0.038   4.918  2.8345  0.3453 -1.7009
 2300SOL     OW18535   3.319   4.387   7.986  0.5234  0.4066  0.2111
 2300SOL    HW118536   3.233   4.426   8.004  0.4858  0.4526 -0.0661
 2300SOL    HW218537   3.334   4.412   7.894  2.0384 -1.3032  0.0076
 2301SOL     OW18538   4.592   0.989   6.839 -0.5987 -0.0557  0.5623
 2301SOL    HW118539   4.569   1.025   6.753 -0.1327  0.7013  0.7625
 2301SOL    HW218540   4.678   0.949   6.823 -0.0265  1.6916 -0.6589
 2302SOL     OW18541   4.212   0.943   7.882 -0.1937  0.3253  0.2878
 2302SOL    HW118542   4.292   0.986   7.913 -0.4780  1.4776 -0.5561
 2302SOL    HW218543   4.196   0.888   7.958 -0.1146  0.0447  0.1041
 2303SOL     OW18544   3.880   0.486   4.261 -0.1344 -0.8200  0.8822
 2303SOL    HW118545   3.968   0.482   4.298  0.8024  3.1993 -0.8836
 2303SOL    HW218546   3.884   0.575   4.225 -0.6504 -2.0380 -2.1806
 2304SOL     OW18547   0.052   1.155   4.741 -0.0797  0.4162 -0.7567
 2304SOL    HW118548   0.135   1.190   4.711 -0.0041  1.2937  0.4602
 2304SOL    HW218549   4.727   1.224   4.712 -0.3234 -0.2965 -1.9442
 2305SOL     OW18550   2.165   3.088   5.558 -0.1334  0.1880  1.0297
 2305SOL    HW118551   2.257   3.064   5.547 -0.3677 -1.6816  3.0651
 2305SOL    HW218552   2.121   3.007   5.530 -2.5700  1.4286  1.3173
 2306SOL     OW18553   0.971   2.445   2.346  0.0429  0.1911  0.1398
 2306SOL    HW118554   0.926   2.365   2.370 -0.3444 -0.0629 -1.4397
 2306SOL    HW218555   0.960   2.501   2.423 -2.9804  1.4251 -1.1617
 2307SOL     OW18556   3.012   4.464   5.144  0.8297  0.1275 -0.2445
 2307SOL    HW118557   3.059   4.397   5.095  0.5873 -0.6002  0.5308
 2307SOL    HW218558   3.085   4.497   5.196  0.0460  0.0218  0.9335
 2308SOL     OW18559   1.989   0.065   3.050  0.2070 -0.1163 -0.0997
 2308SOL    HW118560   2.032   0.016   2.980 -3.8822 -0.9701 -1.9750
 2308SOL    HW218561   2.023   0.024   3.129 -0.1808 -1.9730 -0.9021
 2309SOL     OW18562   4.471   4.686   3.458  0.5988 -0.1947  0.1529
 2309SOL    HW118563   4.560   4.719   3.449  0.4183  0.5448  1.0615
 2309SOL    HW218564   4.488   4.627   3.532 -0.2989 -3.0484 -1.9064
 2310SOL     OW18565   2.886   1.076   7.942  0.5776  0.1948 -0.5831
 2310SOL    HW118566   2.973   1.037   7.933  0.0859 -1.2025  0.7348
 2310SOL    HW218567   2.874   1.112   7.854 -1.9784  0.6873 -0.0370
 2311SOL     OW18568   1.060   4.522   5.127  0.1761  0.1740  0.6662
 2311SOL    HW118569   1.120   4.455   5.160 -0.4895 -0.7401  0.0166
 2311SOL    HW218570   1.000   4.544   5.198 -0.6550 -0.5615  0.1980
 2312SOL     OW18571   3.802   0.947   3.652 -0.0732 -0.0921 -0.0102
 2312SOL    HW118572   3.717   0.980   3.623 -0.5818 -1.4677 -0.0796
 2312SOL    HW218573   3.839   0.898   3.578  1.8276 -0.6686  1.3161
 2313SOL     OW18574   4.012   2.271   5.426 -0.0092  0.4194  0.1654
 2313SOL    HW118575   4.023   2.281   5.331  2.8143  1.2401  0.5745
 2313SOL    HW218576   3.926   2.228   5.428 -0.0269  0.4827  0.6421
 2314SOL     OW18577   0.992   1.467   2.103  0.4437  0.3879  0.4799
 2314SOL    HW118578   0.953   1.382   2.079  1.3742  0.8925 -2.8127
 2314SOL    HW218579   0.970   1.522   2.028 -1.2475 -1.6656 -0.5459
 2315SOL     OW18580   1.446   3.799   9.338 -0.6717  0.5522 -1.2467
 2315SOL    HW118581   1.361   3.793   9.295 -0.2058  0.8503 -2.2154
 2315SOL    HW218582   1.417   3.783   9.428 -1.0914  2.2173 -1.0711
 2316SOL     OW18583   4.122   3.759  11.465  0.1655  0.0731  0.1575
 2316SOL    HW118584   4.182   3.684  11.470  1.6241  1.0779 -2.2720
 2316SOL    HW218585   4.095   3.779  11.555  0.2790  0.3709  0.1245
 2317SOL     OW18586   2.755   3.041   3.709 -0.2785  0.9896  0.1763
 2317SOL    HW118587   2.783   3.123   3.749  2.1775  0.0521  0.4071
 2317SOL    HW218588   2.770   2.983   3.784 -0.9178  0.1445 -0.3477
 2318SOL     OW18589   2.566   4.452   0.348 -0.0095  0.5537 -0.3761
 2318SOL    HW118590   2.653   4.413   0.353  0.0848  0.8877  0.5284
 2318SOL    HW218591   2.517   4.404   0.415 -1.7326  1.3612 -1.0575
 2319SOL     OW18592   0.927   4.694   9.958 -0.0051  0.3312 -0.5038
 2319SOL    HW118593   0.860   4.626   9.957 -1.7143  1.9853  0.0468
 2319SOL    HW218594   1.008   4.654   9.989 -2.0963 -2.9107  0.7637
 2320SOL     OW18595   1.368   1.768   8.490 -0.6662  0.5866 -0.4621
 2320SOL    HW118596   1.423   1.696   8.460  1.9010  2.7649 -0.9760
 2320SOL    HW218597   1.368   1.814   8.406  0.0955  1.2671 -0.0912
 2321SOL     OW18598   3.304   0.818   9.298  0.1714  0.2520  0.0504
 2321SOL    HW118599   3.337   0.857   9.217  0.3484 -0.7353 -0.3446
 2321SOL    HW218600   3.253   0.889   9.338  3.0445  0.9097  2.5594
 2322SOL     OW18601   3.798   2.450  13.464 -0.3928 -0.4552 -0.5852
 2322SOL    HW118602   3.741   2.526  13.480  1.4217  0.6618  0.5464
 2322SOL    HW218603   3.759   2.392  13.529  1.9712 -1.7436 -0.3330
 2323SOL     OW18604   3.460   2.342   4.013 -0.4983 -0.1387  0.2196
 2323SOL    HW118605   3.374   2.352   4.054  0.2168 -1.8045  2.1288
 2323SOL    HW218606   3.502   2.419   4.052  0.0818 -0.1705 -0.3496
 2324SOL     OW18607   1.412   0.870  10.442 -0.0504 -1.0957  0.1019
 2324SOL    HW118608   1.394   0.792  10.390 -2.4731  1.6183 -3.2067
 2324SOL    HW218609   1.326   0.911  10.442 -0.0453 -1.0907  1.2182
 2325SOL     OW18610   0.934   1.364   9.262  0.0425  0.3443 -0.0695
 2325SOL    HW118611   1.004   1.315   9.305 -0.9868 -1.7512 -0.7770
 2325SOL    HW218612   0.993   1.427   9.220 -1.2494  0.3655 -1.8383
 2326SOL     OW18613   1.986   1.415   7.958  0.6890  0.3208 -0.1345
 2326SOL    HW118614   2.063   1.397   8.012 -0.4835 -2.6146  0.5462
 2326SOL    HW218615   1.918   1.422   8.026  0.8445 -0.4416  0.0993
 2327SOL     OW18616   0.371   1.483   0.037 -0.4520 -0.4068 -0.6601
 2327SOL    HW118617   0.289   1.529   0.055 -0.6589 -1.5181  1.1645
 2327SOL    HW218618   0.343   1.402   0.078  0.4607 -0.3158  0.1262
 2328SOL     OW18619   0.043   0.053   5.077 -0.0436 -0.2938 -0.3847
 2328SOL    HW118620   0.036   0.114   5.004 -0.0698  0.1161 -0.0403
 2328SOL    HW218621   0.027   0.111   5.151 -1.6905 -2.5143  1.0121
 2329SOL     OW18622   3.567   3.261   9.298  0.1579 -0.1255  0.0816
 2329SOL    HW118623   3.498   3.205   9.334 -0.6539  0.8824  0.1236
 2329SOL    HW218624   3.506   3.323   9.256 -0.0717 -1.4320 -1.5256
 2330SOL     OW18625   1.601   2.357  11.918  0.7181 -0.3233 -0.2686
 2330SOL    HW118626   1.602   2.453  11.913 -0.8676 -0.2470  0.9250
 2330SOL    HW218627   1.553   2.335  11.997  2.6982  1.0672  1.3240
 2331SOL     OW18628   1.373   4.046  14.550  0.1602  0.3356  0.1968
 2331SOL    HW118629   1.282   4.063  14.527 -0.8298 -2.5154  1.9781
 2331SOL    HW218630   1.413   4.127  14.520  0.3600  0.2564  0.2461
 2332SOL     OW18631   2.092   2.970  13.202 -0.0944  0.4286 -0.3829
 2332SOL    HW118632   2.151   2.903  13.165  0.1458  0.7454 -0.5719
 2332SOL    HW218633   2.034   2.909  13.248  0.5240 -0.4488 -0.7710
 2333SOL     OW18634   0.819   1.535  16.281 -0.5470 -0.3830  0.1618
 2333SOL    HW118635   0.840   1.628  16.291  2.8540 -0.9229 -2.0497
 2333SOL    HW218636   0.903   1.491  16.267  0.6666  2.4526 -1.3290
 2334SOL     OW18637   0.970   3.210  13.135  0.8256  0.0076 -0.8086
 2334SOL    HW118638   0.900   3.254  13.184  2.2043  2.1180 -0.6909
 2334SOL    HW218639   0.949   3.253  13.052 -1.1402  0.8275  0.1090
 2335SOL     OW18640   1.647   3.848  10.368  0.3653 -0.4343  0.1459
 2335SOL    HW118641   1.694   3.777  10.412 -1.0197 -0.0683  2.1676
 2335SOL    HW218642   1.679   3.827  10.280 -0.0886 -1.3837  0.2079
 2336SOL     OW18643   3.329   0.773   5.176 -0.1879  0.0516  0.5429
 2336SOL    HW118644   3.359   0.829   5.105 -0.2663 -0.2804  0.2505
 2336SOL    HW218645   3.258   0.722   5.138  1.0958 -1.5477  0.2797
 2337SOL     OW18646   3.461   1.752   6.742 -0.2620  0.0858  0.3319
 2337SOL    HW118647   3.381   1.754   6.795 -1.8036 -2.4385 -1.8891
 2337SOL    HW218648   3.522   1.756   6.815 -0.6270  3.1549  0.4405
 2338SOL     OW18649   1.576   3.715  17.069  0.4677  0.4415 -0.0425
 2338SOL    HW118650   1.590   3.621  17.071  0.6235  0.4597 -0.4356
 2338SOL    HW218651   1.619   3.743  17.150  0.8310 -0.2955  0.0175
 2339SOL     OW18652   2.035   3.468  12.863 -0.2174  0.3208 -0.3063
 2339SOL    HW118653   1.999   3.478  12.951  1.7373 -0.1621  0.5517
 2339SOL    HW218654   1.984   3.396  12.826 -0.0679 -0.2786  0.6676
 2340SOL     OW18655   2.832   2.593   4.859  0.0388 -0.4528 -0.0496
 2340SOL    HW118656   2.805   2.638   4.779 -2.3839 -3.0562 -0.7091
 2340SOL    HW218657   2.770   2.520   4.856 -0.9519  0.3330  1.0206
 2341SOL     OW18658   2.258   3.329   7.871  0.5396 -0.1731  0.2000
 2341SOL    HW118659   2.276   3.409   7.920 -0.1141  0.8755 -1.3047
 2341SOL    HW218660   2.231   3.353   7.783  1.3993 -0.4641 -0.1371
 2342SOL     OW18661   2.089   3.352   8.144  0.0824 -0.1273 -0.2061
 2342SOL    HW118662   2.140   3.361   8.063  0.2120 -2.0469 -0.3293
 2342SOL    HW218663   2.049   3.266   8.138  0.9180 -0.6251  1.3032
 2343SOL     OW18664   0.212   0.033  10.485 -0.5527  0.1188 -0.0081
 2343SOL    HW118665   0.224   0.117  10.529  0.8365  1.6132 -3.2504
 2343SOL    HW218666   0.277   4.715  10.531 -0.9936 -0.7535 -0.3901
 2344SOL     OW18667   1.922   0.898   6.720 -0.0377 -0.0683 -0.2626
 2344SOL    HW118668   1.919   0.921   6.627 -1.3130 -1.0814 -0.4714
 2344SOL    HW218669   1.866   0.820   6.719 -0.5705  0.2723  2.9040
 2345SOL     OW18670   2.330   0.680   1.979 -0.2587 -0.2098  0.0815
 2345SOL    HW118671   2.251   0.657   1.931  0.3666  0.4155 -1.2505
 2345SOL    HW218672   2.353   0.764   1.939  0.0043 -0.8953 -1.2062
 2346SOL     OW18673   2.468   3.007   1.630 -0.0109  0.2261  0.1866
 2346SOL    HW118674   2.424   3.025   1.547  0.8897 -2.6217 -0.9367
 2346SOL    HW218675   2.453   3.082   1.687  0.1479  0.2998  0.1301
 2347SOL     OW18676   3.911   0.829  16.632  0.2754  0.2259  0.6156
 2347SOL    HW118677   3.989   0.780  16.658  0.6424  0.3568 -0.2480
 2347SOL    HW218678   3.915   0.894  16.703 -0.5475  0.3789  0.5196
 2348SOL     OW18679   0.443   3.606   7.189  0.2186  0.7180 -0.1706
 2348SOL    HW118680   0.497   3.597   7.268  0.1483  3.1129  0.1420
 2348SOL    HW218681   0.451   3.697   7.159  0.4347  1.2423  1.4646
 2349SOL     OW18682   4.349   4.334   3.851 -0.1437  0.0352  0.6915
 2349SOL    HW118683   4.254   4.347   3.853 -0.2185 -0.3370 -0.3713
 2349SOL    HW218684   4.375   4.396   3.783 -1.5753 -2.8444 -2.4872
 2350SOL     OW18685   1.496   2.147   6.792 -0.8614  0.0774  0.4674
 2350SOL    HW118686   1.452   2.119   6.873 -0.6818 -4.5419 -1.0506
 2350SOL    HW218687   1.488   2.066   6.743 -0.5273  0.8350 -0.8183
 2351SOL     OW18688   2.225   2.591   1.516 -0.5206 -0.0980  0.3414
 2351SOL    HW118689   2.232   2.686   1.526  1.0024 -0.0809 -0.8026
 2351SOL    HW218690   2.180   2.583   1.432 -1.2328 -1.1291  0.8242
 2352SOL     OW18691   2.452   3.174   8.922 -0.4845 -0.8141 -0.4541
 2352SOL    HW118692   2.357   3.174   8.924 -0.4588  0.8207  1.3166
 2352SOL    HW218693   2.464   3.094   8.973  2.0706  0.1286  0.4132
 2353SOL     OW18694   4.523   0.004  14.898 -0.2209 -0.3753  0.1263
 2353SOL    HW118695   4.483   0.085  14.866  2.3957  0.6341 -0.5982
 2353SOL    HW218696   4.444   4.688  14.919  0.2679 -1.3462 -0.4042
 2354SOL     OW18697   0.430   0.096   2.585  0.3628  0.0091 -0.2379
 2354SOL    HW118698   0.488   0.063   2.654  0.6426 -1.5540 -1.2191
 2354SOL    HW218699   0.370   0.021   2.585 -0.9511  1.0561  1.1651
 2355SOL     OW18700   2.737   3.505   0.367  0.2551  0.3886  0.0657
 2355SOL    HW118701   2.736   3.503   0.271 -1.2162  0.2090  0.0841
 2355SOL    HW218702   2.676   3.438   0.398 -0.6557  1.6364  0.9643
 2356SOL     OW18703   0.821   3.476   7.866  0.6049  0.5612 -0.0679
 2356SOL    HW118704   0.827   3.396   7.918  0.7821  0.6077 -0.0170
 2356SOL    HW218705   0.816   3.545   7.932 -0.5033  1.5427 -1.1640
 2357SOL     OW18706   4.496   3.130  11.857  0.2289  0.1998  0.1977
 2357SOL    HW118707   4.468   3.038  11.849 -1.6534  0.8189 -0.2595
 2357SOL    HW218708   4.409   3.169  11.849 -0.3270 -0.9478  0.5940
 2358SOL     OW18709   1.009   0.531  10.301  0.3614  0.0788 -0.2442
 2358SOL    HW118710   1.050   0.516  10.216 -0.7101  1.1186 -0.9545
 2358SOL    HW218711   1.069   0.599  10.332 -0.0992  0.1871  0.4141
 2359SOL     OW18712   0.246   0.782   4.267  0.1458  0.0219 -0.6899
 2359SOL    HW118713   0.202   0.712   4.219 -0.7871  0.8958 -1.1134
 2359SOL    HW218714   0.273   0.726   4.340 -0.8136 -0.0581 -0.3871
 2360SOL     OW18715   2.803   3.356   2.618 -0.2955  0.2352  0.2197
 2360SOL    HW118716   2.801   3.451   2.622 -0.6765  0.2592 -0.5997
 2360SOL    HW218717   2.892   3.341   2.652 -0.9378  0.8959  2.1972
 2361SOL     OW18718   3.778   0.599   3.072  0.4421  0.2397 -0.3524
 2361SOL    HW118719   3.768   0.566   2.983 -0.5897 -0.6413  0.0895
 2361SOL    HW218720   3.716   0.671   3.084  0.9580  0.9213 -1.8451
 2362SOL     OW18721   3.233   4.486  15.580 -0.0368 -0.3224 -0.4513
 2362SOL    HW118722   3.195   4.574  15.572  1.0450  0.2419  0.5862
 2362SOL    HW218723   3.152   4.439  15.601  1.0379 -1.0528  2.0821
 2363SOL     OW18724   0.974   2.941  13.163  0.2273  0.0122  0.4548
 2363SOL    HW118725   0.949   3.031  13.143  0.7297 -0.5306 -2.4870
 2363SOL    HW218726   0.973   2.938  13.259  0.7917 -0.4802  0.4427
 2364SOL     OW18727   2.889   2.062   8.861  0.0721  0.0477 -0.2236
 2364SOL    HW118728   2.841   2.139   8.891  1.7387  0.9663  0.0618
 2364SOL    HW218729   2.834   1.985   8.876 -0.5393  0.2629 -1.4089
 2365SOL     OW18730   1.865   2.979   6.433 -0.1014 -0.4484 -0.0434
 2365SOL    HW118731   1.788   2.983   6.490 -0.4415 -0.2898 -0.5111
 2365SOL    HW218732   1.916   2.903   6.462  1.3030 -0.5928 -2.8481
 2366SOL     OW18733   4.335   2.973   3.607 -0.5844 -0.0488 -0.6203
 2366SOL    HW118734   4.410   2.918   3.627 -0.1103 -0.4354 -3.5703
 2366SOL    HW218735   4.298   2.924   3.534 -1.0109 -1.5765  0.6240
 2367SOL     OW18736   1.841   4.496   3.507 -0.6481  0.0608 -0.2114
 2367SOL    HW118737   1.754   4.465   3.530  0.4804 -2.2676  0.8907
 2367SOL    HW218738   1.867   4.531   3.592 -1.8183  0.4983 -0.0400
 2368SOL     OW18739   1.273   4.284  11.074  0.0723 -0.7144  0.2392
 2368SOL    HW118740   1.180   4.273  11.055 -0.5510  0.2575  2.6514
 2368SOL    HW218741   1.275   4.351  11.143  3.2080 -1.2047  0.6036
 2369SOL     OW18742   0.636   2.846   4.475 -0.0882  0.1607  0.0514
 2369SOL    HW118743   0.654   2.906   4.548  0.1002  0.6592 -0.4066
 2369SOL    HW218744   0.541   2.855   4.468 -0.2968 -1.8984  0.1232
 2370SOL     OW18745   1.483   1.266   5.865  0.2863  0.2207 -0.3070
 2370SOL    HW118746   1.474   1.283   5.771 -3.0330  2.3289  0.3922
 2370SOL    HW218747   1.541   1.193   5.843 -0.5785 -0.6970  0.4882
 2371SOL     OW18748   2.433   3.991   4.077 -0.1906  0.3422  0.5104
 2371SOL    HW118749   2.366   4.052   4.106  0.3075  1.7412 -1.2934
 2371SOL    HW218750   2.452   4.023   3.990 -0.9509 -3.0765 -0.9255
 2372SOL     OW18751   2.399   0.842   0.843 -0.1404 -0.1747 -1.0141
 2372SOL    HW118752   2.329   0.835   0.907  0.5133  1.4753 -0.0959
 2372SOL    HW218753   2.366   0.883   0.763 -2.1728  0.5704  0.2094
 2373SOL     OW18754   0.924   2.656   4.917 -0.2966  0.2322  0.0855
 2373SOL    HW118755   0.865   2.725   4.886  1.0095  1.5901  0.5749
 2373SOL    HW218756   0.854   2.604   4.956  0.6818 -1.6101 -0.6212
 2374SOL     OW18757   0.641   3.727  10.941 -0.3893  0.0179 -0.2061
 2374SOL    HW118758   0.572   3.776  10.896  0.7916  1.0437 -0.8953
 2374SOL    HW218759   0.616   3.734  11.033  1.1443 -1.3906  0.3229
 2375SOL     OW18760   2.365   2.046  16.633  0.1222  0.1723  0.0942
 2375SOL    HW118761   2.355   1.953  16.656  1.3478  0.0377  0.0838
 2375SOL    HW218762   2.399   2.086  16.713  1.6542 -2.1734  0.6223
 2376SOL     OW18763   1.448   3.946   4.837  0.4553 -0.1575  0.2860
 2376SOL    HW118764   1.479   3.858   4.859  1.0040 -0.3435 -1.2493
 2376SOL    HW218765   1.505   3.964   4.763  2.3517  2.1493  2.3067
 2377SOL     OW18766   2.861   1.645   4.978  0.2496 -1.0256 -0.4860
 2377SOL    HW118767   2.870   1.599   5.062 -1.6010 -2.9114 -1.3040
 2377SOL    HW218768   2.857   1.574   4.914  0.1702 -2.6468  1.3180
 2378SOL     OW18769   0.448   0.778  15.492 -0.0605  0.2011  0.2789
 2378SOL    HW118770   0.353   0.786  15.480 -0.5762 -0.4017  3.9229
 2378SOL    HW218771   0.469   0.686  15.508 -0.8927  0.0213  0.3448
 2379SOL     OW18772   2.846   1.084   9.796 -0.5893 -0.7444  0.1815
 2379SOL    HW118773   2.864   1.022   9.725 -0.3689 -2.9653  2.1647
 2379SOL    HW218774   2.753   1.067   9.813 -0.7687  0.9219  0.8931
 2380SOL     OW18775   3.142   1.255   6.979 -0.0542 -0.2288  0.0679
 2380SOL    HW118776   3.174   1.261   6.889 -1.7657 -0.6790 -0.5853
 2380SOL    HW218777   3.050   1.280   6.966 -0.2981 -2.1722 -2.0528
 2381SOL     OW18778   0.789   3.830   6.761  0.2484  0.0445 -0.1899
 2381SOL    HW118779   0.696   3.810   6.762  0.6828 -1.7534  2.0926
 2381SOL    HW218780   0.806   3.826   6.855  2.2539  2.6387 -0.4333
 2382SOL     OW18781   2.781   4.177   2.829  0.3356  0.1022 -0.1719
 2382SOL    HW118782   2.807   4.247   2.889  0.8915 -0.3064  0.0595
 2382SOL    HW218783   2.828   4.106   2.874  0.5645 -0.2183 -0.9241
 2383SOL     OW18784   2.514   1.428  13.641 -0.4223  0.0576  0.4206
 2383SOL    HW118785   2.492   1.375  13.717 -1.2176  2.5047  1.8909
 2383SOL    HW218786   2.522   1.356  13.578 -1.2717  0.2303  0.1206
 2384SOL     OW18787   3.096   3.397   8.737  0.4487  0.3631  0.0053
 2384SOL    HW118788   3.107   3.409   8.642  2.7005  0.9721  0.3583
 2384SOL    HW218789   3.055   3.312   8.749  0.2961  0.0168 -2.8689
 2385SOL     OW18790   3.416   4.114  12.535 -0.2268 -0.1276 -0.4376
 2385SOL    HW118791   3.452   4.170  12.466 -0.5463 -0.4918 -0.8943
 2385SOL    HW218792   3.436   4.169  12.611  1.1144 -0.1085 -0.8091
 2386SOL     OW18793   2.881   0.333   8.327 -0.1192  0.2791 -0.5975
 2386SOL    HW118794   2.887   0.309   8.420  1.0127  0.5247 -0.6075
 2386SOL    HW218795   2.907   0.425   8.331  1.9135 -0.2492 -1.5333
 2387SOL     OW18796   4.693   2.670   6.322 -0.7333 -0.0457 -0.3258
 2387SOL    HW118797   4.735   2.648   6.406  0.3002 -1.2092 -1.1642
 2387SOL    HW218798   4.717   2.596   6.268  0.2924  0.7832 -1.0083
 2388SOL     OW18799   1.610   1.246  11.371 -0.3951 -0.0495  0.1538
 2388SOL    HW118800   1.658   1.199  11.304 -0.5879 -1.4248  0.9940
 2388SOL    HW218801   1.636   1.192  11.445 -0.2273 -0.4735 -0.2174
 2389SOL     OW18802   4.584   2.799   4.155 -0.0641  0.1888 -0.1460
 2389SOL    HW118803   4.507   2.839   4.194  0.6617  1.1694  0.2680
 2389SOL    HW218804   4.585   2.711   4.194  3.0024 -0.0745 -0.8233
 2390SOL     OW18805   1.348   3.131  10.686 -0.3906  0.5826  0.4968
 2390SOL    HW118806   1.311   3.052  10.646 -2.2470  0.3451  2.6757
 2390SOL    HW218807   1.317   3.119  10.776 -1.6079 -0.6465 -0.0879
 2391SOL     OW18808   0.757   1.863  14.232 -0.1399 -0.0881  0.2143
 2391SOL    HW118809   0.717   1.849  14.318  1.0851  1.3649  1.0264
 2391SOL    HW218810   0.705   1.803  14.179  0.3233 -1.3136  1.1429
 2392SOL     OW18811   2.745   2.898   7.952 -0.0216 -0.1062  0.1006
 2392SOL    HW118812   2.792   2.823   7.917 -0.6725  0.2294 -1.4474
 2392SOL    HW218813   2.700   2.858   8.026  2.5043  0.2837  1.8610
 2393SOL     OW18814   1.065   0.958   3.571 -0.1827 -0.1718  0.1627
 2393SOL    HW118815   1.142   0.985   3.621 -0.9756 -1.8589  2.2689
 2393SOL    HW218816   1.086   0.872   3.535  0.3799 -0.3592  0.9429
 2394SOL     OW18817   3.133   4.084  10.977 -0.0831 -0.0314 -0.5293
 2394SOL    HW118818   3.182   4.166  10.969 -0.4305  0.1898 -0.3692
 2394SOL    HW218819   3.195   4.018  10.945 -0.7737 -1.2799  0.7430
 2395SOL     OW18820   1.529   0.944   3.009 -0.2403  0.6666  0.4835
 2395SOL    HW118821   1.580   1.017   3.044 -0.6289  0.5786  1.2382
 2395SOL    HW218822   1.495   0.979   2.927  1.8128  1.0752 -0.2162
 2396SOL     OW18823   0.197   2.534   9.894 -0.4094 -0.3549 -0.3209
 2396SOL    HW118824   0.250   2.565   9.967 -0.1596 -1.0186 -0.2225
 2396SOL    HW218825   0.112   2.535   9.938  1.4411  1.5414  3.1994
 2397SOL     OW18826   3.876   0.839   3.384 -0.0459  0.2056 -0.2320
 2397SOL    HW118827   3.890   0.882   3.300 -1.7883  1.0323 -0.1070
 2397SOL    HW218828   3.914   0.755   3.358  0.4472  0.0746  0.9146
 2398SOL     OW18829   0.694   1.896   4.865  0.5779  0.7318  0.1683
 2398SOL    HW118830   0.683   1.802   4.880 -3.6863  1.3004  0.6680
 2398SOL    HW218831   0.658   1.899   4.776 -1.4285  0.7784  0.9941
 2399SOL     OW18832   1.905   0.596  16.973  0.0215  0.0141  0.5655
 2399SOL    HW118833   1.902   0.673  17.030  1.5939 -1.4361  2.6002
 2399SOL    HW218834   1.939   0.640  16.895  0.4880 -1.9379 -0.3391
 2400SOL     OW18835   0.130   1.031   4.165  0.4990  0.0134  0.1288
 2400SOL    HW118836   0.066   0.980   4.116  0.3060 -1.9314  2.4144
 2400SOL    HW218837   0.187   0.960   4.191  0.1564 -0.3673 -0.1579
 2401SOL     OW18838   2.828   1.052  15.993  0.4840 -0.1654  0.3486
 2401SOL    HW118839   2.922   1.037  15.992  0.6244  0.8696 -0.8511
 2401SOL    HW218840   2.806   1.086  15.907 -0.8227  0.5915  0.9713
 2402SOL     OW18841   0.104   4.670   8.783 -0.2705  0.1725  0.3476
 2402SOL    HW118842   0.057   4.687   8.701  0.4929  3.2369  0.5269
 2402SOL    HW218843   0.046   4.702   8.853  0.2264  0.6351  0.5493
 2403SOL     OW18844   2.907   4.510   9.706 -0.0321 -0.1380 -0.1343
 2403SOL    HW118845   2.972   4.547   9.647 -0.6011  0.6329 -0.2883
 2403SOL    HW218846   2.899   4.423   9.668 -0.5809 -0.2432  0.2167
 2404SOL     OW18847   0.765   1.019   7.246  0.2080  0.6660  0.0321
 2404SOL    HW118848   0.771   1.114   7.241  1.7130  0.5552 -0.3291
 2404SOL    HW218849   0.823   1.002   7.320  1.1973  1.0605 -0.6467
 2405SOL     OW18850   1.500   0.475  17.015  0.4814  0.0783 -0.3913
 2405SOL    HW118851   1.433   0.414  17.046  1.2526 -0.2005  0.7010
 2405SOL    HW218852   1.575   0.416  17.016  0.7700  0.4388 -0.5397
 2406SOL     OW18853   2.286   3.452   8.807 -0.2106 -0.0102 -0.1626
 2406SOL    HW118854   2.326   3.538   8.796 -1.6845  0.3284 -2.8156
 2406SOL    HW218855   2.200   3.468   8.767  1.0937 -0.0429 -2.9714
 2407SOL     OW18856   1.983   0.108   3.439 -0.4438 -0.3894 -0.2189
 2407SOL    HW118857   1.941   0.066   3.513  1.9919  0.7736  1.8439
 2407SOL    HW218858   1.914   0.162   3.399 -0.7518 -1.5023 -1.1985
 2408SOL     OW18859   0.439   3.181   7.107  0.2456  0.3575 -0.5636
 2408SOL    HW118860   0.414   3.196   7.199 -0.4357 -0.8090 -0.5651
 2408SOL    HW218861   0.511   3.119   7.119 -1.2418 -0.7747  2.5406
 2409SOL     OW18862   1.883   3.893   6.299  0.4417 -0.2051  0.1126
 2409SOL    HW118863   1.887   3.801   6.272  1.1950  0.1391 -0.9522
 2409SOL    HW218864   1.807   3.896   6.358 -1.9645 -0.0264 -2.9703
 2410SOL     OW18865   4.333   4.075   5.622 -0.3513  0.0165 -0.0149
 2410SOL    HW118866   4.250   4.117   5.600  0.3215  1.4585  0.1856
 2410SOL    HW218867   4.322   4.079   5.717 -0.0536  0.5445  0.0014
 2411SOL     OW18868   1.398   3.929   6.058 -0.4812 -0.2928  0.1720
 2411SOL    HW118869   1.405   3.939   5.963 -1.5755 -0.6371  0.0608
 2411SOL    HW218870   1.351   4.011   6.074 -1.4856 -0.9424  0.5330
 2412SOL     OW18871   3.134   0.079  12.399  0.3288  0.2968 -0.1573
 2412SOL    HW118872   3.181   0.002  12.432  0.6784  1.1529  1.3450
 2412SOL    HW218873   3.043   0.067  12.427  0.6702  2.3177  1.7942
 2413SOL     OW18874   4.411   4.540   7.036 -0.7403  0.2661 -0.1444
 2413SOL    HW118875   4.410   4.455   6.993  0.6994 -0.3876  1.0949
 2413SOL    HW218876   4.326   4.543   7.081 -0.1122 -0.0737  1.0733
 2414SOL     OW18877   3.173   4.239   2.907  0.0986  0.0567  0.4049
 2414SOL    HW118878   3.196   4.209   2.995 -1.5739 -2.4886 -0.0209
 2414SOL    HW218879   3.082   4.264   2.922  0.1858 -0.6387  2.1734
 2415SOL     OW18880   0.916   2.946   5.828  0.0277 -0.0250  0.8403
 2415SOL    HW118881   0.916   2.925   5.921  1.4218  1.6152  1.2112
 2415SOL    HW218882   0.895   3.039   5.834  0.7113  0.2381 -0.8135
 2416SOL     OW18883   1.382   1.080   6.724  0.0069 -0.0556  0.3106
 2416SOL    HW118884   1.405   1.150   6.663  0.4688 -0.0831  0.4536
 2416SOL    HW218885   1.465   1.067   6.769  0.1651 -1.5861 -0.4208
 2417SOL     OW18886   1.453   0.559   6.613  0.1275  0.8201 -0.6323
 2417SOL    HW118887   1.362   0.544   6.637  0.6327 -1.9063 -0.3680
 2417SOL    HW218888   1.467   0.489   6.549  1.5505  0.0699  0.4893
 2418SOL     OW18889   2.758   0.280   5.151  0.1342  0.2953 -0.1686
 2418SOL    HW118890   2.715   0.209   5.198  1.9990  0.7782  2.2718
 2418SOL    HW218891   2.792   0.232   5.076 -0.7352  0.1441 -0.4645
 2419SOL     OW18892   3.756   2.200   1.646  0.1636 -0.3450 -0.2877
 2419SOL    HW118893   3.754   2.179   1.739  1.7785  2.7540  0.4454
 2419SOL    HW218894   3.844   2.176   1.618  0.5152  0.8090 -0.1543
 2420SOL     OW18895   1.190   1.295   6.687  0.3261  0.6738 -0.5404
 2420SOL    HW118896   1.176   1.368   6.627 -1.6138  1.2030  0.5872
 2420SOL    HW218897   1.284   1.299   6.668  0.6530  0.4526  1.0494
 2421SOL     OW18898   2.430   0.930  13.364  0.2435 -0.0456 -0.5357
 2421SOL    HW118899   2.367   0.959  13.298  0.1147 -2.5567 -1.5212
 2421SOL    HW218900   2.391   0.927  13.451 -0.1394  0.7165 -0.6783
 2422SOL     OW18901   1.564   4.248   2.062  0.2504 -0.2918 -0.6118
 2422SOL    HW118902   1.487   4.304   2.069 -0.3064 -1.2758  0.9897
 2422SOL    HW218903   1.575   4.236   1.967  1.5389 -0.6991 -0.4052
 2423SOL     OW18904   2.084   3.254   5.297  0.1364  0.4417  0.6973
 2423SOL    HW118905   2.003   3.266   5.347  0.5373  0.3479  1.3598
 2423SOL    HW218906   2.131   3.203   5.363  0.2081  0.4996  0.6901
 2424SOL     OW18907   2.437   4.047   5.059  0.0172 -0.1621 -0.1376
 2424SOL    HW118908   2.443   4.077   4.968 -0.3373  0.7302  0.1274
 2424SOL    HW218909   2.406   3.958   5.047  0.4436 -0.1896 -1.0359
 2425SOL     OW18910   3.927   3.694   0.688  0.5415  0.4424 -0.4462
 2425SOL    HW118911   4.015   3.688   0.723  0.6174 -0.1946 -0.7496
 2425SOL    HW218912   3.940   3.677   0.595 -2.4294  0.8842 -0.9647
 2426SOL     OW18913   3.792   4.467   4.672 -0.1546 -0.0719 -0.3285
 2426SOL    HW118914   3.814   4.535   4.609 -1.1879 -1.1920 -1.8991
 2426SOL    HW218915   3.697   4.473   4.679  0.0204 -0.4874  2.2206
 2427SOL     OW18916   1.373   3.544  16.694 -0.2345 -0.2205  0.4790
 2427SOL    HW118917   1.350   3.587  16.777 -0.3858  1.0152 -0.2012
 2427SOL    HW218918   1.302   3.578  16.640 -0.2497 -1.2369 -0.1258
 2428SOL     OW18919   4.651   2.387  14.438 -0.0253  0.7391 -0.3143
 2428SOL    HW118920   4.708   2.334  14.382  0.0794 -0.4131  0.8869
 2428SOL    HW218921   4.586   2.322  14.462 -1.4205  1.8567 -1.0753
 2429SOL     OW18922   1.613   3.646  13.646 -0.4423 -0.3489  0.4889
 2429SOL    HW118923   1.648   3.674  13.562 -1.4744  4.7924  1.7741
 2429SOL    HW218924   1.687   3.667  13.704  1.0866 -2.3574 -0.7421
 2430SOL     OW18925   0.228   3.172   6.677  0.2335  0.2577  0.0591
 2430SOL    HW118926   0.285   3.246   6.654  0.8551 -0.9851 -2.3191
 2430SOL    HW218927   0.235   3.168   6.773 -1.2876  0.0857  0.1674
 2431SOL     OW18928   2.773   0.430   0.397 -0.2593 -0.3521  0.3586
 2431SOL    HW118929   2.784   0.395   0.309 -1.0740  0.7392 -0.1934
 2431SOL    HW218930   2.678   0.445   0.390  0.1131  2.2710  0.7702
 2432SOL     OW18931   1.627   0.193   8.380 -0.1665 -0.4010  0.0909
 2432SOL    HW118932   1.664   0.189   8.468  0.1615  0.0764 -0.0230
 2432SOL    HW218933   1.684   0.127   8.340  2.3352  1.1347  1.1534
 2433SOL     OW18934   1.369   0.767   6.828  0.0297  0.4047  0.5447
 2433SOL    HW118935   1.445   0.750   6.773 -0.7468  0.6708 -0.6058
 2433SOL    HW218936   1.331   0.848   6.794  4.3237  3.1940  2.4634
 2434SOL     OW18937   3.970   0.700   4.648 -0.6425  0.4069 -0.4354
 2434SOL    HW118938   4.002   0.632   4.707 -2.8013 -1.1069 -1.0127
 2434SOL    HW218939   3.931   0.648   4.578 -1.4114 -0.9494  0.9937
 2435SOL     OW18940   2.043   2.004  16.014 -0.4809  0.3706 -0.0604
 2435SOL    HW118941   2.036   1.919  15.970  1.7233 -0.4664  1.1813
 2435SOL    HW218942   1.987   2.061  15.962 -1.1403 -1.4283 -1.2874
 2436SOL     OW18943   4.566   3.274   6.979  0.2006  0.7681 -0.3476
 2436SOL    HW118944   4.544   3.367   6.991  1.2464  0.9867 -0.1329
 2436SOL    HW218945   4.482   3.232   6.998  0.4762 -0.1872 -1.2567
 2437SOL     OW18946   2.137   4.663   0.257  0.7758  0.0565 -0.4819
 2437SOL    HW118947   2.077   4.700   0.321  1.3058 -0.1130  0.1103
 2437SOL    HW218948   2.116   4.570   0.259 -1.4227  0.5759  0.6850
 2438SOL     OW18949   2.510   0.068  12.118 -0.4099  0.0418 -0.1708
 2438SOL    HW118950   2.547   0.019  12.192 -0.1798 -2.0020 -1.6621
 2438SOL    HW218951   2.465   0.145  12.153 -0.3805  0.2685 -0.6451
 2439SOL     OW18952   3.947   2.951   8.780 -0.1415 -0.1145 -0.6841
 2439SOL    HW118953   3.982   2.862   8.791 -0.0647 -0.1917 -1.4954
 2439SOL    HW218954   3.875   2.944   8.718 -1.5301  1.9628  0.7180
 2440SOL     OW18955   0.597   2.254   4.296  0.1823  0.3379  0.3721
 2440SOL    HW118956   0.658   2.183   4.317  0.4663  0.3174 -0.5397
 2440SOL    HW218957   0.523   2.196   4.278  0.4861 -0.0376  0.3163
 2441SOL     OW18958   1.600   3.106   3.217  0.1874  0.0446 -0.1014
 2441SOL    HW118959   1.608   3.149   3.132  1.1910  0.7469  0.3637
 2441SOL    HW218960   1.582   3.180   3.274  1.3535  0.5258 -0.3656
 2442SOL     OW18961   0.036   2.854  17.686  0.2210 -0.3653 -0.3959
 2442SOL    HW118962   0.067   2.944  17.678  1.4729 -0.5684  2.0451
 2442SOL    HW218963   0.012   2.856   0.038  2.5240  1.5908  0.1632
 2443SOL     OW18964   2.109   4.371   2.868 -0.0485 -0.1558 -0.2706
 2443SOL    HW118965   2.169   4.438   2.836 -0.1296  0.0064 -0.0806
 2443SOL    HW218966   2.064   4.358   2.785  0.0841 -0.1210 -0.3480
 2444SOL     OW18967   1.665   3.379   6.270  0.2674 -0.1982 -0.3668
 2444SOL    HW118968   1.626   3.382   6.357  1.6002  1.6023  0.1672
 2444SOL    HW218969   1.592   3.405   6.214  0.7991  0.2542 -0.8474
 2445SOL     OW18970   0.802   3.177   4.588  0.4128  0.1716 -0.6455
 2445SOL    HW118971   0.744   3.108   4.619 -0.3347  0.4213 -1.5095
 2445SOL    HW218972   0.762   3.242   4.645  0.3813 -2.2873  2.1372
 2446SOL     OW18973   0.071   3.373   2.682  0.3615  0.0480  0.0397
 2446SOL    HW118974   0.072   3.468   2.683 -0.9336  0.0782 -1.0023
 2446SOL    HW218975   0.122   3.339   2.755 -1.8043  1.1719  2.0433
 2447SOL     OW18976   1.611   0.558   4.142  0.3638 -0.3923  0.3611
 2447SOL    HW118977   1.639   0.530   4.229  1.1045 -0.3161  0.1466
 2447SOL    HW218978   1.557   0.633   4.165  0.4812 -0.7096  1.6625
 2448SOL     OW18979   0.700   4.228   4.151  0.4429 -1.0796  0.2954
 2448SOL    HW118980   0.785   4.227   4.196  1.0639 -1.7477 -0.8845
 2448SOL    HW218981   0.722   4.175   4.074  2.2970  1.5790 -1.0104
 2449SOL     OW18982   2.482   4.431  10.022 -0.1791  0.2997  0.4798
 2449SOL    HW118983   2.523   4.371  10.084  0.2386 -0.1799 -0.2623
 2449SOL    HW218984   2.559   4.465   9.976 -1.2957  1.1913 -0.7132
 2450SOL     OW18985   0.829   2.066   5.434 -0.1829  0.2872 -0.0569
 2450SOL    HW118986   0.867   2.012   5.365 -1.2569  2.3062 -2.2074
 2450SOL    HW218987   0.868   2.026   5.512 -1.1540 -1.7974 -0.6413
 2451SOL     OW18988   1.626   3.940   0.671 -0.3498  0.1639  0.1729
 2451SOL    HW118989   1.711   3.898   0.653 -0.6210 -0.1913 -0.2847
 2451SOL    HW218990   1.585   3.872   0.724 -0.8426 -0.0584 -0.4906
 2452SOL     OW18991   4.264   3.287   2.292 -0.1142 -0.1403  0.0229
 2452SOL    HW118992   4.195   3.250   2.236 -0.9623  0.2067  0.8347
 2452SOL    HW218993   4.237   3.257   2.379  0.4721  0.4099  0.3880
 2453SOL     OW18994   3.767   2.774   2.836 -0.0144 -0.3037  0.0946
 2453SOL    HW118995   3.718   2.700   2.871 -1.5376  0.3677 -0.5751
 2453SOL    HW218996   3.856   2.739   2.832  1.3755  3.3258 -0.7964
 2454SOL     OW18997   2.558   0.172   1.789  0.0543 -0.8295 -0.8273
 2454SOL    HW118998   2.573   0.123   1.708  0.6758 -0.1031 -1.1576
 2454SOL    HW218999   2.492   0.238   1.767  1.3212  0.1782 -1.6487
 2455SOL     OW19000   2.428   3.611   0.245 -0.6094 -0.2561  0.0043
 2455SOL    HW119001   2.394   3.591   0.332 -1.2219  1.0524  0.0622
 2455SOL    HW219002   2.475   3.529   0.228  1.0230  0.8066 -0.6150
 2456SOL     OW19003   1.178   1.258   3.657 -0.3046 -0.1159 -0.4883
 2456SOL    HW119004   1.233   1.180   3.666  0.9105  0.8496  0.4575
 2456SOL    HW219005   1.100   1.224   3.701  1.2079 -0.2355  2.0868
 2457SOL     OW19006   4.226   3.855   2.383 -0.4575 -0.5014 -0.6607
 2457SOL    HW119007   4.191   3.775   2.344  2.0179 -1.2595 -1.3283
 2457SOL    HW219008   4.227   3.839   2.477 -4.4606  0.8064 -0.3813
 2458SOL     OW19009   4.234   0.249   8.976 -0.2812 -0.4490 -0.0705
 2458SOL    HW119010   4.270   0.325   9.022 -1.8136  1.1312 -1.4872
 2458SOL    HW219011   4.204   0.285   8.892 -0.0772 -1.5632 -0.6336
 2459SOL     OW19012   1.040   1.932   3.277  0.3010  0.0156 -0.4263
 2459SOL    HW119013   1.054   1.959   3.368 -3.0563 -0.5210  0.2793
 2459SOL    HW219014   1.125   1.969   3.256  0.4460  0.1278  0.3467
 2460SOL     OW19015   4.642   2.438   5.933 -0.1987 -0.3436 -0.0353
 2460SOL    HW119016   4.589   2.359   5.937  0.8592 -1.1041 -1.2591
 2460SOL    HW219017   4.683   2.443   6.020 -2.4742 -0.9848  1.0699
 2461SOL     OW19018   2.317   1.313   5.812  0.6476  0.0401  0.6294
 2461SOL    HW119019   2.287   1.287   5.899 -0.1987  2.8549  1.2066
 2461SOL    HW219020   2.362   1.398   5.820  1.8918 -0.3598 -2.0620
 2462SOL     OW19021   2.019   2.864   5.491  0.2726 -0.8274 -0.0888
 2462SOL    HW119022   1.937   2.907   5.515  2.3494  2.4037  1.1938
 2462SOL    HW219023   1.991   2.798   5.428  2.3427 -1.2953 -0.5150
 2463SOL     OW19024   2.596   3.176   5.532  0.0751  0.3319 -0.7055
 2463SOL    HW119025   2.541   3.255   5.529  1.7054  1.4855 -0.4594
 2463SOL    HW219026   2.683   3.202   5.501  0.4989 -2.7285 -2.0368
 2464SOL     OW19027   4.407   3.975   4.650  0.0115  0.0122  0.0047
 2464SOL    HW119028   4.461   4.041   4.694  2.7019 -2.2219 -0.0146
 2464SOL    HW219029   4.382   3.914   4.719 -0.5410  0.4475  0.1984
 2465SOL     OW19030   2.033   3.368   3.728 -0.2316 -0.5481  0.6237
 2465SOL    HW119031   2.029   3.463   3.724 -0.7683 -0.5554  0.8882
 2465SOL    HW219032   1.957   3.340   3.678  1.7623 -2.4750 -1.3018
 2466SOL     OW19033   0.346   4.026  17.367 -0.1806 -0.2249 -0.0612
 2466SOL    HW119034   0.260   4.033  17.326 -0.5616  1.3591  1.0095
 2466SOL    HW219035   0.339   4.088  17.440 -0.4308  0.0186 -0.2949
 2467SOL     OW19036   2.530   4.184   3.304 -0.3387 -0.4896  0.1397
 2467SOL    HW119037   2.620   4.174   3.274 -0.8446 -0.9037 -1.2445
 2467SOL    HW219038   2.491   4.157   3.221  2.9288  2.1160 -2.2440
 2468SOL     OW19039   3.026   0.195   2.483 -0.0999  0.1789  0.2706
 2468SOL    HW119040   3.023   0.238   2.398  2.4688  0.1913  0.2027
 2468SOL    HW219041   2.942   0.226   2.518  1.2735  3.3204  0.7788
 2469SOL     OW19042   0.121   4.629  17.297  0.3679 -0.1045 -0.0872
 2469SOL    HW119043   0.126   4.643  17.203  1.7866  0.1703  0.0234
 2469SOL    HW219044   0.061   4.698  17.326  0.8995  0.5346 -0.5185
 2470SOL     OW19045   1.470   3.326   9.327  0.6081  0.1037 -0.9051
 2470SOL    HW119046   1.443   3.387   9.396  1.3685  0.1667 -0.6629
 2470SOL    HW219047   1.481   3.244   9.374  0.5436  0.1023 -0.8914
 2471SOL     OW19048   3.965   0.073   5.974  0.6045  0.1625  0.1561
 2471SOL    HW119049   3.980   0.166   5.993  2.0636  0.5351 -2.8487
 2471SOL    HW219050   3.958   0.054   6.068  0.9489 -0.1592  0.1181
 2472SOL     OW19051   2.302   2.008  16.348 -0.2500 -0.4694 -0.3370
 2472SOL    HW119052   2.306   1.913  16.358  0.5273 -0.5777 -1.6407
 2472SOL    HW219053   2.332   2.028  16.437 -2.7078  0.1238  0.3464
 2473SOL     OW19054   2.978   2.608   0.134 -0.4331 -0.3934 -0.0599
 2473SOL    HW119055   2.943   2.674   0.194 -2.5119 -0.9502 -0.6395
 2473SOL    HW219056   3.029   2.550   0.192  3.0723  2.0364 -0.7377
 2474SOL     OW19057   2.431   1.271  12.689 -0.2289 -0.0036 -0.1052
 2474SOL    HW119058   2.483   1.198  12.719  1.3407  0.6857 -1.1530
 2474SOL    HW219059   2.498   1.306  12.630  0.4967  0.0947  0.7899
 2475SOL     OW19060   3.932   3.907   2.635 -0.3341  0.1040  0.2440
 2475SOL    HW119061   3.974   3.990   2.611  1.3750 -0.9556 -0.4153
 2475SOL    HW219062   4.010   3.852   2.626  0.0635  0.9526 -1.5754
 2476SOL     OW19063   0.314   1.088   6.981  0.4382  0.2144 -0.0431
 2476SOL    HW119064   0.317   1.093   7.076 -0.0987 -0.1647 -0.0090
 2476SOL    HW219065   0.343   0.997   6.973 -0.5086 -0.0368 -0.6786
 2477SOL     OW19066   0.697   3.066   5.371  0.0017 -0.4686 -0.0733
 2477SOL    HW119067   0.677   3.022   5.453 -3.3492  1.0815 -0.0198
 2477SOL    HW219068   0.621   3.121   5.351  0.3340  0.4830  1.2992
 2478SOL     OW19069   0.584   4.704   7.213 -0.1530 -0.1510 -0.1429
 2478SOL    HW119070   0.610   4.693   7.122 -0.0563  1.6322 -0.3414
 2478SOL    HW219071   0.585   4.613   7.242 -0.4227 -0.0006  0.3470
 2479SOL     OW19072   0.463   2.191   0.133 -0.0079  0.1344 -0.7768
 2479SOL    HW119073   0.409   2.134   0.187 -2.2339  2.4003 -0.6062
 2479SOL    HW219074   0.434   2.163   0.046  1.8235 -3.2630 -0.3108
 2480SOL     OW19075   3.195   0.191   5.232 -0.7500 -0.3014 -0.5118
 2480SOL    HW119076   3.287   0.189   5.259 -0.3605  1.6774 -1.6469
 2480SOL    HW219077   3.199   0.125   5.164 -0.9814 -1.3737  0.5235
 2481SOL     OW19078   1.145   2.252   3.003 -0.1865  0.0642 -0.4869
 2481SOL    HW119079   1.160   2.184   3.069 -0.3817  1.4794  1.0137
 2481SOL    HW219080   1.128   2.329   3.057 -1.6469  0.8527 -2.0553
 2482SOL     OW19081   2.547   3.534   7.317  0.4380 -0.0783 -0.4124
 2482SOL    HW119082   2.468   3.481   7.323  0.8999 -0.7873 -0.5913
 2482SOL    HW219083   2.503   3.616   7.339  2.1325  1.0528 -1.2836
 2483SOL     OW19084   2.488   2.464  11.453  0.1018  0.3929  0.7125
 2483SOL    HW119085   2.460   2.528  11.387  1.1160  0.6292  0.4965
 2483SOL    HW219086   2.483   2.383  11.403  2.5940  0.6633 -0.0089
 2484SOL     OW19087   2.781   3.671   8.129  0.3667  0.0774  0.6560
 2484SOL    HW119088   2.725   3.603   8.092 -0.0179  0.7931 -0.0709
 2484SOL    HW219089   2.728   3.748   8.110 -2.5546 -1.1220  4.0752
 2485SOL     OW19090   1.722   0.329   9.435 -0.5893  0.4766  0.6030
 2485SOL    HW119091   1.771   0.391   9.381  3.2848 -2.1038  1.1718
 2485SOL    HW219092   1.725   0.380   9.516  0.5778  0.6350  0.4591
 2486SOL     OW19093   1.266   1.538  12.471 -0.5328 -0.0379  0.1028
 2486SOL    HW119094   1.336   1.478  12.496 -1.6241 -0.6448  1.6776
 2486SOL    HW219095   1.303   1.613  12.424  1.3496 -0.0373  1.6131
 2487SOL     OW19096   2.658   4.059   8.789 -0.0747 -0.0378 -0.5168
 2487SOL    HW119097   2.726   4.102   8.736  1.6837 -0.4026  1.4378
 2487SOL    HW219098   2.589   4.125   8.775 -0.8149 -1.1064 -1.9011
 2488SOL     OW19099   0.009   1.976  10.560 -0.3677 -0.1858 -0.1435
 2488SOL    HW119100   4.700   2.035  10.622 -1.9520 -0.1151 -1.3361
 2488SOL    HW219101   0.063   2.034  10.506 -0.0496 -0.1257  0.2410
 2489SOL     OW19102   2.033   2.344   7.005  0.9022  0.5183 -0.1647
 2489SOL    HW119103   1.988   2.397   6.939 -1.1672 -1.6000 -0.4519
 2489SOL    HW219104   1.999   2.257   6.987  1.4425  0.3374 -0.3225
 2490SOL     OW19105   0.064   4.203   2.978 -0.8421 -0.1525 -0.6891
 2490SOL    HW119106   0.103   4.268   3.037  0.0703 -3.3740  2.2473
 2490SOL    HW219107   4.705   4.213   2.985 -0.6438  1.0249  0.3640
 2491SOL     OW19108   4.059   1.008   6.864  0.2811  0.0314  0.1115
 2491SOL    HW119109   3.974   1.051   6.851  1.1728  1.4505 -1.0593
 2491SOL    HW219110   4.032   0.956   6.939  1.3692  0.6032  0.9042
 2492SOL     OW19111   3.565   1.651   4.085  0.4407  0.5521  0.0387
 2492SOL    HW119112   3.655   1.640   4.116  0.7314 -0.5407 -1.1574
 2492SOL    HW219113   3.588   1.728   4.034  1.7546  1.1548  1.5366
 2493SOL     OW19114   3.355   1.619   9.238  0.0685 -0.1853  0.6652
 2493SOL    HW119115   3.407   1.561   9.294  0.4366 -0.8195 -0.3308
 2493SOL    HW219116   3.425   1.683   9.222 -1.9079  1.5376 -1.2330
 2494SOL     OW19117   2.792   0.387   8.043 -0.5082 -0.2809  0.5413
 2494SOL    HW119118   2.843   0.373   8.122 -0.3879  0.5615  0.6077
 2494SOL    HW219119   2.845   0.333   7.985  0.7294  1.0343  0.4452
 2495SOL     OW19120   0.345   2.305   5.393 -0.2345  0.0785  0.0202
 2495SOL    HW119121   0.340   2.338   5.483  1.6801  0.6645 -0.1029
 2495SOL    HW219122   0.349   2.213   5.419  0.3624 -0.3980 -1.7668
 2496SOL     OW19123   4.709   3.648   7.208 -0.7343  0.1669 -0.8413
 2496SOL    HW119124   4.728   3.589   7.281  0.5227  1.7303  0.0930
 2496SOL    HW219125   4.666   3.723   7.249 -2.2009 -0.1930 -1.7375
 2497SOL     OW19126   3.951   4.077   0.852  1.1869 -0.0452  0.1886
 2497SOL    HW119127   4.036   4.050   0.886  1.6708 -0.1822 -1.1543
 2497SOL    HW219128   3.970   4.088   0.759  0.4808 -1.1596 -0.0978
 2498SOL     OW19129   1.268   1.809  14.822  0.4868 -0.1049  0.4960
 2498SOL    HW119130   1.179   1.815  14.857  0.3797  0.2006  0.1742
 2498SOL    HW219131   1.307   1.781  14.905 -1.0668 -1.2381  0.8265
 2499SOL     OW19132   0.874   3.677  16.846 -0.5887 -0.2458  0.2187
 2499SOL    HW119133   0.947   3.702  16.902 -2.2878  1.9504  1.4429
 2499SOL    HW219134   0.872   3.755  16.791  1.7622 -1.3351 -1.3846
 2500SOL     OW19135   4.024   2.976  12.891  1.0740  0.3169  0.1882
 2500SOL    HW119136   4.028   2.945  12.801  2.6740  0.1860  0.2886
 2500SOL    HW219137   4.024   3.069  12.868  1.4039  0.5160  0.9811
 2501SOL     OW19138   0.514   4.587   4.453  0.4952 -0.1642 -0.2458
 2501SOL    HW119139   0.439   4.570   4.510  1.5343 -0.8327  0.9066
 2501SOL    HW219140   0.548   4.673   4.479 -0.9874  1.5780 -3.9503
 2502SOL     OW19141   2.628   1.646   9.485  0.3979  0.0936 -0.4776
 2502SOL    HW119142   2.543   1.604   9.493  0.2875  1.0676  3.8179
 2502SOL    HW219143   2.689   1.580   9.453 -0.6462 -0.4432 -1.3685
 2503SOL     OW19144   2.744   4.417   4.229 -0.3710  0.0492 -0.2094
 2503SOL    HW119145   2.722   4.328   4.201  3.1809 -1.6632  2.4070
 2503SOL    HW219146   2.840   4.410   4.234 -0.3813 -1.7429 -2.5757
 2504SOL     OW19147   0.473   4.504  15.388 -0.3028 -0.7020 -0.1235
 2504SOL    HW119148   0.520   4.458  15.457 -3.3017 -0.1711  2.2771
 2504SOL    HW219149   0.384   4.482  15.414 -0.5046 -0.5562 -0.6797
 2505SOL     OW19150   2.393   1.789   7.957  0.0443  0.0793 -1.1067
 2505SOL    HW119151   2.323   1.850   7.936 -0.9715 -1.2108 -1.4245
 2505SOL    HW219152   2.354   1.733   8.024 -1.5402  0.2416 -1.9158
 2506SOL     OW19153   2.237   2.778   6.597 -0.7448 -0.1189 -0.2958
 2506SOL    HW119154   2.291   2.853   6.568  2.3885 -2.6552 -1.0635
 2506SOL    HW219155   2.253   2.764   6.690  3.0795 -1.1871 -1.0970
 2507SOL     OW19156   0.731   3.650   5.714  0.2456  0.3093  0.2440
 2507SOL    HW119157   0.804   3.621   5.769  0.8428  3.0924  0.9166
 2507SOL    HW219158   0.765   3.632   5.626 -1.6249  0.9004 -0.5918
 2508SOL     OW19159   0.544   1.753   4.051 -0.5599  0.2148  0.7018
 2508SOL    HW119160   0.521   1.672   4.006  2.0584 -0.3035  0.3046
 2508SOL    HW219161   0.581   1.723   4.134  0.3971 -0.3759  0.0596
 2509SOL     OW19162   0.441   1.718   5.070 -0.0367 -0.1036  0.1245
 2509SOL    HW119163   0.408   1.765   4.993  1.4585  1.3532  0.3620
 2509SOL    HW219164   0.533   1.699   5.049 -0.0475  0.0996 -0.1136
 2510SOL     OW19165   3.167   2.622   8.722 -0.2118 -0.4637 -0.2349
 2510SOL    HW119166   3.185   2.716   8.715  1.4104 -0.7523  0.2667
 2510SOL    HW219167   3.174   2.590   8.632  1.4417  1.1198 -0.6626
 2511SOL     OW19168   3.632   1.574  10.135 -0.3798 -0.6908  0.0961
 2511SOL    HW119169   3.723   1.557  10.109 -0.8713 -1.4507 -1.1386
 2511SOL    HW219170   3.591   1.580  10.048 -0.4258  1.4359  0.2625
 2512SOL     OW19171   3.881   0.357   3.228  0.5761  0.3618  0.0058
 2512SOL    HW119172   3.812   0.296   3.204 -0.1610  0.0964  2.8314
 2512SOL    HW219173   3.841   0.435   3.190  3.4739  1.2681 -1.2254
 2513SOL     OW19174   4.304   1.479   2.755 -0.1999 -0.0356  0.2386
 2513SOL    HW119175   4.385   1.509   2.796 -0.0174 -3.5830  2.4546
 2513SOL    HW219176   4.245   1.457   2.827 -1.0959  0.5718 -0.3087
 2514SOL     OW19177   3.414   1.726  15.572  0.2566  0.3484 -0.3082
 2514SOL    HW119178   3.509   1.723  15.574  0.2562 -0.6125 -1.7125
 2514SOL    HW219179   3.393   1.754  15.483  1.2529 -2.3053 -1.3737
 2515SOL     OW19180   2.108   2.304  16.989  0.0847 -0.2920  0.8611
 2515SOL    HW119181   2.017   2.282  16.973  0.1325  1.2692 -1.5857
 2515SOL    HW219182   2.121   2.295  17.084 -1.1097  1.1245  1.1671
 2516SOL     OW19183   3.441   2.760   2.064  0.2134  0.3921  0.4786
 2516SOL    HW119184   3.442   2.677   2.016  3.1158  0.4989  0.3166
 2516SOL    HW219185   3.456   2.727   2.153  0.3689 -3.9783 -1.1794
 2517SOL     OW19186   3.157   4.382   0.587 -0.9073  0.2376  0.9333
 2517SOL    HW119187   3.219   4.371   0.659 -0.7448 -1.8870  0.4503
 2517SOL    HW219188   3.220   4.392   0.515  0.4390 -3.1589  1.6779
 2518SOL     OW19189   1.822   2.453   5.326  0.1971  0.6452 -0.4168
 2518SOL    HW119190   1.868   2.369   5.326 -3.0235 -1.1033  1.8092
 2518SOL    HW219191   1.787   2.459   5.237 -2.7675  1.8648  0.8191
 2519SOL     OW19192   4.473   3.946  13.251 -0.1927  0.1654 -0.1419
 2519SOL    HW119193   4.456   3.869  13.196 -1.4765 -0.6591  1.4289
 2519SOL    HW219194   4.500   3.905  13.333  0.0870 -0.5272 -0.5740
 2520SOL     OW19195   4.127   1.271   6.289  0.2131  0.0432 -0.5346
 2520SOL    HW119196   4.121   1.300   6.198  0.3401 -1.4163 -1.0065
 2520SOL    HW219197   4.211   1.306   6.320 -0.6759  0.9779  0.8246
 2521SOL     OW19198   3.895   1.561   8.469 -0.2846 -0.1015  0.8531
 2521SOL    HW119199   3.913   1.476   8.427 -0.8644 -0.4002  1.2046
 2521SOL    HW219200   3.867   1.526   8.553 -0.8728  0.7779  1.0210
 2522SOL     OW19201   0.027   0.382   0.885  0.3206 -0.2209 -0.2754
 2522SOL    HW119202   0.092   0.312   0.900  0.4166  0.1317  0.9646
 2522SOL    HW219203   0.029   0.385   0.789  1.2567  1.1649 -0.2093
 2523SOL     OW19204   1.173   1.511   4.336 -1.0408 -0.1211  0.1322
 2523SOL    HW119205   1.194   1.602   4.317  1.3780 -0.7483 -0.2049
 2523SOL    HW219206   1.182   1.512   4.431 -1.6827 -2.1598  0.2330
 2524SOL     OW19207   1.196   2.980   6.710  0.5943 -0.3315 -0.1744
 2524SOL    HW119208   1.254   2.960   6.784  0.2242  3.1226  1.0521
 2524SOL    HW219209   1.132   2.909   6.712 -0.2221  0.4109 -0.0756
 2525SOL     OW19210   4.360   4.262   7.722  0.1958  0.3431  0.0096
 2525SOL    HW119211   4.334   4.190   7.780 -1.0211 -0.1651 -1.1725
 2525SOL    HW219212   4.323   4.341   7.763 -0.2381  0.5870 -0.8531
 2526SOL     OW19213   2.267   3.732  12.313  0.0381 -0.2995 -0.0459
 2526SOL    HW119214   2.261   3.753  12.220  0.2010  0.1012  0.0304
 2526SOL    HW219215   2.291   3.822  12.336 -2.7307 -0.1879  2.4008
 2527SOL     OW19216   3.432   2.081   2.634  0.2052  0.6535 -0.2701
 2527SOL    HW119217   3.497   2.095   2.703 -0.6793 -0.8797  0.8615
 2527SOL    HW219218   3.431   1.986   2.640 -0.1946  0.5858 -1.4001
 2528SOL     OW19219   1.153   1.963  10.626 -0.3046 -0.0269  0.2162
 2528SOL    HW119220   1.089   2.029  10.598  1.2470  1.8767  1.1616
 2528SOL    HW219221   1.226   1.989  10.571 -1.0803  0.7230 -0.4589
 2529SOL     OW19222   4.004   0.953   1.917 -0.2105 -0.1219 -0.0127
 2529SOL    HW119223   4.023   0.898   1.993 -0.2489 -0.2105 -0.0670
 2529SOL    HW219224   4.010   0.885   1.850  0.6729  0.3588 -0.4115
 2530SOL     OW19225   2.079   3.403  10.610 -0.9832  0.2376 -0.4274
 2530SOL    HW119226   1.988   3.387  10.637 -0.9355 -0.9797 -0.9747
 2530SOL    HW219227   2.136   3.357  10.671  1.2134 -0.5548 -3.0518
 2531SOL     OW19228   0.114   3.853   3.251 -0.3339  0.7765  0.5204
 2531SOL    HW119229   0.083   3.762   3.254  1.3366  0.2267  1.6499
 2531SOL    HW219230   0.183   3.859   3.317 -0.4650  3.8210  0.3654
 2532SOL     OW19231   3.819   3.476   9.234 -0.5174 -0.1360 -0.6635
 2532SOL    HW119232   3.787   3.473   9.324 -1.1958  2.0155 -0.8440
 2532SOL    HW219233   3.832   3.569   9.214  1.4656 -0.2880 -0.0917
 2533SOL     OW19234   0.618   3.403   4.667 -0.0868  0.2710  0.0661
 2533SOL    HW119235   0.683   3.471   4.648 -1.2526  1.2987 -0.1819
 2533SOL    HW219236   0.539   3.456   4.665  0.4933  1.1594  0.5624
 2534SOL     OW19237   2.782   0.299   3.255 -0.0495  0.3585  0.2400
 2534SOL    HW119238   2.770   0.392   3.272  1.5183  1.3633 -3.9816
 2534SOL    HW219239   2.872   0.286   3.285  0.2552  0.1097 -0.7808
 2535SOL     OW19240   3.613   0.423  17.002  0.1716 -0.7933  0.2881
 2535SOL    HW119241   3.530   0.393  16.964  0.8210 -0.0362 -1.7357
 2535SOL    HW219242   3.585   0.432  17.093  0.6785 -0.0386  0.3658
 2536SOL     OW19243   1.002   4.149   1.852 -0.3556  0.4902  0.7221
 2536SOL    HW119244   0.974   4.092   1.924 -0.7237 -0.8314 -0.4518
 2536SOL    HW219245   0.991   4.234   1.895  0.2272  1.0442 -0.2330
 2537SOL     OW19246   3.997   3.120  14.444  0.7488 -0.1273  0.3073
 2537SOL    HW119247   3.974   3.213  14.447  1.7942  0.1683 -0.9830
 2537SOL    HW219248   3.937   3.077  14.506  1.7981 -0.1526  1.3157
 2538SOL     OW19249   2.494   2.624   5.170 -0.4729  0.1652  0.0461
 2538SOL    HW119250   2.517   2.539   5.134 -0.3729  0.5102 -0.7051
 2538SOL    HW219251   2.555   2.689   5.134  0.4528 -1.2176 -0.8742
 2539SOL     OW19252   2.805   1.884   5.816  0.4479  0.0108 -0.3045
 2539SOL    HW119253   2.823   1.907   5.907 -0.2710 -0.4620 -0.0426
 2539SOL    HW219254   2.854   1.957   5.779  1.0395 -0.3809 -0.3024
 2540SOL     OW19255   2.603   2.711   7.734  0.5982 -0.8816 -0.2637
 2540SOL    HW119256   2.690   2.672   7.726  1.1850  0.1318  1.1173
 2540SOL    HW219257   2.572   2.702   7.644 -1.5654  1.9801  0.1788
 2541SOL     OW19258   1.966   0.942  14.830 -0.1457  0.2158 -0.6327
 2541SOL    HW119259   1.964   0.898  14.745  0.0589  2.2045 -1.6643
 2541SOL    HW219260   2.057   0.968  14.849 -0.2302  1.0726 -1.4067
 2542SOL     OW19261   1.189   4.387   3.319  0.4438  0.3073 -0.2719
 2542SOL    HW119262   1.119   4.452   3.328  0.5001  0.0010  2.5225
 2542SOL    HW219263   1.136   4.308   3.333 -1.5391  1.7446  0.3582
 2543SOL     OW19264   0.287   3.035   8.037 -0.0645  0.0948 -0.1098
 2543SOL    HW119265   0.328   2.950   8.051  0.2411  0.1435 -0.6937
 2543SOL    HW219266   0.267   3.055   8.128  0.5805  2.3061 -0.4421
 2544SOL     OW19267   1.685   4.515   1.833  0.5217 -0.1914 -0.3431
 2544SOL    HW119268   1.651   4.518   1.744 -2.0241  2.0036  0.7098
 2544SOL    HW219269   1.632   4.582   1.875  0.6396 -0.0377 -0.4409
 2545SOL     OW19270   2.139   1.252   2.442 -0.5105  0.0749  0.7325
 2545SOL    HW119271   2.128   1.160   2.465 -0.4648 -0.4967 -1.5290
 2545SOL    HW219272   2.101   1.292   2.521  0.4891  3.1663 -0.3519
 2546SOL     OW19273   0.779   1.758   5.869  0.3650 -0.3735 -1.0487
 2546SOL    HW119274   0.827   1.841   5.872 -0.8096  0.3850 -3.6840
 2546SOL    HW219275   0.846   1.704   5.828  1.0301  2.4510 -3.7471
 2547SOL     OW19276   1.943   2.542  13.462 -0.2417 -0.0233  0.4666
 2547SOL    HW119277   1.875   2.475  13.457  0.9830 -1.2570  0.3187
 2547SOL    HW219278   1.980   2.513  13.546 -0.2349  0.4103  0.6135
 2548SOL     OW19279   0.674   2.969  13.864  0.0563  0.1148  0.1326
 2548SOL    HW119280   0.596   2.942  13.816  0.8539 -0.5601 -0.7786
 2548SOL    HW219281   0.647   3.046  13.914  1.8704  1.3497 -0.7818
 2549SOL     OW19282   1.919   3.258   6.460 -0.0662  0.4147  0.5635
 2549SOL    HW119283   1.906   3.284   6.369 -0.9883  1.3002  0.9415
 2549SOL    HW219284   1.900   3.166   6.445  0.8544  0.5322 -1.2160
 2550SOL     OW19285   3.045   0.250  10.035 -0.5460 -0.0882 -0.6385
 2550SOL    HW119286   3.039   0.178  10.097  3.2453 -1.0031 -1.3315
 2550SOL    HW219287   3.072   0.194   9.962  2.5753 -0.8921  1.1139
 2551SOL     OW19288   2.221   1.081   8.003 -0.0491  0.1584  0.0495
 2551SOL    HW119289   2.188   1.144   7.939 -0.8797 -0.9037 -0.5629
 2551SOL    HW219290   2.280   1.134   8.057 -1.9581  1.4206  0.8880
 2552SOL     OW19291   1.501   2.589   8.179  0.0519 -0.1317 -0.0792
 2552SOL    HW119292   1.406   2.598   8.170  0.5044  3.2074 -1.4127
 2552SOL    HW219293   1.517   2.584   8.273  0.1570 -1.8380 -0.1838
 2553SOL     OW19294   2.416   4.031  16.397 -0.1954  1.0274 -0.1396
 2553SOL    HW119295   2.467   4.066  16.324  0.0056 -0.0548 -0.5212
 2553SOL    HW219296   2.334   4.016  16.349 -1.3849 -0.6448  2.4455
 2554SOL     OW19297   2.346   3.490   3.676 -0.0130 -0.4402 -0.1003
 2554SOL    HW119298   2.282   3.445   3.620  1.0382 -1.1092 -0.7735
 2554SOL    HW219299   2.419   3.428   3.675  1.1640  0.9464  1.5460
 2555SOL     OW19300   1.161   2.708  12.326 -0.1974  0.0973  0.5240
 2555SOL    HW119301   1.134   2.676  12.412 -0.6501  1.7023  0.9821
 2555SOL    HW219302   1.083   2.686  12.275 -0.9977  1.7916  1.0060
 2556SOL     OW19303   4.642   0.509   5.262  0.3849  0.2441 -0.6821
 2556SOL    HW119304   4.555   0.543   5.280  1.7658  2.5815  1.4630
 2556SOL    HW219305   4.696   0.569   5.313  1.3702 -1.8171  0.7042
 2557SOL     OW19306   0.303   4.295   5.733 -0.3859 -0.4849  0.0802
 2557SOL    HW119307   0.214   4.288   5.699 -0.6374 -0.4303  0.7406
 2557SOL    HW219308   0.295   4.312   5.827 -1.0745  0.6645 -0.1785
 2558SOL     OW19309   3.970   4.470   5.311  0.0305 -0.0890  0.2688
 2558SOL    HW119310   4.043   4.422   5.273 -1.1842  0.8816 -3.2687
 2558SOL    HW219311   4.013   4.487   5.395 -0.9129  0.5785  0.6120
 2559SOL     OW19312   1.666   3.325   0.931  0.0951  0.0042 -0.0082
 2559SOL    HW119313   1.729   3.350   0.863  0.8158 -1.0620  0.2783
 2559SOL    HW219314   1.635   3.243   0.894  1.6511 -0.5160 -0.1806
 2560SOL     OW19315   2.476   1.339   9.298  0.1766 -0.2936 -0.2049
 2560SOL    HW119316   2.395   1.353   9.348 -1.0963 -0.2841 -2.2977
 2560SOL    HW219317   2.455   1.258   9.252 -4.0196  1.0431 -0.6105
 2561SOL     OW19318   3.154   3.857   3.273 -0.1408 -0.4286  0.2840
 2561SOL    HW119319   3.064   3.827   3.258 -0.1262 -0.0623 -0.5199
 2561SOL    HW219320   3.201   3.802   3.211 -0.4544  0.0840 -0.4022
 2562SOL     OW19321   1.539   2.732   9.150  0.4828  0.3761 -0.0105
 2562SOL    HW119322   1.583   2.806   9.108  0.0251  0.0844 -1.0153
 2562SOL    HW219323   1.574   2.755   9.236  0.7303  2.0134 -0.5498
 2563SOL     OW19324   2.664   0.111   9.970 -0.1620  0.8239 -0.1393
 2563SOL    HW119325   2.661   0.064  10.053 -2.2849  0.4041 -0.4655
 2563SOL    HW219326   2.642   0.198  10.003 -0.8613 -0.1111  1.8826
 2564SOL     OW19327   4.643   1.205  12.516  0.2060 -0.3343  0.2180
 2564SOL    HW119328   4.575   1.238  12.574  0.4605  2.7204 -1.2097
 2564SOL    HW219329   4.707   1.275  12.503  0.2153 -0.3855 -0.0064
 2565SOL     OW19330   4.593   2.860   4.533 -0.4507 -0.0846  0.0333
 2565SOL    HW119331   4.528   2.790   4.538  0.0915 -0.5639  0.4876
 2565SOL    HW219332   4.554   2.946   4.543  2.1066  1.4006 -2.5904
 2566SOL     OW19333   3.725   4.435  13.044  0.1303 -0.3476 -0.1193
 2566SOL    HW119334   3.629   4.445  13.040  0.0281 -1.2603 -0.0042
 2566SOL    HW219335   3.732   4.369  13.113 -1.2354 -0.4943 -0.1114
 2567SOL     OW19336   2.737   0.053  12.782 -0.1882  0.3016  0.5788
 2567SOL    HW119337   2.678   0.125  12.761 -1.6187 -0.8999  0.4433
 2567SOL    HW219338   2.701   0.042  12.870 -0.9454  1.4569  0.4127
 2568SOL     OW19339   0.410   0.115   6.853 -0.7458 -0.1676 -0.5140
 2568SOL    HW119340   0.390   0.123   6.759  2.2179 -1.4786 -1.2231
 2568SOL    HW219341   0.450   0.201   6.864 -0.4160 -0.2415 -1.1275
 2569SOL     OW19342   2.035   1.845   6.671  0.3923  0.1162  0.3017
 2569SOL    HW119343   2.115   1.862   6.622  0.0616  0.7223 -0.0259
 2569SOL    HW219344   2.077   1.802   6.746 -0.0979 -3.4234 -1.4080
 2570SOL     OW19345   3.932   3.738   0.982 -0.4672 -0.0001  0.0756
 2570SOL    HW119346   3.927   3.780   0.896  0.5473 -1.1699 -0.5579
 2570SOL    HW219347   3.855   3.770   1.029  0.0214  0.1796  0.7555
 2571SOL     OW19348   2.397   0.982   2.679  0.0979  0.1339  0.4623
 2571SOL    HW119349   2.367   0.982   2.770  1.6307 -0.8852  0.9584
 2571SOL    HW219350   2.353   0.902   2.650  2.7332 -0.7446 -1.1029
 2572SOL     OW19351   2.978   3.152   7.866 -0.4186  0.2346  0.5464
 2572SOL    HW119352   2.996   3.079   7.807  2.3585 -0.2873  2.0320
 2572SOL    HW219353   2.884   3.156   7.850 -0.3860  0.1025  0.3180
 2573SOL     OW19354   0.846   1.764   1.872 -0.2906 -0.1288 -0.1177
 2573SOL    HW119355   0.911   1.694   1.865  1.9399  1.8697  0.5297
 2573SOL    HW219356   0.888   1.834   1.823 -2.9551  2.0888  0.7962
 2574SOL     OW19357   3.515   0.665   3.406  0.0276 -0.3424  0.2850
 2574SOL    HW119358   3.431   0.697   3.373 -0.0371  1.9914  2.7946
 2574SOL    HW219359   3.538   0.754   3.429  0.6542 -0.7132  1.0685
 2575SOL     OW19360   3.756   1.597   2.136  0.7113  0.0972  0.5144
 2575SOL    HW119361   3.754   1.530   2.067  1.3342  2.7092 -2.0461
 2575SOL    HW219362   3.843   1.576   2.170  0.4569 -3.5424 -1.0930
 2576SOL     OW19363   2.140   3.502   4.779 -0.0137 -0.3713  0.4714
 2576SOL    HW119364   2.234   3.524   4.784  0.0369 -0.4325 -0.2918
 2576SOL    HW219365   2.145   3.406   4.783  1.3448 -0.2122  2.8736
 2577SOL     OW19366   1.960   3.813   3.222 -0.0066  0.2712  0.3990
 2577SOL    HW119367   1.954   3.901   3.258 -2.7924  0.5710 -0.8169
 2577SOL    HW219368   1.878   3.804   3.174  0.3370 -0.9036  0.0341
 2578SOL     OW19369   1.071   3.143  16.580  0.7824  0.1724  0.3224
 2578SOL    HW119370   1.063   3.233  16.550  0.4808  0.0749  0.1167
 2578SOL    HW219371   1.073   3.095  16.498 -2.8005  0.7259 -0.0781
 2579SOL     OW19372   3.549   1.703   7.582 -0.2331 -0.0221 -0.1893
 2579SOL    HW119373   3.502   1.724   7.662  2.2727  1.3650  0.9139
 2579SOL    HW219374   3.485   1.640   7.547  1.3419 -0.2700 -2.6638
 2580SOL     OW19375   3.096   1.931  10.371 -0.1641 -0.2729  0.0286
 2580SOL    HW119376   3.041   1.933  10.450 -1.1516  0.8745 -0.6850
 2580SOL    HW219377   3.094   2.024  10.348  4.0062  0.1222  1.3468
 2581SOL     OW19378   4.301   3.049   2.057 -1.0562  0.0289  0.2594
 2581SOL    HW119379   4.371   3.108   2.083 -1.0419 -0.9096  2.3785
 2581SOL    HW219380   4.271   3.012   2.140 -0.8947 -0.8235 -0.0633
 2582SOL     OW19381   1.515   0.926   9.298  0.1310  0.0118  0.3217
 2582SOL    HW119382   1.525   1.021   9.300 -2.2567  0.2387  1.8454
 2582SOL    HW219383   1.422   0.913   9.277  0.2820  0.2575 -0.5061
 2583SOL     OW19384   3.432   1.048  15.361  0.2004 -0.2772  0.2431
 2583SOL    HW119385   3.463   0.995  15.435 -0.0949 -1.7281 -0.6822
 2583SOL    HW219386   3.451   0.994  15.284  0.1856 -0.3596  0.2974
 2584SOL     OW19387   3.652   3.292   8.708  0.3163  0.0924 -0.4524
 2584SOL    HW119388   3.708   3.276   8.784 -0.5864 -1.0314 -0.0219
 2584SOL    HW219389   3.627   3.385   8.716  2.7104  0.6452  0.6855
 2585SOL     OW19390   3.231   0.878   8.661 -0.1114  0.3026  0.2079
 2585SOL    HW119391   3.314   0.869   8.615 -0.4515  0.6796 -0.4751
 2585SOL    HW219392   3.165   0.881   8.592 -0.0149  0.5410  0.1245
 2586SOL     OW19393   4.506   3.620  15.742  0.4037 -1.1342  0.3036
 2586SOL    HW119394   4.595   3.587  15.731  1.9658  3.0896  0.6400
 2586SOL    HW219395   4.497   3.595  15.834  0.1779 -0.9923  0.3198
 2587SOL     OW19396   0.033   2.004   3.801 -0.4654 -0.4414 -0.5353
 2587SOL    HW119397   0.060   2.038   3.886 -1.8177 -1.4600  0.3003
 2587SOL    HW219398   0.089   2.053   3.741  0.6778  1.1003  1.8052
 2588SOL     OW19399   2.971   2.468   2.514  0.3625  0.2827  0.2652
 2588SOL    HW119400   2.913   2.542   2.497  0.4508  0.4721  0.8097
 2588SOL    HW219401   2.970   2.462   2.609 -0.6240 -1.0745  0.1679
 2589SOL     OW19402   0.739   4.444   2.420 -0.5574  0.6522  0.1665
 2589SOL    HW119403   0.728   4.539   2.416  1.8284  0.9940  1.7524
 2589SOL    HW219404   0.679   4.422   2.492 -1.1233  0.7489 -0.2815
 2590SOL     OW19405   2.129   0.712   6.675 -0.5853 -0.2039 -0.3095
 2590SOL    HW119406   2.064   0.760   6.727  0.1575  1.2285 -0.6942
 2590SOL    HW219407   2.151   0.781   6.613 -1.1005 -0.8773 -1.2456
 2591SOL     OW19408   2.638   2.665   5.614  0.0891 -0.5969 -0.1394
 2591SOL    HW119409   2.708   2.729   5.628 -2.8783  2.5463  0.3514
 2591SOL    HW219410   2.583   2.668   5.692 -1.8015  1.8880 -1.5659
 2592SOL     OW19411   0.643   0.351  10.993  0.3365 -0.5132  0.2018
 2592SOL    HW119412   0.612   0.266  11.023  1.5943 -0.3647  1.9189
 2592SOL    HW219413   0.725   0.360  11.041 -0.0906  0.1959  0.7907
 2593SOL     OW19414   4.276   1.302  11.487 -0.5204  0.0511  0.0790
 2593SOL    HW119415   4.258   1.232  11.423 -1.7463 -1.5505  2.1933
 2593SOL    HW219416   4.310   1.370  11.428  0.3162 -0.2170  0.2409
 2594SOL     OW19417   0.931   0.978   8.426  0.6009 -0.3719  0.2241
 2594SOL    HW119418   0.842   0.998   8.455 -1.6266 -3.2716 -4.4743
 2594SOL    HW219419   0.926   1.019   8.340  0.1621 -0.7889  0.0500
 2595SOL     OW19420   0.967   1.039   9.163  0.0713 -0.1730 -0.3181
 2595SOL    HW119421   0.884   1.042   9.212  0.2014  0.7610 -0.1485
 2595SOL    HW219422   1.005   1.119   9.200  0.5243 -0.9814  0.9395
 2596SOL     OW19423   4.018   3.355   5.320 -0.1400  0.8008 -0.0590
 2596SOL    HW119424   4.037   3.439   5.362  0.2100 -1.2188  3.7878
 2596SOL    HW219425   3.923   3.370   5.320 -0.1068  1.0259 -0.9249
 2597SOL     OW19426   1.535   4.070   8.540  0.4237  0.6998 -0.6343
 2597SOL    HW119427   1.529   4.014   8.463 -1.8435 -0.6556  0.5338
 2597SOL    HW219428   1.546   4.000   8.605  2.8329  1.3914 -0.2964
 2598SOL     OW19429   1.818   2.889   6.850  0.2825  0.0728  0.5075
 2598SOL    HW119430   1.907   2.924   6.842  0.5055 -0.4113  0.8320
 2598SOL    HW219431   1.794   2.889   6.943 -0.2777  0.3793  0.3607
 2599SOL     OW19432   0.403   2.246   2.449  0.3982 -0.1651 -0.8147
 2599SOL    HW119433   0.479   2.230   2.392 -0.7118  1.5545 -2.7557
 2599SOL    HW219434   0.403   2.155   2.480  2.3322  0.1212  0.0538
 2600SOL     OW19435   2.430   0.661   8.108 -0.6260  0.1774 -0.2751
 2600SOL    HW119436   2.415   0.578   8.153  0.1419 -0.0575 -0.4658
 2600SOL    HW219437   2.521   0.679   8.130 -0.5582 -1.1653  0.5611
 2601SOL     OW19438   4.556   4.299   7.199  0.0007 -0.0052  0.2606
 2601SOL    HW119439   4.572   4.261   7.113 -1.4082  0.3262 -0.1502
 2601SOL    HW219440   4.495   4.236   7.237 -0.0443 -0.5899 -0.7936
 2602SOL     OW19441   0.968   3.014  14.794  0.1687 -0.0975 -0.5574
 2602SOL    HW119442   0.909   3.041  14.723  0.1003 -0.5333 -0.6689
 2602SOL    HW219443   1.044   2.981  14.747  1.4860 -0.3284  1.7514
 2603SOL     OW19444   3.762   2.436  16.106 -0.0491 -0.5194  0.1724
 2603SOL    HW119445   3.844   2.445  16.155 -0.4594 -1.4417  1.0415
 2603SOL    HW219446   3.750   2.527  16.081  0.8497 -0.2333  0.7430
 2604SOL     OW19447   3.317   1.120  17.119 -0.5386  0.1004  0.7135
 2604SOL    HW119448   3.388   1.109  17.056  0.4726  1.4535  1.6075
 2604SOL    HW219449   3.295   1.028  17.133  0.6573 -0.1718  0.8270
 2605SOL     OW19450   0.407   0.513  15.447 -0.3300  0.4901 -0.1974
 2605SOL    HW119451   0.363   0.560  15.376 -0.6210 -0.9286 -0.9427
 2605SOL    HW219452   0.391   0.424  15.416 -1.4832  0.8256 -0.5591
 2606SOL     OW19453   0.082   2.159   5.873  1.0076  0.7025 -0.1456
 2606SOL    HW119454   0.030   2.214   5.815  1.0270 -0.1324 -0.9415
 2606SOL    HW219455   0.090   2.078   5.824  1.4468  0.8711 -0.3490
 2607SOL     OW19456   0.371   4.286  17.055 -0.4220 -0.2304 -0.4498
 2607SOL    HW119457   0.298   4.260  16.999 -1.3145  2.8012 -0.7077
 2607SOL    HW219458   0.395   4.376  17.033 -1.0060 -0.0693 -0.4225
 2608SOL     OW19459   4.238   2.185  11.614 -0.4007 -0.0590 -0.2744
 2608SOL    HW119460   4.187   2.209  11.691  1.2532 -1.5827  1.2826
 2608SOL    HW219461   4.171   2.138  11.564 -1.0440  0.9597 -0.3776
 2609SOL     OW19462   1.519   0.835  11.651 -0.6284  0.5572 -0.5630
 2609SOL    HW119463   1.554   0.747  11.638 -1.4292  0.0977  0.3461
 2609SOL    HW219464   1.449   0.842  11.586 -2.0602  0.1276  0.9337
 2610SOL     OW19465   2.774   2.824   4.448  0.2424  0.5960  0.2433
 2610SOL    HW119466   2.755   2.910   4.485 -1.8173  0.3579 -0.2627
 2610SOL    HW219467   2.869   2.833   4.443  0.0099  2.4036 -0.8400
 2611SOL     OW19468   3.684   4.170   2.286  0.6075 -0.0865 -0.7195
 2611SOL    HW119469   3.759   4.141   2.233  2.2082  1.9678  0.4178
 2611SOL    HW219470   3.683   4.134   2.374 -0.7849 -0.0378 -0.7271
 2612SOL     OW19471   1.988   1.750   1.356  0.3216 -0.1713 -0.0099
 2612SOL    HW119472   1.995   1.813   1.285  2.7318 -1.6193 -1.0386
 2612SOL    HW219473   2.012   1.799   1.434  0.4449 -0.7563  0.3228
 2613SOL     OW19474   2.110   1.589   7.449 -0.2536 -0.2723 -0.2540
 2613SOL    HW119475   2.159   1.578   7.531  0.6455 -0.9392 -0.8765
 2613SOL    HW219476   2.140   1.503   7.420  1.3128  0.9367 -2.1985
 2614SOL     OW19477   2.718   3.156   7.832 -0.4254  0.3596  0.0208
 2614SOL    HW119478   2.639   3.179   7.882 -0.1812 -1.5139  1.2492
 2614SOL    HW219479   2.736   3.067   7.862  0.6408  0.0620 -1.5396
 2615SOL     OW19480   1.080   1.767   8.047 -0.1734 -0.4724  0.2237
 2615SOL    HW119481   1.131   1.842   8.076  1.1118 -2.3342  2.7751
 2615SOL    HW219482   1.040   1.742   8.130 -0.6561  1.4329  0.5484
 2616SOL     OW19483   1.409   3.071  13.975 -0.1621 -0.0403 -0.0201
 2616SOL    HW119484   1.459   3.032  14.046 -1.3963  0.1923  0.9851
 2616SOL    HW219485   1.460   3.040  13.900  0.1908  0.2382  0.1069
 2617SOL     OW19486   0.744   2.312   9.584  0.3973 -0.5408  0.5558
 2617SOL    HW119487   0.796   2.316   9.504  0.2303 -0.1830  0.4633
 2617SOL    HW219488   0.666   2.262   9.558 -0.0711  0.5555 -0.1549
 2618SOL     OW19489   1.117   0.218   0.447  0.0942 -0.0732  0.3655
 2618SOL    HW119490   1.101   0.124   0.437 -0.8861  0.4089 -2.5761
 2618SOL    HW219491   1.057   0.263   0.388  0.8604 -1.5453 -1.5397
 2619SOL     OW19492   4.384   0.083   3.742 -0.5981  0.2834 -0.4217
 2619SOL    HW119493   4.364   0.061   3.833 -0.9880  0.2759 -0.5099
 2619SOL    HW219494   4.321   0.031   3.692 -1.0168 -1.0828  1.5004
 2620SOL     OW19495   1.826   2.064  12.300 -0.3686 -1.2599 -0.5589
 2620SOL    HW119496   1.740   2.101  12.279  0.4133  1.0901  0.3533
 2620SOL    HW219497   1.877   2.145  12.305 -0.2828 -1.3488 -0.0406
 2621SOL     OW19498   4.087   1.285   8.175  0.2683  0.4053  0.3251
 2621SOL    HW119499   4.017   1.341   8.142  0.8143  1.7740  1.4453
 2621SOL    HW219500   4.038   1.266   8.255  0.8728  0.4566  0.7120
 2622SOL     OW19501   3.895   0.219   9.346  0.2455 -0.4394 -0.2694
 2622SOL    HW119502   3.988   0.200   9.334  0.6937  1.1306  0.7312
 2622SOL    HW219503   3.869   0.152   9.409  0.2336 -0.2579 -0.0827
 2623SOL     OW19504   2.065   1.005   5.759  0.0662 -0.1720  0.7336
 2623SOL    HW119505   2.119   1.048   5.693  1.6514 -0.6758  1.7165
 2623SOL    HW219506   2.105   0.918   5.772  0.5281 -0.0183  0.3221
 2624SOL     OW19507   2.679   1.816   2.995  0.4084  0.1158 -0.0836
 2624SOL    HW119508   2.604   1.778   2.950 -0.1510 -0.4681  1.3301
 2624SOL    HW219509   2.632   1.894   3.025  2.1313  1.3057 -0.4768
 2625SOL     OW19510   2.081   4.619   6.008  0.2398 -0.3714 -0.4697
 2625SOL    HW119511   2.028   4.542   6.029  0.0537  0.8435  3.6750
 2625SOL    HW219512   2.143   4.620   6.081  0.2893 -0.6254 -0.5079
 2626SOL     OW19513   4.254   2.197   7.424 -0.3035 -0.3939  0.6785
 2626SOL    HW119514   4.235   2.125   7.363  0.1212  0.3425 -0.3033
 2626SOL    HW219515   4.337   2.159   7.453 -0.8012 -1.1178  1.1557
 2627SOL     OW19516   1.995   0.743   8.736  0.1297 -0.3954  0.5608
 2627SOL    HW119517   1.986   0.779   8.647 -0.2733  2.1486  1.6213
 2627SOL    HW219518   1.962   0.814   8.791  2.9340  1.2444  0.1322
 2628SOL     OW19519   0.644   3.990   3.579 -0.6993 -0.1702 -0.0144
 2628SOL    HW119520   0.603   3.969   3.663 -3.4166 -1.3287 -1.6335
 2628SOL    HW219521   0.641   3.903   3.539  0.7356  0.3112 -1.1745
 2629SOL     OW19522   3.428   0.768   1.540  0.0882 -0.7278  0.4202
 2629SOL    HW119523   3.333   0.759   1.544  0.0897 -1.0055 -0.2679
 2629SOL    HW219524   3.446   0.771   1.634  1.1270  1.0601  0.1457
 2630SOL     OW19525   1.513   3.798   3.853  0.4797  0.1769  0.0344
 2630SOL    HW119526   1.528   3.704   3.844  0.4341 -0.0294  2.0742
 2630SOL    HW219527   1.489   3.822   3.764 -0.9226 -1.4535 -0.0455
 2631SOL     OW19528   4.166   3.379   5.797  0.6732 -0.0873 -0.2903
 2631SOL    HW119529   4.074   3.408   5.794  0.5167 -0.4302  1.3459
 2631SOL    HW219530   4.206   3.456   5.835  1.7878  0.1068 -1.8525
 2632SOL     OW19531   1.896   2.048  13.691  0.2616 -0.7344  0.0021
 2632SOL    HW119532   1.832   1.991  13.648 -0.4446 -1.1142  1.5897
 2632SOL    HW219533   1.860   2.131  13.659 -0.9555 -2.0140 -1.9252
 2633SOL     OW19534   4.130   4.333   1.322 -0.2954  0.4259  0.4573
 2633SOL    HW119535   4.040   4.321   1.290 -0.5411  0.6734  1.0569
 2633SOL    HW219536   4.128   4.425   1.349  1.0383  0.4319  0.5021
 2634SOL     OW19537   0.523   0.586   3.735 -0.2530 -0.0373 -0.0647
 2634SOL    HW119538   0.591   0.653   3.723  0.2120 -0.2454  1.4125
 2634SOL    HW219539   0.564   0.521   3.679 -1.2928 -1.5187  0.9103
 2635SOL     OW19540   0.929   1.812  15.947 -0.5594 -0.6644  0.0605
 2635SOL    HW119541   0.962   1.878  15.887  0.5383 -0.6639  0.6473
 2635SOL    HW219542   1.013   1.788  15.986 -1.1412 -1.8086  0.6375
 2636SOL     OW19543   2.622   2.958   6.955  0.6616  0.6992 -0.6935
 2636SOL    HW119544   2.609   2.976   6.862 -1.0118  2.1860 -0.1809
 2636SOL    HW219545   2.591   2.868   6.964  0.0457  0.9729 -0.0220
 2637SOL     OW19546   1.552   1.903   6.425  0.0351  0.2835 -0.0337
 2637SOL    HW119547   1.617   1.833   6.417  1.3369  1.5377 -0.5286
 2637SOL    HW219548   1.602   1.981   6.400 -1.6530  1.7270  1.1048
 2638SOL     OW19549   2.745   3.813   2.971  0.1098  0.0372  0.4076
 2638SOL    HW119550   2.654   3.794   2.996  0.9273 -1.1262  2.5228
 2638SOL    HW219551   2.763   3.767   2.889  1.5782 -1.1461  1.3976
 2639SOL     OW19552   2.863   4.497   1.541 -0.1646  0.6834  0.2296
 2639SOL    HW119553   2.935   4.561   1.540  0.6190 -0.1966  0.4636
 2639SOL    HW219554   2.825   4.506   1.629 -0.0818 -1.5405  0.4803
 2640SOL     OW19555   3.277   0.720   2.745 -0.3586  0.0748 -0.1636
 2640SOL    HW119556   3.276   0.813   2.766 -1.1942 -0.6067  2.8121
 2640SOL    HW219557   3.262   0.716   2.651 -1.8947 -0.4452  0.0870
 2641SOL     OW19558   2.317   0.265   5.399  0.3702  0.5957 -0.3636
 2641SOL    HW119559   2.336   0.198   5.465 -0.5377 -0.4982 -1.2159
 2641SOL    HW219560   2.402   0.286   5.361  0.7040  1.5491  0.8741
 2642SOL     OW19561   3.977   3.594   2.525 -0.7852  0.1440  0.0836
 2642SOL    HW119562   3.978   3.576   2.619  0.1879 -0.9157 -0.1363
 2642SOL    HW219563   4.063   3.567   2.494 -0.6798 -0.5300  1.0040
 2643SOL     OW19564   2.978   3.124   2.377 -0.5284  0.1542  0.6323
 2643SOL    HW119565   2.927   3.084   2.306  0.7932 -1.0455  0.3444
 2643SOL    HW219566   2.978   3.218   2.358 -1.1821  0.2089  0.8959
 2644SOL     OW19567   2.974   2.955   8.447 -0.4603  0.1623 -0.4189
 2644SOL    HW119568   2.985   2.863   8.424 -0.3906 -0.6075  2.6326
 2644SOL    HW219569   2.902   2.991   8.396 -1.0568 -1.1033 -0.4581
 2645SOL     OW19570   1.449   3.608   9.081  0.3800  0.7670 -0.0032
 2645SOL    HW119571   1.369   3.596   9.131  0.5622 -2.6698 -0.5359
 2645SOL    HW219572   1.416   3.631   8.994 -0.0448  0.0769 -0.0189
 2646SOL     OW19573   1.764   3.927  16.558 -0.2471 -0.6469  0.3287
 2646SOL    HW119574   1.797   3.965  16.639  0.1082  1.4130 -0.7548
 2646SOL    HW219575   1.757   3.833  16.571 -0.3673 -0.8145 -0.8699
 2647SOL     OW19576   1.503   0.635   8.267 -0.9152  1.0284 -0.2096
 2647SOL    HW119577   1.445   0.601   8.198 -1.0920 -1.7470  1.3080
 2647SOL    HW219578   1.485   0.574   8.339  0.8315  0.5866 -0.1400
 2648SOL     OW19579   3.158   1.134  13.496 -0.7851 -0.1639 -0.1271
 2648SOL    HW119580   3.210   1.068  13.450 -0.5134 -0.2602  0.3182
 2648SOL    HW219581   3.154   1.101  13.586 -0.0991  0.3317  0.0747
 2649SOL     OW19582   3.037   2.986   3.316  0.6267 -0.6184 -0.0470
 2649SOL    HW119583   3.067   3.076   3.317 -1.2845  0.0080  2.5178
 2649SOL    HW219584   3.050   2.971   3.223  2.0404  0.3814 -0.0068
 2650SOL     OW19585   4.143   3.894  17.073  0.4543  1.0365 -0.1340
 2650SOL    HW119586   4.152   3.985  17.103 -0.2281  1.3123 -0.7675
 2650SOL    HW219587   4.058   3.867  17.108  1.3564 -2.1671 -0.4033
 2651SOL     OW19588   2.988   3.028   1.902  0.4788  0.4919  0.3970
 2651SOL    HW119589   3.074   3.006   1.938  0.5044 -0.1101 -0.0259
 2651SOL    HW219590   2.929   3.000   1.972 -0.0879 -1.3099 -0.8190
 2652SOL     OW19591   3.524   0.890   7.527  0.2447 -0.1928  0.1991
 2652SOL    HW119592   3.547   0.969   7.480 -3.8278  0.8311 -0.0863
 2652SOL    HW219593   3.584   0.828   7.486 -0.2944 -0.3647 -0.3279
 2653SOL     OW19594   3.087   0.058   3.593  0.1023 -0.4353  0.8330
 2653SOL    HW119595   3.047   0.087   3.675 -0.8914  0.7027 -0.0486
 2653SOL    HW219596   3.152   4.730   3.623  2.3041  1.8108  0.8343
 2654SOL     OW19597   0.074   0.933  11.603 -0.1115  0.0645  0.0319
 2654SOL    HW119598   0.026   0.887  11.534 -0.8024 -0.8133  1.0880
 2654SOL    HW219599   0.064   0.877  11.681  0.5716  2.1017  1.5620
 2655SOL     OW19600   3.121   0.574   1.772 -0.5256 -0.0530  0.0417
 2655SOL    HW119601   3.038   0.525   1.769  0.9431 -2.6585  1.6546
 2655SOL    HW219602   3.146   0.594   1.862  0.5461  1.6441 -0.6420
 2656SOL     OW19603   2.478   0.010  13.127 -1.1245 -0.1095  0.2099
 2656SOL    HW119604   2.454   0.086  13.074 -3.0601 -1.1985 -0.4771
 2656SOL    HW219605   2.442   0.045  13.209 -2.4159 -2.0740  0.4671
 2657SOL     OW19606   0.558   2.921   7.157  0.4745  0.6149  0.3207
 2657SOL    HW119607   0.481   2.906   7.212 -0.9197 -2.8671 -2.6069
 2657SOL    HW219608   0.630   2.913   7.220  1.7222 -1.0188 -1.3172
 2658SOL     OW19609   3.374   3.009   6.799  0.8210 -0.2650 -0.0931
 2658SOL    HW119610   3.378   2.939   6.864  0.6447 -0.6209 -0.4640
 2658SOL    HW219611   3.462   2.998   6.763  0.4927 -1.0324 -0.6538
 2659SOL     OW19612   1.105   0.091   3.603  0.0958  0.2527  0.4469
 2659SOL    HW119613   1.155   0.074   3.523 -1.8509 -0.3522 -0.6344
 2659SOL    HW219614   1.021   0.108   3.562  1.5771  1.4864 -2.0887
 2660SOL     OW19615   0.739   0.073   3.064 -0.5717  0.1384 -0.0576
 2660SOL    HW119616   0.833   0.067   3.049 -0.6957  0.6025 -1.0510
 2660SOL    HW219617   0.738   0.169   3.058  2.2782  0.3707  3.3319
 2661SOL     OW19618   2.730   1.561   3.089  0.0136 -0.0533 -0.3038
 2661SOL    HW119619   2.768   1.514   3.015  0.6910  0.5328 -0.3270
 2661SOL    HW219620   2.737   1.647   3.047 -0.3255  0.5889  0.9360
 2662SOL     OW19621   1.647   3.909   5.623  0.0323 -0.8003  0.3760
 2662SOL    HW119622   1.625   3.971   5.552 -0.1346 -1.8753 -0.5116
 2662SOL    HW219623   1.669   3.834   5.568 -1.1315  0.4647 -1.8481
 2663SOL     OW19624   3.492   4.038   2.920  0.8204  0.3207  0.5648
 2663SOL    HW119625   3.510   4.123   2.881  0.8343 -0.3664 -0.9299
 2663SOL    HW219626   3.578   4.001   2.937  0.2196 -1.9878 -1.3050
 2664SOL     OW19627   2.421   2.563  16.483 -0.0842 -0.5846  0.0913
 2664SOL    HW119628   2.425   2.525  16.395  0.7016  1.6872 -0.8720
 2664SOL    HW219629   2.475   2.498  16.528 -0.0107 -0.1742  0.5954
 2665SOL     OW19630   3.985   0.004  17.493 -0.5351 -0.3831  0.3325
 2665SOL    HW119631   3.991   4.645  17.478 -1.5497 -0.2070 -1.2750
 2665SOL    HW219632   3.987   0.030  17.400  0.7859 -0.3539  0.3772
 2666SOL     OW19633   4.076   2.082  11.441  0.5377  0.0427  0.1388
 2666SOL    HW119634   4.091   2.150  11.376 -0.6148 -0.0229 -0.1932
 2666SOL    HW219635   3.991   2.046  11.419  0.7880  0.6265 -1.7815
 2667SOL     OW19636   3.489   2.422   7.049  0.3343  0.1333 -0.4026
 2667SOL    HW119637   3.502   2.348   7.108  2.3433  1.9172  1.3916
 2667SOL    HW219638   3.564   2.426   6.990 -0.1877 -1.4651 -1.1903
 2668SOL     OW19639   0.982   1.252   4.419  0.2085 -0.0291  0.4919
 2668SOL    HW119640   1.055   1.301   4.381 -1.1647  1.9698  0.4650
 2668SOL    HW219641   0.984   1.287   4.507  1.0968  0.7783  0.1517
 2669SOL     OW19642   0.888   0.454   5.978 -0.2429  0.1543 -0.2467
 2669SOL    HW119643   0.927   0.392   5.916  1.8688  0.1536  1.1108
 2669SOL    HW219644   0.828   0.390   6.018  1.0954 -0.2496  1.1120
 2670SOL     OW19645   0.984   4.107   4.709  0.0595  0.1870 -0.3664
 2670SOL    HW119646   1.031   4.190   4.721 -1.8192  1.2083 -0.0432
 2670SOL    HW219647   1.045   4.050   4.663 -0.8199  0.7055 -2.1588
 2671SOL     OW19648   3.311   0.820   2.452  0.2519 -0.1881  0.0572
 2671SOL    HW119649   3.250   0.851   2.386 -1.2885 -3.4454 -0.0375
 2671SOL    HW219650   3.344   0.740   2.411 -1.8956 -0.9136 -0.2404
 2672SOL     OW19651   4.338   2.277  13.279  0.0640  0.0735  0.4183
 2672SOL    HW119652   4.376   2.360  13.251 -2.3865  0.9884 -0.2113
 2672SOL    HW219653   4.253   2.304  13.312 -0.4471 -2.8147  1.4869
 2673SOL     OW19654   0.290   1.582   6.854 -0.0411  0.2939  0.0645
 2673SOL    HW119655   0.366   1.568   6.797  0.7943  1.2594  0.9387
 2673SOL    HW219656   0.255   1.493   6.855 -0.7247  0.5763  0.7225
 2674SOL     OW19657   3.084   0.502   5.686  0.0684 -0.4432  0.1642
 2674SOL    HW119658   2.989   0.496   5.696  0.2949  0.6412  3.0569
 2674SOL    HW219659   3.134   0.508   5.768  1.4568  3.2280 -0.9675
 2675SOL     OW19660   4.507   0.670   4.667  0.6095  0.1918 -0.2031
 2675SOL    HW119661   4.442   0.622   4.615  0.8650  0.6540 -0.9408
 2675SOL    HW219662   4.455   0.745   4.697  0.2167  0.4300 -1.4969
 2676SOL     OW19663   4.456   4.692   3.076 -0.3066 -0.3980  0.0883
 2676SOL    HW119664   4.404   4.659   3.149 -0.0069  0.2462  0.5842
 2676SOL    HW219665   4.547   4.692   3.106  0.3381 -0.5809 -1.8667
 2677SOL     OW19666   0.988   2.973   3.220 -0.1909 -0.1866 -0.0145
 2677SOL    HW119667   0.959   2.981   3.129  1.2814 -1.2020 -0.5874
 2677SOL    HW219668   0.956   3.051   3.264  0.5091  1.3402 -2.2164
 2678SOL     OW19669   3.313   3.049   5.187  0.4347 -0.1817 -0.6082
 2678SOL    HW119670   3.256   3.091   5.251  0.3661  2.2708 -2.2708
 2678SOL    HW219671   3.260   2.971   5.169  0.9030 -0.3041 -1.4482
 2679SOL     OW19672   3.594   1.513   2.496  0.6745  0.0382  0.4570
 2679SOL    HW119673   3.598   1.422   2.525  0.8000  0.2170  0.9816
 2679SOL    HW219674   3.569   1.493   2.405  3.6040  0.2540 -0.4041
 2680SOL     OW19675   3.461   4.499  13.009  0.2562  0.1468  0.1576
 2680SOL    HW119676   3.372   4.468  12.991 -0.4959  2.8289 -0.7419
 2680SOL    HW219677   3.486   4.534  12.923  0.4140 -3.1273 -1.1240
 2681SOL     OW19678   3.413   0.037  14.616 -0.2067  0.3664 -0.0759
 2681SOL    HW119679   3.409   0.080  14.530 -3.1114  1.4299  0.5799
 2681SOL    HW219680   3.369   4.688  14.612 -1.9655  1.1754  2.2526
 2682SOL     OW19681   2.344   0.309  14.365 -0.3138 -0.3492  0.2919
 2682SOL    HW119682   2.383   0.229  14.401  0.6408  0.0651  0.1719
 2682SOL    HW219683   2.264   0.283  14.318  1.0677 -0.3980 -2.0333
 2683SOL     OW19684   4.245   0.457   2.556  0.4516 -0.0167  0.4726
 2683SOL    HW119685   4.301   0.520   2.512 -1.2004  1.1262  0.0222
 2683SOL    HW219686   4.303   0.409   2.615  2.9593  1.5407 -0.7565
 2684SOL     OW19687   1.689   0.907   3.748 -0.2491  0.3842 -0.4944
 2684SOL    HW119688   1.658   0.847   3.816 -1.1970  0.4635 -0.8458
 2684SOL    HW219689   1.777   0.874   3.732  0.9095  2.5039  1.3939
 2685SOL     OW19690   4.255   0.530  11.902  0.6300 -0.3195 -0.2142
 2685SOL    HW119691   4.268   0.469  11.829  0.7263 -1.0930  0.4518
 2685SOL    HW219692   4.182   0.494  11.953  2.8439 -3.6931  0.5901
 2686SOL     OW19693   2.250   3.984   5.932  0.3300 -0.3071  0.6772
 2686SOL    HW119694   2.227   3.910   5.989 -0.8644  0.3884  1.0959
 2686SOL    HW219695   2.341   3.958   5.922  1.0270  3.8212 -3.4532
 2687SOL     OW19696   1.655   0.255   6.795 -0.1737 -0.0694 -0.1758
 2687SOL    HW119697   1.605   0.195   6.740 -0.9822 -0.3061  0.8179
 2687SOL    HW219698   1.593   0.317   6.834  0.9192  0.9029  0.0048
 2688SOL     OW19699   4.283   3.512   2.458  0.3972 -0.0137  0.3061
 2688SOL    HW119700   4.233   3.536   2.380  1.1139  3.3528  0.8871
 2688SOL    HW219701   4.338   3.586   2.485  1.0840  0.5226 -2.6362
 2689SOL     OW19702   2.204   4.348  15.548  0.4477 -0.3978  0.3498
 2689SOL    HW119703   2.115   4.379  15.536  0.9047  0.2497 -1.4046
 2689SOL    HW219704   2.260   4.425  15.557  1.4622 -0.8239 -2.1824
 2690SOL     OW19705   0.065   3.609   6.957  0.4924  0.2613  0.1674
 2690SOL    HW119706   0.027   3.635   7.041 -1.5052 -1.0554 -0.3372
 2690SOL    HW219707   0.119   3.534   6.983 -1.2291 -0.6473  1.1228
 2691SOL     OW19708   3.094   2.251  14.457  0.4418 -0.3376 -0.2042
 2691SOL    HW119709   3.139   2.297  14.386  0.5907 -0.8501 -0.4483
 2691SOL    HW219710   3.011   2.299  14.448  0.6037  0.2770  1.6114
 2692SOL     OW19711   2.465   3.559   2.261  0.0717  0.0095 -0.0372
 2692SOL    HW119712   2.426   3.480   2.224 -1.2449  0.2683  0.8064
 2692SOL    HW219713   2.411   3.628   2.222  0.9773 -0.8016 -2.7464
 2693SOL     OW19714   3.183   2.524  11.123 -0.2402 -0.4330 -0.4807
 2693SOL    HW119715   3.152   2.439  11.093  0.3196 -1.2958  1.3620
 2693SOL    HW219716   3.253   2.488  11.177 -0.3827  1.9450  1.3164
 2694SOL     OW19717   2.409   2.145   8.849  0.0846  0.2170 -0.3827
 2694SOL    HW119718   2.431   2.179   8.935  1.9198  0.2729 -0.8664
 2694SOL    HW219719   2.406   2.229   8.804  0.6625 -0.0991 -1.0189
 2695SOL     OW19720   1.017   3.751   6.321  0.1570  0.3585 -0.1927
 2695SOL    HW119721   1.045   3.734   6.231  2.2524  0.3198  0.4718
 2695SOL    HW219722   1.014   3.846   6.312  1.4485  0.4337  0.1577
 2696SOL     OW19723   1.824   0.411   2.889  0.1375 -0.1591 -0.0326
 2696SOL    HW119724   1.864   0.368   2.813  0.7795 -1.9029  1.2912
 2696SOL    HW219725   1.737   0.371   2.889  0.6933 -1.3680 -1.3040
 2697SOL     OW19726   3.783   3.614   4.189  0.1342  0.9925  0.2771
 2697SOL    HW119727   3.766   3.604   4.095 -2.1903 -2.2248  1.0499
 2697SOL    HW219728   3.710   3.673   4.208 -1.4971 -0.7621 -0.4686
 2698SOL     OW19729   3.043   2.284   5.507  0.6617 -0.4516  0.5797
 2698SOL    HW119730   3.118   2.279   5.448  0.5496  1.1197  0.2958
 2698SOL    HW219731   3.098   2.275   5.585 -2.5746 -1.3760  2.7503
 2699SOL     OW19732   1.062   3.652   6.848 -0.3985 -0.0575  0.0059
 2699SOL    HW119733   1.016   3.736   6.853  0.3713  0.4423 -1.2382
 2699SOL    HW219734   0.990   3.603   6.808 -0.4500  1.4812 -1.8522
 2700SOL     OW19735   2.140   2.154  16.211 -0.1870  0.0778  0.3043
 2700SOL    HW119736   2.194   2.097  16.266 -1.0299  0.3236  1.3849
 2700SOL    HW219737   2.098   2.097  16.147 -0.1314  0.7608 -0.3514
 2701SOL     OW19738   2.608   3.997   0.473  0.6303  0.3822  0.7144
 2701SOL    HW119739   2.656   3.947   0.406 -0.8504 -0.2590  0.1346
 2701SOL    HW219740   2.674   3.998   0.543  1.0278 -1.6505  0.3692
 2702SOL     OW19741   1.042   0.738   8.665  0.5424  0.4914  0.1308
 2702SOL    HW119742   0.999   0.821   8.685 -0.8733 -0.1840 -0.1345
 2702SOL    HW219743   0.981   0.694   8.606  0.9429  0.9628 -0.6340
 2703SOL     OW19744   4.213   0.290   5.329 -0.5961 -0.2515 -0.4837
 2703SOL    HW119745   4.137   0.336   5.292 -0.8176 -0.3857 -0.2030
 2703SOL    HW219746   4.279   0.300   5.260  0.5048  0.0903  0.6303
 2704SOL     OW19747   1.185   2.637   8.546  0.0541  0.3151  0.7451
 2704SOL    HW119748   1.270   2.662   8.509 -0.8509 -0.2455 -1.7240
 2704SOL    HW219749   1.171   2.711   8.606  2.2077 -1.0733  2.9808
 2705SOL     OW19750   0.902   1.436   8.452  0.0658 -0.3817  0.0260
 2705SOL    HW119751   0.815   1.395   8.445  0.3309 -1.0915  0.7983
 2705SOL    HW219752   0.915   1.439   8.547 -0.8844 -1.0385  0.1836
 2706SOL     OW19753   0.884   2.854  15.146 -0.0763 -0.6110  0.4246
 2706SOL    HW119754   0.885   2.805  15.229  0.3080 -0.5906  0.4341
 2706SOL    HW219755   0.795   2.835  15.116  0.3218 -0.3178 -0.9339
 2707SOL     OW19756   0.209   2.132   3.183 -0.2184  0.1103 -0.2800
 2707SOL    HW119757   0.250   2.075   3.248  1.3416 -1.5595 -2.7280
 2707SOL    HW219758   0.162   2.062   3.137  0.9061 -1.6411  1.2606
 2708SOL     OW19759   2.347   3.801   7.537 -0.7844 -0.1882  0.0198
 2708SOL    HW119760   2.362   3.885   7.580  0.2367  0.3534 -1.3817
 2708SOL    HW219761   2.404   3.807   7.460  0.6101  1.1602  1.1737
 2709SOL     OW19762   3.898   1.346   7.481 -0.4415  0.2536  0.4020
 2709SOL    HW119763   3.934   1.341   7.393  1.4689  2.2201  1.0620
 2709SOL    HW219764   3.934   1.265   7.516 -1.5854 -0.3208  0.2459
 2710SOL     OW19765   4.409   2.633   3.456  0.9857 -0.3250  0.1713
 2710SOL    HW119766   4.444   2.547   3.476  0.5881 -0.1595  1.5696
 2710SOL    HW219767   4.486   2.672   3.415  2.2108 -1.3946  1.4754
 2711SOL     OW19768   2.970   1.735  15.067  0.2567 -0.5716 -0.4029
 2711SOL    HW119769   2.963   1.647  15.029  3.6432 -1.1013  0.2555
 2711SOL    HW219770   2.882   1.769  15.085  0.1256 -0.9393 -0.3599
 2712SOL     OW19771   3.213   1.664   0.059  0.2717  0.0143  0.1869
 2712SOL    HW119772   3.161   1.607   0.001  0.7005 -0.1713 -0.0111
 2712SOL    HW219773   3.159   1.663   0.139  0.3664 -0.4010  0.2477
 2713SOL     OW19774   0.469   1.689  15.523 -0.1086  0.0397 -0.2062
 2713SOL    HW119775   0.482   1.594  15.533  0.8541  0.1477 -0.4193
 2713SOL    HW219776   0.532   1.720  15.587 -2.2479 -1.0541  2.4247
 2714SOL     OW19777   2.193   4.308  16.396  0.6555 -0.7231 -0.3126
 2714SOL    HW119778   2.218   4.257  16.473  0.2952 -0.0478  0.2548
 2714SOL    HW219779   2.159   4.241  16.336 -0.2257 -1.5745  1.1521
 2715SOL     OW19780   4.734   0.764   4.590  0.3292 -0.5429  0.4369
 2715SOL    HW119781   4.696   0.843   4.553 -1.5973 -1.1329  1.1775
 2715SOL    HW219782   4.656   0.719   4.621 -0.1522  0.4107  0.5953
 2716SOL     OW19783   0.416   0.241  15.373  0.1111  0.1023  0.1911
 2716SOL    HW119784   0.342   0.188  15.344 -1.5697  1.5501  1.7778
 2716SOL    HW219785   0.451   0.258  15.286  0.5934  1.7173  0.7019
 2717SOL     OW19786   0.177   0.601   5.739  0.0090  0.6824  0.1285
 2717SOL    HW119787   0.113   0.531   5.727  1.2573 -0.3651 -0.3562
 2717SOL    HW219788   0.259   0.553   5.750 -0.5112 -0.1715  0.2515
 2718SOL     OW19789   2.450   0.642   4.176  0.4206  0.5152  0.0961
 2718SOL    HW119790   2.453   0.724   4.126  1.1024  1.6680  2.0499
 2718SOL    HW219791   2.540   0.611   4.168  0.1299 -0.2441 -0.1975
 2719SOL     OW19792   3.655   0.797   7.088  0.1600 -0.0340  0.3820
 2719SOL    HW119793   3.640   0.718   7.037 -1.8780 -0.4392  1.6053
 2719SOL    HW219794   3.567   0.793   7.126 -0.9026  0.1348 -2.0935
 2720SOL     OW19795   2.669   2.298   8.716 -0.0807 -0.5728 -0.3247
 2720SOL    HW119796   2.575   2.314   8.705  0.0654  0.8447  0.4643
 2720SOL    HW219797   2.679   2.211   8.678 -1.0524 -0.3142 -1.1673
 2721SOL     OW19798   0.433   4.188  16.389  1.1563 -0.7225 -0.2247
 2721SOL    HW119799   0.355   4.210  16.338  0.5639 -2.4555 -0.0475
 2721SOL    HW219800   0.482   4.270  16.375  0.5624 -0.0543  1.5706
 2722SOL     OW19801   3.520   2.791  12.550  0.0064 -0.0995 -0.5876
 2722SOL    HW119802   3.427   2.791  12.574 -0.2644  0.4045 -1.6528
 2722SOL    HW219803   3.551   2.880  12.564 -0.3743  0.1058 -1.0193
 2723SOL     OW19804   0.808   3.500   2.663  0.1680  0.2078 -0.3445
 2723SOL    HW119805   0.837   3.566   2.600  0.9488 -0.5261 -0.7585
 2723SOL    HW219806   0.894   3.459   2.679 -0.3366  0.1562  2.3236
 2724SOL     OW19807   1.992   2.061   1.451 -0.1279  0.3532  0.2096
 2724SOL    HW119808   2.068   2.005   1.461  0.0729  0.5809 -0.0519
 2724SOL    HW219809   2.021   2.135   1.505  0.0418 -0.4608  1.2309
 2725SOL     OW19810   1.794   0.005   5.561  0.2542  0.2469  0.2910
 2725SOL    HW119811   1.845   0.082   5.585  1.2377 -0.1036 -0.6732
 2725SOL    HW219812   1.717   0.056   5.537 -0.8566  0.4303  4.2740
 2726SOL     OW19813   0.523   3.487   3.283 -0.8924 -0.0556  0.8243
 2726SOL    HW119814   0.590   3.465   3.348  1.2216  3.2747 -0.2295
 2726SOL    HW219815   0.509   3.407   3.232  0.7825  1.0554 -1.4096
 2727SOL     OW19816   3.803   0.305   1.735 -0.0604  0.2261 -0.2048
 2727SOL    HW119817   3.860   0.230   1.754  1.3916  1.7196  1.2059
 2727SOL    HW219818   3.858   0.357   1.678  1.3927  1.1769  2.0944
 2728SOL     OW19819   1.104   2.154   3.778  0.1180 -0.4358 -0.5513
 2728SOL    HW119820   1.021   2.154   3.825  0.3948 -0.2395 -0.0662
 2728SOL    HW219821   1.152   2.219   3.829  0.9307  0.7446 -2.8148
 2729SOL     OW19822   4.304   4.209  14.265  0.3908  0.4140 -0.3823
 2729SOL    HW119823   4.290   4.115  14.252  0.2181  0.0665  2.3621
 2729SOL    HW219824   4.285   4.207  14.359 -0.8502  0.4877 -0.6231
 2730SOL     OW19825   1.474   1.738   7.695  0.2186 -0.5149 -0.4537
 2730SOL    HW119826   1.476   1.827   7.728  3.0577  0.0776 -2.2163
 2730SOL    HW219827   1.414   1.699   7.758  0.3638 -0.1175 -0.0747
 2731SOL     OW19828   0.188   0.267   2.863  0.3522 -0.0636  0.2978
 2731SOL    HW119829   0.109   0.262   2.808  1.1404  1.2617 -0.9562
 2731SOL    HW219830   0.243   0.325   2.812  0.2839  0.1673  0.4864
 2732SOL     OW19831   0.440   1.471  10.756 -0.0272  0.1272 -0.2679
 2732SOL    HW119832   0.506   1.408  10.726  0.4013  0.3691  0.1813
 2732SOL    HW219833   0.428   1.443  10.846  0.4304  2.1603  0.4139
 2733SOL     OW19834   2.444   3.701   9.906  0.7472 -0.2963 -0.3377
 2733SOL    HW119835   2.364   3.683   9.857  0.6869  0.0665 -0.3775
 2733SOL    HW219836   2.500   3.748   9.843  0.2693  1.9723  0.9124
 2734SOL     OW19837   0.644   0.549   6.735 -0.3895 -0.0483 -0.8094
 2734SOL    HW119838   0.682   0.591   6.812 -1.1052 -2.4088  0.8471
 2734SOL    HW219839   0.714   0.495   6.700 -0.0686  0.5443 -1.0753
 2735SOL     OW19840   3.838   1.839   9.144 -0.2100 -0.2708  0.1342
 2735SOL    HW119841   3.891   1.919   9.138  1.0816 -1.1669 -0.5734
 2735SOL    HW219842   3.907   1.780   9.175  0.6974  0.6688 -0.0783
 2736SOL     OW19843   0.599   0.448   5.006 -0.4021 -0.0099  0.0549
 2736SOL    HW119844   0.664   0.518   4.995 -0.6739  0.4936  1.7280
 2736SOL    HW219845   0.593   0.466   5.100  1.1843 -0.0019  0.1641
 2737SOL     OW19846   3.546   0.437   3.243 -0.5183  0.4707  0.3990
 2737SOL    HW119847   3.589   0.497   3.182  0.7696 -0.7227  0.1228
 2737SOL    HW219848   3.508   0.497   3.307 -2.1513 -0.2730  0.1223
 2738SOL     OW19849   3.779   2.056   8.438  0.4088 -0.0585 -0.2852
 2738SOL    HW119850   3.700   2.040   8.490  1.1586 -0.7714  0.6321
 2738SOL    HW219851   3.810   1.968   8.418  0.4482  0.2502 -1.5518
 2739SOL     OW19852   0.532   3.400  15.479 -0.0777 -0.2062  0.1793
 2739SOL    HW119853   0.503   3.477  15.431  0.0749  0.2208  0.7744
 2739SOL    HW219854   0.452   3.390  15.531  0.9604 -0.8711  1.6640
 2740SOL     OW19855   1.758   3.569   5.741 -0.2932  0.0472  0.3187
 2740SOL    HW119856   1.710   3.559   5.659  0.6041 -0.4346 -0.1454
 2740SOL    HW219857   1.710   3.632   5.794  1.3889  1.2191  0.4506
 2741SOL     OW19858   1.445   1.919   6.669  0.6795  0.2731  0.4620
 2741SOL    HW119859   1.375   1.855   6.682  1.5375 -1.1090 -1.6906
 2741SOL    HW219860   1.468   1.918   6.576  0.5748 -0.3474  0.4366
 2742SOL     OW19861   2.204   3.727   0.702 -0.1814  0.1895 -0.2332
 2742SOL    HW119862   2.221   3.814   0.665 -1.3254  0.7472  0.5253
 2742SOL    HW219863   2.170   3.740   0.791 -0.0451  1.0340 -0.3067
 2743SOL     OW19864   0.440   3.244   4.202  0.6174 -0.3217  0.2774
 2743SOL    HW119865   0.453   3.202   4.117 -0.2362  2.0955 -1.0310
 2743SOL    HW219866   0.392   3.325   4.188  0.7088 -0.2008  0.6592
 2744SOL     OW19867   0.789   3.504  17.130  0.2169  0.0127 -0.0570
 2744SOL    HW119868   0.743   3.524  17.212  1.1818 -1.4773  0.8446
 2744SOL    HW219869   0.877   3.490  17.163  0.3489 -2.0939 -1.3249
 2745SOL     OW19870   1.582   1.819   5.704 -0.7110 -0.7122 -0.5793
 2745SOL    HW119871   1.622   1.860   5.781 -2.2781 -0.3386  0.0357
 2745SOL    HW219872   1.500   1.795   5.747 -0.6240 -1.5639 -0.8875
 2746SOL     OW19873   1.821   3.849   2.539 -0.2299  0.4404 -0.0797
 2746SOL    HW119874   1.768   3.819   2.465  0.7599 -0.3595 -0.4602
 2746SOL    HW219875   1.899   3.794   2.547  1.3902  2.6448 -0.5426
 2747SOL     OW19876   1.011   2.838   8.701  0.2184  0.2104  0.2875
 2747SOL    HW119877   0.932   2.829   8.648  0.7846 -0.6209 -0.4208
 2747SOL    HW219878   0.974   2.897   8.766 -0.3995 -0.5300  0.6109
 2748SOL     OW19879   1.947   1.580   4.583  0.2223 -0.4251 -1.0266
 2748SOL    HW119880   1.925   1.595   4.675  2.9684 -1.1844 -0.2536
 2748SOL    HW219881   2.040   1.602   4.587 -0.2038  1.0661  0.3781
 2749SOL     OW19882   0.125   3.950  12.077  0.0414 -0.2156  0.1276
 2749SOL    HW119883   0.161   4.038  12.061 -0.7810  0.3013  1.0950
 2749SOL    HW219884   0.079   3.960  12.161 -2.1088 -3.1633 -0.6981
 2750SOL     OW19885   4.504   4.624   2.720  0.4822 -0.3370  0.2366
 2750SOL    HW119886   4.448   4.700   2.706 -1.2656 -1.7430 -0.3881
 2750SOL    HW219887   4.440   4.557   2.745  0.9675 -0.6211  0.7189
 2751SOL     OW19888   0.303   1.662   8.524  0.4926 -0.2723  0.0529
 2751SOL    HW119889   0.228   1.681   8.580  0.3830 -2.0167  0.4901
 2751SOL    HW219890   0.269   1.693   8.440 -1.3809 -0.4893  0.7195
 2752SOL     OW19891   2.871   4.668   0.600  0.6232 -0.6530 -0.0142
 2752SOL    HW119892   2.860   0.023   0.569 -0.9876 -1.1588 -0.9226
 2752SOL    HW219893   2.960   4.666   0.635  1.1513 -0.6561 -1.3978
 2753SOL     OW19894   4.357   2.838   4.290 -1.1161  0.3189  0.2020
 2753SOL    HW119895   4.276   2.789   4.275 -0.3878 -0.5911 -0.7667
 2753SOL    HW219896   4.336   2.853   4.382  0.6428 -2.0432  0.9717
 2754SOL     OW19897   3.119   2.391   0.595 -0.2045 -0.0375  0.0163
 2754SOL    HW119898   3.191   2.330   0.578  0.8929  1.4568 -0.6435
 2754SOL    HW219899   3.168   2.453   0.649  0.4796 -1.7544  1.3756
 2755SOL     OW19900   0.706   3.400  10.607 -0.2450 -0.0758  0.2689
 2755SOL    HW119901   0.746   3.421  10.691  1.7779  1.8027 -1.1708
 2755SOL    HW219902   0.620   3.364  10.629 -0.7927  0.4003 -1.0985
 2756SOL     OW19903   0.130   1.537   0.417  0.4494 -0.1181 -0.0741
 2756SOL    HW119904   0.085   1.513   0.498  3.7733 -1.8271  1.2464
 2756SOL    HW219905   0.218   1.555   0.448  1.0304  1.4808 -2.6534
 2757SOL     OW19906   0.282   1.706   2.504  0.5310 -0.5211 -0.0105
 2757SOL    HW119907   0.212   1.697   2.568  1.3144  0.9600  1.0638
 2757SOL    HW219908   0.292   1.614   2.481  1.5632  0.4265 -3.3953
 2758SOL     OW19909   1.410   2.873   6.861 -0.2028  0.5516 -0.3451
 2758SOL    HW119910   1.419   2.813   6.787 -0.7013  0.9927 -0.7670
 2758SOL    HW219911   1.366   2.812   6.920  1.0138 -2.2693 -2.4000
 2759SOL     OW19912   2.614   3.877  16.106  0.0756 -0.2146 -0.2656
 2759SOL    HW119913   2.552   3.950  16.108  0.5799  0.1286  2.8469
 2759SOL    HW219914   2.655   3.882  16.193 -1.2718  0.7265  0.3377
 2760SOL     OW19915   3.113   0.822   3.813 -0.3008  0.0369 -0.5729
 2760SOL    HW119916   3.124   0.908   3.773 -0.3000  0.7744  1.0011
 2760SOL    HW219917   3.205   0.800   3.826  0.0076 -0.0187 -2.8153
 2761SOL     OW19918   1.731   4.109  14.507  0.9600  0.6553  0.4438
 2761SOL    HW119919   1.737   4.193  14.553  0.6741  1.4928 -1.0603
 2761SOL    HW219920   1.673   4.135  14.436 -1.5636 -0.0019  2.2629
 2762SOL     OW19921   2.460   2.795   1.823 -0.1285  0.0850  0.2323
 2762SOL    HW119922   2.525   2.725   1.825  0.8999  1.0940  1.3374
 2762SOL    HW219923   2.506   2.860   1.770 -0.3264  0.8298  0.9804
 2763SOL     OW19924   3.689   1.746  15.254 -0.2134 -0.4374 -0.2523
 2763SOL    HW119925   3.597   1.765  15.273 -0.6571 -1.8911 -0.9764
 2763SOL    HW219926   3.729   1.833  15.262  0.9496 -0.8717 -1.3736
 2764SOL     OW19927   0.933   1.535   5.541 -0.6387  0.0019  0.0202
 2764SOL    HW119928   1.007   1.478   5.522 -0.0419  0.9740 -0.5695
 2764SOL    HW219929   0.858   1.479   5.519 -1.6889  1.8167 -0.9774
 2765SOL     OW19930   3.777   2.500   3.808 -0.2977  0.1991 -0.2605
 2765SOL    HW119931   3.751   2.592   3.815  1.2788  0.6030  0.2668
 2765SOL    HW219932   3.826   2.512   3.727 -1.9193 -0.2429 -1.3212
 2766SOL     OW19933   3.786   2.146   5.500  0.0633  0.0112 -0.2893
 2766SOL    HW119934   3.822   2.177   5.583  0.5065 -0.8409 -0.1716
 2766SOL    HW219935   3.805   2.052   5.502 -0.2175 -0.0874 -2.6508
 2767SOL     OW19936   1.615   2.838  11.249 -0.1859 -0.1704 -0.0294
 2767SOL    HW119937   1.560   2.767  11.216 -1.8839  0.5778  1.2511
 2767SOL    HW219938   1.698   2.791  11.246  0.7419  1.5003 -0.5861
 2768SOL     OW19939   2.713   1.494   9.205  0.0142 -0.0032 -0.2764
 2768SOL    HW119940   2.715   1.434   9.131 -0.2290  1.3647 -1.3941
 2768SOL    HW219941   2.649   1.444   9.256 -0.6491 -0.9828 -2.0833
 2769SOL     OW19942   4.069   1.075  10.276  0.1089 -0.0715  0.0578
 2769SOL    HW119943   3.985   1.037  10.249  1.0901 -0.8759 -1.9325
 2769SOL    HW219944   4.055   1.166  10.252 -2.5960 -0.5084  0.0087
 2770SOL     OW19945   0.153   2.687  14.059  0.1081  0.0264 -0.2351
 2770SOL    HW119946   0.094   2.724  14.125 -0.2981  0.6819 -0.9536
 2770SOL    HW219947   0.146   2.754  13.991 -1.1549 -0.6007 -0.7308
 2771SOL     OW19948   3.470   4.320  12.758  0.3473 -0.4691  0.3801
 2771SOL    HW119949   3.491   4.413  12.751 -2.1210 -0.0487 -1.4788
 2771SOL    HW219950   3.462   4.301  12.852  1.1435  0.4930  0.6399
 2772SOL     OW19951   1.722   0.788   3.202 -0.2836  0.0815 -0.3106
 2772SOL    HW119952   1.685   0.856   3.145  2.1015 -0.4142 -2.4707
 2772SOL    HW219953   1.658   0.788   3.274  0.1174  0.0822  0.0440
 2773SOL     OW19954   4.259   2.311  15.655  0.1634 -0.4882 -0.0806
 2773SOL    HW119955   4.307   2.304  15.738 -0.3495 -0.8398  0.1905
 2773SOL    HW219956   4.300   2.233  15.617  1.2603  0.5221 -0.9397
 2774SOL     OW19957   0.505   3.895   3.819  0.9536 -0.0687  0.0666
 2774SOL    HW119958   0.457   3.863   3.895  0.9533 -1.4491 -0.5198
 2774SOL    HW219959   0.555   3.821   3.785  0.8269 -1.6409  3.3210
 2775SOL     OW19960   2.673   0.725  17.403 -0.0523  0.2827  0.6505
 2775SOL    HW119961   2.710   0.645  17.439  0.7252  0.6524  0.6693
 2775SOL    HW219962   2.618   0.742  17.480  0.0252  2.2473  0.2745
 2776SOL     OW19963   2.986   0.849  11.381  0.3037 -0.0021 -0.0454
 2776SOL    HW119964   2.971   0.865  11.474  0.1449 -1.1124  0.1260
 2776SOL    HW219965   2.926   0.775  11.374  0.2037  0.0759 -0.0004
 2777SOL     OW19966   2.705   2.311   3.369 -0.1293  0.7753  0.7765
 2777SOL    HW119967   2.722   2.235   3.426 -0.2031 -0.8421 -1.3542
 2777SOL    HW219968   2.699   2.282   3.278  2.0014  0.9360  0.6007
 2778SOL     OW19969   1.104   4.593  12.821 -0.4514  0.5125 -0.1459
 2778SOL    HW119970   1.070   4.673  12.779  2.9610  1.4682 -1.0639
 2778SOL    HW219971   1.043   4.571  12.891  2.0556  4.1466  3.1703
 2779SOL     OW19972   4.106   4.173   3.990  0.2914 -0.0297 -0.0525
 2779SOL    HW119973   4.076   4.220   4.067 -0.8107  0.1315 -0.5874
 2779SOL    HW219974   4.078   4.236   3.924 -0.4432  0.9502  1.1947
 2780SOL     OW19975   0.712   3.113   9.038  0.3489 -0.7867 -0.3664
 2780SOL    HW119976   0.620   3.109   9.013  0.1572  0.9593  0.0313
 2780SOL    HW219977   0.740   3.193   8.992 -0.2933 -0.9469 -1.0369
 2781SOL     OW19978   0.907   2.504   1.931  0.1726 -0.0704 -0.2656
 2781SOL    HW119979   0.887   2.559   1.855  1.0055  0.1114 -0.3590
 2781SOL    HW219980   0.852   2.541   2.000  1.4255  0.1346  0.6235
 2782SOL     OW19981   3.402   0.438   8.059  0.3150  0.7831 -0.5395
 2782SOL    HW119982   3.433   0.412   8.146  0.7800  2.3971 -0.2221
 2782SOL    HW219983   3.458   0.374   8.014  0.6486 -0.1201  1.1537
 2783SOL     OW19984   3.783   2.127   4.654  0.0238  0.3612 -0.0825
 2783SOL    HW119985   3.737   2.163   4.579 -0.8900  0.6114  0.6033
 2783SOL    HW219986   3.713   2.074   4.694  0.7248  0.6101  1.4994
 2784SOL     OW19987   2.012   2.136   2.028 -0.4151 -0.2776  0.0735
 2784SOL    HW119988   1.934   2.186   2.051  0.0493 -0.2817  1.7008
 2784SOL    HW219989   2.051   2.196   1.964  0.4047  0.5949  1.3840
 2785SOL     OW19990   1.212   3.881  13.549  0.4541 -0.2472 -0.4364
 2785SOL    HW119991   1.249   3.916  13.468  1.5932 -3.1142 -1.1319
 2785SOL    HW219992   1.136   3.940  13.553 -1.2665 -2.3490 -1.6465
 2786SOL     OW19993   1.157   2.718  14.049 -0.2305 -0.0336  0.3994
 2786SOL    HW119994   1.215   2.752  13.981 -0.5484 -1.3592 -0.5340
 2786SOL    HW219995   1.070   2.743  14.019 -0.1020 -1.8867 -1.5354
 2787SOL     OW19996   4.299   0.685  12.120 -0.2914 -0.0221 -0.6465
 2787SOL    HW119997   4.245   0.760  12.097  0.1745  0.1265 -1.2333
 2787SOL    HW219998   4.281   0.622  12.050 -3.0958 -1.2872  1.1619
 2788SOL     OW19999   2.473   3.347  12.267 -0.3364 -0.0912 -0.0240
 2788SOL    HW120000   2.460   3.442  12.275  2.6182  0.2531  0.6315
 2788SOL    HW220001   2.421   3.314  12.340  1.3899 -1.3318  0.6294
 2789SOL     OW20002   4.120   2.855   9.429 -0.4666 -0.0066 -0.1622
 2789SOL    HW120003   4.094   2.902   9.508  1.2335 -0.4773  0.6711
 2789SOL    HW220004   4.064   2.778   9.437 -0.0714 -0.1730  1.0689
 2790SOL     OW20005   3.665   4.092   0.844 -0.5700  0.2906 -0.1272
 2790SOL    HW120006   3.754   4.061   0.828 -0.2020  2.7442 -2.6602
 2790SOL    HW220007   3.630   4.066   0.759  0.2854  2.4067 -1.1057
 2791SOL     OW20008   3.030   0.879   8.461 -0.1212  0.2433 -0.5266
 2791SOL    HW120009   2.944   0.877   8.503 -0.1807  0.9736 -0.6140
 2791SOL    HW220010   3.014   0.850   8.371  0.4160 -2.2303  0.1788
 2792SOL     OW20011   2.389   2.715   5.710  0.1685 -0.5127  0.0822
 2792SOL    HW120012   2.391   2.657   5.634 -1.3156 -0.8283  0.2809
 2792SOL    HW220013   2.357   2.654   5.776 -1.2873 -1.1366 -1.2176
 2793SOL     OW20014   3.583   2.300  11.313  0.6351  0.3685  0.2471
 2793SOL    HW120015   3.554   2.349  11.390 -0.0110 -0.3014  0.4313
 2793SOL    HW220016   3.536   2.217  11.322 -2.2548  1.9829  0.0908
 2794SOL     OW20017   1.877   4.513   8.167  0.5405  0.4956  0.3592
 2794SOL    HW120018   1.954   4.535   8.114 -0.0397  1.8829  0.0904
 2794SOL    HW220019   1.840   4.440   8.119  1.8477 -0.9169  1.5094
 2795SOL     OW20020   3.662   1.902   8.171  0.1455  0.4867 -0.4097
 2795SOL    HW120021   3.732   1.885   8.234  0.8284 -0.5448 -1.4587
 2795SOL    HW220022   3.604   1.833   8.203  1.7491  0.2449  2.0206
 2796SOL     OW20023   1.626   2.092   8.628 -0.0532 -0.1560 -0.3498
 2796SOL    HW120024   1.674   2.138   8.697 -1.3753 -0.6078  0.8859
 2796SOL    HW220025   1.612   2.164   8.566 -0.5833 -0.2250 -0.3134
 2797SOL     OW20026   2.524   2.370  14.961 -0.2506  0.2906  0.1530
 2797SOL    HW120027   2.611   2.407  14.971 -0.4302  0.7546  0.0333
 2797SOL    HW220028   2.480   2.402  15.040  1.1357 -0.0059  1.0427
 2798SOL     OW20029   3.265   1.005   1.791 -0.1378  0.0197 -0.1171
 2798SOL    HW120030   3.298   1.061   1.861 -1.2109  1.1738 -0.5525
 2798SOL    HW220031   3.290   1.041   1.706  0.5169  0.6011  0.3263
 2799SOL     OW20032   1.499   4.169   3.422 -0.5637 -0.2268  0.0738
 2799SOL    HW120033   1.517   4.258   3.453 -0.8525 -0.1797  0.1024
 2799SOL    HW220034   1.548   4.164   3.340  1.2118  2.5825  0.9510
 2800SOL     OW20035   4.369   0.784   1.703 -0.0477  0.1130  0.6025
 2800SOL    HW120036   4.398   0.704   1.747 -0.5365 -2.0749 -2.9764
 2800SOL    HW220037   4.409   0.848   1.761 -0.7248  0.2061  0.9725
 2801SOL     OW20038   3.399   0.356  14.547  0.3250 -0.2176 -0.4575
 2801SOL    HW120039   3.378   0.379  14.456  0.8138 -0.1541 -0.5497
 2801SOL    HW220040   3.308   0.335  14.570  0.8721 -0.8514  1.1003
 2802SOL     OW20041   0.689   4.069  13.105  0.4516 -0.7531 -0.0936
 2802SOL    HW120042   0.674   4.163  13.110 -4.3177 -1.6185  1.4558
 2802SOL    HW220043   0.628   4.057  13.032  1.6898 -1.4629 -1.0076
 2803SOL     OW20044   4.204   3.527  11.247  0.6851  0.0547 -0.6032
 2803SOL    HW120045   4.130   3.474  11.276  0.1494  1.0341 -0.1825
 2803SOL    HW220046   4.238   3.560  11.331  0.9506  2.1382 -1.5193
 2804SOL     OW20047   3.463   1.170   0.429  0.5140 -0.5647  0.0344
 2804SOL    HW120048   3.395   1.200   0.490  1.3613 -1.3237  1.3482
 2804SOL    HW220049   3.488   1.258   0.399 -0.8209 -0.7462 -1.6282
 2805SOL     OW20050   2.056   3.364   7.210 -0.1867  0.9678 -0.1746
 2805SOL    HW120051   2.138   3.404   7.239  0.7101 -2.1571  1.6199
 2805SOL    HW220052   2.064   3.277   7.250  0.9601  0.4060 -1.6295
 2806SOL     OW20053   4.557   1.930   5.254 -0.0334 -0.4078 -0.1454
 2806SOL    HW120054   4.569   1.884   5.337 -0.7063 -0.6631 -0.1868
 2806SOL    HW220055   4.588   1.868   5.188 -2.6848  0.5456 -2.2863
 2807SOL     OW20056   3.462   4.130   3.897 -0.5660  0.2475 -0.5193
 2807SOL    HW120057   3.553   4.103   3.900 -0.4770  0.5211 -0.7068
 2807SOL    HW220058   3.424   4.051   3.859  0.6398 -0.5373 -0.0869
 2808SOL     OW20059   1.804   0.285  12.983 -0.3852  0.2309  0.2252
 2808SOL    HW120060   1.776   0.288  13.074 -4.2897  1.1820 -0.9796
 2808SOL    HW220061   1.856   0.206  12.972 -0.1106  0.7290 -2.2656
 2809SOL     OW20062   3.702   0.740   7.392  0.1816  0.1279  0.1840
 2809SOL    HW120063   3.724   0.664   7.446 -0.3064 -0.8111 -0.9520
 2809SOL    HW220064   3.732   0.715   7.304 -2.0467 -4.4228  0.7069
 2810SOL     OW20065   2.309   1.129   6.401  0.4244  0.1899 -0.0540
 2810SOL    HW120066   2.255   1.157   6.475 -1.0857 -0.8972 -0.7271
 2810SOL    HW220067   2.305   1.215   6.359  1.3195 -0.6415 -1.8029
 2811SOL     OW20068   1.527   0.062   5.999 -0.7852  0.4291 -0.0964
 2811SOL    HW120069   1.486   0.007   5.932 -0.6159 -0.7924  0.7980
 2811SOL    HW220070   1.474   0.050   6.077  2.0451 -0.7937  1.6146
 2812SOL     OW20071   0.154   2.822   3.356 -0.1145  0.0048  0.7205
 2812SOL    HW120072   0.170   2.730   3.336  0.7124  0.4866 -0.8346
 2812SOL    HW220073   0.105   2.840   3.275  0.7746  1.0394  0.4229
 2813SOL     OW20074   3.831   0.080   3.063  0.1159 -0.0770 -0.9471
 2813SOL    HW120075   3.761   0.084   2.997 -3.2907 -4.1212  2.5059
 2813SOL    HW220076   3.787   0.026   3.128 -0.3966  1.4077 -0.0467
 2814SOL     OW20077   0.657   2.530  15.446 -0.3516  0.2957  0.6841
 2814SOL    HW120078   0.655   2.496  15.356 -0.0943 -2.7930  1.8332
 2814SOL    HW220079   0.692   2.617  15.428 -0.5057  0.3003  0.4146
 2815SOL     OW20080   0.491   1.191   2.618  0.0876  0.0922 -0.1497
 2815SOL    HW120081   0.446   1.111   2.590  1.4439 -0.7181  0.0382
 2815SOL    HW220082   0.457   1.198   2.708  0.9942  0.1435  0.1824
 2816SOL     OW20083   1.582   4.252   9.244  0.3004  0.1752 -0.1789
 2816SOL    HW120084   1.638   4.200   9.186 -1.0131 -1.0344 -0.3533
 2816SOL    HW220085   1.615   4.341   9.233  0.3436  0.3577  1.4353
 2817SOL     OW20086   0.059   2.635   6.592 -0.3311  0.2792  0.0863
 2817SOL    HW120087   0.078   2.554   6.639 -2.3237 -0.9798 -1.2877
 2817SOL    HW220088   0.063   2.700   6.662  0.3777  1.2281 -0.8182
 2818SOL     OW20089   3.417   0.934   1.080  0.4426 -0.2475 -1.0617
 2818SOL    HW120090   3.426   0.900   1.169  2.5802 -0.3837 -1.3144
 2818SOL    HW220091   3.338   0.987   1.087  0.2211 -0.5873 -1.0039
 2819SOL     OW20092   0.260   2.109  14.527 -0.0694 -0.1193  0.2002
 2819SOL    HW120093   0.228   2.193  14.559 -1.7781 -0.3690 -0.8969
 2819SOL    HW220094   0.294   2.068  14.607 -1.3787  1.5453  1.6101
 2820SOL     OW20095   1.308   1.639   7.911  0.3410  0.1247  0.3684
 2820SOL    HW120096   1.220   1.671   7.932 -0.7213 -1.0978 -2.2990
 2820SOL    HW220097   1.350   1.630   7.997  3.0301 -0.8695 -1.0254
 2821SOL     OW20098   4.396   3.387  14.985 -0.4504 -0.4062 -0.3117
 2821SOL    HW120099   4.335   3.427  14.924 -0.6952 -0.7996 -0.3234
 2821SOL    HW220100   4.337   3.322  15.023  1.1022 -0.2737  2.2786
 2822SOL     OW20101   2.764   3.656  17.086 -0.0304 -0.1992  0.2590
 2822SOL    HW120102   2.763   3.697  16.999  1.7217  1.3984  1.0087
 2822SOL    HW220103   2.771   3.736  17.138 -0.5767  0.8746 -1.3032
 2823SOL     OW20104   0.760   2.279  11.325 -0.4478  0.2612 -0.1702
 2823SOL    HW120105   0.828   2.289  11.392  1.7348 -0.2108 -2.3105
 2823SOL    HW220106   0.682   2.321  11.360  0.5508 -0.0557  2.4185
 2824SOL     OW20107   0.367   0.229  12.803  0.3333 -0.3797 -0.0764
 2824SOL    HW120108   0.381   0.314  12.761  1.1490 -0.4707  0.0084
 2824SOL    HW220109   0.282   0.203  12.768 -0.1704 -1.4818  2.0264
 2825SOL     OW20110   3.361   3.345   9.142 -0.3226 -0.0614 -0.0761
 2825SOL    HW120111   3.287   3.405   9.153 -1.7406 -1.5813 -1.3987
 2825SOL    HW220112   3.322   3.285   9.079  1.9479 -2.2803  0.6437
 2826SOL     OW20113   2.050   1.937  16.509  0.2190  0.2534  0.1116
 2826SOL    HW120114   2.021   1.898  16.427 -0.0547  0.4499  0.1144
 2826SOL    HW220115   2.123   1.874  16.512 -0.0529 -0.0743 -0.2660
 2827SOL     OW20116   2.974   3.790  10.524 -0.0997 -0.3342 -0.1492
 2827SOL    HW120117   2.878   3.786  10.515 -0.2878  2.3970  0.4508
 2827SOL    HW220118   3.001   3.851  10.455 -0.4678 -0.3028 -0.2664
 2828SOL     OW20119   0.316   0.719   6.617  0.4499  0.4162 -0.6468
 2828SOL    HW120120   0.244   0.718   6.554 -0.4299 -0.3468  0.3825
 2828SOL    HW220121   0.306   0.631   6.653 -1.7375  1.4134  1.1543
 2829SOL     OW20122   1.570   0.870  14.708 -0.8435 -0.4683 -0.4725
 2829SOL    HW120123   1.522   0.891  14.628  0.6566  0.6979 -1.0607
 2829SOL    HW220124   1.628   0.799  14.679 -1.5063 -0.9611 -0.5734
 2830SOL     OW20125   1.186   3.964   5.182 -0.3475  0.0841 -0.1199
 2830SOL    HW120126   1.151   3.929   5.100 -1.0367  0.1485  0.1456
 2830SOL    HW220127   1.253   3.903   5.214 -1.6997 -0.1797  2.1838
 2831SOL     OW20128   3.891   2.021  17.174  0.3038  0.6027 -0.4535
 2831SOL    HW120129   3.900   1.931  17.145  0.3143 -0.4135  2.6988
 2831SOL    HW220130   3.818   2.007  17.235  0.0345  2.3873 -0.3435
 2832SOL     OW20131   2.147   2.573  16.935 -0.3113 -0.5310 -0.1468
 2832SOL    HW120132   2.178   2.578  16.845  0.7026  0.4674  0.2579
 2832SOL    HW220133   2.118   2.483  16.947  0.8523 -0.7766  0.7409
 2833SOL     OW20134   0.826   2.231   6.222  0.3034 -0.2062  0.2058
 2833SOL    HW120135   0.858   2.192   6.141  0.6445  0.5004  0.0020
 2833SOL    HW220136   0.800   2.315   6.186  1.2953 -0.5070 -1.2168
 2834SOL     OW20137   2.986   2.089   5.745  0.0451 -0.2734  0.0539
 2834SOL    HW120138   3.035   2.128   5.817 -0.3759  0.7850 -0.2191
 2834SOL    HW220139   2.955   2.171   5.707 -0.4785 -1.6395 -2.4831
 2835SOL     OW20140   1.865   2.319   4.776  0.0612  0.0243  0.4097
 2835SOL    HW120141   1.824   2.382   4.716 -1.4790  0.2557  1.6929
 2835SOL    HW220142   1.933   2.276   4.725  0.1409 -1.2020  1.5283
 2836SOL     OW20143   1.719   4.716   7.383 -0.1367 -0.4979 -0.5420
 2836SOL    HW120144   1.681   4.717   7.295  1.6230 -0.7251 -1.3043
 2836SOL    HW220145   1.644   4.730   7.441 -0.6803  0.8139 -1.5559
 2837SOL     OW20146   3.471   4.198   9.991  0.0786  0.0287  0.0927
 2837SOL    HW120147   3.448   4.188   9.898 -0.5201  0.3224  0.2101
 2837SOL    HW220148   3.471   4.293   9.993 -1.1231  0.0081  1.0368
 2838SOL     OW20149   3.337   3.515  16.077 -0.1636  0.4230 -0.5400
 2838SOL    HW120150   3.424   3.514  16.117 -1.0772 -1.7632  1.3853
 2838SOL    HW220151   3.284   3.551  16.148 -1.0302 -0.8427 -0.5397
 2839SOL     OW20152   2.384   3.174   4.553 -0.3563 -0.2522  0.2066
 2839SOL    HW120153   2.350   3.157   4.641 -0.5799  0.0856  0.1854
 2839SOL    HW220154   2.352   3.106   4.494  0.1562 -0.6777  0.4259
 2840SOL     OW20155   3.350   0.776   4.752 -0.2278  0.6058 -0.4754
 2840SOL    HW120156   3.290   0.851   4.757 -2.4563 -1.1826 -0.8133
 2840SOL    HW220157   3.437   0.818   4.758 -1.4233  2.9524  0.4705
 2841SOL     OW20158   1.296   3.826   6.721  0.0539  0.1432 -0.0677
 2841SOL    HW120159   1.242   3.852   6.646  1.9094  0.4864 -1.2714
 2841SOL    HW220160   1.245   3.750   6.751  0.4927 -0.7992 -1.7145
 2842SOL     OW20161   4.394   4.247   7.456  0.4758 -0.2508 -0.3117
 2842SOL    HW120162   4.356   4.241   7.544  0.2004  1.0123 -0.3500
 2842SOL    HW220163   4.379   4.338   7.430  0.8509  0.4962  2.0567
 2843SOL     OW20164   1.772   4.285  11.974  0.2353  0.5105 -0.1641
 2843SOL    HW120165   1.700   4.338  11.939  0.6566  0.7548 -0.6657
 2843SOL    HW220166   1.748   4.257  12.062 -3.2331  0.4645 -1.0964
 2844SOL     OW20167   2.779   2.577   3.346 -0.3990  0.4581 -0.1140
 2844SOL    HW120168   2.755   2.485   3.352  0.3234  0.2482 -0.4658
 2844SOL    HW220169   2.764   2.605   3.437 -1.0818 -0.1128 -0.0504
 2845SOL     OW20170   2.650   4.191   0.971 -0.3275 -0.0843 -0.7451
 2845SOL    HW120171   2.613   4.243   1.042 -0.3366 -0.0664 -0.7628
 2845SOL    HW220172   2.622   4.243   0.896 -0.1110 -0.2605 -0.9477
 2846SOL     OW20173   3.076   1.144   8.413  0.0713 -0.0602  0.0042
 2846SOL    HW120174   2.984   1.121   8.396  0.0737  0.0909 -0.2181
 2846SOL    HW220175   3.115   1.062   8.444 -3.9959 -1.9251  0.1972
 2847SOL     OW20176   4.495   1.795   4.042  0.4978  0.2925 -0.1449
 2847SOL    HW120177   4.527   1.787   3.952 -1.9177 -0.4449 -0.9247
 2847SOL    HW220178   4.440   1.873   4.029 -1.5161 -1.2489 -0.8463
 2848SOL     OW20179   4.025   1.707   7.741 -0.0988 -0.3237 -0.1015
 2848SOL    HW120180   3.943   1.673   7.777  0.7726 -1.2991  0.9426
 2848SOL    HW220181   4.082   1.630   7.744 -0.0942 -0.2011  3.0624
 2849SOL     OW20182   0.112   3.856   6.045  0.3195 -0.2511  0.5002
 2849SOL    HW120183   0.062   3.792   5.993 -0.3974  0.8925 -0.2331
 2849SOL    HW220184   0.133   3.794   6.114  1.1801 -1.1525 -0.5604
 2850SOL     OW20185   2.646   4.284  17.228  0.1150 -0.2210  0.6579
 2850SOL    HW120186   2.586   4.317  17.294  0.3318  0.7314  0.3747
 2850SOL    HW220187   2.608   4.321  17.148  0.8094  0.3549  0.5953
 2851SOL     OW20188   4.399   3.725  17.210 -0.2637  0.1493 -0.0110
 2851SOL    HW120189   4.376   3.800  17.264  1.9101 -0.9074  2.3783
 2851SOL    HW220190   4.362   3.750  17.125 -0.4796  2.3435  0.7419
 2852SOL     OW20191   2.770   0.439   5.938 -0.0786  0.2847  0.3120
 2852SOL    HW120192   2.779   0.527   5.899 -0.1012 -0.0104 -0.3684
 2852SOL    HW220193   2.742   0.467   6.025  1.1118 -0.2984  0.8746
 2853SOL     OW20194   4.119   2.794  14.616 -0.3165  0.4701 -0.5925
 2853SOL    HW120195   4.073   2.747  14.547 -1.6023 -0.0340  0.6057
 2853SOL    HW220196   4.051   2.851  14.652 -0.1931  1.0734 -1.3089
 2854SOL     OW20197   3.298   1.550   9.841  0.1786 -0.5020  0.0020
 2854SOL    HW120198   3.267   1.636   9.868 -2.3031 -0.8638 -1.7042
 2854SOL    HW220199   3.394   1.558   9.841 -0.0188  1.6674  2.1079
 2855SOL     OW20200   3.093   2.600   1.816 -0.3398 -0.4192 -0.3316
 2855SOL    HW120201   3.023   2.651   1.776 -0.2376 -0.8022 -1.0051
 2855SOL    HW220202   3.059   2.578   1.903 -0.9637  2.1323  0.0691
 2856SOL     OW20203   2.422   4.696   0.313  0.2773 -0.2770 -0.1573
 2856SOL    HW120204   2.331   4.678   0.287 -0.0914  1.0999  0.1973
 2856SOL    HW220205   2.472   4.616   0.296  0.2347  0.0169 -1.7261
 2857SOL     OW20206   3.404   2.367   8.273 -0.3360 -0.3520  0.5056
 2857SOL    HW120207   3.492   2.378   8.308 -0.0774  3.0601 -1.3076
 2857SOL    HW220208   3.351   2.426   8.327  1.8298  1.1067  1.0369
 2858SOL     OW20209   3.956   2.986   4.250 -0.0053  0.3058  0.3439
 2858SOL    HW120210   3.894   2.948   4.187  0.0559 -2.2176  1.8127
 2858SOL    HW220211   3.908   2.963   4.330 -1.6715 -0.1352 -0.7721
 2859SOL     OW20212   3.096   2.926  14.109  0.0970  0.2563 -0.5412
 2859SOL    HW120213   3.064   2.986  14.177  0.8181 -0.0279  0.0444
 2859SOL    HW220214   3.044   2.846  14.119  1.3009 -0.5132 -0.4173
 2860SOL     OW20215   3.861   1.659   4.737  0.5526  0.3038  0.6125
 2860SOL    HW120216   3.866   1.566   4.715  0.7902  0.5247 -0.2590
 2860SOL    HW220217   3.931   1.688   4.679 -0.0603 -0.5167 -0.5487
 2861SOL     OW20218   0.129   1.854   6.028 -0.0854  0.1603 -0.5502
 2861SOL    HW120219   0.182   1.933   6.015 -0.5436  0.4699 -0.5551
 2861SOL    HW220220   0.038   1.882   6.016 -0.3462 -0.8810 -1.0056
 2862SOL     OW20221   2.289   4.323   3.270 -0.1447  0.3616 -0.0970
 2862SOL    HW120222   2.257   4.350   3.356 -2.4800 -1.2050 -0.4566
 2862SOL    HW220223   2.371   4.284   3.299  0.1055  0.2416 -0.9700
 2863SOL     OW20224   3.304   2.652  13.934 -0.0351 -0.4472 -0.2669
 2863SOL    HW120225   3.335   2.738  13.959 -0.5462 -0.6037  0.9254
 2863SOL    HW220226   3.225   2.648  13.988 -0.8655 -3.6807 -1.6641
 2864SOL     OW20227   3.840   0.486   6.813  0.0537  0.2273 -0.3874
 2864SOL    HW120228   3.778   0.499   6.741 -0.6198 -0.0185  0.1407
 2864SOL    HW220229   3.798   0.409   6.851 -1.8449  0.1477 -2.6497
 2865SOL     OW20230   2.329   1.692   7.239 -0.1256 -0.1315  0.8070
 2865SOL    HW120231   2.350   1.785   7.247  0.7796 -0.5000  2.5842
 2865SOL    HW220232   2.350   1.661   7.327 -1.7339 -0.7362  0.9759
 2866SOL     OW20233   3.833   1.081   8.899  0.1671  0.4598  0.0277
 2866SOL    HW120234   3.852   1.059   8.807 -0.1836 -1.7372  0.4760
 2866SOL    HW220235   3.923   1.094   8.927 -0.6635  0.8269  2.4982
 2867SOL     OW20236   4.427   4.462   6.577  0.2730 -0.2723  0.5393
 2867SOL    HW120237   4.410   4.528   6.644  0.0986  2.0685 -1.7715
 2867SOL    HW220238   4.346   4.418   6.551  0.1626 -0.0981  0.5943
 2868SOL     OW20239   4.581   4.579   7.895 -0.0799  0.0592  0.0873
 2868SOL    HW120240   4.521   4.653   7.885  1.5408  1.4265  0.5181
 2868SOL    HW220241   4.643   4.586   7.823 -3.7993  2.4427 -2.9342
 2869SOL     OW20242   4.046   4.682  13.335  0.1762 -0.3656  0.4816
 2869SOL    HW120243   3.951   4.676  13.339  0.0070  1.2134 -1.0015
 2869SOL    HW220244   4.064   0.034  13.369 -0.6115  0.3671 -0.9715
 2870SOL     OW20245   3.688   1.797   4.957  0.0699  0.4308 -0.0869
 2870SOL    HW120246   3.748   1.860   4.997 -0.7472  0.8965  0.4017
 2870SOL    HW220247   3.722   1.782   4.869 -2.2926 -3.0061 -0.4251
 2871SOL     OW20248   2.868   3.737   4.821 -0.0330  0.3313  0.1270
 2871SOL    HW120249   2.874   3.707   4.731  0.9749 -0.4864  0.4577
 2871SOL    HW220250   2.908   3.824   4.813  1.0009  0.0403  1.9162
 2872SOL     OW20251   2.548   2.344   3.960  0.0610 -0.1483 -0.1167
 2872SOL    HW120252   2.510   2.416   3.911  0.2096  0.9678  1.3881
 2872SOL    HW220253   2.474   2.284   3.961  0.4998 -0.6710  0.9908
 2873SOL     OW20254   4.356   0.737  14.286  0.0149 -0.0789 -0.6639
 2873SOL    HW120255   4.374   0.822  14.247 -0.5707 -0.1587 -1.1091
 2873SOL    HW220256   4.351   0.689  14.204  1.5274  0.3245 -0.9834
 2874SOL     OW20257   0.182   1.864   1.856  0.4549  0.0834 -0.7891
 2874SOL    HW120258   0.256   1.916   1.886 -1.4841  1.9225  0.8418
 2874SOL    HW220259   0.111   1.924   1.881 -0.1596 -0.4704 -1.1972
 2875SOL     OW20260   3.859   4.030   8.323  0.3915 -0.4789 -0.2037
 2875SOL    HW120261   3.866   3.948   8.274 -0.9242  0.7406 -2.4415
 2875SOL    HW220262   3.794   4.080   8.273 -2.6190 -1.1765  3.0297
 2876SOL     OW20263   2.605   4.516   9.608  0.1444 -0.2701  0.1460
 2876SOL    HW120264   2.516   4.528   9.642  0.5521  1.0481  0.7345
 2876SOL    HW220265   2.651   4.474   9.681 -1.1438  0.4885  1.3763
 2877SOL     OW20266   2.068   0.223   8.005  0.2890  0.3907  0.2120
 2877SOL    HW120267   2.147   0.277   8.016 -0.0964  1.1510 -0.8006
 2877SOL    HW220268   2.033   0.237   8.093 -1.1862 -3.0743  0.2015
 2878SOL     OW20269   2.341   4.232  16.881  0.0915  0.4346  1.0800
 2878SOL    HW120270   2.382   4.148  16.900  0.9416  0.2757 -1.5421
 2878SOL    HW220271   2.344   4.233  16.786  0.8186 -1.5074  1.0858
 2879SOL     OW20272   0.631   0.805  15.291 -0.3426  0.5750 -0.5891
 2879SOL    HW120273   0.584   0.807  15.374  0.1287  0.6437 -0.3272
 2879SOL    HW220274   0.673   0.721  15.309 -1.0538 -0.1868 -2.3747
 2880SOL     OW20275   1.959   3.624   8.117 -0.4235  0.0676 -0.5466
 2880SOL    HW120276   1.883   3.567   8.130 -1.5831  1.4035 -1.4503
 2880SOL    HW220277   2.024   3.557   8.138 -2.6575 -2.6997 -2.3374
 2881SOL     OW20278   3.121   1.066  12.522  0.2763 -0.2486  0.2240
 2881SOL    HW120279   3.183   1.008  12.476 -0.0223 -0.1333 -0.3284
 2881SOL    HW220280   3.178   1.141  12.541 -1.0086  1.6716 -3.4586
 2882SOL     OW20281   4.201   0.969   3.759 -0.2994  0.2580  0.5528
 2882SOL    HW120282   4.282   0.918   3.761 -0.4917 -0.1221 -1.7334
 2882SOL    HW220283   4.224   1.039   3.820 -1.7996  0.6050  0.7217
 2883SOL     OW20284   3.093   1.257  17.131 -0.0412  0.0968  0.2313
 2883SOL    HW120285   3.038   1.211  17.194  1.5397 -2.2379 -0.0965
 2883SOL    HW220286   3.172   1.204  17.131 -0.4221 -0.4846  1.6025
 2884SOL     OW20287   3.985   2.566   9.928 -0.3183  0.2828  0.0982
 2884SOL    HW120288   4.076   2.584   9.950 -0.4170  0.7238  0.1537
 2884SOL    HW220289   3.988   2.497   9.862  1.0735 -0.1671  0.6487
 2885SOL     OW20290   2.854   4.523   1.069 -0.4651  0.2308 -0.4375
 2885SOL    HW120291   2.935   4.573   1.056 -1.4332  0.7825 -4.2809
 2885SOL    HW220292   2.876   4.432   1.048 -0.2459  0.4491 -1.1505
 2886SOL     OW20293   4.490   1.899   7.329 -0.1419 -0.2740 -0.1782
 2886SOL    HW120294   4.443   1.948   7.261  1.6409  2.3931  0.5228
 2886SOL    HW220295   4.441   1.818   7.314  2.0395 -1.9862  2.0739
 2887SOL     OW20296   3.420   3.770  15.887 -0.1398 -0.4081  0.6858
 2887SOL    HW120297   3.421   3.714  15.964  2.6605 -0.6512  0.4621
 2887SOL    HW220298   3.464   3.850  15.916 -0.7597  0.6912 -1.4262
 2888SOL     OW20299   1.167   4.571   1.770 -0.0273  0.0887 -0.3941
 2888SOL    HW120300   1.258   4.594   1.788 -0.1870  0.9306 -0.6187
 2888SOL    HW220301   1.127   4.659   1.776 -1.0018 -0.3745 -0.0203
 2889SOL     OW20302   3.182   0.173  10.627 -0.2189  0.0816 -0.2877
 2889SOL    HW120303   3.188   0.268  10.633 -0.7883  0.0786  0.3039
 2889SOL    HW220304   3.217   0.141  10.543  0.3175  0.7746 -0.3230
 2890SOL     OW20305   1.075   3.912   2.978  0.3039  0.0044  0.3817
 2890SOL    HW120306   1.054   3.999   3.011  1.3390  0.6628 -0.6807
 2890SOL    HW220307   1.019   3.898   2.902 -0.5743 -0.0089  1.0429
 2891SOL     OW20308   1.149   3.638  16.564  0.7711  0.6506 -0.0402
 2891SOL    HW120309   1.075   3.607  16.512 -1.6502  2.4614  2.3343
 2891SOL    HW220310   1.108   3.715  16.604 -1.4754 -1.8166  2.3515
 2892SOL     OW20311   1.745   4.346   3.805  0.1164 -0.4628  0.5588
 2892SOL    HW120312   1.736   4.436   3.837 -1.9539 -0.9664  1.3968
 2892SOL    HW220313   1.789   4.313   3.883  0.0807 -2.4611 -0.2660
 2893SOL     OW20314   0.010   0.189   4.210  0.4764  0.2271  0.0339
 2893SOL    HW120315   4.670   0.240   4.180  0.1257 -1.7642 -2.4799
 2893SOL    HW220316   4.731   0.184   4.305 -0.1440 -0.9880 -0.1290
 2894SOL     OW20317   2.103   4.110   7.245  0.0060 -0.5411  0.0213
 2894SOL    HW120318   2.120   4.203   7.233  0.6199 -0.5249  0.9701
 2894SOL    HW220319   2.069   4.102   7.334  1.0688 -1.4144  0.3587
 2895SOL     OW20320   3.640   3.281   9.675  0.5478 -0.3994  0.2876
 2895SOL    HW120321   3.658   3.192   9.705 -0.2526 -0.9274 -0.7851
 2895SOL    HW220322   3.724   3.321   9.695  0.1254  0.8490 -0.4264
 2896SOL     OW20323   3.781   2.050  10.639 -0.7811  0.3890 -0.2045
 2896SOL    HW120324   3.767   2.136  10.598 -1.2867  0.5328  0.2643
 2896SOL    HW220325   3.702   2.006  10.607 -0.1300  0.2028 -1.5685
 2897SOL     OW20326   3.423   0.635   5.440 -0.0271 -0.2820  0.7034
 2897SOL    HW120327   3.402   0.677   5.356 -1.4287  0.9425  1.6515
 2897SOL    HW220328   3.339   0.597   5.467 -0.2649 -0.6811 -0.5691
 2898SOL     OW20329   0.180   0.661   8.285 -0.3678  0.7772  0.2729
 2898SOL    HW120330   0.115   0.598   8.257 -1.4299  0.5737  3.1392
 2898SOL    HW220331   0.257   0.632   8.236 -1.1101 -1.9260  0.7300
 2899SOL     OW20332   1.857   2.421   6.785  0.0012 -0.3152  0.4936
 2899SOL    HW120333   1.842   2.348   6.725 -0.5255 -1.2675  1.7978
 2899SOL    HW220334   1.787   2.414   6.850 -1.8079 -3.2563 -1.7826
 2900SOL     OW20335   3.773   1.334   9.919  0.3147  0.2873  0.4436
 2900SOL    HW120336   3.809   1.247   9.939 -0.7349 -0.4608 -0.8979
 2900SOL    HW220337   3.845   1.387   9.952  1.6309 -1.5510  0.5508
 2901SOL     OW20338   2.301   2.270   6.927 -0.4066 -0.1164 -0.2427
 2901SOL    HW120339   2.227   2.253   6.985  0.4905 -1.0913  0.6046
 2901SOL    HW220340   2.268   2.225   6.849 -0.1054 -0.8741  0.0759
 2902SOL     OW20341   0.956   0.210   6.868  0.1064 -0.0885 -0.3486
 2902SOL    HW120342   0.882   0.183   6.813  1.2225 -1.1042 -1.3520
 2902SOL    HW220343   0.968   0.302   6.844  0.9908  0.2805  1.5265
 2903SOL     OW20344   4.292   0.918   9.719  0.3225 -0.6763 -0.0269
 2903SOL    HW120345   4.377   0.926   9.762 -0.3677 -0.0469  1.2422
 2903SOL    HW220346   4.252   0.845   9.766  0.5970  0.2222  1.6126
 2904SOL     OW20347   4.210   4.094  16.681 -1.1971 -0.3128 -0.0306
 2904SOL    HW120348   4.252   4.090  16.767  1.6775 -0.8195 -1.4744
 2904SOL    HW220349   4.234   4.005  16.656 -2.0351 -0.2483 -1.0727
 2905SOL     OW20350   3.344   1.468   8.440 -0.1695  0.4357 -0.0584
 2905SOL    HW120351   3.265   1.422   8.414 -1.2781  2.6970 -0.7222
 2905SOL    HW220352   3.322   1.549   8.485  2.2991  0.8776  0.3588
 2906SOL     OW20353   1.141   0.902   0.178  0.5550 -0.0112  0.1116
 2906SOL    HW120354   1.173   0.992   0.169 -0.9218  0.5853  0.7195
 2906SOL    HW220355   1.107   0.887   0.089 -0.1258  1.2493  0.1514
 2907SOL     OW20356   3.938   2.982   1.679 -0.6462  0.1209  0.3288
 2907SOL    HW120357   4.008   3.003   1.740  1.0771 -4.3322 -0.1244
 2907SOL    HW220358   3.862   2.974   1.736 -0.5342 -1.4887  0.2371
 2908SOL     OW20359   1.092   1.616   2.652  0.0624 -0.5746  0.5967
 2908SOL    HW120360   1.100   1.647   2.742 -1.1725 -1.4147  0.9865
 2908SOL    HW220361   1.012   1.666   2.636  2.3265  2.6565 -0.5378
 2909SOL     OW20362   2.037   2.245  12.703  0.3917  0.0750 -0.1153
 2909SOL    HW120363   1.953   2.205  12.681 -0.7144  1.5603  1.4146
 2909SOL    HW220364   2.026   2.245  12.798  1.0325 -0.6734 -0.0400
 2910SOL     OW20365   1.068   1.554   9.459 -0.3205 -0.3347 -0.0054
 2910SOL    HW120366   1.021   1.630   9.492 -0.1159 -0.6456  1.0341
 2910SOL    HW220367   1.059   1.501   9.539 -1.7473 -1.8514 -1.1807
 2911SOL     OW20368   3.915   4.055   3.578 -0.0420  0.6354  0.0930
 2911SOL    HW120369   3.871   4.021   3.499  0.0813 -0.7787  0.6334
 2911SOL    HW220370   3.931   3.973   3.625  1.5814  0.7435 -0.3022
 2912SOL     OW20371   3.661   1.640  17.703  0.6243  0.2461  0.2168
 2912SOL    HW120372   3.747   1.675  17.727  0.7544  0.3002 -0.3444
 2912SOL    HW220373   3.622   1.633   0.050 -0.2094 -0.0128 -0.1747
 2913SOL     OW20374   2.710   4.503   9.905 -0.6071  0.0140  0.0856
 2913SOL    HW120375   2.794   4.496   9.859 -1.0328 -1.0035 -0.5435
 2913SOL    HW220376   2.725   4.558   9.981  1.1491 -0.9137  0.4281
 2914SOL     OW20377   3.124   2.970  10.042  0.2375 -0.3203  0.3969
 2914SOL    HW120378   3.199   2.918  10.071  0.8191 -0.1240 -0.7634
 2914SOL    HW220379   3.142   3.048  10.095 -0.1524 -0.5872  0.9163
 2915SOL     OW20380   3.718   1.536   9.073  0.3627 -0.0365  0.0926
 2915SOL    HW120381   3.646   1.491   9.029 -0.3526  0.1014  1.1128
 2915SOL    HW220382   3.706   1.505   9.163 -1.0468  0.6058  0.1216
 2916SOL     OW20383   2.768   2.982   9.635  0.0750  0.8919 -0.1551
 2916SOL    HW120384   2.837   3.044   9.613  0.2830  0.7852  0.2098
 2916SOL    HW220385   2.777   2.913   9.569  0.9012 -0.6260  1.5396
 2917SOL     OW20386   4.523   2.477   8.694 -0.5020 -0.4292  0.6100
 2917SOL    HW120387   4.604   2.445   8.733 -0.4805 -0.2696  0.6949
 2917SOL    HW220388   4.473   2.396   8.703 -0.0429 -1.0316 -2.0550
 2918SOL     OW20389   1.989   0.675   7.089  1.0005  0.5463 -0.2750
 2918SOL    HW120390   1.993   0.614   7.015 -1.6954 -0.6441  0.5770
 2918SOL    HW220391   2.082   0.689   7.109  1.1478  1.2366 -1.4694
 2919SOL     OW20392   4.385   1.394   1.725 -0.4659  0.3986  0.2668
 2919SOL    HW120393   4.421   1.459   1.786  0.5461  1.7304 -1.7462
 2919SOL    HW220394   4.401   1.443   1.645 -1.4135  3.7316  2.1321
 2920SOL     OW20395   4.322   0.997  10.183  0.2459 -0.5538 -0.4201
 2920SOL    HW120396   4.330   0.951  10.099  2.3035 -2.2464  0.6981
 2920SOL    HW220397   4.228   0.988  10.196 -0.0207  1.4035 -1.1401
 2921SOL     OW20398   4.584   2.233   3.152 -0.2041  0.2292  0.2382
 2921SOL    HW120399   4.521   2.289   3.107  0.1014  0.7834  0.4931
 2921SOL    HW220400   4.664   2.271   3.114 -0.1712  1.7374  1.7776
 2922SOL     OW20401   4.399   1.153  17.060 -0.0306  0.6687  0.5534
 2922SOL    HW120402   4.367   1.243  17.056 -1.5844  0.0699 -0.3455
 2922SOL    HW220403   4.389   1.120  16.971 -0.6514  2.4859 -0.0429
 2923SOL     OW20404   2.178   3.801   4.635 -0.5494 -0.3640 -0.5012
 2923SOL    HW120405   2.138   3.844   4.710  0.5890  2.9080 -1.7885
 2923SOL    HW220406   2.121   3.726   4.619 -1.5063  0.3735 -0.5012
 2924SOL     OW20407   2.400   2.174   6.589 -0.3987 -0.6295  0.1604
 2924SOL    HW120408   2.439   2.251   6.549 -0.9303 -1.1391 -1.3183
 2924SOL    HW220409   2.390   2.119   6.512  0.0765  2.9153 -2.4179
 2925SOL     OW20410   3.443   2.303   4.871  0.3131  0.0292 -0.1577
 2925SOL    HW120411   3.519   2.352   4.902 -0.3084  2.3243 -2.1833
 2925SOL    HW220412   3.424   2.334   4.782 -2.9891 -0.0153  0.5452
 2926SOL     OW20413   3.831   3.197   0.668  0.1536 -0.3657 -0.0464
 2926SOL    HW120414   3.841   3.241   0.752 -0.3673 -1.3048  0.5083
 2926SOL    HW220415   3.824   3.276   0.615  1.7016 -0.4395 -0.3783
 2927SOL     OW20416   0.890   0.411  15.510 -0.2631  0.0442 -0.0603
 2927SOL    HW120417   0.951   0.365  15.452 -3.1550 -2.9477 -0.6817
 2927SOL    HW220418   0.924   0.388  15.597 -1.0315  0.7454  0.4282
 2928SOL     OW20419   1.623   2.492   9.396 -0.2498 -0.1912  0.4639
 2928SOL    HW120420   1.616   2.586   9.382  0.5217 -0.6059 -2.5992
 2928SOL    HW220421   1.630   2.479   9.491 -1.0227 -0.7703  0.4456
 2929SOL     OW20422   4.163   0.636  16.505 -0.0826  0.0159  0.0265
 2929SOL    HW120423   4.211   0.561  16.539  2.9160  0.9290 -2.2516
 2929SOL    HW220424   4.074   0.617  16.536  0.0744 -0.5446  0.1348
 2930SOL     OW20425   0.848   3.854  13.127 -0.1175 -0.2048 -0.5353
 2930SOL    HW120426   0.799   3.813  13.199 -0.3628  3.0125  1.1358
 2930SOL    HW220427   0.799   3.936  13.121 -0.2700 -0.3749 -1.4582
 2931SOL     OW20428   1.213   0.334   6.048 -0.3711 -0.0726  0.3752
 2931SOL    HW120429   1.217   0.239   6.034 -2.0547  0.4315 -3.3347
 2931SOL    HW220430   1.141   0.334   6.111  0.0995 -2.9907  0.9264
 2932SOL     OW20431   4.038   3.977   8.956  0.1059 -0.4178 -0.4836
 2932SOL    HW120432   3.950   4.016   8.952  0.3544  0.1048 -0.9900
 2932SOL    HW220433   4.032   3.882   8.948  1.5197 -0.4704 -0.9381
 2933SOL     OW20434   1.008   4.016   6.199  0.7947  0.0068  0.0173
 2933SOL    HW120435   0.951   4.061   6.137  0.7924 -1.0349 -0.7421
 2933SOL    HW220436   1.094   4.046   6.167  0.8304 -0.0306  0.0793
 2934SOL     OW20437   3.078   1.419   8.405 -0.1156  0.0333 -0.1250
 2934SOL    HW120438   3.046   1.409   8.315  0.0856  2.5758 -0.5043
 2934SOL    HW220439   3.083   1.325   8.423 -1.4226 -0.5351 -2.7602
 2935SOL     OW20440   2.123   1.525   9.077  0.0225  1.1171  0.5817
 2935SOL    HW120441   2.090   1.571   9.000 -1.5568 -0.9362  0.0323
 2935SOL    HW220442   2.058   1.554   9.141  0.1719 -0.5770  1.4948
 2936SOL     OW20443   2.698   3.159   6.008  0.0322  0.2543  0.7682
 2936SOL    HW120444   2.641   3.177   6.082  1.8228  0.9271  1.9845
 2936SOL    HW220445   2.775   3.213   6.021 -0.1897  1.3236 -2.2658
 2937SOL     OW20446   3.784   4.464   3.884  0.0748  0.0704  0.1118
 2937SOL    HW120447   3.725   4.428   3.819  0.5128  2.8772 -1.8138
 2937SOL    HW220448   3.718   4.488   3.949  0.0569  0.1736  0.0551
 2938SOL     OW20449   1.296   0.950  10.688 -0.0364  0.2864  0.2072
 2938SOL    HW120450   1.261   1.006  10.620 -2.9763 -1.1779  0.5381
 2938SOL    HW220451   1.266   0.860  10.674 -2.4925  1.2752 -0.8951
 2939SOL     OW20452   3.592   2.031   6.090  0.0630 -0.0339 -0.1794
 2939SOL    HW120453   3.549   2.002   6.171  2.3626 -1.3657  0.5642
 2939SOL    HW220454   3.521   2.062   6.035  0.4599 -0.3031 -0.8406
 2940SOL     OW20455   1.047   3.498   7.686  0.1544  0.0793  0.5674
 2940SOL    HW120456   1.053   3.408   7.654 -3.1297 -0.1945  0.7798
 2940SOL    HW220457   0.955   3.508   7.711 -0.1332 -0.3976 -0.3189
 2941SOL     OW20458   1.469   1.797   4.092  0.1404 -0.0632 -0.4057
 2941SOL    HW120459   1.445   1.705   4.100  3.4707 -0.8026  0.9852
 2941SOL    HW220460   1.564   1.799   4.081  0.1077 -0.3442 -0.7662
 2942SOL     OW20461   1.063   1.108  15.400 -0.4044  0.2464 -0.0564
 2942SOL    HW120462   1.124   1.034  15.400  1.5639  1.8561  0.5551
 2942SOL    HW220463   0.987   1.061  15.368  1.1903 -1.8080 -0.8216
 2943SOL     OW20464   2.666   3.900   5.712 -0.0205 -0.3953  0.4170
 2943SOL    HW120465   2.622   3.858   5.638  0.4759  1.7092 -1.0660
 2943SOL    HW220466   2.744   3.932   5.667 -0.4778 -2.2194 -1.6517
 2944SOL     OW20467   1.656   2.392   6.987  0.0052  0.4588  0.3885
 2944SOL    HW120468   1.660   2.298   7.003  1.3021  0.5025  0.3137
 2944SOL    HW220469   1.599   2.413   7.061  0.2655  0.1732  0.6712
 2945SOL     OW20470   1.468   4.357   9.660  0.4195 -0.3183 -0.3540
 2945SOL    HW120471   1.495   4.279   9.612  3.4138 -0.0014  0.7966
 2945SOL    HW220472   1.506   4.432   9.614  0.2663  1.2329  2.0665
 2946SOL     OW20473   2.304   0.530   4.436 -0.2150  0.0284 -0.2918
 2946SOL    HW120474   2.359   0.570   4.368 -0.2999 -0.1819 -0.4866
 2946SOL    HW220475   2.264   0.612   4.462  0.2575  0.7305 -1.7465
 2947SOL     OW20476   3.111   3.723  10.104  0.4680  0.3359 -0.7952
 2947SOL    HW120477   3.139   3.726  10.013  3.4875  1.5079  0.1494
 2947SOL    HW220478   3.185   3.766  10.147  0.0127  0.6541 -0.3305
 2948SOL     OW20479   4.580   0.249   7.775  0.0290  0.0902  0.1531
 2948SOL    HW120480   4.539   0.287   7.852  2.3582 -0.0098  1.4287
 2948SOL    HW220481   4.522   0.174   7.760  1.1417 -1.0900  1.6917
 2949SOL     OW20482   2.591   1.612   1.235 -0.1706 -0.2438  0.4129
 2949SOL    HW120483   2.510   1.562   1.235  0.3907 -1.1677 -1.8153
 2949SOL    HW220484   2.570   1.679   1.300 -1.2656 -0.6296  0.4641
 2950SOL     OW20485   2.850   0.919   4.268  1.3534  0.2828  0.0927
 2950SOL    HW120486   2.891   0.964   4.342  0.8901  1.2401 -0.2368
 2950SOL    HW220487   2.864   0.826   4.285  1.2345  0.6085  2.0277
 2951SOL     OW20488   3.544   2.389  12.803  0.1352 -0.3814 -0.0013
 2951SOL    HW120489   3.570   2.312  12.752  0.2324 -1.2449  1.3522
 2951SOL    HW220490   3.623   2.402  12.855 -0.8820  0.8166  1.2614
 2952SOL     OW20491   4.007   0.084   7.924 -0.5339 -0.1311 -0.1619
 2952SOL    HW120492   3.931   0.031   7.901  0.5806 -1.9775  0.4735
 2952SOL    HW220493   3.960   0.155   7.968 -1.2872 -1.2936  0.8810
 2953SOL     OW20494   2.898   2.793   1.733 -0.5568 -0.2966  0.1311
 2953SOL    HW120495   2.908   2.881   1.769 -1.1725 -0.2201  0.1208
 2953SOL    HW220496   2.814   2.808   1.689 -0.7181 -0.4616  0.3834
 2954SOL     OW20497   1.240   4.598  11.025  0.3841 -0.6854 -0.4082
 2954SOL    HW120498   1.271   4.589  10.935  1.6672  0.4317 -0.0706
 2954SOL    HW220499   1.155   4.555  11.011 -0.7138  1.2443  0.2957
 2955SOL     OW20500   4.327   1.422   6.650 -0.1587  0.4874 -0.3093
 2955SOL    HW120501   4.272   1.366   6.705 -1.7377  0.6029 -1.7497
 2955SOL    HW220502   4.263   1.485   6.619 -0.3776  0.9950  1.1953
 2956SOL     OW20503   0.105   0.078   8.303  0.2292  0.2218  0.0167
 2956SOL    HW120504   0.070   0.091   8.215  0.0376 -1.7562 -0.1965
 2956SOL    HW220505   0.049   0.145   8.344  0.5392 -0.2453  1.1955
 2957SOL     OW20506   1.557   0.895   1.266  0.1024  0.2541 -0.1802
 2957SOL    HW120507   1.573   0.806   1.235  0.8284  0.7311 -1.1809
 2957SOL    HW220508   1.650   0.907   1.285  0.2467 -0.5966 -0.3571
 2958SOL     OW20509   4.246   2.305   8.266 -0.3361 -0.9574  0.0065
 2958SOL    HW120510   4.214   2.395   8.268 -2.0516 -1.5892  0.8267
 2958SOL    HW220511   4.203   2.270   8.344  0.3325 -1.4967  0.1370
 2959SOL     OW20512   1.995   3.503   7.616  0.5033 -0.3734  0.2694
 2959SOL    HW120513   2.033   3.550   7.542 -0.4039  0.2670  0.2048
 2959SOL    HW220514   1.957   3.424   7.577 -1.2654 -0.4248  2.0533
 2960SOL     OW20515   1.512   3.412   7.997  0.1177 -0.8828 -0.7960
 2960SOL    HW120516   1.527   3.367   7.913 -1.1953  0.2038 -1.6078
 2960SOL    HW220517   1.419   3.434   7.995  0.4014  0.3004 -1.1151
 2961SOL     OW20518   4.074   2.043  14.561 -0.3102 -0.1895  0.1360
 2961SOL    HW120519   3.993   2.000  14.532 -0.7515  0.9938 -0.3992
 2961SOL    HW220520   4.038   2.130  14.578 -0.4315 -0.0978 -0.5947
 2962SOL     OW20521   0.347   0.133   9.107 -0.3068  0.7955 -0.3360
 2962SOL    HW120522   0.413   0.201   9.118  0.3548  0.0467  0.2753
 2962SOL    HW220523   0.303   0.168   9.029  0.3847 -2.1653 -2.0609
 2963SOL     OW20524   1.241   4.051   3.458 -0.3802 -0.8494  0.4039
 2963SOL    HW120525   1.219   4.066   3.550 -1.6120 -1.0012  0.1311
 2963SOL    HW220526   1.320   4.105   3.452  1.0044 -2.7820  1.5435
 2964SOL     OW20527   4.084   0.523   0.877  0.2670  0.0275 -0.2953
 2964SOL    HW120528   4.082   0.618   0.872  0.1802  0.0549  0.3185
 2964SOL    HW220529   4.034   0.501   0.798  0.5335  2.5562 -1.1479
 2965SOL     OW20530   4.361   0.943  15.281  0.1008 -0.3591 -0.0112
 2965SOL    HW120531   4.391   1.018  15.333 -2.3360  1.3150 -0.9623
 2965SOL    HW220532   4.291   0.985  15.230  1.5205  0.5311 -1.2050
 2966SOL     OW20533   0.128   3.359   0.086  0.5088  0.3014 -0.1618
 2966SOL    HW120534   0.166   3.274   0.106 -0.7844 -0.6373 -1.7174
 2966SOL    HW220535   0.146   3.356  17.733  1.3258 -0.0979  0.0068
 2967SOL     OW20536   3.287   1.593  15.774 -0.2704 -0.2324 -0.6378
 2967SOL    HW120537   3.339   1.649  15.716 -3.0245  1.8553 -1.0822
 2967SOL    HW220538   3.305   1.508  15.731  2.0942  0.6356 -1.4047
 2968SOL     OW20539   0.449   3.925  14.058  0.6059  0.6007 -0.2002
 2968SOL    HW120540   0.366   3.908  14.103  0.2163  2.1169 -0.3565
 2968SOL    HW220541   0.507   3.890  14.125  1.3120  0.0774 -1.0798
 2969SOL     OW20542   4.729   2.224  15.149 -0.2892  0.3548 -0.2555
 2969SOL    HW120543   4.733   2.314  15.181  1.8248 -0.5846  2.1055
 2969SOL    HW220544   4.696   2.186  15.231 -1.6875  0.4390 -0.7799
 2970SOL     OW20545   3.581   4.732   6.496  0.1332  0.2871 -0.6947
 2970SOL    HW120546   3.549   0.036   6.577 -1.0084 -0.1904 -0.9242
 2970SOL    HW220547   3.580   0.069   6.434  1.4405  1.1549  0.2900
 2971SOL     OW20548   2.462   4.395   3.816  0.1337  0.2267  0.4440
 2971SOL    HW120549   2.505   4.353   3.741  0.6996 -0.8465  1.3715
 2971SOL    HW220550   2.512   4.359   3.890 -0.8646 -0.3391  0.8418
 2972SOL     OW20551   1.670   3.585   6.565 -0.3674  0.0249 -0.1308
 2972SOL    HW120552   1.628   3.668   6.588 -0.1049 -0.6823  2.9685
 2972SOL    HW220553   1.744   3.623   6.519  0.2727 -0.6486  0.3462
 2973SOL     OW20554   2.422   3.217  17.512  0.1010 -0.2404  0.2610
 2973SOL    HW120555   2.344   3.226  17.457  0.5692 -0.9880 -0.5172
 2973SOL    HW220556   2.451   3.304  17.487 -2.9380  0.5831 -0.3986
 2974SOL     OW20557   2.397   2.962  10.104 -0.2991  0.4597  0.1236
 2974SOL    HW120558   2.398   2.870  10.076 -1.9829 -0.0094  1.6337
 2974SOL    HW220559   2.449   2.997  10.032  1.9488 -1.0867  0.9920
 2975SOL     OW20560   4.401   4.148  17.260 -0.0833 -0.9753  0.1110
 2975SOL    HW120561   4.433   4.104  17.182 -2.0149 -1.6462 -0.3056
 2975SOL    HW220562   4.478   4.197  17.289 -1.9082  1.8033  0.3031
 2976SOL     OW20563   3.136   0.419   6.418 -0.2207  0.1337  0.1851
 2976SOL    HW120564   3.117   0.456   6.332  1.7135 -0.1837 -0.3949
 2976SOL    HW220565   3.052   0.387   6.449  0.9785 -1.7437  1.5151
 2977SOL     OW20566   3.627   2.474   6.464 -0.4003  0.0002 -0.5087
 2977SOL    HW120567   3.543   2.433   6.486 -0.9439  0.1670 -2.3361
 2977SOL    HW220568   3.601   2.564   6.444 -0.2191 -0.4102 -2.5700
 2978SOL     OW20569   0.628   3.143   6.062 -0.2026  0.7576  0.2944
 2978SOL    HW120570   0.716   3.108   6.073 -0.5028  0.2249  1.0018
 2978SOL    HW220571   0.598   3.093   5.986  0.4203  0.2611  0.3710
 2979SOL     OW20572   4.555   3.426  12.721  0.6557 -0.2063 -0.3046
 2979SOL    HW120573   4.650   3.433  12.726  0.5500  0.9745 -0.0898
 2979SOL    HW220574   4.542   3.428  12.626  1.5852  0.9364 -0.4036
 2980SOL     OW20575   3.852   3.451   9.733  0.8190 -0.3687 -0.0322
 2980SOL    HW120576   3.847   3.509   9.808  1.8465 -0.2132 -0.0787
 2980SOL    HW220577   3.943   3.460   9.704  0.1813  0.9018 -1.6647
 2981SOL     OW20578   3.665   3.086   7.185  0.0188 -0.2468  0.0348
 2981SOL    HW120579   3.714   3.106   7.105 -0.7483  1.2875 -0.0427
 2981SOL    HW220580   3.671   3.168   7.233  0.6288 -0.7444  0.8114
 2982SOL     OW20581   2.585   2.654   9.434  0.0017  0.7936  0.2190
 2982SOL    HW120582   2.643   2.729   9.426 -0.7617  1.1225 -2.2460
 2982SOL    HW220583   2.652   2.586   9.438  0.0621  0.8007 -0.6345
 2983SOL     OW20584   1.057   1.006   2.720 -0.1775 -0.0894 -0.2729
 2983SOL    HW120585   0.966   1.036   2.730 -0.5683 -1.4563  0.3739
 2983SOL    HW220586   1.074   0.971   2.807 -0.5927  0.7782  0.1569
 2984SOL     OW20587   0.092   1.693  13.044 -0.3518 -0.1150 -0.0528
 2984SOL    HW120588   0.019   1.739  13.085  0.1082  1.2175 -0.7088
 2984SOL    HW220589   0.163   1.741  13.088  0.9059 -0.4838 -1.6763
 2985SOL     OW20590   1.238   4.379   6.292 -0.3484 -0.3489 -0.2496
 2985SOL    HW120591   1.302   4.422   6.234 -0.4620  0.8725  0.5605
 2985SOL    HW220592   1.276   4.293   6.313  0.7973  0.2743  0.2462
 2986SOL     OW20593   4.623   2.393  12.296 -0.8313  0.4501  0.2387
 2986SOL    HW120594   4.688   2.351  12.353 -0.2020  1.2456  0.1033
 2986SOL    HW220595   4.664   2.478  12.281  1.2469 -0.5248  0.2921
 2987SOL     OW20596   0.661   1.348   4.657  0.3508  0.6107  0.4800
 2987SOL    HW120597   0.755   1.336   4.667  0.4586  0.6062 -0.4752
 2987SOL    HW220598   0.624   1.260   4.662 -0.5482  1.0109  0.9674
 2988SOL     OW20599   2.566   4.438   1.522  0.0483 -0.0567 -0.2171
 2988SOL    HW120600   2.502   4.489   1.472 -0.9405 -0.0797  1.0249
 2988SOL    HW220601   2.639   4.449   1.462 -0.0427  0.9259 -0.1507
 2989SOL     OW20602   0.227   1.602   1.917 -0.2288  0.1328 -0.6998
 2989SOL    HW120603   0.190   1.682   1.880 -1.4216  0.2956  0.8399
 2989SOL    HW220604   0.169   1.540   1.873  0.1096  0.6146 -1.8100
 2990SOL     OW20605   3.595   4.703   9.075  0.5122  0.4455 -0.1294
 2990SOL    HW120606   3.660   4.661   9.018 -0.1080  1.2182 -1.4032
 2990SOL    HW220607   3.643   0.041   9.112  1.5172  0.3308 -1.2087
 2991SOL     OW20608   1.944   0.628   5.154 -0.1772  0.1214 -0.0099
 2991SOL    HW120609   1.973   0.590   5.237  0.4014  1.1854  0.2684
 2991SOL    HW220610   1.904   0.555   5.105  0.4217  0.2352 -0.6616
 2992SOL     OW20611   1.428   1.236  11.723 -0.4254  0.3286 -0.2111
 2992SOL    HW120612   1.472   1.171  11.778  1.2071 -0.2447 -2.1885
 2992SOL    HW220613   1.489   1.307  11.704 -2.6103  1.9193 -1.3343
 2993SOL     OW20614   0.222   1.319   6.858  0.6427 -0.6140 -0.1934
 2993SOL    HW120615   0.149   1.300   6.800  0.3406 -0.8009  0.2441
 2993SOL    HW220616   0.247   1.232   6.889 -0.7718 -0.3564  1.6428
 2994SOL     OW20617   2.541   0.479   9.744 -0.0690 -0.4422  0.0060
 2994SOL    HW120618   2.516   0.478   9.836 -0.8038  1.4161 -0.1851
 2994SOL    HW220619   2.636   0.490   9.751 -0.4341  1.8671  0.9659
 2995SOL     OW20620   1.284   0.847   1.232 -0.2164  0.1276  0.3911
 2995SOL    HW120621   1.233   0.903   1.291  0.6060  2.5727 -1.2402
 2995SOL    HW220622   1.375   0.864   1.259 -0.0170 -1.2995  0.6503
 2996SOL     OW20623   1.495   2.020   0.185 -0.1473 -0.4014 -0.1730
 2996SOL    HW120624   1.434   1.984   0.248  2.6658 -2.9883  1.0904
 2996SOL    HW220625   1.547   1.945   0.154  2.2796  1.0235  0.5001
 2997SOL     OW20626   2.631   4.590   2.398 -0.0793 -0.1131 -0.4208
 2997SOL    HW120627   2.611   4.573   2.490 -0.2827  1.4752 -0.1622
 2997SOL    HW220628   2.539   4.593   2.371 -0.4823  0.1025  0.9737
 2998SOL     OW20629   3.101   0.215   0.677 -0.2371 -0.9076  0.1722
 2998SOL    HW120630   3.158   0.138   0.679 -0.0367 -0.7878 -1.3518
 2998SOL    HW220631   3.031   0.187   0.618 -2.8472 -0.5205  3.0788
 2999SOL     OW20632   4.714   2.045   1.911 -0.2094  0.3900 -0.3015
 2999SOL    HW120633   4.678   2.110   1.851 -1.5232  0.5858  0.7163
 2999SOL    HW220634   0.029   2.100   1.971  0.1372  0.7566 -0.9156
 3000SOL     OW20635   3.420   3.243   4.651 -0.3341  0.3076 -0.3780
 3000SOL    HW120636   3.361   3.317   4.665 -2.5745 -0.7085 -4.3447
 3000SOL    HW220637   3.505   3.286   4.647  0.1950 -0.4634  3.1219
 3001SOL     OW20638   4.112   1.988   3.506 -0.2012 -0.2076 -0.7691
 3001SOL    HW120639   4.111   2.028   3.592 -0.5039  0.3048 -1.0155
 3001SOL    HW220640   4.207   1.973   3.502  0.2732  2.6851  0.3049
 3002SOL     OW20641   2.297   3.019   4.349  0.4078  0.7326 -0.6806
 3002SOL    HW120642   2.204   3.031   4.364  0.2175 -1.8417  0.0833
 3002SOL    HW220643   2.304   3.022   4.253 -0.1636  0.8694 -0.7144
 3003SOL     OW20644   4.639   0.729  10.336  0.4683 -0.2018 -0.2076
 3003SOL    HW120645   4.698   0.667  10.293 -1.4247 -1.2250 -1.3306
 3003SOL    HW220646   4.592   0.680  10.404  3.0795 -0.5436  1.3347
 3004SOL     OW20647   0.222   1.268  14.620 -0.2186 -0.3159  0.1306
 3004SOL    HW120648   0.169   1.192  14.647  2.5715 -2.1301  0.5675
 3004SOL    HW220649   0.153   1.326  14.591  0.7345  0.8187  0.1534
 3005SOL     OW20650   2.823   3.578   9.400 -0.1166  0.2612 -1.4576
 3005SOL    HW120651   2.754   3.579   9.334 -0.0455 -1.6857 -1.5621
 3005SOL    HW220652   2.825   3.482   9.393 -2.8748  0.0451  0.8252
 3006SOL     OW20653   0.026   3.609   5.909 -0.0551  0.2165 -0.4053
 3006SOL    HW120654   4.700   3.600   5.836 -0.5171 -0.3486  0.0617
 3006SOL    HW220655   0.021   3.525   5.953 -0.4978  0.4808  0.0487
 3007SOL     OW20656   0.894   3.703   4.422  0.1861 -0.2673  0.2513
 3007SOL    HW120657   0.803   3.680   4.403  0.2000  0.3156 -0.5427
 3007SOL    HW220658   0.888   3.703   4.517 -0.4430 -1.7398  0.2094
 3008SOL     OW20659   0.403   2.096  17.410  0.8177 -0.1275 -0.6479
 3008SOL    HW120660   0.418   2.002  17.415  0.1848 -0.0882  2.0938
 3008SOL    HW220661   0.356   2.106  17.327  0.8892  0.8103 -0.5793
 3009SOL     OW20662   3.930   1.388   5.106  0.3161 -0.5066 -0.0693
 3009SOL    HW120663   3.847   1.435   5.100  1.0415  0.5551 -1.7908
 3009SOL    HW220664   3.910   1.337   5.185  2.0170  0.8573  1.2268
 3010SOL     OW20665   3.169   0.083   9.355 -0.3254  0.2187  0.6151
 3010SOL    HW120666   3.154   4.730   9.321  3.2528 -0.2669  0.3219
 3010SOL    HW220667   3.263   0.077   9.374 -0.0363 -1.4155 -1.2532
 3011SOL     OW20668   2.871   2.550   4.230 -0.1462  0.0770  0.0645
 3011SOL    HW120669   2.847   2.635   4.267 -1.8185  0.3019 -1.5582
 3011SOL    HW220670   2.939   2.577   4.168 -0.2241 -0.1317 -0.1118
 3012SOL     OW20671   0.899   4.167   8.482 -0.3964  0.2214  0.1004
 3012SOL    HW120672   0.962   4.207   8.422 -1.6476 -0.8271 -1.8831
 3012SOL    HW220673   0.958   4.141   8.553 -1.6284  3.0562  2.1659
 3013SOL     OW20674   4.490   1.138   3.739 -0.0182 -0.3633  0.4809
 3013SOL    HW120675   4.482   1.043   3.736 -1.9003 -0.1433 -1.9125
 3013SOL    HW220676   4.559   1.157   3.674 -0.3225  1.5528  0.6941
 3014SOL     OW20677   3.021   3.670   1.493  0.3980  0.6852  0.4054
 3014SOL    HW120678   3.061   3.722   1.423  1.1314 -0.9157 -0.3768
 3014SOL    HW220679   2.931   3.696   1.476 -0.3247 -1.0725  1.5763
 3015SOL     OW20680   1.116   3.851   3.321 -0.4787 -0.0772  0.5479
 3015SOL    HW120681   1.029   3.889   3.334  0.6126  2.7752 -0.5488
 3015SOL    HW220682   1.165   3.930   3.346  1.3171 -1.0059 -0.0043
 3016SOL     OW20683   0.060   0.553   7.744  0.1303 -0.1087  0.2640
 3016SOL    HW120684   0.068   0.538   7.650 -2.0661  1.4698 -0.1712
 3016SOL    HW220685   4.721   0.611   7.730 -0.8522 -1.7434 -1.3304
 3017SOL     OW20686   2.681   1.599   8.180 -0.2613 -0.0060  0.0623
 3017SOL    HW120687   2.710   1.508   8.179 -1.0421 -0.2582 -0.0840
 3017SOL    HW220688   2.626   1.600   8.259 -0.9463 -1.6509 -0.3983
 3018SOL     OW20689   1.085   1.079   8.676  0.6156 -0.0342  0.3763
 3018SOL    HW120690   1.047   1.082   8.588  2.4111 -4.2448 -0.5400
 3018SOL    HW220691   1.176   1.096   8.651  0.8758  0.1783  1.4862
 3019SOL     OW20692   2.196   3.286   3.538  0.5691  0.6552  0.4642
 3019SOL    HW120693   2.123   3.307   3.597 -1.4923 -1.4612 -1.2951
 3019SOL    HW220694   2.157   3.294   3.451  1.3132 -3.0831 -0.2247
 3020SOL     OW20695   2.942   4.383  15.624 -0.5215 -0.1125  0.1318
 3020SOL    HW120696   2.920   4.304  15.674  3.0331 -1.6078 -0.5875
 3020SOL    HW220697   2.871   4.374  15.561  0.0836 -2.1517 -0.2559
 3021SOL     OW20698   3.353   2.372  15.412  0.8853 -0.4443 -0.2902
 3021SOL    HW120699   3.310   2.422  15.342 -2.0446  1.1644  2.6984
 3021SOL    HW220700   3.429   2.334  15.367  2.1793  2.2301 -0.3494
 3022SOL     OW20701   2.927   2.707   2.264 -0.1726 -0.6838  0.6794
 3022SOL    HW120702   2.860   2.716   2.196  0.5720  1.0385  0.1645
 3022SOL    HW220703   2.867   2.683   2.335 -1.0757 -0.4078  0.0145
 3023SOL     OW20704   1.109   4.522  13.703  0.3180  0.8367 -0.0402
 3023SOL    HW120705   1.165   4.523  13.626 -2.4568 -2.8907 -2.1059
 3023SOL    HW220706   1.031   4.564  13.665 -0.9979  0.2539  1.9867
 3024SOL     OW20707   0.830   1.606  17.660 -0.8558  0.0543 -0.6520
 3024SOL    HW120708   0.768   1.679  17.649 -0.7632  0.0267 -1.3492
 3024SOL    HW220709   0.852   1.585  17.569  1.2735  3.4999 -0.9454
 3025SOL     OW20710   1.104   2.258   6.063  0.8384  0.0705  0.0867
 3025SOL    HW120711   1.186   2.307   6.071  1.0222 -0.3077  0.4621
 3025SOL    HW220712   1.050   2.309   6.002  0.6613 -0.5393 -0.2609
 3026SOL     OW20713   2.174   0.494  10.307 -0.6322  0.3615 -0.1237
 3026SOL    HW120714   2.234   0.563  10.279 -0.8317  1.0675  1.1846
 3026SOL    HW220715   2.126   0.476  10.226  0.0563 -0.8582 -0.2461
 3027SOL     OW20716   0.668   0.282  14.828 -0.0728 -0.5650 -0.1779
 3027SOL    HW120717   0.680   0.213  14.763 -2.7931 -0.5484 -0.6924
 3027SOL    HW220718   0.573   0.294  14.829 -0.0816 -0.6018 -0.5838
 3028SOL     OW20719   3.064   3.695   6.957 -0.1018  0.0107 -0.3758
 3028SOL    HW120720   3.039   3.622   6.900 -1.9058 -0.0605  0.4913
 3028SOL    HW220721   3.082   3.762   6.891  0.0786 -0.1123 -0.4514
 3029SOL     OW20722   1.436   1.977   1.589  0.0436  0.3227  0.2952
 3029SOL    HW120723   1.387   2.018   1.659 -1.6114  0.9137 -1.2291
 3029SOL    HW220724   1.372   1.909   1.567  1.1661 -0.1982 -1.3635
 3030SOL     OW20725   4.108   4.607   1.347  0.2113  0.0945  0.2235
 3030SOL    HW120726   4.123   4.670   1.277 -0.2285 -0.6702 -0.5647
 3030SOL    HW220727   4.037   4.648   1.397 -0.1343 -0.8948  0.5628
 3031SOL     OW20728   4.105   1.291   8.670 -0.4913 -0.3666 -0.4605
 3031SOL    HW120729   4.184   1.310   8.619  0.5664 -0.6840  1.0401
 3031SOL    HW220730   4.135   1.205   8.700 -0.6699 -1.7362 -4.1816
 3032SOL     OW20731   4.526   4.322  14.406  0.1213 -0.2391 -0.2004
 3032SOL    HW120732   4.459   4.380  14.442 -0.1557 -0.6163 -0.1059
 3032SOL    HW220733   4.477   4.286  14.332 -1.3175  1.4696 -0.0695
 3033SOL     OW20734   3.492   3.377   6.920 -0.4268 -0.3741 -0.0192
 3033SOL    HW120735   3.436   3.446   6.883 -1.2973 -1.4341 -0.6826
 3033SOL    HW220736   3.565   3.437   6.939 -0.5722  0.1714 -1.1792
 3034SOL     OW20737   1.972   3.144   0.034 -0.3814 -0.1020 -0.3941
 3034SOL    HW120738   2.012   3.071  17.728 -0.6574 -0.6829  0.2855
 3034SOL    HW220739   1.889   3.154  17.728 -0.7762 -1.1944  0.0684
 3035SOL     OW20740   4.339   3.348   9.154  0.0283  0.6056  0.3125
 3035SOL    HW120741   4.373   3.272   9.201  0.7504  1.0027  0.4265
 3035SOL    HW220742   4.278   3.385   9.218 -1.2708  0.0999 -0.6286
 3036SOL     OW20743   0.591   3.900   4.974 -0.9733  0.0738  0.3191
 3036SOL    HW120744   0.656   3.918   4.906 -1.9438 -0.6867 -0.8038
 3036SOL    HW220745   0.619   3.971   5.031  0.3183 -0.7430  0.7063
 3037SOL     OW20746   2.400   1.366  17.237 -0.3084  0.2788 -0.7573
 3037SOL    HW120747   2.421   1.353  17.329 -0.9224 -0.7047 -0.7560
 3037SOL    HW220748   2.345   1.289  17.225 -2.4330  2.0200 -2.3683
 3038SOL     OW20749   2.530   0.724   8.542  0.0598  0.1767  0.2151
 3038SOL    HW120750   2.597   0.679   8.594 -2.2226  1.3456  4.2015
 3038SOL    HW220751   2.462   0.722   8.610 -1.1145 -0.0659 -0.9802
 3039SOL     OW20752   1.035   3.315   2.657 -0.4641 -0.2938 -0.1237
 3039SOL    HW120753   1.095   3.351   2.591 -1.3429 -0.2984 -0.9144
 3039SOL    HW220754   1.022   3.227   2.621 -2.6706 -0.1208  0.2742
 3040SOL     OW20755   4.503   2.553   2.772  0.1311 -0.4845 -0.4004
 3040SOL    HW120756   4.493   2.576   2.679 -2.5052  1.3620  0.3333
 3040SOL    HW220757   4.594   2.523   2.776 -0.6169 -2.5692  0.6080
 3041SOL     OW20758   3.482   2.195   7.208 -0.3662 -0.2847  0.0942
 3041SOL    HW120759   3.542   2.250   7.259  1.3460 -1.0482 -1.1027
 3041SOL    HW220760   3.513   2.110   7.238  0.8566  0.6142  1.3858
 3042SOL     OW20761   2.606   1.318   6.439 -0.0847 -0.2929 -0.3011
 3042SOL    HW120762   2.522   1.286   6.405 -0.9264  2.2716 -0.6127
 3042SOL    HW220763   2.577   1.393   6.492 -2.0045 -0.5009 -1.0528
 3043SOL     OW20764   3.075   2.933   6.330 -0.2970  0.5711  0.0431
 3043SOL    HW120765   3.091   2.945   6.423 -1.5981 -1.4459  0.5454
 3043SOL    HW220766   3.118   2.852   6.301 -1.7336 -1.1856  2.8938
 3044SOL     OW20767   3.875   0.006   5.343  0.3256  0.0701  0.5980
 3044SOL    HW120768   3.870   0.034   5.252 -0.4177 -1.8376  0.0788
 3044SOL    HW220769   3.886   4.647   5.339  3.9438  0.5109 -0.0318
 3045SOL     OW20770   2.587   2.589   5.904 -0.3008  0.4866 -0.0349
 3045SOL    HW120771   2.640   2.666   5.881  1.1701 -1.9201 -4.8030
 3045SOL    HW220772   2.652   2.529   5.940 -1.0209 -0.4147 -0.2419
 3046SOL     OW20773   3.726   2.928   8.609 -0.1214  0.1000  0.0253
 3046SOL    HW120774   3.685   2.851   8.570  1.4240 -1.2791  1.1369
 3046SOL    HW220775   3.671   2.994   8.568  0.2853 -0.5406 -1.5344
 3047SOL     OW20776   3.804   1.924   3.655 -0.0647 -0.2473  0.5941
 3047SOL    HW120777   3.835   1.841   3.619 -0.1421  0.7123 -1.6972
 3047SOL    HW220778   3.876   1.942   3.716  1.7331 -0.6142 -1.4342
 3048SOL     OW20779   2.855   0.642  15.379  0.0140 -0.6941  0.2325
 3048SOL    HW120780   2.886   0.725  15.343 -2.1777 -0.9514 -2.2785
 3048SOL    HW220781   2.847   0.667  15.471 -0.5367 -0.9704  0.2649
 3049SOL     OW20782   2.790   0.506   4.973 -0.0854  0.1210  0.5574
 3049SOL    HW120783   2.744   0.501   5.057  3.1374 -1.1544  2.2675
 3049SOL    HW220784   2.873   0.460   4.987 -0.1874  0.3937  2.0787
 3050SOL     OW20785   2.264   3.475  12.420 -0.4962  0.0685 -0.5037
 3050SOL    HW120786   2.175   3.453  12.446 -1.1600  2.2671 -0.9243
 3050SOL    HW220787   2.246   3.564  12.389  0.2743  0.6926  0.8654
 3051SOL     OW20788   3.190   2.705   5.787  0.1560  0.6313  0.6703
 3051SOL    HW120789   3.213   2.798   5.798 -1.9498  0.9603  2.1380
 3051SOL    HW220790   3.112   2.699   5.841 -0.7030 -0.5666 -0.7001
 3052SOL     OW20791   1.766   3.436   8.111  0.2101 -0.8939 -0.4416
 3052SOL    HW120792   1.678   3.412   8.080 -0.1196 -1.4046  0.8888
 3052SOL    HW220793   1.767   3.387   8.193 -1.1481  0.0693  0.1537
 3053SOL     OW20794   2.171   0.973   8.879 -0.1780 -0.7525  0.0053
 3053SOL    HW120795   2.143   0.989   8.789 -0.3207 -2.5504 -0.2694
 3053SOL    HW220796   2.253   1.021   8.887 -1.8787  1.9179  1.1188
 3054SOL     OW20797   2.236   0.926   2.287  0.5960 -0.1728  0.3783
 3054SOL    HW120798   2.251   1.012   2.248 -1.0080  0.5416  1.3321
 3054SOL    HW220799   2.300   0.874   2.238  1.5033  1.3557 -0.0814
 3055SOL     OW20800   0.202   2.551   5.878 -0.2192 -0.9085  0.3989
 3055SOL    HW120801   0.140   2.522   5.945 -0.5039  0.2332  0.6291
 3055SOL    HW220802   0.259   2.609   5.929  0.6055  0.0257 -1.5769
 3056SOL     OW20803   0.357   2.662   0.879  0.4716 -0.7638  0.6454
 3056SOL    HW120804   0.307   2.637   0.957  0.1478 -0.0553  0.6702
 3056SOL    HW220805   0.330   2.587   0.825 -0.5846 -0.9324  1.4014
 3057SOL     OW20806   1.925   2.113   6.928  0.0704  0.1476  0.9715
 3057SOL    HW120807   1.968   2.028   6.944  1.5782  0.4166 -1.6544
 3057SOL    HW220808   1.942   2.123   6.834  0.3579 -1.2597  0.8650
 3058SOL     OW20809   0.792   3.039   3.850 -0.2876  0.1137  0.6707
 3058SOL    HW120810   0.833   2.962   3.889 -2.4095 -0.2783  2.1419
 3058SOL    HW220811   0.837   3.115   3.889 -1.3477  0.6952  0.7537
 3059SOL     OW20812   2.341   4.368  14.789 -0.6853  0.3139 -0.1134
 3059SOL    HW120813   2.348   4.280  14.753 -0.1733 -0.1446  1.1122
 3059SOL    HW220814   2.405   4.355  14.859  0.5498 -0.9970 -1.5025
 3060SOL     OW20815   1.072   2.484   3.139  0.3342  0.1556  0.2746
 3060SOL    HW120816   1.088   2.577   3.125  0.0008  0.2141  0.2781
 3060SOL    HW220817   1.103   2.469   3.228  0.6448  0.3981  0.2073
 3061SOL     OW20818   3.208   0.269   4.361 -0.1963  0.2305 -0.2800
 3061SOL    HW120819   3.162   0.213   4.299  1.4764 -0.6361 -0.7277
 3061SOL    HW220820   3.215   0.221   4.443 -3.0123  0.0970 -0.1181
 3062SOL     OW20821   3.869   0.635   3.767  0.0454  0.1931 -0.1988
 3062SOL    HW120822   3.877   0.721   3.808  0.7353  0.4161 -0.7948
 3062SOL    HW220823   3.957   0.627   3.731  0.7078  0.1727  1.4170
 3063SOL     OW20824   0.505   0.868   4.066 -0.1918  0.3995  0.5477
 3063SOL    HW120825   0.584   0.816   4.079  0.1115  0.8519  0.5276
 3063SOL    HW220826   0.461   0.866   4.151 -0.9123 -2.0648  0.1211
 3064SOL     OW20827   3.714   2.468   1.651 -0.9174  0.5363 -0.8727
 3064SOL    HW120828   3.702   2.375   1.630  1.2287  0.1696 -0.5080
 3064SOL    HW220829   3.691   2.464   1.744  1.1828  1.3165 -0.3324
 3065SOL     OW20830   3.640   1.436   2.801 -0.4906 -0.2627 -0.3491
 3065SOL    HW120831   3.683   1.486   2.870 -3.5214  1.2206  0.4765
 3065SOL    HW220832   3.554   1.476   2.814 -0.8569 -0.6540 -1.5541
 3066SOL     OW20833   2.227   0.876   6.459 -0.1707  0.2080  0.2417
 3066SOL    HW120834   2.238   0.971   6.456 -2.7670  0.5506  1.1967
 3066SOL    HW220835   2.299   0.834   6.412 -0.2056 -1.3862  1.6387
 3067SOL     OW20836   4.398   2.524  13.219  0.1619  0.1294 -0.0263
 3067SOL    HW120837   4.467   2.549  13.157  0.1583 -1.5912 -0.7251
 3067SOL    HW220838   4.328   2.582  13.190 -0.8454  0.4106  2.9720
 3068SOL     OW20839   0.713   0.548   4.651  0.2970 -0.1996 -0.1224
 3068SOL    HW120840   0.728   0.510   4.564  0.9782 -0.2703  0.0269
 3068SOL    HW220841   0.727   0.465   4.696  2.3420  0.3766  0.3045
 3069SOL     OW20842   4.604   3.815   0.915  0.5394 -0.3464 -0.2454
 3069SOL    HW120843   4.617   3.908   0.930 -1.7277 -0.1772  0.6825
 3069SOL    HW220844   4.673   3.773   0.966 -0.1198  1.1918  1.8703
 3070SOL     OW20845   2.642   1.225   2.686  0.3498  0.3497  0.3014
 3070SOL    HW120846   2.721   1.210   2.634  0.4554 -0.4640  0.6986
 3070SOL    HW220847   2.608   1.136   2.685  0.2717  0.4058 -1.3550
 3071SOL     OW20848   4.514   2.173   2.127  0.7084  0.6765 -0.3559
 3071SOL    HW120849   4.552   2.102   2.076 -3.2138 -0.7945 -1.2575
 3071SOL    HW220850   4.428   2.131   2.140  1.1314  0.4816  1.8306
 3072SOL     OW20851   3.609   0.713   6.179  0.3846  0.0968 -0.1510
 3072SOL    HW120852   3.658   0.766   6.116 -0.8853  0.8061 -0.5404
 3072SOL    HW220853   3.676   0.711   6.247 -2.3058  2.3215  2.5701
 3073SOL     OW20854   4.076   3.456   6.699  0.6166  0.3095  0.2998
 3073SOL    HW120855   4.013   3.402   6.650  2.4156 -0.9052 -0.6952
 3073SOL    HW220856   4.032   3.540   6.687  1.1292  0.5215 -0.1265
 3074SOL     OW20857   1.110   3.388   1.360  0.1515  0.3808 -0.1170
 3074SOL    HW120858   1.205   3.391   1.370  0.0903 -1.8748  1.1843
 3074SOL    HW220859   1.106   3.324   1.289 -0.1217  0.1864  0.0734
 3075SOL     OW20860   0.558   2.992   3.745 -0.2026  0.1178  0.4242
 3075SOL    HW120861   0.519   3.016   3.829  1.9311  0.7694  1.2279
 3075SOL    HW220862   0.652   3.001   3.761 -0.2735  0.5983  0.5663
 3076SOL     OW20863   0.416   1.613  15.979  0.3266 -0.1718 -0.0583
 3076SOL    HW120864   0.495   1.633  16.028  0.8052 -2.3534  0.0196
 3076SOL    HW220865   0.431   1.524  15.948  0.6013 -0.3260  0.5308
 3077SOL     OW20866   3.265   4.598  16.996  0.8897 -0.0128 -0.4442
 3077SOL    HW120867   3.190   4.540  17.005 -0.2193  1.5602  0.5791
 3077SOL    HW220868   3.236   4.670  17.053 -0.2144 -0.5221 -0.3598
 3078SOL     OW20869   4.418   1.593   1.900  0.4824 -0.0490 -0.0325
 3078SOL    HW120870   4.480   1.665   1.914 -0.5158  0.1556  3.2808
 3078SOL    HW220871   4.358   1.613   1.972 -0.0274  0.1113 -0.5031
 3079SOL     OW20872   1.117   2.177   9.772 -0.3800 -0.2694  0.3475
 3079SOL    HW120873   1.145   2.201   9.860  0.4702 -0.2294  0.0649
 3079SOL    HW220874   1.023   2.179   9.793 -0.2642  1.4097  0.6833
 3080SOL     OW20875   3.808   0.447  14.738  0.2891  0.0606 -0.2817
 3080SOL    HW120876   3.821   0.354  14.757 -0.5459  0.1182  0.5591
 3080SOL    HW220877   3.764   0.451  14.653  1.2591  0.4717 -0.7674
 3081SOL     OW20878   0.442   0.524  11.058 -0.5443 -0.3369  0.1555
 3081SOL    HW120879   0.415   0.514  11.150 -3.5541  1.8046 -0.5080
 3081SOL    HW220880   0.502   0.450  11.051 -0.6284 -0.1395 -2.5518
 3082SOL     OW20881   2.396   3.604   4.346 -0.2041 -0.0504  0.1555
 3082SOL    HW120882   2.300   3.603   4.343 -0.2506  0.5611  1.3896
 3082SOL    HW220883   2.411   3.699   4.344  0.0695 -0.0782  0.8586
 3083SOL     OW20884   2.863   2.911  10.221 -0.4430 -0.0218  0.0571
 3083SOL    HW120885   2.928   2.969  10.261  0.1400  0.7806 -2.0508
 3083SOL    HW220886   2.779   2.950  10.246 -0.0263 -0.0151  1.4355
 3084SOL     OW20887   2.929   1.684  12.468  0.4812 -0.0165  0.2372
 3084SOL    HW120888   2.948   1.734  12.389 -1.7598  0.1210 -0.2059
 3084SOL    HW220889   2.833   1.686  12.469  0.4727 -1.3794  1.5034
 3085SOL     OW20890   4.015   4.444   3.116 -0.0563 -0.2634  0.0411
 3085SOL    HW120891   4.066   4.522   3.137  0.2741 -1.1810  2.6544
 3085SOL    HW220892   4.014   4.451   3.020  0.8899  3.5098  0.3322
 3086SOL     OW20893   1.221   0.170  13.095  0.1511 -0.6217  0.1098
 3086SOL    HW120894   1.227   0.261  13.125  1.1324 -0.8797  0.6735
 3086SOL    HW220895   1.127   0.174  13.076 -0.4026 -1.7006  2.6307
 3087SOL     OW20896   1.554   3.368  15.755 -0.2510 -0.0061 -0.3829
 3087SOL    HW120897   1.491   3.303  15.722 -0.5528 -1.3499  2.8233
 3087SOL    HW220898   1.639   3.324  15.747 -0.5283 -0.3985 -1.2389
 3088SOL     OW20899   3.000   1.658  10.873  0.1314 -0.0900 -0.4252
 3088SOL    HW120900   3.008   1.568  10.904 -1.2890  0.0918  0.4860
 3088SOL    HW220901   2.965   1.641  10.785  1.4518 -1.1851 -0.7372
 3089SOL     OW20902   0.914   2.986   2.958  0.8798  0.0309  0.7608
 3089SOL    HW120903   0.873   2.900   2.957  1.6209 -0.2863 -1.6951
 3089SOL    HW220904   0.843   3.037   2.920  0.2214 -1.0574  0.5188
 3090SOL     OW20905   1.773   0.507  14.836  0.6114  0.8138  0.4634
 3090SOL    HW120906   1.809   0.421  14.857  2.2317  1.9052  2.0629
 3090SOL    HW220907   1.775   0.547  14.922 -0.8801 -1.9497  1.7784
 3091SOL     OW20908   4.672   1.084   6.519  0.2881  0.4456  0.0648
 3091SOL    HW120909   4.652   1.140   6.444  0.5488 -0.6880 -0.8392
 3091SOL    HW220910   4.694   1.147   6.588  0.8694  2.7236 -2.1901
 3092SOL     OW20911   4.483   3.517  16.814  0.4983 -0.1203  0.4823
 3092SOL    HW120912   4.388   3.514  16.820  0.4293 -0.3728 -0.6865
 3092SOL    HW220913   4.509   3.431  16.848  0.0863 -0.8132 -0.9711
 3093SOL     OW20914   0.093   4.693   2.296 -0.2294 -0.1290 -0.7446
 3093SOL    HW120915   0.057   0.045   2.282  0.6385  0.2708 -0.3940
 3093SOL    HW220916   0.129   4.666   2.211  0.1633 -3.0993  0.3495
 3094SOL     OW20917   3.564   3.175   3.716 -0.0425  0.1543 -0.1286
 3094SOL    HW120918   3.635   3.201   3.657 -0.2288 -0.0959 -0.4621
 3094SOL    HW220919   3.494   3.232   3.684 -0.6830  0.5781  2.0088
 3095SOL     OW20920   2.516   0.873   7.745  0.3337 -0.3027  0.1791
 3095SOL    HW120921   2.445   0.840   7.800 -0.8285 -1.0542 -1.7737
 3095SOL    HW220922   2.564   0.917   7.815 -1.1151  0.1195  0.9144
 3096SOL     OW20923   1.402   0.900   2.712  0.5898 -0.4785 -0.8371
 3096SOL    HW120924   1.452   0.980   2.697  0.8226 -0.6625 -1.0581
 3096SOL    HW220925   1.331   0.934   2.657  0.3832  2.0708  0.9970
 3097SOL     OW20926   1.158   2.780   9.371 -0.4007  0.0667 -0.2120
 3097SOL    HW120927   1.173   2.701   9.422 -0.6807  1.0141  1.3604
 3097SOL    HW220928   1.109   2.829   9.438 -2.4131 -0.5295 -1.2651
 3098SOL     OW20929   3.547   0.793   1.311 -0.0529  0.1324 -0.2545
 3098SOL    HW120930   3.506   0.720   1.265  0.1292 -1.4919  2.1807
 3098SOL    HW220931   3.505   0.788   1.397  2.0554 -3.7272  0.5427
 3099SOL     OW20932   0.072   1.350   5.936 -0.4301  0.6957  0.0308
 3099SOL    HW120933   0.010   1.416   5.905 -0.1649  2.0994  2.4492
 3099SOL    HW220934   0.005   1.289   5.966  2.0446 -1.3886  1.3706
 3100SOL     OW20935   1.054   4.311  13.102 -0.4216 -0.5701 -0.1868
 3100SOL    HW120936   0.993   4.294  13.030 -1.2641  1.7706 -0.0313
 3100SOL    HW220937   1.027   4.395  13.137 -1.7820 -0.3914 -1.6403
 3101SOL     OW20938   0.829   0.637   6.906 -0.0591  0.0976  0.5172
 3101SOL    HW120939   0.790   0.617   6.991 -0.7789 -0.8174 -0.0169
 3101SOL    HW220940   0.893   0.704   6.928  0.7893 -0.2999 -0.7180
 3102SOL     OW20941   0.292   0.627   3.275 -0.3264 -0.6064 -0.0102
 3102SOL    HW120942   0.292   0.662   3.185  2.1717 -1.8380 -0.5021
 3102SOL    HW220943   0.304   0.709   3.321 -0.5746 -1.2831  1.2495
 3103SOL     OW20944   1.000   2.743  14.925 -0.1739  0.0914  0.1802
 3103SOL    HW120945   0.963   2.770  15.008  2.1758  1.1489  0.8940
 3103SOL    HW220946   1.060   2.814  14.901  2.5981 -2.4561 -0.5999
 3104SOL     OW20947   2.908   4.393   2.965 -0.2065 -0.4307 -0.8271
 3104SOL    HW120948   2.847   4.440   2.908 -0.3179  1.1749  0.6395
 3104SOL    HW220949   2.979   4.455   2.954 -1.2905  0.6228 -1.8275
 3105SOL     OW20950   3.080   3.547   0.484  0.5728 -0.4507 -0.2109
 3105SOL    HW120951   3.174   3.537   0.469  0.8644  1.4454  0.3687
 3105SOL    HW220952   3.069   3.490   0.561  1.2924  1.3781  1.2463
 3106SOL     OW20953   3.726   4.181   1.468 -0.3046  0.2917 -0.1009
 3106SOL    HW120954   3.758   4.193   1.379  0.3093  0.8851  0.2019
 3106SOL    HW220955   3.635   4.171   1.440 -0.1672 -0.6230 -0.2376
 3107SOL     OW20956   0.099   1.666   5.357 -0.0847 -0.4298  0.0264
 3107SOL    HW120957   0.029   1.703   5.410  0.6160 -1.3466  1.5620
 3107SOL    HW220958   0.059   1.674   5.270 -0.3684  0.3593  0.2319
 3108SOL     OW20959   2.080   0.448   9.328  0.3495  0.0760 -0.1247
 3108SOL    HW120960   2.113   0.467   9.416  0.3600 -3.5145  0.6617
 3108SOL    HW220961   2.002   0.503   9.321 -0.0796 -0.3140  1.3819
 3109SOL     OW20962   1.692   4.107   9.046 -0.6230 -0.0037  0.0888
 3109SOL    HW120963   1.749   4.035   9.071 -3.0701 -1.2936  1.9716
 3109SOL    HW220964   1.717   4.137   8.959 -1.6350  0.7802  0.0606
 3110SOL     OW20965   3.751   0.418   7.177  0.0568  0.2038 -0.3517
 3110SOL    HW120966   3.700   0.340   7.158 -1.2837  0.9291  0.2804
 3110SOL    HW220967   3.692   0.490   7.153  1.3042  1.5983  0.7911
 3111SOL     OW20968   0.644   3.006   6.470 -0.4426 -0.3432  0.4598
 3111SOL    HW120969   0.552   2.987   6.491 -0.3080  0.9399  2.2220
 3111SOL    HW220970   0.634   3.096   6.437  0.3874 -0.0303  1.0612
 3112SOL     OW20971   1.861   1.361   8.652 -0.4666 -0.5254  0.0783
 3112SOL    HW120972   1.853   1.333   8.743 -2.8674  1.3954  0.4545
 3112SOL    HW220973   1.864   1.282   8.598  0.4252  0.2492 -0.9974
 3113SOL     OW20974   3.446   3.083  17.350  0.4594 -0.1031  0.0126
 3113SOL    HW120975   3.434   3.165  17.301 -0.2014 -0.0822  0.2085
 3113SOL    HW220976   3.529   3.099  17.395  0.5196 -0.7168  0.1141
 3114SOL     OW20977   0.400   1.202   0.147  0.0995  0.2209 -0.8753
 3114SOL    HW120978   0.315   1.229   0.181  1.2926  1.2252  1.3693
 3114SOL    HW220979   0.454   1.241   0.216 -1.0676 -2.0314  1.2825
 3115SOL     OW20980   3.145   2.839   1.394  0.3796 -0.1483  0.7018
 3115SOL    HW120981   3.080   2.844   1.324  0.4304  0.4233  0.6913
 3115SOL    HW220982   3.226   2.820   1.348 -0.7173 -1.8356 -0.5062
 3116SOL     OW20983   0.143   4.230  12.028 -0.1757  0.1259  0.3589
 3116SOL    HW120984   0.088   4.307  12.042  1.4809  1.0519  1.7224
 3116SOL    HW220985   0.207   4.282  11.979  0.9090 -0.1142  1.5378
 3117SOL     OW20986   3.738   1.022   6.956 -0.0934  0.3527  0.3741
 3117SOL    HW120987   3.701   0.982   7.034  0.4731 -0.3631  0.2738
 3117SOL    HW220988   3.659   1.057   6.916  0.2104  0.3665 -0.2237
 3118SOL     OW20989   2.953   0.423   4.649 -0.3136  0.4533  0.4565
 3118SOL    HW120990   3.044   0.410   4.676 -0.6166 -0.1757  1.1574
 3118SOL    HW220991   2.906   0.477   4.713  0.1122 -1.9317  2.8010
 3119SOL     OW20992   2.461   3.117   3.531  0.6318  0.0418 -0.2320
 3119SOL    HW120993   2.401   3.192   3.529  1.2477  0.5928  2.5773
 3119SOL    HW220994   2.451   3.092   3.439  0.6372  0.8890 -0.4617
 3120SOL     OW20995   2.286   3.838   4.379 -0.1493 -0.0849  0.0054
 3120SOL    HW120996   2.247   3.924   4.366 -0.6295 -0.3980 -0.6239
 3120SOL    HW220997   2.227   3.812   4.449 -1.7953  3.3734 -0.1022
 3121SOL     OW20998   3.330   1.658   5.730  0.4535  0.2132  0.8139
 3121SOL    HW120999   3.264   1.680   5.796 -1.8726 -1.2602 -1.0058
 3121SOL    HW221000   3.347   1.752   5.721 -0.3894  0.1678 -1.3299
 3122SOL     OW21001   0.549   3.467  10.830 -0.5818 -0.3871 -0.3741
 3122SOL    HW121002   0.470   3.519  10.818 -0.3367  0.1857  0.4352
 3122SOL    HW221003   0.600   3.541  10.864 -0.5665 -1.6729  2.4780
 3123SOL     OW21004   0.580   1.155   4.394 -1.2961  0.1539  0.1317
 3123SOL    HW121005   0.507   1.097   4.412 -0.4252 -0.4897  1.5545
 3123SOL    HW221006   0.637   1.159   4.470 -1.9159 -0.3165  0.6151
 3124SOL     OW21007   1.264   2.176   4.792  0.2514 -0.7751 -0.3680
 3124SOL    HW121008   1.215   2.242   4.840 -0.4643 -0.4291 -1.5845
 3124SOL    HW221009   1.355   2.205   4.805 -0.0791  0.0389  0.1497
 3125SOL     OW21010   2.170   4.593   7.656  0.5539  0.3759 -0.4622
 3125SOL    HW121011   2.163   4.688   7.667 -1.2182 -0.1474  2.9850
 3125SOL    HW221012   2.247   4.586   7.600  1.4072 -2.8797  1.1321
 3126SOL     OW21013   1.844   0.900   8.232 -0.4731 -0.4359 -0.0418
 3126SOL    HW121014   1.932   0.879   8.202 -1.1676 -0.6012 -1.9850
 3126SOL    HW221015   1.825   0.974   8.175  1.9647 -0.1229 -0.4325
 3127SOL     OW21016   4.316   2.362   9.567  0.0202  0.0524  0.3756
 3127SOL    HW121017   4.221   2.363   9.569  0.0084 -1.6748  0.8043
 3127SOL    HW221018   4.327   2.350   9.473  0.7442 -0.6700  0.5490
 3128SOL     OW21019   2.299   2.362  16.273  0.7471 -0.1457  0.1855
 3128SOL    HW121020   2.265   2.273  16.270 -0.8968  0.4086  2.7936
 3128SOL    HW221021   2.368   2.353  16.207  1.5694 -2.1985  1.3289
 3129SOL     OW21022   0.047   0.926   7.610 -0.1410  0.0775 -0.1577
 3129SOL    HW121023   0.016   1.004   7.655 -0.8267 -0.0086 -0.4768
 3129SOL    HW221024   0.013   0.952   7.524 -3.2158 -0.6693  0.8361
 3130SOL     OW21025   1.839   3.774  15.979 -0.8279 -0.4360 -0.7018
 3130SOL    HW121026   1.861   3.841  15.915 -0.1596 -1.0005 -1.0517
 3130SOL    HW221027   1.763   3.730  15.940  0.0836 -2.3472 -0.3133
 3131SOL     OW21028   0.703   4.033   4.420  0.2436  0.5922 -0.0478
 3131SOL    HW121029   0.779   4.056   4.366  0.2713 -1.1233 -0.7387
 3131SOL    HW221030   0.641   4.001   4.354 -0.0489 -0.6916  0.8537
 3132SOL     OW21031   3.799   1.438   5.588 -0.1228  0.3862 -0.3634
 3132SOL    HW121032   3.714   1.447   5.546 -0.0318 -0.3841 -0.7035
 3132SOL    HW221033   3.772   1.405   5.674  0.4911  0.7477 -0.0343
 3133SOL     OW21034   4.133   1.863  17.656  0.3290  0.8965 -0.0865
 3133SOL    HW121035   4.090   1.911  17.585 -1.3587 -1.6194 -0.7959
 3133SOL    HW221036   4.188   1.802  17.606 -0.1335 -1.3598  2.1070
 3134SOL     OW21037   1.484   2.434   7.193  0.6673 -0.5180  0.2974
 3134SOL    HW121038   1.510   2.367   7.257 -0.3003 -2.3561 -1.2165
 3134SOL    HW221039   1.389   2.425   7.198  0.2627  1.6222 -3.7073
 3135SOL     OW21040   4.007   0.942  17.213  0.0243 -0.6019  0.5822
 3135SOL    HW121041   3.958   0.940  17.295  0.6273 -1.4087  0.9162
 3135SOL    HW221042   4.090   0.944  17.262 -0.5961 -0.0588  1.6098
 3136SOL     OW21043   1.652   4.049  13.080 -0.3082 -0.3954 -0.5633
 3136SOL    HW121044   1.610   4.031  12.996 -0.1095  1.1315 -0.9802
 3136SOL    HW221045   1.665   3.962  13.120 -1.6122 -0.4566 -0.2655
 3137SOL     OW21046   0.917   3.145   6.424 -0.3964 -0.1700  0.7112
 3137SOL    HW121047   0.884   3.072   6.477  0.5713 -3.0108 -2.5162
 3137SOL    HW221048   0.953   3.198   6.495 -0.6174 -1.0908  1.5132
 3138SOL     OW21049   0.483   4.672   5.250  0.0342 -0.2605 -0.0485
 3138SOL    HW121050   0.534   4.680   5.331  0.5264  4.1486 -0.7989
 3138SOL    HW221051   0.421   4.608   5.284  0.3697 -0.9611 -0.7590
 3139SOL     OW21052   2.523   0.664   5.704 -0.0019  0.4288 -1.0563
 3139SOL    HW121053   2.474   0.706   5.775  1.0102 -1.3526  0.6977
 3139SOL    HW221054   2.527   0.573   5.733 -1.0295  0.2834 -1.3863
 3140SOL     OW21055   0.067   4.399   8.808 -0.2546 -0.0145 -0.5352
 3140SOL    HW121056   0.108   4.384   8.893  2.2563 -1.4068 -1.9759
 3140SOL    HW221057   0.083   4.494   8.802 -3.2089  0.4653 -0.4904
 3141SOL     OW21058   0.348   4.649  12.754  0.6369 -0.7617  0.7025
 3141SOL    HW121059   0.418   4.709  12.729  0.0478  0.9961  3.2834
 3141SOL    HW221060   0.281   4.715  12.775  0.9007 -1.0285  2.3216
 3142SOL     OW21061   0.379   3.085   8.553  0.4050 -0.3555  0.0517
 3142SOL    HW121062   0.333   3.041   8.483 -0.4152 -0.9399  0.9561
 3142SOL    HW221063   0.315   3.095   8.624  1.5971 -1.0694  1.2220
 3143SOL     OW21064   2.633   1.416   6.801  0.4156 -0.0745  0.0491
 3143SOL    HW121065   2.588   1.455   6.727  2.3976  1.0824 -0.5158
 3143SOL    HW221066   2.601   1.474   6.870 -0.3407 -0.6358  0.1756
 3144SOL     OW21067   1.953   2.610  12.803  0.2287  0.0241  0.0930
 3144SOL    HW121068   1.930   2.579  12.715 -0.3419  2.3103 -0.5739
 3144SOL    HW221069   2.038   2.567  12.816  1.1233  1.9664  0.6306
 3145SOL     OW21070   2.415   4.446   8.268  0.2814  0.1885  0.2825
 3145SOL    HW121071   2.408   4.451   8.173 -0.3227  2.7744  0.4788
 3145SOL    HW221072   2.328   4.455   8.306  1.0509  0.5471  1.9863
 3146SOL     OW21073   4.222   3.105   5.405 -0.4145  0.1582 -0.1109
 3146SOL    HW121074   4.265   3.138   5.484 -0.6123  0.5446 -0.1627
 3146SOL    HW221075   4.131   3.129   5.424 -0.1793  0.4269  0.6845
 3147SOL     OW21076   0.141   3.740   3.545 -0.2430 -0.3615  0.2066
 3147SOL    HW121077   0.216   3.694   3.507 -1.3317 -0.7482 -1.4783
 3147SOL    HW221078   0.182   3.812   3.593 -0.4874 -0.4056  0.4785
 3148SOL     OW21079   4.585   1.660  15.373  0.3028  0.1611 -0.4065
 3148SOL    HW121080   4.588   1.680  15.279  0.8640 -2.5501 -0.9525
 3148SOL    HW221081   4.675   1.663  15.404  0.0240  4.2190 -0.0157
 3149SOL     OW21082   1.173   2.163   0.783 -0.0311 -0.4910 -0.6079
 3149SOL    HW121083   1.142   2.106   0.713 -0.7215  0.2903 -0.9366
 3149SOL    HW221084   1.253   2.123   0.817 -0.9970 -3.2540 -1.5411
 3150SOL     OW21085   2.359   0.305  10.997  0.0825  0.2773 -1.0147
 3150SOL    HW121086   2.335   0.281  11.087  1.2209 -1.8815 -1.2787
 3150SOL    HW221087   2.354   0.226  10.944  0.3933 -0.1332 -0.4396
 3151SOL     OW21088   1.333   2.259   1.978  0.0188 -0.4259  0.1807
 3151SOL    HW121089   1.241   2.285   1.985  0.5886  1.5049  0.5000
 3151SOL    HW221090   1.379   2.338   1.950  0.3243 -0.4429  0.6250
 3152SOL     OW21091   1.439   0.886   4.928  0.0877  0.0297 -0.0513
 3152SOL    HW121092   1.348   0.862   4.909 -0.2460  1.6668 -0.4933
 3152SOL    HW221093   1.460   0.948   4.858 -1.5436  0.9311  0.2508
 3153SOL     OW21094   0.489   4.591   6.252 -0.1760  0.3727 -0.0326
 3153SOL    HW121095   0.577   4.563   6.226 -0.6109  0.2131 -1.3356
 3153SOL    HW221096   0.436   4.519   6.220  0.3317 -0.5643  1.2340
 3154SOL     OW21097   1.927   0.860   8.504  0.2019 -0.4004 -0.4425
 3154SOL    HW121098   1.900   0.869   8.413  1.1214  0.0788 -0.6704
 3154SOL    HW221099   1.840   0.845   8.541 -0.3773  3.1934 -0.2999
 3155SOL     OW21100   3.881   2.584  14.579  0.5872  0.3208  0.0212
 3155SOL    HW121101   3.884   2.639  14.657  1.3227 -0.8712  0.8126
 3155SOL    HW221102   3.790   2.604  14.556  0.4150 -1.4891 -0.8696
 3156SOL     OW21103   2.968   3.260   5.768 -0.1540  0.6988  0.0321
 3156SOL    HW121104   3.026   3.324   5.809 -1.4837  0.7890  1.7606
 3156SOL    HW221105   2.979   3.190   5.833  2.1512  1.1573  0.1486
 3157SOL     OW21106   2.425   1.171   3.951 -0.3865  0.0078 -0.2190
 3157SOL    HW121107   2.486   1.173   4.024 -2.5247 -0.6102  1.5881
 3157SOL    HW221108   2.356   1.113   3.984  0.7458 -0.6301  1.0049
 3158SOL     OW21109   1.602   3.688   1.073  0.3640  0.1455  0.1055
 3158SOL    HW121110   1.691   3.666   1.047 -0.1062  0.8054 -2.0562
 3158SOL    HW221111   1.567   3.601   1.089 -1.4745  0.9673  0.6014
 3159SOL     OW21112   0.122   1.044   3.212  0.2084  0.4652  0.1971
 3159SOL    HW121113   0.162   1.059   3.298  0.6214 -1.8880  0.4254
 3159SOL    HW221114   0.047   0.991   3.235  0.1316  0.4407 -0.1134
 3160SOL     OW21115   2.558   0.618  15.165 -0.0582  0.3538  0.4447
 3160SOL    HW121116   2.551   0.712  15.147 -3.3665 -0.4196 -2.3321
 3160SOL    HW221117   2.481   0.595  15.113  2.7026 -2.5898 -2.2928
 3161SOL     OW21118   0.573   2.214   3.894  0.0144  0.1532 -0.0704
 3161SOL    HW121119   0.525   2.133   3.913  1.9413 -1.4229 -2.0251
 3161SOL    HW221120   0.503   2.278   3.877 -2.0952 -2.2551 -0.5012
 3162SOL     OW21121   1.155   0.071   5.947  0.7958  0.0386 -0.1902
 3162SOL    HW121122   1.170   4.727   6.000 -0.7263  0.8408  1.4437
 3162SOL    HW221123   1.217   0.046   5.878 -0.9946  2.4444 -2.6366
 3163SOL     OW21124   3.242   2.926   7.357 -0.4646 -0.0588  0.0451
 3163SOL    HW121125   3.333   2.952   7.349  0.2415 -2.6042 -0.1401
 3163SOL    HW221126   3.238   2.859   7.426 -0.1383  1.0257  1.1104
 3164SOL     OW21127   3.343   3.578   6.825  0.1463 -0.0244 -0.0414
 3164SOL    HW121128   3.306   3.594   6.738  0.4380 -1.5643 -0.4410
 3164SOL    HW221129   3.343   3.665   6.865  1.2743  0.9796 -2.1897
 3165SOL     OW21130   0.944   1.351   3.824  0.1587  0.3741  0.2666
 3165SOL    HW121131   1.001   1.342   3.900  0.3599 -1.9213 -0.1595
 3165SOL    HW221132   0.904   1.265   3.810 -0.8730  0.8318  0.3730
 3166SOL     OW21133   4.631   2.610   8.109  0.2122  0.0791 -0.3756
 3166SOL    HW121134   4.605   2.648   8.193 -1.3939 -0.2234 -0.7358
 3166SOL    HW221135   4.546   2.583   8.074  0.1215 -1.6869  1.2552
 3167SOL     OW21136   0.211   2.041  14.272  0.0261 -0.0483  0.0506
 3167SOL    HW121137   0.241   2.086  14.351 -0.1304 -0.8074  0.5388
 3167SOL    HW221138   0.136   1.991  14.304  0.1414 -0.2569 -0.0020
 3168SOL     OW21139   0.778   1.219  11.810 -0.0388  0.2173 -0.2090
 3168SOL    HW121140   0.751   1.231  11.901 -2.0249 -2.4188 -0.4422
 3168SOL    HW221141   0.704   1.174  11.769  1.5540 -0.4507 -2.3248
 3169SOL     OW21142   0.057   4.099   3.776 -0.2282  0.4731 -0.3832
 3169SOL    HW121143   0.046   4.144   3.860 -1.6670  0.2064 -0.4240
 3169SOL    HW221144   0.076   4.177   3.724 -0.9807  2.2181  1.9227
 3170SOL     OW21145   3.841   2.908  15.382  0.3768 -0.1725  0.1611
 3170SOL    HW121146   3.887   2.853  15.446  2.0344 -0.5591 -1.3513
 3170SOL    HW221147   3.877   2.876  15.300  0.8085 -1.3766  0.8323
 3171SOL     OW21148   3.979   4.483  11.357 -0.2564 -0.2883 -0.2382
 3171SOL    HW121149   3.893   4.444  11.370  0.6027 -1.3873  2.2001
 3171SOL    HW221150   4.002   4.500  11.448  2.3901 -1.7444 -0.6321
 3172SOL     OW21151   0.620   2.968   2.508  0.1971  0.5590 -0.0367
 3172SOL    HW121152   0.590   2.949   2.597 -0.2346  1.2122 -0.0396
 3172SOL    HW221153   0.606   2.885   2.464  0.0237 -0.2218  1.5006
 3173SOL     OW21154   0.943   4.431   8.868 -0.5381  0.2666 -0.0624
 3173SOL    HW121155   0.907   4.484   8.939  1.2336 -1.5505  2.1406
 3173SOL    HW221156   0.897   4.347   8.876 -1.1438  0.7274  1.3434
 3174SOL     OW21157   1.867   4.274   4.050  0.0079  0.0774 -0.4257
 3174SOL    HW121158   1.810   4.302   4.122  0.2237 -1.0614  0.1815
 3174SOL    HW221159   1.942   4.324   4.082  0.4898 -1.3355  0.6468
 3175SOL     OW21160   2.844   4.163  10.824 -0.4532 -0.0531  0.1004
 3175SOL    HW121161   2.876   4.191  10.738  0.5167 -1.6003 -0.0376
 3175SOL    HW221162   2.896   4.087  10.851  0.5730 -0.6168 -3.4164
 3176SOL     OW21163   2.515   1.276   7.566 -0.1290  0.0993  0.0236
 3176SOL    HW121164   2.552   1.200   7.520 -2.0746 -1.4058  0.9248
 3176SOL    HW221165   2.586   1.306   7.623 -1.2706 -0.4393  1.7195
 3177SOL     OW21166   4.286   1.179   6.833  0.1136  0.1126  0.2210
 3177SOL    HW121167   4.220   1.121   6.871 -2.3655  1.4974 -1.9705
 3177SOL    HW221168   4.345   1.178   6.909  1.1432  1.8188 -0.5412
 3178SOL     OW21169   0.337   0.962   2.854  0.7401  0.7168 -0.4297
 3178SOL    HW121170   0.275   0.904   2.899 -0.9772  2.9758  0.1367
 3178SOL    HW221171   0.357   0.903   2.781 -0.3001 -1.1540  0.7920
 3179SOL     OW21172   2.369   0.215   6.496  0.3892 -0.1910 -0.0814
 3179SOL    HW121173   2.383   0.272   6.421  0.2532 -0.7143 -0.5037
 3179SOL    HW221174   2.441   0.156   6.519 -0.5564 -1.3556 -0.0959
 3180SOL     OW21175   3.677   0.033  15.564  0.5154  0.4715 -0.2222
 3180SOL    HW121176   3.724   0.073  15.491  0.9589  0.6995  0.1882
 3180SOL    HW221177   3.737   4.708  15.607 -0.6235 -1.7952 -1.8242
 3181SOL     OW21178   2.639   0.376   7.381 -0.5625  0.3339 -0.7361
 3181SOL    HW121179   2.603   0.290   7.360  0.8733 -0.0437 -1.5923
 3181SOL    HW221180   2.601   0.380   7.469  0.5920 -1.4124 -0.1751
 3182SOL     OW21181   1.769   3.518  16.854  0.1565  0.2044 -0.3438
 3182SOL    HW121182   1.709   3.477  16.917 -0.5445  0.6653 -0.7063
 3182SOL    HW221183   1.845   3.461  16.843  1.2014  1.7004 -0.9700
 3183SOL     OW21184   0.165   0.285  15.002  0.0898  0.4211 -0.2105
 3183SOL    HW121185   0.123   0.365  14.970  1.0297  1.1983  0.4762
 3183SOL    HW221186   0.259   0.302  15.003 -0.1510  1.7777 -2.5828
 3184SOL     OW21187   0.024   2.509   2.727  0.5481  0.3572 -0.0880
 3184SOL    HW121188   0.025   2.507   2.631  1.8746  5.0700 -0.1260
 3184SOL    HW221189   0.065   2.425   2.746  1.3525  0.3831 -1.7390
 3185SOL     OW21190   1.634   3.574   9.378  0.1890 -0.1482  0.0684
 3185SOL    HW121191   1.682   3.575   9.295 -1.6765  3.1996 -0.9527
 3185SOL    HW221192   1.562   3.633   9.354  1.5461  0.7657 -1.7076
 3186SOL     OW21193   1.176   3.970   6.512  0.4430  0.2442  0.0191
 3186SOL    HW121194   1.172   4.046   6.454  1.2355 -1.7948 -2.7399
 3186SOL    HW221195   1.084   3.943   6.509  0.5896 -0.0122 -2.2121
 3187SOL     OW21196   1.742   3.646  10.488 -0.2523  0.6094 -0.0270
 3187SOL    HW121197   1.832   3.667  10.514  0.2227 -1.3227 -0.1444
 3187SOL    HW221198   1.716   3.582  10.555 -2.1711  2.2522  0.8184
 3188SOL     OW21199   4.469   4.021   7.350 -0.3346 -0.5959  0.2670
 3188SOL    HW121200   4.400   4.018   7.283  1.5915 -1.0549 -1.6628
 3188SOL    HW221201   4.443   4.096   7.404  0.1891  0.1220 -0.4880
 3189SOL     OW21202   3.736   1.449  12.831 -0.2613 -0.2624  0.4133
 3189SOL    HW121203   3.750   1.480  12.742 -1.6429 -0.1491  0.2345
 3189SOL    HW221204   3.816   1.479  12.874  0.3879 -0.7055 -0.4920
 3190SOL     OW21205   3.991   2.315   5.152 -0.0562  0.1688 -0.6501
 3190SOL    HW121206   3.976   2.400   5.194 -0.0538  0.5584 -1.4399
 3190SOL    HW221207   4.061   2.331   5.089 -0.5350  2.3422 -0.6436
 3191SOL     OW21208   2.854   0.546   6.611 -0.7467 -0.4884  0.4921
 3191SOL    HW121209   2.833   0.631   6.574  2.2306 -1.3268 -3.0759
 3191SOL    HW221210   2.801   0.483   6.564 -1.6867  0.5736  0.1345
 3192SOL     OW21211   3.942   2.067   2.102 -0.4053  0.6362  0.4597
 3192SOL    HW121212   3.921   2.036   2.190 -0.2540 -0.5783  0.0672
 3192SOL    HW221213   3.919   1.986   2.057 -0.8142 -0.2932  2.3535
 3193SOL     OW21214   1.413   2.092  10.650  0.1919  0.5732  0.2433
 3193SOL    HW121215   1.437   2.172  10.602  1.1707 -0.2619 -0.6645
 3193SOL    HW221216   1.423   2.121  10.741 -0.0619  1.3169  0.0330
 3194SOL     OW21217   2.886   1.933   9.266 -0.0081  0.1751  0.4991
 3194SOL    HW121218   2.952   1.980   9.215  0.0203  0.4822  0.8137
 3194SOL    HW221219   2.895   1.849   9.223  1.4269 -0.7216  2.5538
 3195SOL     OW21220   4.244   2.669   6.428 -0.1028  0.3293  0.3599
 3195SOL    HW121221   4.321   2.657   6.484  0.6390  0.7646 -0.5627
 3195SOL    HW221222   4.287   2.716   6.356 -0.9295 -0.0126 -0.3508
 3196SOL     OW21223   0.447   3.536   7.477 -0.2825  0.5682  0.6929
 3196SOL    HW121224   0.375   3.595   7.454  1.2682  2.5161  0.8380
 3196SOL    HW221225   0.455   3.546   7.571 -1.6612  1.5306  0.7043
 3197SOL     OW21226   4.471   2.084   7.525 -0.0486 -0.2256  0.0052
 3197SOL    HW121227   4.492   2.027   7.452 -1.9986 -2.7891  1.4458
 3197SOL    HW221228   4.467   2.020   7.596 -0.6086 -1.2663 -0.9767
 3198SOL     OW21229   3.713   4.571   1.847 -0.0712  0.0736 -0.3027
 3198SOL    HW121230   3.707   4.484   1.888 -0.9755  0.5707  0.6180
 3198SOL    HW221231   3.651   4.555   1.775 -2.7773  0.4512  1.9478
 3199SOL     OW21232   0.177   0.270   3.578  0.3408  0.0001  0.6478
 3199SOL    HW121233   0.081   0.261   3.584  0.2036  1.1433  0.0863
 3199SOL    HW221234   0.208   0.183   3.551 -0.1300 -0.4923  1.6946
 3200SOL     OW21235   3.457   4.261  16.013  0.5561 -0.3537 -0.3241
 3200SOL    HW121236   3.514   4.227  16.082  1.7630  0.6185 -0.8299
 3200SOL    HW221237   3.462   4.356  16.025  1.2006 -0.0184 -3.1525
 3201SOL     OW21238   3.270   4.527   3.380 -0.0511  0.0661 -0.7910
 3201SOL    HW121239   3.247   4.439   3.349 -0.5755 -1.1048  3.0161
 3201SOL    HW221240   3.181   4.561   3.391 -0.6826 -1.8716  0.0688
 3202SOL     OW21241   1.414   1.496   4.098 -0.2409  0.1931  0.2418
 3202SOL    HW121242   1.323   1.507   4.071  1.0940  0.6159 -3.9638
 3202SOL    HW221243   1.422   1.402   4.118 -0.3357  0.1651  0.1482
 3203SOL     OW21244   3.838   3.407   7.624 -0.3890 -0.6481  0.0469
 3203SOL    HW121245   3.886   3.329   7.651  1.0674  0.1085 -0.3171
 3203SOL    HW221246   3.760   3.404   7.678  0.1965  0.6461  0.9617
 3204SOL     OW21247   2.467   0.656   2.906  0.1501  0.3451 -0.4881
 3204SOL    HW121248   2.467   0.720   2.835  1.3948 -0.1442 -0.9279
 3204SOL    HW221249   2.560   0.641   2.925 -0.5130 -1.7517  1.1797
 3205SOL     OW21250   1.730   2.945   2.374 -0.5230  0.2671 -0.1331
 3205SOL    HW121251   1.647   2.975   2.336 -0.8376 -0.6386 -0.1419
 3205SOL    HW221252   1.717   2.851   2.372 -0.4904  0.2306  1.5552
 3206SOL     OW21253   4.145   2.499   9.057 -0.3811 -0.3009  0.0659
 3206SOL    HW121254   4.228   2.532   9.022 -0.4791 -2.1757 -1.9441
 3206SOL    HW221255   4.130   2.431   8.991  0.2292  0.3360 -0.7337
 3207SOL     OW21256   1.941   1.456  10.792  0.0952 -0.0289 -0.0812
 3207SOL    HW121257   2.014   1.395  10.775 -0.7099 -1.0428  0.1037
 3207SOL    HW221258   1.978   1.524  10.849  0.5045 -1.2025  1.0664
 3208SOL     OW21259   1.769   2.882   8.022  0.9500  0.3418 -0.3777
 3208SOL    HW121260   1.835   2.922   7.966  2.0210  0.9479  1.3185
 3208SOL    HW221261   1.696   2.942   8.007 -0.5149 -1.1489  0.7810
 3209SOL     OW21262   4.407   1.260  12.966  0.1048  0.1867  0.1947
 3209SOL    HW121263   4.395   1.184  13.023  1.8344  0.7099  1.2503
 3209SOL    HW221264   4.380   1.329  13.026  0.0841 -0.7486  1.2545
 3210SOL     OW21265   4.069   0.270   1.880  0.4972 -0.0633  0.0606
 3210SOL    HW121266   4.040   0.189   1.837  0.4046  0.4448 -0.8216
 3210SOL    HW221267   3.990   0.315   1.911  0.8828 -0.8528  2.1495
 3211SOL     OW21268   3.175   2.894   4.020  0.2326  0.6172 -0.0064
 3211SOL    HW121269   3.191   2.931   3.933  0.4966  2.9803  1.0324
 3211SOL    HW221270   3.255   2.923   4.064  0.5859  0.1600 -0.3498
 3212SOL     OW21271   1.751   3.575   4.206 -0.3675 -0.2661  0.3416
 3212SOL    HW121272   1.844   3.592   4.190 -0.0975 -0.5744  1.5631
 3212SOL    HW221273   1.737   3.486   4.174  0.6864 -0.2744 -0.0833
 3213SOL     OW21274   1.996   2.866   3.428 -0.3540 -0.1695  0.1555
 3213SOL    HW121275   1.999   2.771   3.418  0.8895 -0.2682  1.4467
 3213SOL    HW221276   2.090   2.878   3.439  0.1473 -2.4072 -1.7511
 3214SOL     OW21277   1.302   0.427   8.700  0.1713 -0.0382  0.3786
 3214SOL    HW121278   1.310   0.380   8.783  1.1345  1.0712  0.9202
 3214SOL    HW221279   1.355   0.503   8.725  0.1959  0.2549 -0.5822
 3215SOL     OW21280   3.857   2.620   1.469 -0.3780  0.6186  0.0074
 3215SOL    HW121281   3.827   2.707   1.494 -0.8573 -0.6814  3.9127
 3215SOL    HW221282   3.802   2.572   1.531  1.9614  0.0216  1.6348
 3216SOL     OW21283   3.821   2.445  12.889 -0.5387 -0.2305 -0.6216
 3216SOL    HW121284   3.837   2.521  12.832  1.3777  0.9974  1.5467
 3216SOL    HW221285   3.903   2.397  12.897  0.2747  1.4963  1.2703
 3217SOL     OW21286   1.697   0.979  12.257  1.0330 -0.1872  0.1216
 3217SOL    HW121287   1.639   0.933  12.318 -1.2821  4.0201  1.1153
 3217SOL    HW221288   1.782   0.988  12.300  0.2635 -0.6021  1.7658
 3218SOL     OW21289   0.475   3.055   4.000  0.0818 -0.6446 -0.0228
 3218SOL    HW121290   0.527   3.002   4.060  0.8082 -1.1825 -1.1297
 3218SOL    HW221291   0.391   3.032   4.041 -0.3423  0.6043 -0.2118
 3219SOL     OW21292   4.009   3.290  17.459 -0.2915  0.0453  0.3768
 3219SOL    HW121293   4.021   3.209  17.509 -0.7036  0.9296  1.8949
 3219SOL    HW221294   4.054   3.268  17.377  5.1547 -0.1122  3.4321
 3220SOL     OW21295   0.813   0.901   8.080 -0.0398 -0.0013  0.0761
 3220SOL    HW121296   0.824   0.806   8.077 -1.4632 -0.2214  1.7570
 3220SOL    HW221297   0.884   0.926   8.138  0.7397 -0.8450 -0.5141
 3221SOL     OW21298   2.532   2.337  17.039 -0.0965  0.0247  0.2153
 3221SOL    HW121299   2.521   2.372  17.127 -1.5234  1.7363 -0.6442
 3221SOL    HW221300   2.564   2.407  16.982  0.0868 -0.7981 -0.6946
 3222SOL     OW21301   0.931   4.567   5.682 -0.0947  0.1158  0.2946
 3222SOL    HW121302   1.012   4.613   5.660 -0.5135  0.8032  0.1784
 3222SOL    HW221303   0.881   4.618   5.746 -0.3185  0.9179 -0.5248
 3223SOL     OW21304   4.383   1.453  10.388  0.3191  0.0147 -0.0399
 3223SOL    HW121305   4.359   1.402  10.311  2.1728 -2.6309  1.1452
 3223SOL    HW221306   4.476   1.433  10.400 -0.4571 -3.8527 -0.5379
 3224SOL     OW21307   2.059   1.223   9.083  0.3810 -0.2916  0.3418
 3224SOL    HW121308   2.082   1.186   9.168 -3.3993  0.4393  1.6776
 3224SOL    HW221309   2.117   1.299   9.089 -0.0870  0.1066 -0.1670
 3225SOL     OW21310   0.391   0.853   2.162  0.2393  0.3720  0.3110
 3225SOL    HW121311   0.310   0.856   2.213  0.5126 -1.0536  0.8299
 3225SOL    HW221312   0.401   0.759   2.149 -1.2631 -0.0459  2.1457
 3226SOL     OW21313   0.385   3.511   5.094  1.1381 -0.6614 -0.0655
 3226SOL    HW121314   0.389   3.433   5.040  2.5821 -0.1439 -0.7111
 3226SOL    HW221315   0.320   3.485   5.159 -1.4990  0.0092 -2.4560
 3227SOL     OW21316   2.043   3.087   8.237  1.2403 -0.0632  0.3012
 3227SOL    HW121317   2.022   3.017   8.300  2.2436  0.0959  0.8096
 3227SOL    HW221318   2.083   3.047   8.160 -0.7085  1.7310 -1.6343
 3228SOL     OW21319   0.785   0.842   3.892 -0.0941  0.2485  0.3308
 3228SOL    HW121320   0.816   0.928   3.866  0.7936 -0.6651 -1.6182
 3228SOL    HW221321   0.820   0.850   3.980 -2.3633  1.1384  1.1510
 3229SOL     OW21322   2.701   0.587   4.724 -0.5715  0.4239  0.4726
 3229SOL    HW121323   2.610   0.558   4.722 -0.2059 -0.8219  1.9188
 3229SOL    HW221324   2.715   0.582   4.819 -3.0995 -1.2301  0.7435
 3230SOL     OW21325   2.719   2.324   4.887 -0.3017  0.5869  0.3603
 3230SOL    HW121326   2.653   2.373   4.937 -1.1953 -0.3602  0.1158
 3230SOL    HW221327   2.792   2.313   4.947  1.0595 -1.2972 -1.6654
 3231SOL     OW21328   3.187   4.292   6.282  0.0755  0.0352 -0.3323
 3231SOL    HW121329   3.130   4.233   6.233  0.0067 -1.7342  1.9018
 3231SOL    HW221330   3.202   4.351   6.207  1.3162  0.5514  0.3136
 3232SOL     OW21331   0.533   3.868   5.632 -0.0755  0.7243 -0.0577
 3232SOL    HW121332   0.559   3.785   5.672 -0.2478  0.1330 -1.1818
 3232SOL    HW221333   0.478   3.904   5.702 -0.6841  1.7599 -1.0740
 3233SOL     OW21334   2.399   4.170   6.700 -0.0399  0.7101 -0.3941
 3233SOL    HW121335   2.378   4.263   6.712  1.0244  0.7848  1.0136
 3233SOL    HW221336   2.315   4.136   6.671 -1.4408  1.9857  2.1188
 3234SOL     OW21337   2.002   1.578   2.481  0.0582  0.1554 -0.0426
 3234SOL    HW121338   1.945   1.513   2.440  1.0518 -1.4819  1.1605
 3234SOL    HW221339   2.045   1.514   2.538  1.0482  1.5192  0.7681
 3235SOL     OW21340   3.564   0.087   7.518  0.5145 -0.0058  0.2196
 3235SOL    HW121341   3.656   0.114   7.526  0.3307  0.4406  0.8201
 3235SOL    HW221342   3.527   0.050   7.598  2.5216  1.4794  1.8392
 3236SOL     OW21343   1.650   1.850  12.300 -0.3584  0.0373 -0.1277
 3236SOL    HW121344   1.720   1.914  12.292 -1.6711  1.2838 -1.4993
 3236SOL    HW221345   1.611   1.893  12.376 -0.2815 -0.9129  0.4583
 3237SOL     OW21346   0.256   0.834   5.401 -0.4426  0.1813 -0.5774
 3237SOL    HW121347   0.260   0.884   5.482 -0.8434 -0.9218  0.1330
 3237SOL    HW221348   0.302   0.895   5.345  1.0242 -2.7549 -2.5949
 3238SOL     OW21349   3.968   0.976   4.652  0.2005  0.1062  0.4133
 3238SOL    HW121350   4.051   0.970   4.605  0.3518 -0.7428  0.7924
 3238SOL    HW221351   3.956   0.881   4.660 -1.9332  0.3379 -0.0341
 3239SOL     OW21352   3.392   0.248   1.322 -0.1119 -0.4335 -0.0823
 3239SOL    HW121353   3.312   0.299   1.329  1.8149  2.3585  1.6748
 3239SOL    HW221354   3.354   0.164   1.349 -0.5027 -0.7019 -1.4978
 3240SOL     OW21355   4.454   2.539   3.963 -0.6002  0.5772 -0.3292
 3240SOL    HW121356   4.424   2.565   3.876  2.7734  2.5032 -0.9131
 3240SOL    HW221357   4.405   2.586   4.030  1.2473  0.1602  1.3386
 3241SOL     OW21358   2.780   1.236  15.321  0.2232  0.7254 -0.3762
 3241SOL    HW121359   2.837   1.219  15.396 -1.2792  0.5224  0.7114
 3241SOL    HW221360   2.832   1.311  15.292  1.2983  0.6874  1.4389
 3242SOL     OW21361   2.928   4.613  11.144  0.1452  0.4142  0.0879
 3242SOL    HW121362   2.987   4.670  11.094  0.9324  1.0873  1.7781
 3242SOL    HW221363   2.937   4.529  11.098  5.2504  0.6903  0.6612
 3243SOL     OW21364   0.203   0.341  12.280 -0.5539  0.1809 -0.2284
 3243SOL    HW121365   0.210   0.291  12.199  2.5392  1.5087 -0.7817
 3243SOL    HW221366   0.137   0.407  12.257 -0.7760  0.7630  2.0839
 3244SOL     OW21367   4.571   2.557   7.099 -0.0155 -0.2319  0.4173
 3244SOL    HW121368   4.611   2.564   7.186  2.0751 -0.9598 -0.4788
 3244SOL    HW221369   4.551   2.463   7.099  1.6324 -0.5738 -0.3590
 3245SOL     OW21370   1.651   2.600   3.293  0.0964 -0.1212  0.1702
 3245SOL    HW121371   1.723   2.564   3.241 -0.4276  1.7648 -1.8892
 3245SOL    HW221372   1.646   2.692   3.266 -0.1585  0.8794  3.6546
 3246SOL     OW21373   3.116   1.796  17.243  0.1296 -0.0215 -0.3344
 3246SOL    HW121374   3.113   1.705  17.214  0.3067 -0.0308 -0.3227
 3246SOL    HW221375   3.146   1.794  17.334  1.9922 -2.5848 -0.9855
 3247SOL     OW21376   0.886   0.730   3.268  0.0681 -0.4875 -1.0161
 3247SOL    HW121377   0.878   0.717   3.173 -0.6260  0.0870 -1.0353
 3247SOL    HW221378   0.798   0.710   3.299  1.3413 -1.0958  2.1652
 3248SOL     OW21379   0.366   2.960  10.745  0.4119  0.2870 -0.1584
 3248SOL    HW121380   0.286   3.000  10.711  0.0882  0.0268  0.3230
 3248SOL    HW221381   0.349   2.923  10.831  0.4689 -1.9415 -1.1148
 3249SOL     OW21382   0.373   4.269   7.168 -0.4829 -0.2952 -0.3513
 3249SOL    HW121383   0.369   4.239   7.077 -2.8228 -0.3713 -0.2152
 3249SOL    HW221384   0.285   4.251   7.200  0.5905 -1.6407  1.9084
 3250SOL     OW21385   1.865   3.334   5.436  0.4626  0.0081  0.2907
 3250SOL    HW121386   1.777   3.317   5.469  0.9580 -1.6967  0.7428
 3250SOL    HW221387   1.846   3.385   5.358 -2.7084 -0.5957  0.6631
 3251SOL     OW21388   2.574   0.601   2.604 -0.3492  0.6040 -0.4693
 3251SOL    HW121389   2.566   0.659   2.528  3.4879  1.0775 -0.5087
 3251SOL    HW221390   2.658   0.623   2.644 -0.3334 -0.0478 -0.1471
 3252SOL     OW21391   4.050   1.400   0.550 -0.1721 -0.3375 -0.2830
 3252SOL    HW121392   3.965   1.359   0.564 -0.3416  0.3899  0.7694
 3252SOL    HW221393   4.109   1.355   0.610 -1.4217 -1.6153  0.0068
 3253SOL     OW21394   0.183   3.008  10.431 -0.2375  0.1158 -0.3421
 3253SOL    HW121395   0.141   2.926  10.456  2.4260 -0.9943  0.5304
 3253SOL    HW221396   0.276   2.991  10.448 -1.0138 -0.8784  2.8553
 3254SOL     OW21397   1.679   4.427   7.485  0.2938 -0.2463 -0.3172
 3254SOL    HW121398   1.606   4.465   7.534  0.9487 -1.6712  1.7828
 3254SOL    HW221399   1.649   4.444   7.396 -2.1152 -1.6846  0.2161
 3255SOL     OW21400   1.750   2.793   2.897 -0.0580 -0.2174 -0.0159
 3255SOL    HW121401   1.661   2.799   2.930 -0.7904  2.0277 -2.4101
 3255SOL    HW221402   1.756   2.884   2.869  0.5112 -0.4404 -0.6458
 3256SOL     OW21403   4.162   3.255   1.676  0.0336 -0.0689 -0.1420
 3256SOL    HW121404   4.159   3.172   1.723 -1.5555 -0.3393 -0.7449
 3256SOL    HW221405   4.125   3.315   1.740  1.8387  0.0052  0.8565
 3257SOL     OW21406   1.157   2.923   6.306  0.1692 -0.5432  0.4186
 3257SOL    HW121407   1.246   2.903   6.334 -0.3157  2.1999  3.8345
 3257SOL    HW221408   1.102   2.876   6.369 -1.8859  3.2041  1.3681
 3258SOL     OW21409   4.537   0.508  16.050 -0.5001 -0.3572  0.0437
 3258SOL    HW121410   4.479   0.551  16.112 -0.0586  0.4285 -0.0824
 3258SOL    HW221411   4.479   0.473  15.982 -2.0716  0.5895  0.9001
 3259SOL     OW21412   0.947   3.240   5.841 -0.3003 -0.3058  0.0911
 3259SOL    HW121413   1.013   3.189   5.794  2.4439  2.5408  0.9127
 3259SOL    HW221414   0.990   3.247   5.926 -0.4382  1.4017  0.0226
 3260SOL     OW21415   2.191   4.086   4.378 -0.0572 -0.3239  0.2870
 3260SOL    HW121416   2.199   4.135   4.297  0.7064 -0.6544  0.1653
 3260SOL    HW221417   2.104   4.098   4.417 -0.8722 -0.4346 -1.4958
 3261SOL     OW21418   0.838   1.889   2.331 -0.6263  0.2939  0.0137
 3261SOL    HW121419   0.900   1.912   2.263  0.8994 -2.3129  0.5052
 3261SOL    HW221420   0.850   1.796   2.354 -0.9428 -0.2855 -2.1560
 3262SOL     OW21421   0.443   0.816  11.761 -0.2207 -0.5077  0.3554
 3262SOL    HW121422   0.460   0.818  11.667 -0.8645  0.0033  0.2426
 3262SOL    HW221423   0.396   0.894  11.792  1.1229  0.3491  0.2253
 3263SOL     OW21424   2.932   4.705   3.384  0.2485  0.7874  0.0912
 3263SOL    HW121425   2.955   0.008   3.300  2.6758 -2.0889 -0.5534
 3263SOL    HW221426   2.982   0.015   3.451  1.6969  1.5539 -1.5281
 3264SOL     OW21427   3.121   0.018  16.757  0.1487 -0.8853  0.4910
 3264SOL    HW121428   3.210   0.031  16.790 -0.4876  1.9844  1.0635
 3264SOL    HW221429   3.140   4.734  16.665  0.6032  0.4971  0.2820
 3265SOL     OW21430   3.299   1.096   6.535  0.0154  0.7240  0.4556
 3265SOL    HW121431   3.300   1.046   6.617  2.7882 -0.4964 -0.3282
 3265SOL    HW221432   3.246   1.039   6.479 -0.9411  2.9810 -0.9371
 3266SOL     OW21433   4.558   3.522  10.717  0.6866  0.0379 -0.0392
 3266SOL    HW121434   4.513   3.599  10.681  0.7980  0.7193  1.2441
 3266SOL    HW221435   4.487   3.460  10.701  1.7067 -0.6733 -1.7261
 3267SOL     OW21436   2.998   3.031  16.384  0.1421 -0.1317 -0.1238
 3267SOL    HW121437   3.084   3.061  16.410  0.3473 -1.5102  0.7757
 3267SOL    HW221438   2.944   3.059  16.458  1.5592 -0.5496  1.0516
 3268SOL     OW21439   0.624   1.352  14.834  0.3435  0.1848 -0.4458
 3268SOL    HW121440   0.533   1.367  14.810 -0.1812 -0.2211  1.2528
 3268SOL    HW221441   0.631   1.261  14.805  0.4774  0.1554 -0.3227
 3269SOL     OW21442   1.491   2.474   1.906 -0.3305  0.9595 -0.1124
 3269SOL    HW121443   1.573   2.437   1.873 -1.6558 -1.1644 -1.0540
 3269SOL    HW221444   1.440   2.470   1.824 -2.2304  0.4247  1.0858
 3270SOL     OW21445   1.102   3.201   0.549  0.5560  0.0841  0.3800
 3270SOL    HW121446   1.040   3.154   0.494  0.5277 -0.1332  0.5969
 3270SOL    HW221447   1.130   3.136   0.614 -0.0532 -0.1631  0.3986
 3271SOL     OW21448   2.679   4.371   8.926  0.2422 -0.3036 -0.2179
 3271SOL    HW121449   2.628   4.297   8.960  1.8035 -0.7724  1.1152
 3271SOL    HW221450   2.664   4.367   8.832 -1.8264  2.0030  0.0354
 3272SOL     OW21451   0.256   0.595   3.661 -0.0194 -0.4756 -0.1704
 3272SOL    HW121452   0.349   0.606   3.681 -0.1527  1.2199 -0.5413
 3272SOL    HW221453   0.234   0.528   3.727 -0.6701  0.8492  0.9686
 3273SOL     OW21454   2.823   4.300   8.408  0.1944 -0.2540  0.0584
 3273SOL    HW121455   2.776   4.263   8.334  3.3560 -1.7466 -1.2221
 3273SOL    HW221456   2.763   4.313   8.481  2.1882  1.4123  1.4199
 3274SOL     OW21457   3.074   3.228   0.980  0.0922 -0.1911  0.2317
 3274SOL    HW121458   3.040   3.219   1.069 -1.8753  0.3388 -0.4654
 3274SOL    HW221459   3.092   3.322   0.976  1.8072 -0.5588 -0.6779
 3275SOL     OW21460   3.286   4.466  15.848 -0.1817 -0.2913 -0.2160
 3275SOL    HW121461   3.245   4.529  15.907  1.1232  1.2078 -0.9044
 3275SOL    HW221462   3.268   4.497  15.759  0.3341 -1.2157 -0.6371
 3276SOL     OW21463   2.680   1.096   6.146 -0.3773  0.2820  0.1482
 3276SOL    HW121464   2.662   1.189   6.132 -1.0902 -0.0413 -1.0424
 3276SOL    HW221465   2.760   1.108   6.198 -1.6870  0.4590  2.1000
 3277SOL     OW21466   1.004   2.641  12.561  0.3410  0.1339  0.3810
 3277SOL    HW121467   1.071   2.601  12.616 -0.6751 -0.2419  1.3393
 3277SOL    HW221468   0.963   2.700  12.625  1.4522  0.1644  1.0647
 3278SOL     OW21469   3.559   1.465  14.048  0.2376  0.7025  0.3156
 3278SOL    HW121470   3.515   1.463  13.963 -0.6585  0.8784  0.7724
 3278SOL    HW221471   3.613   1.544  14.042  0.1605  0.7126 -0.2827
 3279SOL     OW21472   4.441   1.405   8.847  0.0931  0.0766 -0.1613
 3279SOL    HW121473   4.505   1.405   8.775  0.5472  2.6054  0.2251
 3279SOL    HW221474   4.392   1.485   8.828 -1.5765 -0.6612  1.1682
 3280SOL     OW21475   0.858   4.327   7.590 -0.4780 -0.0615  0.0728
 3280SOL    HW121476   0.943   4.318   7.633 -0.4649  0.1268  0.0863
 3280SOL    HW221477   0.880   4.302   7.500  0.2372 -0.9702  0.4998
 3281SOL     OW21478   1.217   4.126   5.421  0.0118  0.3281  0.3759
 3281SOL    HW121479   1.179   4.056   5.367 -0.6264  2.7843 -2.3329
 3281SOL    HW221480   1.224   4.201   5.362  1.0898  0.3501  0.5184
 3282SOL     OW21481   2.077   0.161   5.696  0.0667  0.4977  0.2929
 3282SOL    HW121482   2.050   0.154   5.787  0.5771  1.8424  0.5403
 3282SOL    HW221483   2.033   0.239   5.662 -0.7573 -0.0141  0.1892
 3283SOL     OW21484   4.157   1.100   4.336  0.0666  0.1747 -0.0087
 3283SOL    HW121485   4.208   1.136   4.263 -2.9564  2.8100 -0.8378
 3283SOL    HW221486   4.094   1.172   4.343  0.9122  0.9951 -0.7702
 3284SOL     OW21487   1.447   3.605   2.863  0.0163  0.2104 -0.1154
 3284SOL    HW121488   1.449   3.697   2.888 -2.1183  0.6527 -1.5905
 3284SOL    HW221489   1.537   3.576   2.877  0.1300 -0.6405 -2.6665
 3285SOL     OW21490   0.999   4.087  11.376 -0.1906 -0.0873 -0.3946
 3285SOL    HW121491   1.012   4.178  11.349  0.3550  0.0457  0.3222
 3285SOL    HW221492   1.086   4.054  11.353 -1.6823 -2.9096 -1.9362
 3286SOL     OW21493   4.515   2.182  11.679 -0.6440  0.2624 -0.3918
 3286SOL    HW121494   4.420   2.191  11.683 -0.7932 -2.2945  1.3358
 3286SOL    HW221495   4.515   2.086  11.675  1.0633  0.2100  0.8586
 3287SOL     OW21496   1.523   1.904   5.219  0.3963 -0.1043  0.5469
 3287SOL    HW121497   1.522   1.943   5.306  0.5458  2.6722 -0.7079
 3287SOL    HW221498   1.615   1.876   5.218  0.4983  0.2380  0.4314
 3288SOL     OW21499   4.510   3.436   7.927 -0.4577 -0.0679 -0.5530
 3288SOL    HW121500   4.512   3.515   7.981 -1.3719  0.4145 -1.2241
 3288SOL    HW221501   4.416   3.437   7.907 -0.4971 -0.9053 -0.4141
 3289SOL     OW21502   2.839   4.069   0.190  0.0439  0.1224  0.1598
 3289SOL    HW121503   2.807   3.979   0.201 -0.0829  0.0478 -0.8085
 3289SOL    HW221504   2.805   4.109   0.270  1.2743  2.3823 -0.4543
 3290SOL     OW21505   2.340   0.997  16.990  0.3558 -0.0348 -0.2339
 3290SOL    HW121506   2.398   0.948  17.048  1.3273  0.2262 -1.0027
 3290SOL    HW221507   2.301   1.061  17.050 -0.0960  0.2462 -0.8249
 3291SOL     OW21508   3.192   2.373   2.378 -0.6697 -0.0923  0.2590
 3291SOL    HW121509   3.112   2.415   2.408 -0.6805 -0.2336  0.4257
 3291SOL    HW221510   3.220   2.350   2.466 -1.9498  1.5446  1.0734
 3292SOL     OW21511   3.437   2.149  10.388  0.5755  0.0720  0.0598
 3292SOL    HW121512   3.453   2.155  10.482 -2.3406 -1.4247  0.6545
 3292SOL    HW221513   3.381   2.072  10.378 -0.1090  0.5266  0.3786
 3293SOL     OW21514   1.731   0.944   2.531 -0.2161 -0.4782  0.4878
 3293SOL    HW121515   1.653   0.986   2.567  0.3903  0.5138  0.6441
 3293SOL    HW221516   1.727   0.858   2.572 -0.8733 -1.2452 -1.1831
 3294SOL     OW21517   1.785   0.957   6.472  0.0294  0.3601  0.2693
 3294SOL    HW121518   1.805   1.041   6.431  0.7890 -0.7237 -1.5966
 3294SOL    HW221519   1.802   0.908   6.391 -1.2285  1.5282 -0.6898
 3295SOL     OW21520   2.711   3.631   4.360  0.1956 -0.0195  0.0384
 3295SOL    HW121521   2.687   3.564   4.296 -0.2124 -2.0574  2.3359
 3295SOL    HW221522   2.656   3.700   4.322 -2.8432 -2.0031  0.8693
 3296SOL     OW21523   0.699   2.528   5.046 -0.5171 -0.2059  0.0262
 3296SOL    HW121524   0.624   2.574   5.083 -0.6623  0.4372 -1.0814
 3296SOL    HW221525   0.652   2.486   4.974  0.3494 -1.9072  0.4417
 3297SOL     OW21526   1.863   4.193  16.102  0.1826 -0.0511  0.3855
 3297SOL    HW121527   1.793   4.210  16.039  2.2943  1.7614 -1.4802
 3297SOL    HW221528   1.824   4.204  16.188  0.5696 -0.8086  0.6588
 3298SOL     OW21529   2.961   0.581  10.797 -1.0286  0.5013 -0.0711
 3298SOL    HW121530   2.969   0.673  10.776  0.3677  0.4805  0.3663
 3298SOL    HW221531   3.003   0.567  10.882 -1.6797  0.1084  0.1842
 3299SOL     OW21532   0.422   1.489   2.038 -0.1671 -0.0130  0.2314
 3299SOL    HW121533   0.493   1.551   2.023  1.4480 -2.1618 -1.0100
 3299SOL    HW221534   0.351   1.536   1.995  0.9518  1.4271 -0.0653
 3300SOL     OW21535   0.694   0.215   7.596 -0.4719  0.3415  0.5605
 3300SOL    HW121536   0.657   0.262   7.521 -0.5504  2.8279  2.1647
 3300SOL    HW221537   0.782   0.251   7.585  0.3884 -1.0644  2.8783
 3301SOL     OW21538   1.942   1.108   0.396  1.3462  0.6195 -0.2527
 3301SOL    HW121539   1.894   1.162   0.458 -1.7981 -0.2761 -1.9154
 3301SOL    HW221540   1.901   1.024   0.419 -0.7658  1.4472 -0.9767
 3302SOL     OW21541   0.847   1.817  16.262 -0.8582 -0.1038  0.2951
 3302SOL    HW121542   0.891   1.887  16.311  0.5569 -0.1811 -0.8479
 3302SOL    HW221543   0.891   1.825  16.177 -3.0020 -0.4678 -0.8563
 3303SOL     OW21544   1.679   3.933  16.927 -0.1502  0.5207 -0.4757
 3303SOL    HW121545   1.762   3.969  16.897  0.1892  0.3822  0.2824
 3303SOL    HW221546   1.706   3.855  16.977  0.7359 -0.3177 -2.2334
 3304SOL     OW21547   4.703   4.301   5.667  0.0421  0.2387  0.0954
 3304SOL    HW121548   4.628   4.275   5.614  0.2948  0.3399 -0.3081
 3304SOL    HW221549   4.702   4.396   5.652  0.0871  0.4981  1.7095
 3305SOL     OW21550   1.399   4.132   5.028 -0.0754 -0.3751  0.5573
 3305SOL    HW121551   1.426   4.055   4.976  1.2871  0.4906 -0.0166
 3305SOL    HW221552   1.477   4.187   5.034  0.2423 -0.9580  1.7635
 3306SOL     OW21553   1.341   0.019   3.453  0.0176 -0.4863 -0.3499
 3306SOL    HW121554   1.337   4.698   3.375  4.2347 -0.8961 -0.2970
 3306SOL    HW221555   1.386   0.092   3.409 -1.1898  0.0996 -0.6128
 3307SOL     OW21556   0.438   4.434   2.447 -0.2035 -0.7139  0.0095
 3307SOL    HW121557   0.433   4.385   2.366 -1.6000  3.6053 -2.5229
 3307SOL    HW221558   0.395   4.515   2.419 -1.0064 -0.8881  0.7492
 3308SOL     OW21559   1.789   1.920   8.444 -0.0612  0.3550  0.6113
 3308SOL    HW121560   1.792   1.984   8.514  0.8131  1.7797 -0.7288
 3308SOL    HW221561   1.827   1.841   8.482  0.1214  0.5246  0.7817
 3309SOL     OW21562   0.549   4.132   1.221 -0.3708 -0.1308 -0.0422
 3309SOL    HW121563   0.539   4.173   1.307  1.1737  0.7391 -0.2941
 3309SOL    HW221564   0.606   4.190   1.171 -0.8162 -0.1619 -0.5959
 3310SOL     OW21565   3.440   3.518   7.263  0.6408 -0.2342  0.0016
 3310SOL    HW121566   3.508   3.464   7.222  2.0273  0.0188  1.9455
 3310SOL    HW221567   3.361   3.476   7.231  0.6929  1.2096 -2.0066
 3311SOL     OW21568   1.808   1.577   5.119 -0.1138 -0.1119  0.1765
 3311SOL    HW121569   1.808   1.667   5.150 -0.9763  0.7209 -2.2543
 3311SOL    HW221570   1.843   1.530   5.194 -1.2334  0.9513  1.3644
 3312SOL     OW21571   3.908   1.393  13.276 -0.4541 -0.5079 -0.4264
 3312SOL    HW121572   3.989   1.404  13.325 -1.2230 -2.4357  1.2580
 3312SOL    HW221573   3.937   1.329  13.211  1.3072 -0.1452 -0.0037
 3313SOL     OW21574   0.027   2.738   3.576  0.5088 -0.5736  0.0522
 3313SOL    HW121575   0.097   2.677   3.601  1.5012  0.7079  0.4105
 3313SOL    HW221576   0.072   2.788   3.508  0.0359  0.4990  0.5336
 3314SOL     OW21577   2.783   1.336   8.164  0.1358 -0.1264  0.3501
 3314SOL    HW121578   2.807   1.244   8.163 -0.6471 -0.2934 -2.2658
 3314SOL    HW221579   2.866   1.373   8.134 -0.1302 -1.5712 -2.1643
 3315SOL     OW21580   2.455   3.311   2.854 -0.4001 -0.1791 -0.1962
 3315SOL    HW121581   2.515   3.243   2.883  0.1255  1.0770  1.6626
 3315SOL    HW221582   2.426   3.277   2.769  1.7832 -0.4930 -0.8080
 3316SOL     OW21583   2.571   3.342   3.658  0.0347  0.4615 -0.4242
 3316SOL    HW121584   2.616   3.425   3.673  4.9319 -1.9619 -1.6064
 3316SOL    HW221585   2.604   3.312   3.573  0.8658 -0.6978  0.3038
 3317SOL     OW21586   2.574   0.055   8.064  0.5713 -0.0991 -0.7596
 3317SOL    HW121587   2.595   0.071   7.972  5.0630  0.8388  0.4067
 3317SOL    HW221588   2.483   0.030   8.051  0.4421  0.9455 -1.8902
 3318SOL     OW21589   4.727   3.697  16.837  0.0913 -0.2389  0.2226
 3318SOL    HW121590   4.667   3.666  16.906  1.3680 -3.3208 -0.0328
 3318SOL    HW221591   0.037   3.618  16.808 -1.2740 -0.4775 -1.2732
 3319SOL     OW21592   0.590   1.864   5.545  0.2874  0.6429 -0.6349
 3319SOL    HW121593   0.576   1.945   5.497 -0.2370  0.6747 -0.4227
 3319SOL    HW221594   0.662   1.822   5.497  1.0909  0.1627  1.0097
 3320SOL     OW21595   3.903   2.837   9.900  0.0707 -0.0084 -0.1352
 3320SOL    HW121596   3.931   2.758   9.946  0.1312  1.4290  2.2576
 3320SOL    HW221597   3.897   2.882   9.983  1.7874  0.6226 -0.3426
 3321SOL     OW21598   2.196   1.788   6.854 -0.0730 -0.0749 -0.0948
 3321SOL    HW121599   2.188   1.850   6.927  2.1510  0.9628 -0.7111
 3321SOL    HW221600   2.216   1.703   6.893  0.9992 -0.1579 -0.8210
 3322SOL     OW21601   2.524   1.536   8.408 -0.0247 -0.5591 -0.5192
 3322SOL    HW121602   2.448   1.502   8.361 -0.4495  0.1243 -0.3253
 3322SOL    HW221603   2.479   1.595   8.469 -0.9554 -0.8514 -0.9309
 3323SOL     OW21604   3.479   1.215   5.880  0.4371 -0.5978  0.0588
 3323SOL    HW121605   3.409   1.275   5.903 -0.6269 -2.2895  1.2625
 3323SOL    HW221606   3.475   1.141   5.941 -2.6858  0.4080  1.0499
 3324SOL     OW21607   1.108   2.012   6.753  0.0276  0.2022  0.9006
 3324SOL    HW121608   1.195   2.027   6.788 -0.3420  0.7967  1.5799
 3324SOL    HW221609   1.128   1.987   6.663 -1.2870 -0.3182  0.7496
 3325SOL     OW21610   1.106   3.883  16.989  0.2642  0.0937  0.0768
 3325SOL    HW121611   1.169   3.812  16.978  0.5328  0.0342  1.9814
 3325SOL    HW221612   1.138   3.938  17.060  1.1934 -0.7927  0.3483
 3326SOL     OW21613   2.271   3.408   5.824 -0.2269 -0.0681  0.1355
 3326SOL    HW121614   2.198   3.424   5.764  1.6380 -0.5430 -2.2370
 3326SOL    HW221615   2.235   3.341   5.882 -0.7585 -1.0762 -1.3758
 3327SOL     OW21616   3.069   3.618  15.537  0.0672  0.3432  0.5328
 3327SOL    HW121617   3.096   3.679  15.468 -0.8071 -0.8300 -0.8477
 3327SOL    HW221618   3.108   3.645  15.620 -1.4008  0.9041  1.0398
 3328SOL     OW21619   0.795   2.091  11.137  0.3597  0.1827 -0.1519
 3328SOL    HW121620   0.798   2.177  11.180 -2.8245  0.7850 -1.1422
 3328SOL    HW221621   0.819   2.025  11.203  1.4767  2.4044  1.6586
 3329SOL     OW21622   3.275   1.325   5.180  0.4317  0.2154 -0.3295
 3329SOL    HW121623   3.369   1.329   5.198  0.5848 -0.9068 -0.9526
 3329SOL    HW221624   3.257   1.417   5.159 -0.6971 -0.1032 -0.7400
 3330SOL     OW21625   0.837   3.444  13.263  0.2502  0.3430 -0.6218
 3330SOL    HW121626   0.873   3.420  13.348  0.4499  0.4128 -0.6856
 3330SOL    HW221627   0.754   3.483  13.289  0.2649  0.9497 -1.4701
 3331SOL     OW21628   1.604   1.028   6.872  0.6271  0.1704  0.4558
 3331SOL    HW121629   1.607   1.085   6.949 -0.6231  0.8304  0.0059
 3331SOL    HW221630   1.676   0.966   6.885 -0.7586 -1.4849  0.1650
 3332SOL     OW21631   0.690   2.450   9.811 -0.1841 -0.1014  0.4559
 3332SOL    HW121632   0.595   2.445   9.809 -0.1903 -0.1764  0.9327
 3332SOL    HW221633   0.720   2.413   9.728 -1.6768  0.3080 -0.2644
 3333SOL     OW21634   0.370   3.565   5.474 -0.7433 -0.1730  0.8190
 3333SOL    HW121635   0.445   3.522   5.515 -0.7266 -1.7091 -0.7655
 3333SOL    HW221636   0.418   3.600   5.399  0.0628 -0.3111  1.2658
 3334SOL     OW21637   0.937   1.948  11.937 -0.3398  0.0159 -0.4060
 3334SOL    HW121638   0.864   1.892  11.910  0.5903 -0.4658 -1.9395
 3334SOL    HW221639   0.947   1.915  12.026 -0.8350 -0.6874 -0.6114
 3335SOL     OW21640   4.429   0.948  17.565  0.0052  0.4003 -0.3956
 3335SOL    HW121641   4.431   0.949  17.661  1.8908  2.6936 -0.4775
 3335SOL    HW221642   4.455   1.038  17.550 -3.0167  1.7309  2.3483
 3336SOL     OW21643   2.325   1.119   6.717 -0.5073 -0.6118  0.1699
 3336SOL    HW121644   2.337   1.214   6.722 -0.8499 -0.5579 -0.1043
 3336SOL    HW221645   2.232   1.114   6.698 -1.1486  1.9558  2.6315
 3337SOL     OW21646   3.081   4.456   8.032  0.8343  0.0509  0.1997
 3337SOL    HW121647   3.055   4.447   8.124  1.3636 -0.4979  0.2942
 3337SOL    HW221648   2.996   4.445   7.989  0.1629 -1.5348  1.9392
 3338SOL     OW21649   0.531   3.633   6.500  0.4424  0.3739  0.1092
 3338SOL    HW121650   0.604   3.596   6.450 -1.4049 -1.2039 -1.4241
 3338SOL    HW221651   0.494   3.674   6.422  0.5620  0.0689 -0.1103
 3339SOL     OW21652   2.592   1.725  16.602  0.0050  0.0725  0.2583
 3339SOL    HW121653   2.628   1.751  16.518 -0.7815 -0.1322 -0.1450
 3339SOL    HW221654   2.564   1.634  16.591  0.0432 -0.1458  1.8679
 3340SOL     OW21655   0.234   4.422  11.859 -0.0227 -0.8460 -0.1881
 3340SOL    HW121656   0.263   4.511  11.877 -0.5115 -0.3607 -1.7763
 3340SOL    HW221657   0.174   4.440  11.786 -0.9706  1.4489  1.1616
 3341SOL     OW21658   2.003   3.093   4.148 -0.3194 -0.4986  0.0950
 3341SOL    HW121659   1.966   3.024   4.093  0.9753 -1.0258 -0.1143
 3341SOL    HW221660   2.053   3.140   4.081 -1.8480  0.3953 -0.4162
 3342SOL     OW21661   2.421   3.795   5.369  0.2174  0.2583  0.0787
 3342SOL    HW121662   2.473   3.760   5.442 -0.8119 -3.4424 -1.0192
 3342SOL    HW221663   2.494   3.808   5.308 -1.4720 -1.7527 -2.3207
 3343SOL     OW21664   1.686   2.734   0.189  0.1351 -0.2408  0.2323
 3343SOL    HW121665   1.755   2.747   0.123  0.3397  0.3350  0.5593
 3343SOL    HW221666   1.738   2.665   0.231  0.4593 -0.6336 -0.7967
 3344SOL     OW21667   1.195   4.678   7.506 -0.3607  0.0252  0.3468
 3344SOL    HW121668   1.222   0.017   7.452  1.9520 -0.7970  0.3326
 3344SOL    HW221669   1.159   4.733   7.575  0.6739  1.3819 -0.2037
 3345SOL     OW21670   4.734   0.627  13.286 -0.0846 -0.1774  0.1196
 3345SOL    HW121671   0.056   0.694  13.249  0.4450  0.3081  1.8624
 3345SOL    HW221672   0.059   0.563  13.323  1.7034  1.0479 -0.6631
 3346SOL     OW21673   0.201   1.401  15.044 -0.0296  0.8600  0.6669
 3346SOL    HW121674   0.248   1.326  15.082 -0.8512 -0.5173 -1.0314
 3346SOL    HW221675   0.222   1.398  14.951  0.6147  0.5606  0.8233
 3347SOL     OW21676   0.255   1.131  14.888 -0.0729  0.7744  0.2679
 3347SOL    HW121677   0.237   1.080  14.810 -0.9338 -0.6353  1.3914
 3347SOL    HW221678   0.314   1.198  14.854  0.1088  0.5331  0.1055
 3348SOL     OW21679   2.747   2.783   8.225 -0.0922  0.4663 -0.2599
 3348SOL    HW121680   2.758   2.804   8.318  0.1708  1.9092 -0.6258
 3348SOL    HW221681   2.808   2.710   8.219  1.5206  2.0925 -3.2011
 3349SOL     OW21682   3.017   1.320   6.277 -0.7059  0.2236  0.4696
 3349SOL    HW121683   2.973   1.401   6.302 -0.6463  0.6519 -0.8455
 3349SOL    HW221684   3.111   1.339   6.281 -0.7025  0.1748  0.6529
 3350SOL     OW21685   3.836   1.516  11.208 -0.0602 -0.3132  0.4782
 3350SOL    HW121686   3.917   1.517  11.157 -0.3981  1.1176 -0.0396
 3350SOL    HW221687   3.844   1.599  11.255  1.0351 -0.8099  1.1812
 3351SOL     OW21688   1.004   2.106   7.578 -0.1283  0.4340  0.0910
 3351SOL    HW121689   0.938   2.175   7.575 -0.8381 -0.2073  0.8209
 3351SOL    HW221690   1.073   2.154   7.534  0.6573 -1.2559 -0.5314
 3352SOL     OW21691   1.244   0.051   2.680 -0.3755  0.0369  0.4432
 3352SOL    HW121692   1.238   0.123   2.743  0.2815 -1.3617  2.0909
 3352SOL    HW221693   1.280   0.094   2.603 -3.9124 -0.4758 -1.4908
 3353SOL     OW21694   1.489   1.967   7.823  0.2005 -0.2434 -0.4161
 3353SOL    HW121695   1.410   1.985   7.872  1.1569 -1.8912  1.7194
 3353SOL    HW221696   1.530   2.053   7.809  0.9315 -0.5557 -0.2098
 3354SOL     OW21697   2.981   4.150   3.622 -0.0661 -0.0599 -0.1840
 3354SOL    HW121698   2.944   4.151   3.710  0.3987 -0.8587  0.0267
 3354SOL    HW221699   2.939   4.082   3.568 -0.9208  1.8903 -1.9636
 3355SOL     OW21700   3.962   2.743   6.356 -0.6655 -0.0676  0.3439
 3355SOL    HW121701   4.028   2.783   6.300  0.0411 -0.5558  0.8417
 3355SOL    HW221702   4.012   2.689   6.416 -0.1122  0.4253  0.3231
 3356SOL     OW21703   4.506   1.982  14.576  0.9900  0.4274 -0.6729
 3356SOL    HW121704   4.479   2.074  14.568 -4.2844 -0.9874  0.4846
 3356SOL    HW221705   4.449   1.940  14.512  1.0390  1.4050 -1.3459
 3357SOL     OW21706   3.643   2.241  17.411 -0.3342 -0.0506  0.0637
 3357SOL    HW121707   3.594   2.201  17.339 -0.7799 -0.2106  0.4510
 3357SOL    HW221708   3.573   2.277  17.466  0.2759  0.2710  0.6202
 3358SOL     OW21709   0.344   1.874   5.634  0.3439 -0.1906  0.4440
 3358SOL    HW121710   0.436   1.874   5.609  0.3058  0.0871  0.3039
 3358SOL    HW221711   0.346   1.795   5.688 -1.1022  0.6273  1.6854
 3359SOL     OW21712   0.672   0.516   5.290 -0.0355  0.2833  0.0114
 3359SOL    HW121713   0.633   0.439   5.331  0.6168  0.9736  1.9552
 3359SOL    HW221714   0.764   0.488   5.287 -0.3780 -0.7995 -0.2501
 3360SOL     OW21715   3.924   0.438   7.656  0.7118 -0.3990 -0.1812
 3360SOL    HW121716   3.996   0.414   7.599  0.5220 -1.1562 -0.0973
 3360SOL    HW221717   3.961   0.499   7.720  0.1528  0.5088 -0.7225
 3361SOL     OW21718   0.200   2.526  11.324 -0.7673 -0.3689  0.3789
 3361SOL    HW121719   0.255   2.527  11.246 -1.8299 -2.7524 -0.3999
 3361SOL    HW221720   0.244   2.592  11.378  3.5450 -0.9655 -2.4226
 3362SOL     OW21721   1.792   4.211   8.401 -0.3198 -0.5137  0.1602
 3362SOL    HW121722   1.701   4.189   8.421 -0.1460 -0.7906  0.6532
 3362SOL    HW221723   1.806   4.138   8.341  0.1322 -0.2840 -0.0129
 3363SOL     OW21724   2.161   0.545   2.896 -0.6185  0.2874 -0.0493
 3363SOL    HW121725   2.098   0.499   2.951 -1.2831  1.1054 -0.1184
 3363SOL    HW221726   2.191   0.605   2.964  1.2678 -1.6382  0.8262
 3364SOL     OW21727   3.394   2.193   5.918 -0.1806  0.4120 -0.3220
 3364SOL    HW121728   3.318   2.173   5.973 -0.0399 -0.4708 -0.4463
 3364SOL    HW221729   3.351   2.239   5.845 -3.2891  1.4804  2.1410
 3365SOL     OW21730   4.635   3.302   7.670 -0.0455  0.3457  0.5712
 3365SOL    HW121731   4.598   3.389   7.685 -0.7440  0.3190 -1.0127
 3365SOL    HW221732   4.707   3.293   7.731  2.2953 -0.9942 -2.4139
 3366SOL     OW21733   3.731   2.622   2.156 -0.1877  0.0971  0.7449
 3366SOL    HW121734   3.765   2.547   2.203 -0.9325 -1.4906 -1.2645
 3366SOL    HW221735   3.675   2.658   2.224 -1.6460 -0.5935 -0.0929
 3367SOL     OW21736   2.131   3.014   9.498  0.3978  0.8055  0.1503
 3367SOL    HW121737   2.077   3.014   9.577 -0.1152  0.6624 -0.1983
 3367SOL    HW221738   2.199   2.950   9.520  0.9582  0.9876 -1.0563
 3368SOL     OW21739   1.931   2.064   2.455 -0.3377  0.1228 -0.0650
 3368SOL    HW121740   1.920   2.051   2.549  0.8729  1.2666  0.2379
 3368SOL    HW221741   1.891   1.984   2.422  1.4951 -0.1187 -1.6682
 3369SOL     OW21742   0.407   0.685  16.540  0.2168 -0.2808  0.1194
 3369SOL    HW121743   0.426   0.644  16.624 -1.0222 -1.6868 -0.2883
 3369SOL    HW221744   0.491   0.678  16.493 -0.5690  1.8027 -1.6101
 3370SOL     OW21745   0.870   2.129   6.716  0.2951 -0.3945  0.3163
 3370SOL    HW121746   0.843   2.147   6.806  2.5638  0.1221  0.9091
 3370SOL    HW221747   0.935   2.061   6.734  0.1843 -1.2633 -2.5946
 3371SOL     OW21748   1.339   0.099  11.187 -0.1098 -0.2608  0.2430
 3371SOL    HW121749   1.289   0.126  11.264 -0.4531 -0.1130 -0.0354
 3371SOL    HW221750   1.287   0.039  11.134  1.8718 -1.0903 -0.7347
 3372SOL     OW21751   2.285   3.105   6.940 -0.0108 -0.0975  0.6510
 3372SOL    HW121752   2.360   3.149   6.900  2.2737 -3.9352  0.6935
 3372SOL    HW221753   2.301   3.136   7.029  0.3451  0.0525  0.5327
 3373SOL     OW21754   2.818   2.856   0.310  0.0776  0.0406  0.4085
 3373SOL    HW121755   2.788   2.946   0.301 -1.9073 -0.6750 -0.0807
 3373SOL    HW221756   2.768   2.826   0.386 -1.2615  0.9772 -0.1051
 3374SOL     OW21757   4.004   3.991   4.384  0.0157  0.6147  0.4697
 3374SOL    HW121758   4.054   4.070   4.405  0.8231 -0.0057  0.9129
 3374SOL    HW221759   3.995   3.940   4.465 -1.1811 -1.0705 -0.7265
 3375SOL     OW21760   0.364   1.428   5.071 -0.0044  0.2008 -0.1791
 3375SOL    HW121761   0.272   1.443   5.094  0.4977 -0.4716  2.2184
 3375SOL    HW221762   0.402   1.515   5.084  1.4777 -0.5986  0.8629
 3376SOL     OW21763   1.086   4.232   9.124  0.0758  0.2775  0.4591
 3376SOL    HW121764   1.079   4.328   9.124  1.2119  0.3552 -0.7567
 3376SOL    HW221765   1.173   4.216   9.088 -0.8819 -3.1376 -0.3135
 3377SOL     OW21766   3.524   1.555   5.572 -0.2135 -0.2712  0.6490
 3377SOL    HW121767   3.482   1.519   5.494  2.5749 -1.5264 -0.2714
 3377SOL    HW221768   3.442   1.575   5.618 -1.3113 -2.5608 -0.3205
 3378SOL     OW21769   0.516   3.948   8.980 -0.1821 -0.7199 -0.0703
 3378SOL    HW121770   0.482   3.950   8.891 -0.0629 -2.2094 -0.1429
 3378SOL    HW221771   0.601   3.907   8.969  1.0167  2.1059 -1.2920
 3379SOL     OW21772   3.642   1.246   9.556 -0.2622 -0.0496 -0.0432
 3379SOL    HW121773   3.603   1.243   9.643  0.8973  1.9399  0.5357
 3379SOL    HW221774   3.591   1.182   9.506  2.0184 -0.5587 -1.7184
 3380SOL     OW21775   2.997   3.544   4.982  0.1941  0.1438 -0.4864
 3380SOL    HW121776   2.958   3.619   4.936  0.8598  2.0932  2.1542
 3380SOL    HW221777   2.923   3.485   4.994 -0.7595  0.6854 -3.4827
 3381SOL     OW21778   2.695   3.067  13.231  0.2770 -1.1255 -0.0963
 3381SOL    HW121779   2.775   3.091  13.184 -0.7667  2.4922 -0.0362
 3381SOL    HW221780   2.733   3.022  13.306  0.1062 -0.2027  0.5499
 3382SOL     OW21781   2.243   2.164   8.515 -0.5082  0.1088 -0.1817
 3382SOL    HW121782   2.281   2.079   8.535  1.1545  0.7033 -0.8277
 3382SOL    HW221783   2.259   2.220   8.591 -0.0486 -0.1660 -0.0766
 3383SOL     OW21784   3.226   1.565  12.138  0.0366 -0.0739 -0.1790
 3383SOL    HW121785   3.267   1.614  12.067  0.0318  1.3856  0.8234
 3383SOL    HW221786   3.292   1.570  12.207 -0.4361  0.6451  0.2126
 3384SOL     OW21787   3.661   2.654  13.062 -0.0135  0.6509  0.1312
 3384SOL    HW121788   3.702   2.573  13.034  0.4154  0.2480  1.9320
 3384SOL    HW221789   3.601   2.621  13.130 -0.8523  0.0104 -0.9266
 3385SOL     OW21790   1.863   4.155   3.614 -0.4538 -0.5532  0.1801
 3385SOL    HW121791   1.809   4.219   3.661 -0.2974  1.6224 -2.5620
 3385SOL    HW221792   1.925   4.129   3.682  0.5988  0.3918 -0.4174
 3386SOL     OW21793   4.609   1.899  12.224  0.5042  0.3134  0.0962
 3386SOL    HW121794   4.534   1.840  12.228  1.3205 -0.6911  0.6897
 3386SOL    HW221795   4.575   1.984  12.250 -0.6710 -0.1090 -0.0619
 3387SOL     OW21796   2.465   2.326   7.783 -0.2925 -0.1653 -0.1513
 3387SOL    HW121797   2.387   2.304   7.732  0.6931 -1.6402 -1.0460
 3387SOL    HW221798   2.430   2.305   7.869 -1.7561  1.5307 -0.3406
 3388SOL     OW21799   2.564   0.766  12.889  0.2109  0.6754  0.0818
 3388SOL    HW121800   2.498   0.712  12.932  0.7634 -0.1379 -0.0851
 3388SOL    HW221801   2.633   0.763  12.955 -1.5901  2.7369  2.0643
 3389SOL     OW21802   3.544   4.529  11.069  0.0719 -0.3328 -0.7976
 3389SOL    HW121803   3.454   4.544  11.041 -0.0868  0.3552  0.0852
 3389SOL    HW221804   3.587   4.495  10.991 -1.9336  0.8912 -2.4446
 3390SOL     OW21805   3.939   3.552   5.797 -0.3258 -0.1812 -0.4599
 3390SOL    HW121806   3.857   3.507   5.819  0.6507 -0.8509  1.7453
 3390SOL    HW221807   3.972   3.565   5.886  1.5662  0.2228 -1.2233
 3391SOL     OW21808   2.711   0.777   4.523 -0.3986  0.0918 -0.1080
 3391SOL    HW121809   2.691   0.721   4.597  1.4147 -0.7408 -0.2350
 3391SOL    HW221810   2.785   0.725   4.490 -0.0734  0.6329 -0.2401
 3392SOL     OW21811   4.617   0.198   8.472  0.2243 -0.0783 -0.6024
 3392SOL    HW121812   4.622   0.277   8.525 -1.2664 -1.2441  1.3154
 3392SOL    HW221813   4.674   0.137   8.519  0.8503  2.9831  2.5908
 3393SOL     OW21814   2.248   0.185   6.849  0.1565 -0.7460 -0.3588
 3393SOL    HW121815   2.254   0.107   6.904  0.6568  0.0286  0.6941
 3393SOL    HW221816   2.336   0.222   6.857 -0.2141 -0.4148  2.1920
 3394SOL     OW21817   1.994   0.977   1.670  0.5053  0.6202 -0.6100
 3394SOL    HW121818   1.901   0.956   1.661  1.0137 -0.8860 -2.2829
 3394SOL    HW221819   1.994   1.030   1.750 -1.8047  1.7139 -1.3249
 3395SOL     OW21820   1.478   0.852   6.488  0.2523  0.0787  0.0588
 3395SOL    HW121821   1.535   0.920   6.524  1.7044 -0.7852 -0.6206
 3395SOL    HW221822   1.523   0.768   6.503  0.1513  0.2063  1.0861
 3396SOL     OW21823   3.161   3.181   1.534 -0.3776 -0.2082 -0.0646
 3396SOL    HW121824   3.164   3.100   1.585 -1.4139 -0.3460 -0.2174
 3396SOL    HW221825   3.216   3.241   1.583  0.0025 -1.6956  1.3300
 3397SOL     OW21826   1.957   0.050  16.556 -0.4210  0.0219  0.1192
 3397SOL    HW121827   1.994   4.711  16.509 -0.6508  0.5204 -0.8628
 3397SOL    HW221828   1.902   0.002  16.618  0.3500 -0.1561  0.6778
 3398SOL     OW21829   2.811   0.881  13.151 -0.2980 -0.5478  0.0485
 3398SOL    HW121830   2.818   0.831  13.232 -0.2279 -0.8104 -0.1198
 3398SOL    HW221831   2.726   0.924  13.146 -2.1319 -4.4269 -1.7606
 3399SOL     OW21832   0.305   3.226  11.443 -0.1220  0.6627  1.0470
 3399SOL    HW121833   0.292   3.247  11.535 -1.4180 -0.8896  1.2278
 3399SOL    HW221834   0.397   3.206  11.454 -0.4624 -1.6875 -0.3660
 3400SOL     OW21835   0.878   2.827   4.347 -0.5409  0.2279  0.1728
 3400SOL    HW121836   0.806   2.838   4.410  0.1110  0.0348  0.9491
 3400SOL    HW221837   0.900   2.918   4.329  0.6456  0.1230  1.0889
 3401SOL     OW21838   3.977   0.587   3.377 -0.4173  0.0338  0.1010
 3401SOL    HW121839   3.948   0.514   3.323 -0.1874  1.6522 -2.2133
 3401SOL    HW221840   4.011   0.547   3.457 -0.0617 -1.0386 -0.5819
 3402SOL     OW21841   2.887   2.167   4.083  0.0468 -0.0922 -0.1211
 3402SOL    HW121842   2.836   2.103   4.132  0.7097 -2.6940 -2.8521
 3402SOL    HW221843   2.971   2.181   4.127  0.2737 -0.4690 -0.4377
 3403SOL     OW21844   4.391   1.993   3.516 -0.0584  0.4494 -0.1426
 3403SOL    HW121845   4.412   2.009   3.608 -0.4591 -1.4507  0.2919
 3403SOL    HW221846   4.462   1.934   3.488  0.6889  1.3200 -0.0851
 3404SOL     OW21847   3.678   3.360   1.827 -0.2964  0.4207 -0.0054
 3404SOL    HW121848   3.649   3.273   1.801 -1.5317 -0.0088  2.7856
 3404SOL    HW221849   3.758   3.329   1.869 -0.5872 -0.5677 -0.1855
 3405SOL     OW21850   1.997   2.809  16.957  0.2555  0.0340  0.0090
 3405SOL    HW121851   2.055   2.733  16.966  0.9461  0.4053 -1.3740
 3405SOL    HW221852   2.045   2.852  16.886  1.0331 -0.3872  0.2873
 3406SOL     OW21853   4.149   0.598   4.843  0.2091 -0.1961  0.5403
 3406SOL    HW121854   4.207   0.629   4.913 -0.2808  1.3640  0.2598
 3406SOL    HW221855   4.192   0.519   4.811 -1.2342 -0.4865 -0.6689
 3407SOL     OW21856   2.248   2.747   4.413  0.0753 -0.1704  0.0618
 3407SOL    HW121857   2.344   2.743   4.419  0.1370 -0.1170 -0.8119
 3407SOL    HW221858   2.236   2.841   4.422 -1.2204 -0.5915  2.5234
 3408SOL     OW21859   3.552   4.497  12.465  0.6801  0.2465  0.2925
 3408SOL    HW121860   3.598   4.445  12.531 -0.0952 -2.6959 -1.5271
 3408SOL    HW221861   3.524   4.431  12.403  1.5769 -0.4622  0.6385
 3409SOL     OW21862   1.604   3.762   5.899  0.1437 -0.0725 -0.0252
 3409SOL    HW121863   1.579   3.777   5.990 -2.0189  0.0125 -0.6434
 3409SOL    HW221864   1.589   3.846   5.856  0.3513 -0.6473 -1.2121
 3410SOL     OW21865   4.275   0.899   1.477 -0.2908  0.6127  0.2582
 3410SOL    HW121866   4.315   0.986   1.487  2.3192 -0.6093  0.3157
 3410SOL    HW221867   4.278   0.864   1.566 -0.3968 -0.3356 -0.1145
 3411SOL     OW21868   1.271   2.251   7.720  0.5472  0.2594  0.1566
 3411SOL    HW121869   1.309   2.324   7.768  0.4931 -0.5156  1.3642
 3411SOL    HW221870   1.251   2.181   7.782 -0.4528  0.8846  0.5460
 3412SOL     OW21871   3.818   0.601   9.384 -0.3346  0.6212 -0.3563
 3412SOL    HW121872   3.727   0.590   9.410  0.7515 -3.8607  1.4073
 3412SOL    HW221873   3.831   0.564   9.297  1.9044 -0.1040  0.2966
 3413SOL     OW21874   1.554   2.955   3.456 -0.8171  0.3936 -0.1026
 3413SOL    HW121875   1.579   2.900   3.382 -0.3013  1.0301 -0.3998
 3413SOL    HW221876   1.514   3.029   3.411 -1.9795 -0.9517 -1.3216
 3414SOL     OW21877   0.654   1.803   3.272  0.2708  0.2161 -0.9824
 3414SOL    HW121878   0.747   1.793   3.295 -0.2092 -0.0405  0.8146
 3414SOL    HW221879   0.653   1.888   3.230  0.0152  0.3921 -0.6180
 3415SOL     OW21880   1.258   1.637  10.416 -0.6789  0.0905  0.1585
 3415SOL    HW121881   1.239   1.544  10.430 -0.8890  0.2892  1.2204
 3415SOL    HW221882   1.307   1.660  10.495 -0.3248 -1.0182  0.2655
 3416SOL     OW21883   1.722   1.619   4.412  0.8421 -0.0300 -0.4240
 3416SOL    HW121884   1.660   1.668   4.467  2.2468 -0.6621  1.7237
 3416SOL    HW221885   1.806   1.626   4.456  0.4989  2.0622 -0.1003
 3417SOL     OW21886   4.070   2.822   0.622 -0.3812  0.1065 -0.2062
 3417SOL    HW121887   4.047   2.788   0.708 -0.2772 -1.4952 -0.8156
 3417SOL    HW221888   4.165   2.825   0.633 -0.4778  0.5837  0.4650
 3418SOL     OW21889   1.143   0.582   7.022 -0.1891  0.0336  0.0225
 3418SOL    HW121890   1.229   0.601   7.060 -0.6443  1.4973  0.3437
 3418SOL    HW221891   1.114   0.671   6.999  0.8190  0.4009  0.1851
 3419SOL     OW21892   2.993   3.180   5.199 -0.3739 -0.0484  0.3181
 3419SOL    HW121893   3.065   3.159   5.259  0.7478 -0.3606 -1.1217
 3419SOL    HW221894   2.924   3.180   5.264 -0.4474 -0.2264  0.2400
 3420SOL     OW21895   2.958   3.768  13.104 -0.4096  0.0262 -0.3841
 3420SOL    HW121896   2.877   3.800  13.063 -0.8243 -0.4396  0.0716
 3420SOL    HW221897   2.955   3.680  13.066  1.2303  0.3941 -1.3637
 3421SOL     OW21898   3.023   1.923   4.442 -0.0379 -0.5721 -0.0606
 3421SOL    HW121899   3.072   1.869   4.505 -1.4406 -0.0291  1.4829
 3421SOL    HW221900   3.032   2.009   4.482 -0.0564 -0.7523  0.3319
 3422SOL     OW21901   4.448   0.596  11.137  0.1262  0.4299  0.1206
 3422SOL    HW121902   4.415   0.682  11.110  1.3031  1.0736  0.7309
 3422SOL    HW221903   4.536   0.629  11.153  1.1544 -1.6937 -1.1720
 3423SOL     OW21904   1.506   1.116   1.434  0.2769 -0.2976 -0.3412
 3423SOL    HW121905   1.469   1.056   1.498  0.9890  1.4190  1.7026
 3423SOL    HW221906   1.502   1.062   1.356  0.1846 -1.5605  0.5370
 3424SOL     OW21907   2.412   2.981   5.515 -0.3163  0.1982 -0.1666
 3424SOL    HW121908   2.445   2.916   5.576  0.9877 -1.2057 -2.3942
 3424SOL    HW221909   2.478   3.050   5.518  1.8644 -1.8587 -1.0156
 3425SOL     OW21910   1.043   0.740  13.721 -0.8503 -0.0470  0.3746
 3425SOL    HW121911   1.003   0.769  13.803 -1.4569  0.2610 -0.0271
 3425SOL    HW221912   0.967   0.696  13.683  0.7594 -3.5959  1.2914
 3426SOL     OW21913   1.232   2.343  12.359 -0.2052  0.1612 -0.0256
 3426SOL    HW121914   1.170   2.292  12.412  0.1426 -1.2742 -1.0134
 3426SOL    HW221915   1.273   2.404  12.420  0.1313  0.8029 -0.9018
 3427SOL     OW21916   1.475   0.414   6.913  0.2593  0.1779 -0.3269
 3427SOL    HW121917   1.400   0.394   6.857  1.1701 -2.8981 -0.4579
 3427SOL    HW221918   1.427   0.478   6.965 -1.0227  0.2032 -1.5211
 3428SOL     OW21919   3.741   4.281   5.265 -0.1408 -0.3933  0.5764
 3428SOL    HW121920   3.717   4.318   5.180  2.8672 -0.4001 -0.3029
 3428SOL    HW221921   3.819   4.332   5.286 -1.5159  1.1015  1.9910
 3429SOL     OW21922   1.891   0.630   9.326  0.7297  0.4136  0.1207
 3429SOL    HW121923   1.801   0.641   9.357 -0.8902 -1.4244 -3.9250
 3429SOL    HW221924   1.926   0.719   9.319  0.2524  0.5957  0.0443
 3430SOL     OW21925   2.361   4.306   2.252 -0.0600 -0.3266 -0.3881
 3430SOL    HW121926   2.356   4.319   2.346 -0.8376 -0.7204 -0.3803
 3430SOL    HW221927   2.406   4.389   2.232  0.0119 -1.0399 -3.1448
 3431SOL     OW21928   4.722   3.105  10.251  0.1016 -0.2969 -0.0902
 3431SOL    HW121929   0.069   3.080  10.292 -0.1979 -1.5489 -0.2564
 3431SOL    HW221930   4.668   3.027  10.252 -1.0150  0.4412 -1.9964
 3432SOL     OW21931   2.445   3.982   9.586  0.0464 -0.1668  0.1069
 3432SOL    HW121932   2.365   3.991   9.534 -1.2986  0.3631  2.2469
 3432SOL    HW221933   2.459   3.888   9.584  2.0478  0.1309 -0.2702
 3433SOL     OW21934   2.086   1.195   6.554 -0.2432 -0.3608 -0.0978
 3433SOL    HW121935   2.014   1.186   6.491 -0.3180 -0.4192 -0.0022
 3433SOL    HW221936   2.035   1.241   6.621 -0.6306  1.0177 -1.3267
 3434SOL     OW21937   2.705   3.663   9.714  0.0965  0.3847 -0.6469
 3434SOL    HW121938   2.706   3.568   9.725  2.6521  0.3490 -1.3087
 3434SOL    HW221939   2.628   3.668   9.657  0.3018 -0.8682 -1.0433
 3435SOL     OW21940   0.422   1.530  11.691 -0.3706 -0.1397  0.6299
 3435SOL    HW121941   0.398   1.563  11.604 -1.3495  0.9155  1.3028
 3435SOL    HW221942   0.486   1.597  11.713 -0.8379  0.5334 -0.0350
 3436SOL     OW21943   3.221   2.073   3.801 -0.1497  0.3571 -0.0384
 3436SOL    HW121944   3.132   2.107   3.814 -0.1918 -1.0099  3.1081
 3436SOL    HW221945   3.213   1.983   3.831  0.4120  0.6076  0.8439
 3437SOL     OW21946   3.485   1.749   8.726  0.1694 -0.2359  0.6737
 3437SOL    HW121947   3.543   1.766   8.800 -0.6607 -1.4579  1.6096
 3437SOL    HW221948   3.512   1.664   8.693  0.3452  0.8538 -1.9888
 3438SOL     OW21949   2.017   4.659   7.936  0.3111  0.2307 -0.2376
 3438SOL    HW121950   2.002   0.007   7.981  1.8921 -1.0451  2.6892
 3438SOL    HW221951   1.961   4.659   7.859  0.7820  1.3196 -0.5829
 3439SOL     OW21952   3.895   2.831   4.030 -0.3993 -0.4400  0.1642
 3439SOL    HW121953   3.862   2.891   3.963 -3.2251 -2.0794  0.0884
 3439SOL    HW221954   3.984   2.816   3.999  0.3993  1.0727  1.7369
 3440SOL     OW21955   4.329   0.831   2.590 -0.1746  0.2180 -0.5624
 3440SOL    HW121956   4.395   0.883   2.636 -0.4375 -0.5846  0.7226
 3440SOL    HW221957   4.257   0.814   2.650  0.6617 -2.8786 -0.3938
 3441SOL     OW21958   2.195   2.918   8.603  0.3352  0.7332  0.6168
 3441SOL    HW121959   2.233   3.003   8.626  0.0685  0.7917  0.8484
 3441SOL    HW221960   2.103   2.942   8.616 -0.6764 -3.3001  0.9037
 3442SOL     OW21961   2.412   2.471  12.570  0.6282 -0.5705  0.0220
 3442SOL    HW121962   2.456   2.414  12.506 -2.4807 -1.0393 -1.7041
 3442SOL    HW221963   2.468   2.479  12.647 -0.2822  0.2808  0.5900
 3443SOL     OW21964   0.502   1.524   3.893  0.5054 -0.1004 -0.1122
 3443SOL    HW121965   0.465   1.526   3.805 -0.1005 -0.6123  0.1248
 3443SOL    HW221966   0.496   1.430   3.910  0.9088 -0.4117 -1.6798
 3444SOL     OW21967   2.230   1.308   3.405  0.6203  0.1695 -0.2875
 3444SOL    HW121968   2.157   1.283   3.462  1.2627 -0.9048  0.0768
 3444SOL    HW221969   2.217   1.259   3.324 -1.2396 -1.0905  0.7823
 3445SOL     OW21970   2.295   2.376   8.682  0.6004 -0.1778  0.7310
 3445SOL    HW121971   2.281   2.464   8.647 -0.5080 -0.1850  1.1471
 3445SOL    HW221972   2.278   2.386   8.776 -0.6670  1.0506  0.3659
 3446SOL     OW21973   4.083   4.011   9.619 -0.2280 -0.2098 -0.1940
 3446SOL    HW121974   3.994   3.994   9.587 -1.7218  0.3439  3.6470
 3446SOL    HW221975   4.128   4.022   9.535 -0.9408 -2.3654 -0.8453
 3447SOL     OW21976   1.316   2.353   0.929 -0.3539 -0.2860 -0.5166
 3447SOL    HW121977   1.266   2.432   0.949  1.3739  0.5361  0.5266
 3447SOL    HW221978   1.286   2.325   0.842 -0.6782 -2.8984  0.4441
 3448SOL     OW21979   1.295   2.045   6.991  0.1945 -0.1049  0.0242
 3448SOL    HW121980   1.319   2.033   7.083 -3.1299 -1.0252  0.7670
 3448SOL    HW221981   1.209   2.084   7.005  0.3201  0.3903 -0.5535
 3449SOL     OW21982   3.393   3.314  11.553 -0.2660  0.1967  0.0725
 3449SOL    HW121983   3.362   3.235  11.597  1.0031 -0.5863 -0.4447
 3449SOL    HW221984   3.311   3.363  11.566 -1.1109 -1.7220  2.0185
 3450SOL     OW21985   2.618   4.613  11.623 -0.2642 -0.7171 -0.4166
 3450SOL    HW121986   2.692   4.559  11.595 -0.8140 -1.2080 -0.9348
 3450SOL    HW221987   2.645   4.693  11.578  3.4994 -2.2606 -0.8761
 3451SOL     OW21988   1.893   2.061  16.815 -0.2772  0.0042  0.5892
 3451SOL    HW121989   1.944   2.119  16.758  0.0062 -0.4855  0.3428
 3451SOL    HW221990   1.829   2.122  16.851 -0.8914 -0.6691  0.6292
 3452SOL     OW21991   3.725   3.293  11.742 -0.3073 -0.3350 -0.3586
 3452SOL    HW121992   3.703   3.380  11.710 -1.8101 -0.7477 -0.4280
 3452SOL    HW221993   3.639   3.253  11.733 -0.5425  0.6568 -2.4718
 3453SOL     OW21994   3.806   2.322  14.315  0.2767 -0.3193 -0.3750
 3453SOL    HW121995   3.848   2.312  14.400 -1.8408  1.1205  0.8631
 3453SOL    HW221996   3.854   2.391  14.271  0.0404 -0.6640 -1.1699
 3454SOL     OW21997   4.267   0.914   8.436 -0.4645  0.7568  0.3717
 3454SOL    HW121998   4.226   0.864   8.506  0.0428  0.7853  0.6857
 3454SOL    HW221999   4.344   0.933   8.489  0.9947 -0.4720 -1.3286
 3455SOL     OW22000   2.142   4.268   7.847 -0.4967 -0.2341 -0.6374
 3455SOL    HW122001   2.077   4.202   7.872 -0.5396 -0.1343 -0.4880
 3455SOL    HW222002   2.083   4.335   7.813  1.3362  1.6163 -0.1571
 3456SOL     OW22003   2.273   2.742   1.984 -0.3570 -0.4497  0.3541
 3456SOL    HW122004   2.345   2.758   1.923 -0.2029 -0.4698  0.5289
 3456SOL    HW222005   2.257   2.650   1.961  1.4635 -0.8944  0.8388
 3457SOL     OW22006   2.875   0.628   0.588 -0.1159  0.2705 -0.1185
 3457SOL    HW122007   2.851   0.549   0.539  1.5347  0.4400 -1.1976
 3457SOL    HW222008   2.797   0.683   0.594 -0.3832  0.0229 -1.3407
 3458SOL     OW22009   3.247   1.983   6.900  0.1642 -0.0448  0.1577
 3458SOL    HW122010   3.158   1.994   6.933 -1.3569  1.3352 -4.4018
 3458SOL    HW222011   3.240   1.887   6.893  1.3099 -0.2440  1.6073
 3459SOL     OW22012   0.167   1.337   0.192  0.3347  0.3186 -0.7240
 3459SOL    HW122013   0.166   1.382   0.276 -0.5880 -3.4930  1.3098
 3459SOL    HW222014   0.086   1.375   0.159 -1.7527 -1.5824  2.2263
 3460SOL     OW22015   2.801   1.580   6.087 -0.4990  0.1372  0.0247
 3460SOL    HW122016   2.794   1.612   6.177 -0.3307 -0.5401  0.2774
 3460SOL    HW222017   2.888   1.540   6.082  0.2360  1.8117 -0.5131
 3461SOL     OW22018   4.255   2.826   0.978  0.2775 -0.1595  0.0402
 3461SOL    HW122019   4.293   2.913   0.965 -0.2989  0.3249  1.4619
 3461SOL    HW222020   4.164   2.836   0.948  0.4943  0.6307 -0.3463
 3462SOL     OW22021   1.485   0.495   9.094 -0.2207  0.8096 -0.3238
 3462SOL    HW122022   1.579   0.484   9.102 -0.1208  1.9753  0.0864
 3462SOL    HW222023   1.480   0.563   9.027  0.2163  1.6421  0.4927
 3463SOL     OW22024   0.268   3.769   6.881 -0.2860 -0.3014 -0.0678
 3463SOL    HW122025   0.219   3.691   6.906 -0.7977 -0.3238 -1.1362
 3463SOL    HW222026   0.285   3.750   6.789 -3.6033 -0.8471 -0.5605
 3464SOL     OW22027   2.576   4.301   5.707  0.3498  0.3850 -0.4264
 3464SOL    HW122028   2.608   4.215   5.683  1.4841  1.0320 -1.2069
 3464SOL    HW222029   2.632   4.364   5.662  1.3349  0.0513  0.3377
 3465SOL     OW22030   3.455   3.753   4.582 -0.1542  0.3060  0.0895
 3465SOL    HW122031   3.505   3.754   4.501 -3.0729 -1.7901 -1.7683
 3465SOL    HW222032   3.366   3.740   4.548 -0.0980 -3.0869  1.2570
 3466SOL     OW22033   4.657   3.039   7.548  0.2275 -0.3218  0.1926
 3466SOL    HW122034   4.629   3.121   7.588 -1.4993 -1.0539  0.4651
 3466SOL    HW222035   4.666   3.073   7.459 -0.0617 -2.1500 -0.5503
 3467SOL     OW22036   4.689   0.072   2.902  0.2609  0.0214  0.1149
 3467SOL    HW122037   4.647   0.058   2.987 -1.5437  2.3317 -0.4073
 3467SOL    HW222038   0.002   0.153   2.920  1.1148 -0.7004  1.0566
 3468SOL     OW22039   2.742   0.569   3.314 -0.0182 -0.0522  0.1863
 3468SOL    HW122040   2.797   0.604   3.244 -0.6009 -1.8714 -1.2017
 3468SOL    HW222041   2.790   0.592   3.393  1.0881  1.7576 -1.0220
 3469SOL     OW22042   3.357   0.257   3.232  0.5219 -0.0172 -0.0699
 3469SOL    HW122043   3.392   0.173   3.263 -0.2981 -1.1470 -2.2058
 3469SOL    HW222044   3.438   0.304   3.249  0.4870 -0.7815  2.1592
 3470SOL     OW22045   4.233   1.289   9.277  0.3032 -0.2080 -0.1443
 3470SOL    HW122046   4.217   1.356   9.343  1.1117  1.5337 -1.7086
 3470SOL    HW222047   4.294   1.335   9.220 -0.0924 -0.0521 -0.4413
 3471SOL     OW22048   4.477   1.695  14.167 -0.1092 -0.4345  0.6516
 3471SOL    HW122049   4.490   1.761  14.099  0.7679  0.1655  1.3939
 3471SOL    HW222050   4.568   1.672  14.187  0.4926 -0.7585 -2.5329
 3472SOL     OW22051   4.046   1.639   2.585  0.2313  0.3501  0.3204
 3472SOL    HW122052   4.110   1.611   2.519  0.1119 -1.4237  0.9578
 3472SOL    HW222053   4.064   1.577   2.656 -0.0901 -0.8629 -0.6450
 3473SOL     OW22054   1.471   1.172   9.753 -0.0776  0.0269  0.2266
 3473SOL    HW122055   1.493   1.189   9.844 -1.7988 -1.1925  0.8601
 3473SOL    HW222056   1.485   1.077   9.748 -3.9847 -0.4569 -1.5640
 3474SOL     OW22057   3.506   2.117   5.140 -0.3310  0.6318  0.1345
 3474SOL    HW122058   3.602   2.119   5.130 -0.2785  0.1099  0.5018
 3474SOL    HW222059   3.482   2.061   5.066  3.8197 -0.0671 -0.6806
 3475SOL     OW22060   4.267   1.389   4.210 -0.1637 -0.0496 -0.3563
 3475SOL    HW122061   4.175   1.410   4.194 -0.7764 -0.3174  2.7562
 3475SOL    HW222062   4.307   1.404   4.125 -0.4708  2.3395 -0.0818
 3476SOL     OW22063   1.730   2.100   6.315  0.5844  0.3020  0.1565
 3476SOL    HW122064   1.806   2.079   6.370  1.3875 -0.3974 -1.2308
 3476SOL    HW222065   1.752   2.191   6.299  0.7505  0.3411  0.5996
 3477SOL     OW22066   4.335   2.626   3.745 -0.2286 -0.8239 -0.6820
 3477SOL    HW122067   4.267   2.654   3.684 -2.8579 -2.3419  1.5636
 3477SOL    HW222068   4.415   2.666   3.710  0.2515  1.6852  3.2523
 3478SOL     OW22069   3.311   4.440   3.090 -0.0358  0.5797  0.3978
 3478SOL    HW122070   3.344   4.511   3.146 -1.3884 -0.0844  2.0294
 3478SOL    HW222071   3.356   4.362   3.122 -2.1054  0.1000  2.0632
 3479SOL     OW22072   2.525   4.397  17.025  0.1910 -0.1178  0.3691
 3479SOL    HW122073   2.456   4.357  16.972 -0.3415 -0.8394  1.6081
 3479SOL    HW222074   2.598   4.400  16.963  0.3488  2.2287  0.6620
 3480SOL     OW22075   2.576   2.233   4.578  0.5353  0.3275 -0.1166
 3480SOL    HW122076   2.555   2.272   4.493  0.1089 -1.4481 -0.8058
 3480SOL    HW222077   2.545   2.296   4.644  1.5164  1.9079 -1.1398
 3481SOL     OW22078   0.504   1.378   0.329 -0.2548 -0.2132  0.3272
 3481SOL    HW122079   0.522   1.334   0.412 -2.3136 -1.2221  0.2176
 3481SOL    HW222080   0.579   1.437   0.320 -1.0531  1.1062  2.2926
 3482SOL     OW22081   0.218   3.312   2.935  0.4428 -0.0898  0.4968
 3482SOL    HW122082   0.310   3.338   2.932  0.0842  1.0660 -0.5369
 3482SOL    HW222083   0.202   3.349   3.022  2.9421  0.4494  0.7345
 3483SOL     OW22084   3.173   4.584   6.749 -0.3213 -0.1442  0.2662
 3483SOL    HW122085   3.147   4.604   6.659  2.1182 -0.0218 -0.4273
 3483SOL    HW222086   3.084   4.585   6.784  0.3682 -0.7088  2.0545
 3484SOL     OW22087   0.141   1.224   3.883  0.5518  0.1701  0.0471
 3484SOL    HW122088   0.219   1.199   3.832  0.2764  0.1569 -0.3649
 3484SOL    HW222089   0.164   1.177   3.963 -2.1893  0.0455  0.7575
 3485SOL     OW22090   3.522   3.069  12.570  0.2084  0.4997 -0.2858
 3485SOL    HW122091   3.557   3.062  12.659 -1.4950  0.5122  0.3922
 3485SOL    HW222092   3.466   3.146  12.577 -2.2543 -1.3600  0.7788
 3486SOL     OW22093   3.002   1.404   5.991 -0.4843 -0.2427  0.8722
 3486SOL    HW122094   3.038   1.396   5.902 -1.2112 -0.2404  0.5782
 3486SOL    HW222095   2.916   1.372   5.963 -0.6949  1.4386 -0.4057
 3487SOL     OW22096   3.294   3.541  11.059 -0.5216  0.0377  0.4513
 3487SOL    HW122097   3.254   3.455  11.047  1.2340 -0.6716 -0.3765
 3487SOL    HW222098   3.299   3.536  11.154  4.4214  0.6603  0.2057
 3488SOL     OW22099   2.437   1.429   0.573 -0.6401  1.0365  0.0830
 3488SOL    HW122100   2.439   1.376   0.653 -1.3271 -0.5762 -0.9706
 3488SOL    HW222101   2.343   1.434   0.557 -0.2192 -0.5016 -2.9341
 3489SOL     OW22102   1.910   3.956   7.080 -0.4985 -0.4574 -0.2218
 3489SOL    HW122103   1.950   4.039   7.104 -2.0548 -0.6336  3.0324
 3489SOL    HW222104   1.939   3.893   7.146 -0.9781  0.0286  0.4592
 3490SOL     OW22105   1.147   3.450   4.375 -0.0670  0.1492  1.0117
 3490SOL    HW122106   1.230   3.402   4.384 -1.5330 -2.3120  1.1517
 3490SOL    HW222107   1.153   3.506   4.452 -2.3653  0.4498  0.9711
 3491SOL     OW22108   3.808   3.011  10.096 -0.2044  0.4424 -0.3882
 3491SOL    HW122109   3.775   3.099  10.116 -0.1318  0.4791 -0.4284
 3491SOL    HW222110   3.810   2.972  10.183 -1.5135 -0.2590 -0.6764
 3492SOL     OW22111   1.829   1.852   5.569  0.0280  0.2323  0.0950
 3492SOL    HW122112   1.748   1.815   5.604 -0.1746  0.5309 -0.0594
 3492SOL    HW222113   1.834   1.939   5.608  0.2422 -0.3133  1.2938
 3493SOL     OW22114   2.146   2.749   2.242 -0.3382 -0.4471 -0.3110
 3493SOL    HW122115   2.220   2.694   2.267 -1.0030 -0.7393  1.0193
 3493SOL    HW222116   2.194   2.782   2.166  1.2754 -0.6971  0.6020
 3494SOL     OW22117   1.399   0.097   6.275 -0.2010  0.9642 -0.4593
 3494SOL    HW122118   1.392   0.190   6.253  1.1740  0.9139 -1.1020
 3494SOL    HW222119   1.477   0.099   6.330 -0.3522 -1.5794 -0.1594
 3495SOL     OW22120   3.672   4.010   6.752 -0.3395 -0.0604  0.2652
 3495SOL    HW122121   3.654   3.919   6.776  0.8515  0.0714  1.6219
 3495SOL    HW222122   3.639   4.021   6.662  0.7571  0.4469 -0.0794
 3496SOL     OW22123   3.023   0.297  16.761  0.0604 -0.2798  0.7238
 3496SOL    HW122124   2.999   0.213  16.722 -0.5313 -0.5551  1.6859
 3496SOL    HW222125   2.958   0.292  16.831 -0.0459 -0.9904  0.5795
 3497SOL     OW22126   0.300   0.783   7.017 -0.4417 -0.4669 -0.0690
 3497SOL    HW122127   0.298   0.689   7.001  1.1657 -0.6205  0.5527
 3497SOL    HW222128   0.389   0.810   6.992 -0.2004 -1.6053 -0.4371
 3498SOL     OW22129   1.217   2.625   8.177  0.2751 -0.0171  0.3928
 3498SOL    HW122130   1.145   2.638   8.239 -0.5426 -0.7800 -0.4015
 3498SOL    HW222131   1.229   2.716   8.149  1.4931  0.1365  1.4011
 3499SOL     OW22132   4.444   2.234  14.484 -0.3669 -0.9169  0.0738
 3499SOL    HW122133   4.386   2.291  14.536 -0.2830 -0.5101 -0.2788
 3499SOL    HW222134   4.390   2.212  14.408  0.3288 -0.3455 -0.5857
 3500SOL     OW22135   3.574   4.500   4.063 -0.6185 -0.5555  0.2503
 3500SOL    HW122136   3.537   4.578   4.104  2.0114  0.7734  0.0923
 3500SOL    HW222137   3.573   4.443   4.140  2.7570 -3.0936 -1.5938
 3501SOL     OW22138   4.076   2.424   4.642 -0.5289 -0.3251  0.2820
 3501SOL    HW122139   3.994   2.422   4.691 -1.2136  0.9128 -0.8153
 3501SOL    HW222140   4.131   2.403   4.717 -0.6704  1.3273  0.8463
 3502SOL     OW22141   0.105   4.376   5.437 -0.1354 -0.1965 -0.3333
 3502SOL    HW122142   0.052   4.357   5.515  0.7772 -1.7132 -0.0782
 3502SOL    HW222143   0.080   4.304   5.379  0.8993 -0.0414 -0.9698
 3503SOL     OW22144   3.827   3.509   0.014 -0.6282 -0.0175  0.0515
 3503SOL    HW122145   3.799   3.428   0.056  0.1185 -0.6986 -0.7672
 3503SOL    HW222146   3.821   3.473  17.666 -1.3845 -1.6615  0.7588
 3504SOL     OW22147   4.092   0.958   6.603 -0.3468 -0.5592  0.2864
 3504SOL    HW122148   4.036   1.034   6.585  0.3733 -0.6055 -2.1261
 3504SOL    HW222149   4.069   0.942   6.694 -2.9582  3.7187  0.3752
 3505SOL     OW22150   3.624   2.509  14.535  0.0210 -0.2106 -0.5045
 3505SOL    HW122151   3.531   2.490  14.551 -0.2247  0.3786 -1.2583
 3505SOL    HW222152   3.669   2.438  14.581 -2.4014 -1.2657  0.2347
 3506SOL     OW22153   4.071   1.334  16.874 -0.6329  0.2732 -0.8788
 3506SOL    HW122154   4.162   1.339  16.904 -1.0878 -1.8174  0.8734
 3506SOL    HW222155   4.070   1.248  16.833 -2.3150 -0.1096 -0.0475
 3507SOL     OW22156   3.198   1.734  16.010 -0.2951 -0.0637  0.2156
 3507SOL    HW122157   3.213   1.659  15.952 -0.5643 -1.7974  2.3634
 3507SOL    HW222158   3.142   1.789  15.956 -0.6362 -0.6677 -0.0510
 3508SOL     OW22159   3.227   1.039   9.830  0.2791 -0.4306  0.3057
 3508SOL    HW122160   3.236   0.984   9.752 -0.5475  0.4783 -0.4267
 3508SOL    HW222161   3.309   1.087   9.817  0.4203 -0.5104  0.9030
 3509SOL     OW22162   1.684   2.211  14.385  0.1183 -0.3858  0.0594
 3509SOL    HW122163   1.600   2.192  14.344  0.0806  1.6410 -0.8003
 3509SOL    HW222164   1.667   2.296  14.427  0.3995 -1.0810  1.5817
 3510SOL     OW22165   2.120   1.390   2.223 -0.6404  0.0291  0.0131
 3510SOL    HW122166   2.026   1.379   2.205 -0.5904 -0.0671 -0.1912
 3510SOL    HW222167   2.130   1.338   2.303 -1.7473 -1.0199 -0.5130
 3511SOL     OW22168   2.650   3.453   8.681 -0.2811  0.3005  0.0402
 3511SOL    HW122169   2.655   3.374   8.628  1.2698  0.5772 -0.2349
 3511SOL    HW222170   2.587   3.508   8.634 -1.3184 -0.6734  0.3021
 3512SOL     OW22171   2.268   4.560   6.208  0.6692  0.6354  0.5573
 3512SOL    HW122172   2.279   4.467   6.228 -1.1123  0.4813  0.7613
 3512SOL    HW222173   2.354   4.587   6.176 -0.0572  1.6034 -0.5616
 3513SOL     OW22174   2.315   4.268   8.901 -0.7107  0.1013 -0.2991
 3513SOL    HW122175   2.400   4.290   8.862 -1.2530 -0.1058 -1.5987
 3513SOL    HW222176   2.303   4.174   8.889 -1.1269 -0.0483  1.4324
 3514SOL     OW22177   3.415   0.465   7.431 -0.2624  0.3601  0.1211
 3514SOL    HW122178   3.508   0.480   7.415 -0.3651  0.5755 -0.3059
 3514SOL    HW222179   3.409   0.371   7.414  0.8700  0.3690 -0.3505
 3515SOL     OW22180   2.775   3.075   8.290  0.2890  0.3489  0.2018
 3515SOL    HW122181   2.816   3.138   8.230  1.6317 -0.2128  0.5377
 3515SOL    HW222182   2.706   3.036   8.236 -0.1382 -1.1797  1.8587
 3516SOL     OW22183   0.622   0.427  15.141  0.3637 -0.4065  0.0697
 3516SOL    HW122184   0.617   0.497  15.077 -1.6014  0.1029  0.7747
 3516SOL    HW222185   0.689   0.468  15.195  1.5222  0.2432 -1.8777
 3517SOL     OW22186   3.394   1.940   9.092 -0.1646  0.3545 -0.0254
 3517SOL    HW122187   3.419   1.953   9.000  0.7990  1.1702  0.3414
 3517SOL    HW222188   3.333   2.014   9.097 -0.0042  0.5287 -0.6083
 3518SOL     OW22189   3.508   4.223  13.626  0.1048 -0.1476 -0.0890
 3518SOL    HW122190   3.428   4.267  13.598 -0.6890 -1.6248 -0.0911
 3518SOL    HW222191   3.576   4.275  13.583 -0.4986 -0.2621 -1.1631
 3519SOL     OW22192   3.530   2.803   0.307 -0.9181  0.3592  0.2371
 3519SOL    HW122193   3.623   2.827   0.312 -0.3756 -0.8248 -3.9228
 3519SOL    HW222194   3.496   2.883   0.348  0.0204  0.5687  0.6050
 3520SOL     OW22195   3.126   4.007   2.558  0.3246  0.2395 -0.3316
 3520SOL    HW122196   3.196   3.948   2.529 -0.2596  0.0449 -1.3589
 3520SOL    HW222197   3.178   4.072   2.605  0.8695 -0.0400 -0.5418
 3521SOL     OW22198   1.175   3.839   0.821  0.1623  0.1829 -0.0874
 3521SOL    HW122199   1.090   3.875   0.797  0.0120 -0.9921 -1.3236
 3521SOL    HW222200   1.180   3.853   0.916  0.0208 -0.7968  0.0683
 3522SOL     OW22201   0.614   0.812   4.598 -0.0844  0.0922 -0.1909
 3522SOL    HW122202   0.603   0.800   4.692  0.7192  0.6157 -0.0328
 3522SOL    HW222203   0.653   0.725   4.585  2.9592  1.4153  0.1204
 3523SOL     OW22204   3.080   4.708   0.035 -0.3802 -0.0487  0.1011
 3523SOL    HW122205   3.110   4.697   0.126 -0.2380 -0.1506  0.0414
 3523SOL    HW222206   3.057   4.616   0.021 -1.9461  0.5953 -1.5003
 3524SOL     OW22207   0.653   3.321   1.089  0.7676 -0.6335 -0.4618
 3524SOL    HW122208   0.623   3.232   1.110 -2.0447 -0.2428 -2.8130
 3524SOL    HW222209   0.745   3.327   1.113  0.8389 -1.8163 -0.4058
 3525SOL     OW22210   2.078   4.438   6.899  0.5673 -0.1219 -0.3838
 3525SOL    HW122211   2.033   4.354   6.899 -0.5057  0.4458 -2.6883
 3525SOL    HW222212   2.039   4.478   6.821  1.1035 -1.6521 -1.4296
 3526SOL     OW22213   4.619   2.667   1.852  0.0126 -0.1237 -0.0282
 3526SOL    HW122214   4.699   2.675   1.903  0.4933 -1.6565 -0.5383
 3526SOL    HW222215   4.566   2.622   1.919  1.3822 -2.1699 -0.3144
 3527SOL     OW22216   0.997   4.668   2.051  0.1318  0.5214  0.8598
 3527SOL    HW122217   1.040   4.729   1.991 -0.5523 -1.0345 -1.2229
 3527SOL    HW222218   0.915   4.715   2.067 -0.0547  0.0920  1.1552
 3528SOL     OW22219   0.199   2.070   5.323 -0.0188  0.4234 -0.4230
 3528SOL    HW122220   0.225   2.091   5.234  1.7257  1.9156  0.4289
 3528SOL    HW222221   0.234   1.981   5.325  0.6372  0.7144  0.9441
 3529SOL     OW22222   1.669   2.517   8.806  0.2330  0.1900  0.4287
 3529SOL    HW122223   1.581   2.490   8.780  1.0655 -1.8280 -0.2956
 3529SOL    HW222224   1.659   2.611   8.794  1.1184  0.4453  1.6750
 3530SOL     OW22225   2.982   3.565  14.725  0.0502 -0.2231  0.7672
 3530SOL    HW122226   3.068   3.538  14.693  0.1084  0.3407  0.4503
 3530SOL    HW222227   2.982   3.660  14.717  2.6811 -0.6040 -3.6629
 3531SOL     OW22228   2.864   2.619   3.821 -0.0926  0.0531  0.6034
 3531SOL    HW122229   2.873   2.548   3.885 -0.9673 -1.2254 -0.6738
 3531SOL    HW222230   2.956   2.641   3.813 -0.2403 -0.8208 -3.2559
 3532SOL     OW22231   3.229   4.569   9.746  0.1613  0.0230  0.3543
 3532SOL    HW122232   3.226   4.507   9.673  2.2349  2.2709 -1.6225
 3532SOL    HW222233   3.281   4.520   9.809 -1.1466  1.9996  2.9729
 3533SOL     OW22234   4.357   4.246   1.207 -0.5247 -0.2116 -0.4844
 3533SOL    HW122235   4.298   4.308   1.252  1.0084  2.3464 -1.9974
 3533SOL    HW222236   4.431   4.304   1.190 -0.3549 -0.4711 -0.6253
 3534SOL     OW22237   1.382   0.159   7.712 -0.1493  0.0643 -0.2624
 3534SOL    HW122238   1.373   0.138   7.805 -0.3616 -2.3025 -0.7948
 3534SOL    HW222239   1.335   0.242   7.718 -0.1153  0.0933 -0.4064
 3535SOL     OW22240   2.455   4.637   7.661  0.3151  0.1098  0.1027
 3535SOL    HW122241   2.488   4.555   7.698  0.7917 -0.5887 -1.8373
 3535SOL    HW222242   2.508   4.710   7.694 -1.0435  0.5961  1.1770
 3536SOL     OW22243   2.468   4.470   4.148 -0.1438 -0.3032  0.5810
 3536SOL    HW122244   2.433   4.414   4.217  0.6329 -2.0664 -0.4368
 3536SOL    HW222245   2.563   4.477   4.160 -0.1672 -0.3636  0.8103
 3537SOL     OW22246   4.048   4.401   3.832  0.3070 -0.1264 -0.6553
 3537SOL    HW122247   4.066   4.478   3.779 -1.5209  0.4033 -0.5003
 3537SOL    HW222248   3.955   4.415   3.850  0.6723  0.2889  0.9158
 3538SOL     OW22249   0.108   0.580  13.927 -0.3918 -0.3200 -0.6828
 3538SOL    HW122250   0.061   0.655  13.891 -2.3360 -1.5273 -0.6258
 3538SOL    HW222251   0.035   0.547  13.980  1.0718 -1.6009  0.5341
 3539SOL     OW22252   3.288   4.527   6.065  0.3147 -0.1035  0.1806
 3539SOL    HW122253   3.291   4.616   6.100  1.7736  0.3889 -1.1727
 3539SOL    HW222254   3.362   4.486   6.109  2.3019  0.1108 -2.8733
 3540SOL     OW22255   3.456   1.672   8.191 -0.2449  0.1852  0.0117
 3540SOL    HW122256   3.432   1.727   8.266 -0.4937 -1.9558  1.5165
 3540SOL    HW222257   3.499   1.595   8.228 -1.0657  0.0804  0.7466
 3541SOL     OW22258   1.628   0.784   7.219  0.2935  0.1269 -0.2561
 3541SOL    HW122259   1.642   0.715   7.284  1.5726  1.9763  1.4130
 3541SOL    HW222260   1.602   0.859   7.273 -1.2873  0.5587 -1.6032
 3542SOL     OW22261   4.304   4.028   9.147  0.0283 -0.2565  0.4961
 3542SOL    HW122262   4.342   4.111   9.175  0.1979 -0.9972  2.4163
 3542SOL    HW222263   4.290   3.978   9.227 -4.2247 -1.8601 -1.2569
 3543SOL     OW22264   0.176   3.635   7.577  0.0244 -0.1747  0.0283
 3543SOL    HW122265   0.208   3.599   7.659 -3.7112  1.7404  2.3136
 3543SOL    HW222266   0.093   3.591   7.562  1.1623 -2.5134  0.6724
 3544SOL     OW22267   0.804   2.513   3.318 -0.0709  0.5380 -0.1673
 3544SOL    HW122268   0.876   2.576   3.325  0.7818 -0.2036 -2.4275
 3544SOL    HW222269   0.793   2.516   3.223  0.3457 -1.9972 -0.2997
 3545SOL     OW22270   4.332   0.653   2.041  0.5422 -0.0855  0.1420
 3545SOL    HW122271   4.426   0.665   2.054  0.4423  0.8212  0.0275
 3545SOL    HW222272   4.326   0.559   2.025  1.0874  0.4356 -3.1036
 3546SOL     OW22273   1.370   4.474   6.504 -0.3915 -0.4234  0.2254
 3546SOL    HW122274   1.322   4.463   6.586  0.5010  1.1828  0.9669
 3546SOL    HW222275   1.317   4.434   6.435 -1.5777 -1.1008  1.5248
 3547SOL     OW22276   0.143   4.263   8.587 -0.1027 -0.3662 -0.0530
 3547SOL    HW122277   0.136   4.308   8.672  1.5068  0.8127 -0.5369
 3547SOL    HW222278   0.168   4.341   8.537 -1.0982  0.0438  0.0746
 3548SOL     OW22279   3.004   0.914  11.041  0.0050 -0.1818 -0.1763
 3548SOL    HW122280   2.939   0.847  11.022 -0.2233  0.3145 -1.1846
 3548SOL    HW222281   3.042   0.882  11.122  1.2043  0.9300 -0.2924
 3549SOL     OW22282   3.303   0.327   9.714  0.2143  0.0347  0.2722
 3549SOL    HW122283   3.237   0.324   9.645  2.4494  1.3878 -1.9476
 3549SOL    HW222284   3.264   0.285   9.791  2.6056 -2.8971 -0.1123
 3550SOL     OW22285   3.359   2.919  14.005  0.0230 -0.3251  0.0053
 3550SOL    HW122286   3.274   2.924  14.049  0.2138  2.8105 -0.0159
 3550SOL    HW222287   3.365   3.011  13.980  2.9170 -0.5438 -0.0850
 3551SOL     OW22288   3.671   3.849   2.628 -0.4023 -0.1139 -0.1284
 3551SOL    HW122289   3.765   3.863   2.616 -0.3183  0.6321  1.4105
 3551SOL    HW222290   3.638   3.938   2.611 -1.6932 -0.7320 -0.8404
 3552SOL     OW22291   3.528   0.819   8.826  0.4524  0.2354 -0.0461
 3552SOL    HW122292   3.552   0.761   8.753  1.4567  2.8564 -1.8120
 3552SOL    HW222293   3.600   0.797   8.884  0.1144  1.2372  0.7524
 3553SOL     OW22294   4.035   3.883   8.488 -0.2533  0.5428 -0.0281
 3553SOL    HW122295   4.002   3.941   8.419  0.2150  2.9702  1.7573
 3553SOL    HW222296   3.955   3.846   8.526 -0.0287  0.3512  0.2580
 3554SOL     OW22297   4.323   3.049   2.507  0.4565 -0.5327  0.1881
 3554SOL    HW122298   4.242   3.080   2.547  1.1436  0.6569  0.6754
 3554SOL    HW222299   4.392   3.102   2.548  2.1795 -2.8967  0.3373
 3555SOL     OW22300   1.412   2.210  17.018  0.1538 -0.6338 -0.3406
 3555SOL    HW122301   1.442   2.295  17.050 -0.0336 -0.7176  0.0651
 3555SOL    HW222302   1.364   2.173  17.093 -0.3402  0.4116 -0.1358
 3556SOL     OW22303   4.134   2.313   9.915  0.3024 -0.1225 -0.3348
 3556SOL    HW122304   4.163   2.224   9.934 -0.0063 -0.3047 -0.7111
 3556SOL    HW222305   4.212   2.344   9.869  0.3420  1.2914  0.6705
 3557SOL     OW22306   0.375   2.411   3.840  0.3164  0.4171 -0.0464
 3557SOL    HW122307   0.375   2.501   3.807 -0.9769  1.2470  2.2460
 3557SOL    HW222308   0.281   2.398   3.845  0.3466  0.2049 -0.0268
 3558SOL     OW22309   1.586   2.784   8.767  0.1620 -0.7437  0.1595
 3558SOL    HW122310   1.496   2.751   8.764  0.5103 -1.7495  0.8685
 3558SOL    HW222311   1.576   2.861   8.711 -0.2029 -0.3812  0.7201
 3559SOL     OW22312   4.152   0.261  16.352  0.8208 -0.3436 -0.5107
 3559SOL    HW122313   4.194   0.311  16.422 -1.1538 -1.0526  1.1653
 3559SOL    HW222314   4.060   0.288  16.357  0.9753  0.2561 -0.8502
 3560SOL     OW22315   0.871   4.066   2.170  0.2733 -0.1163 -0.2022
 3560SOL    HW122316   0.805   4.136   2.173  0.5348 -0.1181  5.0461
 3560SOL    HW222317   0.856   4.037   2.260 -0.4811  2.5778  0.5593
 3561SOL     OW22318   3.894   2.643   0.558 -0.7593 -0.0250 -0.0886
 3561SOL    HW122319   3.947   2.722   0.568  0.4343 -0.7466 -0.7447
 3561SOL    HW222320   3.806   2.676   0.573 -0.5180 -0.4859  2.2669
 3562SOL     OW22321   3.021   4.205   2.001 -0.3992  0.3351  0.2182
 3562SOL    HW122322   3.113   4.212   1.976  0.2751 -0.3254  2.4813
 3562SOL    HW222323   2.986   4.288   1.969 -1.0881  0.3193  0.9345
 3563SOL     OW22324   0.266   2.058  13.814  0.4544  0.3699  0.2461
 3563SOL    HW122325   0.272   2.114  13.738  1.6714 -0.0546  0.0292
 3563SOL    HW222326   0.240   2.119  13.884 -2.8537 -1.4276  0.6141
 3564SOL     OW22327   0.607   1.298  10.888  0.2734  0.3490 -0.3822
 3564SOL    HW122328   0.701   1.307  10.903  0.0917 -1.1410  1.5800
 3564SOL    HW222329   0.592   1.231  10.954  1.8780  0.8234  0.4599
 3565SOL     OW22330   1.113   2.975   8.339 -0.2222  0.2177  0.0064
 3565SOL    HW122331   1.067   2.985   8.255  0.7554 -2.5698 -0.8822
 3565SOL    HW222332   1.086   2.890   8.375 -1.0425  0.3935 -0.1970
 3566SOL     OW22333   4.689   1.833  14.726 -0.9123 -0.3695 -0.3382
 3566SOL    HW122334   4.690   1.894  14.799 -1.1918 -1.2665  0.4130
 3566SOL    HW222335   4.613   1.872  14.682 -0.5163  2.8229  1.8266
 3567SOL     OW22336   1.133   0.846  15.746  0.4680 -0.4142  0.0238
 3567SOL    HW122337   1.065   0.829  15.812 -0.2054 -0.0544 -0.5806
 3567SOL    HW222338   1.097   0.823  15.661 -2.1813 -0.8916  1.2820
 3568SOL     OW22339   0.257   1.009   8.516  0.4845  0.0002  0.5109
 3568SOL    HW122340   0.185   1.042   8.463  0.7322  1.6301  1.2107
 3568SOL    HW222341   0.289   1.072   8.580 -2.8612  1.1265  1.0455
 3569SOL     OW22342   1.285   4.534  13.951  0.1890 -0.7741 -0.8242
 3569SOL    HW122343   1.372   4.523  13.913  1.2255 -1.3227  1.7173
 3569SOL    HW222344   1.239   4.563  13.872  2.5554  0.9270 -1.5577
 3570SOL     OW22345   0.042   2.848   7.683 -0.3016  0.5133 -0.2878
 3570SOL    HW122346   0.008   2.908   7.617  2.0660  0.1017 -1.8782
 3570SOL    HW222347   0.009   2.895   7.760  1.4212 -1.0937  1.4559
 3571SOL     OW22348   3.059   3.563   2.501 -0.1150  0.3111  0.4511
 3571SOL    HW122349   3.052   3.488   2.559 -2.7241 -0.1392 -0.4472
 3571SOL    HW222350   3.131   3.613   2.539  1.2540 -0.9890 -0.4153
 3572SOL     OW22351   1.744   0.893   1.665 -0.7723  0.7450  0.6489
 3572SOL    HW122352   1.734   0.846   1.748  2.2284 -0.8324  0.1439
 3572SOL    HW222353   1.697   0.845   1.597  0.6369 -0.5591  0.5794
 3573SOL     OW22354   1.263   0.406   7.772 -0.3847  0.6221 -0.0090
 3573SOL    HW122355   1.223   0.394   7.686  0.7486 -0.6687 -0.3415
 3573SOL    HW222356   1.219   0.486   7.802  0.2233  0.9771 -0.0610
 3574SOL     OW22357   3.709   3.202   8.045  0.3627 -0.1835  0.4647
 3574SOL    HW122358   3.749   3.180   7.962  1.1394 -0.3727  0.8889
 3574SOL    HW222359   3.624   3.237   8.017  0.7247  0.6440  0.4225
 3575SOL     OW22360   0.143   3.146   9.019 -0.4102 -0.4134  0.0354
 3575SOL    HW122361   0.223   3.199   9.025 -0.4824 -0.2241 -0.5943
 3575SOL    HW222362   0.083   3.203   9.067 -0.7855 -1.1056  0.3767
 3576SOL     OW22363   2.342   4.428  17.564  0.2595  0.3439  0.4228
 3576SOL    HW122364   2.384   4.365  17.505 -0.8066  1.1462 -1.2113
 3576SOL    HW222365   2.407   4.496  17.580  1.9607 -1.1207 -0.3647
 3577SOL     OW22366   0.396   2.089   3.435  0.0197  0.1741 -0.5538
 3577SOL    HW122367   0.442   2.039   3.503  1.9023  0.5443 -1.5624
 3577SOL    HW222368   0.472   2.115   3.382 -1.1077 -2.2123 -3.3515
 3578SOL     OW22369   2.581   0.054   5.107 -0.2267  0.5874 -0.4120
 3578SOL    HW122370   2.499   0.089   5.072 -0.5809 -0.4913 -0.6876
 3578SOL    HW222371   2.588   4.712   5.051 -0.7543  0.8493 -0.8393
 3579SOL     OW22372   1.819   0.238   8.608  0.6199  0.3919 -0.5852
 3579SOL    HW122373   1.905   0.251   8.569  0.7226  4.5821  1.0294
 3579SOL    HW222374   1.825   0.293   8.686 -4.1812  1.8588 -1.2335
 3580SOL     OW22375   2.392   3.995   7.745  0.6169  0.6875 -0.2211
 3580SOL    HW122376   2.403   3.958   7.833  0.7007 -0.5176 -0.7344
 3580SOL    HW222377   2.461   4.061   7.739  1.0722  0.2340 -0.0427
 3581SOL     OW22378   0.008   3.492  16.035  0.4322  0.4348  0.3624
 3581SOL    HW122379   0.054   3.509  16.117  0.0878 -0.9716  0.8602
 3581SOL    HW222380   4.701   3.406  16.042  0.8019  0.2388  0.2160
 3582SOL     OW22381   2.911   0.783   1.541 -0.4214 -0.3819  0.1526
 3582SOL    HW122382   2.820   0.789   1.513 -0.6761  0.0411  1.0594
 3582SOL    HW222383   2.923   0.874   1.567 -3.6341  0.2624 -0.6136
 3583SOL     OW22384   0.166   2.759  12.182 -0.4088 -0.1470  0.4859
 3583SOL    HW122385   0.200   2.697  12.117  1.6196 -1.3466  2.7458
 3583SOL    HW222386   0.249   2.801  12.202  1.9780 -3.9117 -1.3642
 3584SOL     OW22387   4.670   4.586   4.327 -1.0398  0.8946  0.2276
 3584SOL    HW122388   4.681   4.501   4.370 -3.0074 -0.2508 -1.5066
 3584SOL    HW222389   0.016   4.632   4.343 -0.0769 -1.1635  1.3039
 3585SOL     OW22390   1.298   2.961   3.098 -0.7453  0.2960 -0.3832
 3585SOL    HW122391   1.217   2.971   3.148  0.2923 -1.2377  1.6010
 3585SOL    HW222392   1.334   3.050   3.107 -0.1082  0.0869 -0.8400
 3586SOL     OW22393   1.706   2.968  11.628 -0.2377  0.4609  0.4381
 3586SOL    HW122394   1.622   3.013  11.620 -0.6879 -0.0824  2.1888
 3586SOL    HW222395   1.749   2.989  11.545 -1.0314  0.5513  0.0444
 3587SOL     OW22396   3.407   2.110  12.856 -0.3366  0.0095 -0.4458
 3587SOL    HW122397   3.426   2.020  12.881  0.1687 -0.2460 -1.7645
 3587SOL    HW222398   3.455   2.112  12.773  0.0795  0.8865 -0.1852
 3588SOL     OW22399   0.551   4.166  17.245 -0.3094 -0.3099 -0.4221
 3588SOL    HW122400   0.484   4.106  17.277 -1.8851  1.3294 -0.6591
 3588SOL    HW222401   0.490   4.211  17.186 -0.1903  1.4281  0.7487
 3589SOL     OW22402   2.544   0.317   5.996  0.1011 -0.1228  0.2226
 3589SOL    HW122403   2.561   0.325   6.090 -1.1668  0.5905  0.3965
 3589SOL    HW222404   2.601   0.385   5.961  0.1888 -1.1092 -1.5472
 3590SOL     OW22405   4.110   2.578   8.290 -0.3245  0.9762  0.4595
 3590SOL    HW122406   4.180   2.634   8.323 -0.4296  2.0337 -1.1147
 3590SOL    HW222407   4.101   2.619   8.204  0.7836  2.3307  0.9783
 3591SOL     OW22408   3.213   0.078   9.851 -0.0705  0.6457  0.2865
 3591SOL    HW122409   3.296   0.066   9.898 -2.2036 -2.3534  3.2874
 3591SOL    HW222410   3.216   4.732   9.801 -1.7721  0.7771 -0.0318
 3592SOL     OW22411   1.050   1.021   7.584  0.5687 -0.1285 -0.1260
 3592SOL    HW122412   1.039   1.098   7.639 -1.7997 -0.6686  0.1344
 3592SOL    HW222413   1.111   1.055   7.518  1.8381 -2.8443 -0.3618
 3593SOL     OW22414   4.260   1.476  17.303  0.1921  0.2025  0.4453
 3593SOL    HW122415   4.224   1.452  17.388  1.5381  2.3800  1.6190
 3593SOL    HW222416   4.255   1.571  17.299  1.1307  0.1967 -0.9833
 3594SOL     OW22417   0.628   1.914   6.106 -0.9638  0.7523  0.0437
 3594SOL    HW122418   0.597   1.863   6.181  1.0775 -3.8024 -2.2185
 3594SOL    HW222419   0.590   1.853   6.042  2.0015 -0.2857 -0.7220
 3595SOL     OW22420   4.189   0.635   9.393 -0.5096  0.0286 -0.0881
 3595SOL    HW122421   4.147   0.720   9.384  0.1161  0.2924 -0.5699
 3595SOL    HW222422   4.131   0.584   9.336 -0.0376 -1.4539  0.7659
 3596SOL     OW22423   0.965   1.811  11.588  0.5938 -0.2432  0.2725
 3596SOL    HW122424   0.922   1.748  11.645  1.4562 -2.2205 -1.2904
 3596SOL    HW222425   0.981   1.884  11.648 -1.8996 -0.5853  1.3677
 3597SOL     OW22426   2.094   1.227  12.553  0.0895  0.7113 -0.1161
 3597SOL    HW122427   2.006   1.190  12.549 -0.0620  1.0280  0.2211
 3597SOL    HW222428   2.087   1.288  12.479  0.5661 -0.6064 -1.2347
 3598SOL     OW22429   3.557   0.575   5.138 -0.5207 -0.0257  0.3400
 3598SOL    HW122430   3.523   0.545   5.054 -0.9575 -0.4860  0.6759
 3598SOL    HW222431   3.509   0.658   5.146 -0.8641 -0.1784 -0.1194
 3599SOL     OW22432   3.903   3.860   3.770 -0.3243  0.0295 -0.4095
 3599SOL    HW122433   3.968   3.876   3.838 -0.1145 -1.7610 -0.1983
 3599SOL    HW222434   3.947   3.789   3.722  1.0683  0.8525 -0.3489
 3600SOL     OW22435   0.484   3.950  10.864  0.1466  0.1347  0.2420
 3600SOL    HW122436   0.499   4.007  10.939  0.7461 -3.2517  2.7021
 3600SOL    HW222437   0.391   3.966  10.846 -0.1883 -0.8792  1.0356
 3601SOL     OW22438   2.672   0.238   9.594 -0.2300 -0.8564  0.2776
 3601SOL    HW122439   2.732   0.189   9.650 -0.7687  0.6149  2.1354
 3601SOL    HW222440   2.722   0.320   9.588 -1.8922  0.1325  0.0450
 3602SOL     OW22441   3.054   3.897   2.792 -0.2577 -0.8325 -0.1569
 3602SOL    HW122442   3.061   3.937   2.705  0.1396 -0.7934 -0.1108
 3602SOL    HW222443   3.145   3.875   2.814 -0.6384 -1.3056  0.9220
 3603SOL     OW22444   3.900   2.483   6.847 -0.4929  0.1706  0.1617
 3603SOL    HW122445   3.900   2.563   6.898  1.4043 -0.3110  0.9148
 3603SOL    HW222446   3.820   2.439   6.874 -1.4175  1.7094 -0.0660
 3604SOL     OW22447   2.694   2.173  15.735  0.2332  0.1629 -0.0091
 3604SOL    HW122448   2.755   2.233  15.692  0.8820 -1.9529 -2.0265
 3604SOL    HW222449   2.655   2.223  15.807 -2.1798  0.4048 -1.4722
 3605SOL     OW22450   3.121   3.834   6.720 -0.3384 -0.1066  0.1988
 3605SOL    HW122451   3.189   3.900   6.738 -0.5058 -0.5528  2.5510
 3605SOL    HW222452   3.055   3.866   6.659  0.4288 -1.8441 -1.5521
 3606SOL     OW22453   2.948   0.791   5.543 -0.3107 -0.0038 -0.6035
 3606SOL    HW122454   3.004   0.864   5.573  2.2085 -1.6370 -1.3363
 3606SOL    HW222455   2.892   0.762   5.615  1.4888  1.6835  1.5047
 3607SOL     OW22456   3.391   3.457   8.245 -0.2068 -0.0225  0.3150
 3607SOL    HW122457   3.410   3.489   8.333  1.1654 -1.9970  0.7447
 3607SOL    HW222458   3.300   3.484   8.238 -0.1478  0.4068  1.1391
 3608SOL     OW22459   1.911   0.272   6.406  0.3737 -0.5065 -0.2354
 3608SOL    HW122460   1.942   0.333   6.339 -0.3677 -2.2355 -2.1467
 3608SOL    HW222461   1.982   0.268   6.470  0.0183  4.1661  0.4739
 3609SOL     OW22462   3.056   3.098  15.264  0.0383 -0.0741  0.2977
 3609SOL    HW122463   3.071   3.159  15.335 -0.3437  3.3643 -2.5721
 3609SOL    HW222464   2.970   3.123  15.231  0.2565  0.2990  0.0104
 3610SOL     OW22465   1.360   2.858   4.761 -0.8879  0.4576  0.3737
 3610SOL    HW122466   1.317   2.943   4.750  1.1960  1.0776 -3.0646
 3610SOL    HW222467   1.448   2.880   4.730  0.1544  0.1068  3.1099
 3611SOL     OW22468   1.685   3.865   6.500  0.2663 -0.7472 -0.7121
 3611SOL    HW122469   1.646   3.859   6.587 -1.2306 -0.1194 -1.3477
 3611SOL    HW222470   1.606   3.839   6.452 -2.1707 -0.8241  3.3536
 3612SOL     OW22471   2.133   2.186  16.608  0.0141 -0.3444 -0.2392
 3612SOL    HW122472   2.202   2.183  16.674  1.4112 -1.6120 -1.7733
 3612SOL    HW222473   2.138   2.097  16.572 -0.6021 -1.4227  2.3753
 3613SOL     OW22474   0.062   1.187  11.503  0.5372 -0.0720  0.3215
 3613SOL    HW122475   0.057   1.094  11.526 -1.9693  0.9383  3.6890
 3613SOL    HW222476   4.708   1.217  11.518  0.5294 -0.2200  0.5695
 3614SOL     OW22477   3.884   2.912   3.638  0.9469  0.1584 -0.3548
 3614SOL    HW122478   3.949   2.956   3.693 -1.6409  1.4569  1.6366
 3614SOL    HW222479   3.841   2.993   3.609  4.4082  1.0577 -3.0998
 3615SOL     OW22480   0.386   4.474   1.919  0.6252 -0.0915  0.1083
 3615SOL    HW122481   0.470   4.490   1.875 -0.5192 -1.7552 -2.6392
 3615SOL    HW222482   0.332   4.434   1.852  2.3778 -0.6302 -0.9707
 3616SOL     OW22483   4.576   2.318   3.885  0.4726 -0.1050  0.0566
 3616SOL    HW122484   4.575   2.372   3.807  0.6567  1.1912  0.9595
 3616SOL    HW222485   4.556   2.385   3.950  0.6829  0.4470 -0.4544
 3617SOL     OW22486   4.522   0.027   7.406 -0.6154 -0.1175  0.0404
 3617SOL    HW122487   4.574   4.691   7.369  3.4130  2.5800  0.4314
 3617SOL    HW222488   4.434   4.734   7.383 -0.6143 -0.6069  0.6540
 3618SOL     OW22489   2.392   1.110   8.888 -0.1364  0.9199 -0.1198
 3618SOL    HW122490   2.392   1.185   8.947 -0.9243 -0.6439  1.8434
 3618SOL    HW222491   2.385   1.152   8.802  0.9755 -1.1232 -1.1844
 3619SOL     OW22492   3.276   0.372   8.411  0.3544  0.6971 -0.4942
 3619SOL    HW122493   3.248   0.429   8.339 -2.9778  1.8766  1.7656
 3619SOL    HW222494   3.202   0.385   8.470 -0.3570 -0.0796 -1.2128
 3620SOL     OW22495   0.436   0.116   3.971 -0.3089 -0.5752  0.4560
 3620SOL    HW122496   0.444   0.100   3.876 -0.6160  1.1207  0.1485
 3620SOL    HW222497   0.346   0.148   3.976  0.3170  1.3955 -0.8195
 3621SOL     OW22498   4.520   4.267   4.615  0.0676  0.1705  0.4440
 3621SOL    HW122499   4.434   4.291   4.648 -0.4602  0.4580 -1.1241
 3621SOL    HW222500   4.499   4.251   4.523 -3.0128 -2.4739  1.6245
 3622SOL     OW22501   2.599   1.869  11.924  0.5758 -0.1299 -0.0736
 3622SOL    HW122502   2.592   1.806  11.853  2.2452  1.0116 -1.2485
 3622SOL    HW222503   2.693   1.861  11.941  0.5119  0.0570  0.3797
 3623SOL     OW22504   2.742   3.301   8.925  0.3515 -0.3046 -0.3984
 3623SOL    HW122505   2.648   3.286   8.922  0.6407 -1.8580 -1.6283
 3623SOL    HW222506   2.752   3.332   8.835 -0.1694 -0.6748 -0.5793
 3624SOL     OW22507   3.210   1.329   3.028  0.0812  0.3833  0.4433
 3624SOL    HW122508   3.153   1.393   3.071  0.8496  1.0524  0.4528
 3624SOL    HW222509   3.181   1.336   2.937 -0.0124  0.2106  0.4586
 3625SOL     OW22510   3.975   3.363   3.003 -0.5717 -0.4078  0.0751
 3625SOL    HW122511   4.046   3.307   3.036  0.8849  0.7849 -1.0457
 3625SOL    HW222512   4.008   3.452   3.010  0.7464 -0.5640 -3.7232
 3626SOL     OW22513   2.195   4.714   8.621  0.4281 -0.1720 -0.0703
 3626SOL    HW122514   2.141   4.653   8.671  0.5497 -2.3129 -2.5433
 3626SOL    HW222515   2.143   4.718   8.541  1.5483  0.9407 -0.7357
 3627SOL     OW22516   4.481   2.206   5.935  0.0648  0.0026 -0.0784
 3627SOL    HW122517   4.409   2.143   5.931  0.3717 -0.2761 -1.3772
 3627SOL    HW222518   4.502   2.205   6.028  1.0812 -0.9214 -0.3064
 3628SOL     OW22519   4.365   2.793   1.831 -0.0178 -0.5240  0.3448
 3628SOL    HW122520   4.398   2.879   1.803  1.2121 -0.7187  1.1773
 3628SOL    HW222521   4.432   2.774   1.897  0.7119 -0.7252 -0.4400
 3629SOL     OW22522   3.599   3.015   2.077  0.0860 -0.6388  0.4620
 3629SOL    HW122523   3.528   2.955   2.097  0.4663 -1.5585 -0.9488
 3629SOL    HW222524   3.668   2.956   2.044 -1.5562 -2.3659  0.1264
 3630SOL     OW22525   1.373   1.743  12.314  0.6714  0.3699  0.1975
 3630SOL    HW122526   1.357   1.762  12.221  1.6684  0.3923  0.0280
 3630SOL    HW222527   1.468   1.758  12.314  0.6369  0.6125  1.8485
 3631SOL     OW22528   4.628   1.583   4.149  0.7875 -0.5766 -0.2841
 3631SOL    HW122529   4.562   1.636   4.104  1.1984 -0.3492 -0.6196
 3631SOL    HW222530   4.705   1.641   4.146  0.4257 -0.1912 -1.9328
 3632SOL     OW22531   1.466   1.283   3.703 -0.0884  0.1083  0.0579
 3632SOL    HW122532   1.407   1.358   3.717  1.8269  1.6219  0.0093
 3632SOL    HW222533   1.505   1.290   3.616  0.4305  0.3310  0.3104
 3633SOL     OW22534   0.954   2.399  10.069  0.5071 -0.6848  0.4056
 3633SOL    HW122535   1.032   2.360  10.030  1.0556 -1.9779  2.7675
 3633SOL    HW222536   0.959   2.381  10.163 -0.8015 -1.3073  0.3579
 3634SOL     OW22537   2.132   2.522   6.331 -0.3970 -0.0023  0.0449
 3634SOL    HW122538   2.185   2.567   6.265 -1.0712 -0.9455 -1.1232
 3634SOL    HW222539   2.073   2.588   6.367 -0.7014  0.5060 -1.3787
 3635SOL     OW22540   4.608   3.281   9.532 -0.5108  0.2859  0.5396
 3635SOL    HW122541   4.670   3.241   9.593  1.5948  0.0983 -1.7391
 3635SOL    HW222542   4.540   3.214   9.541 -1.0605  0.7368 -0.2709
 3636SOL     OW22543   4.529   2.331   7.918 -0.1670  0.2563 -0.0837
 3636SOL    HW122544   4.438   2.316   7.944 -0.6790  1.1051 -1.3553
 3636SOL    HW222545   4.524   2.427   7.909  0.6567  0.2822 -0.3036
 3637SOL     OW22546   4.601   4.244   8.698 -0.5072  0.0959  0.0787
 3637SOL    HW122547   4.688   4.269   8.731 -1.4709  0.9077  2.0158
 3637SOL    HW222548   4.576   4.319   8.644 -0.4426 -2.0442 -2.9157
 3638SOL     OW22549   2.542   3.656   4.568 -0.1861  0.1934 -0.1509
 3638SOL    HW122550   2.472   3.648   4.503 -0.0429  1.0299 -0.4149
 3638SOL    HW222551   2.613   3.640   4.506  0.2952 -1.7172  0.9091
 3639SOL     OW22552   0.362   2.182   6.674 -0.5431  0.0781 -0.6074
 3639SOL    HW122553   0.401   2.199   6.759 -1.0388 -1.3116 -0.1051
 3639SOL    HW222554   0.408   2.104   6.642 -1.2056 -0.6687  0.2835
 3640SOL     OW22555   2.414   4.021  11.639 -0.2456 -0.0931  0.1429
 3640SOL    HW122556   2.337   4.048  11.589 -0.3196 -0.9159 -0.1891
 3640SOL    HW222557   2.439   4.107  11.675  2.3477 -0.7462 -0.0500
 3641SOL     OW22558   4.392   3.201   7.202 -0.2021 -0.0158 -0.0571
 3641SOL    HW122559   4.303   3.217   7.171 -0.6886  2.1626  2.4339
 3641SOL    HW222560   4.374   3.111   7.230 -1.6216 -0.3870 -2.1668
 3642SOL     OW22561   2.874   1.697   1.366 -0.0611 -0.1862  0.1257
 3642SOL    HW122562   2.836   1.784   1.355  2.2770  0.8396  0.0868
 3642SOL    HW222563   2.935   1.711   1.438 -2.2452  0.0725  1.9192
 3643SOL     OW22564   1.776   4.254  15.468 -0.0954 -0.1470 -0.0066
 3643SOL    HW122565   1.841   4.276  15.534 -0.6186 -1.7635  1.0481
 3643SOL    HW222566   1.775   4.159  15.475 -0.9540 -0.2899 -2.0332
 3644SOL     OW22567   1.891   1.520   7.730  0.4529 -0.6222  0.2568
 3644SOL    HW122568   1.964   1.545   7.673  0.8923 -0.0642  1.0700
 3644SOL    HW222569   1.943   1.476   7.797 -1.4726 -0.8832  1.5580
 3645SOL     OW22570   3.281   4.591  11.003  1.0649 -0.1729 -0.2679
 3645SOL    HW122571   3.218   4.523  10.979 -0.2280  1.0122 -0.2559
 3645SOL    HW222572   3.226   4.666  10.980  0.3294  0.4400  3.4857
 3646SOL     OW22573   4.212   0.854   6.375 -0.2268  0.2018  0.5851
 3646SOL    HW122574   4.306   0.870   6.380 -0.0382 -0.1325 -2.1188
 3646SOL    HW222575   4.179   0.891   6.457  0.0271  1.6382  0.0301
 3647SOL     OW22576   4.663   2.819  11.738 -0.3171  0.0770  0.0645
 3647SOL    HW122577   4.650   2.733  11.699 -2.4613  1.8880 -3.2941
 3647SOL    HW222578   4.583   2.829  11.790 -0.6109  1.0371 -0.5592
 3648SOL     OW22579   1.198   4.251   5.173 -0.5039  0.4121  0.5178
 3648SOL    HW122580   1.128   4.187   5.187 -0.9608  0.4405 -1.5711
 3648SOL    HW222581   1.262   4.198   5.125 -1.8124 -1.7217  1.1168
 3649SOL     OW22582   1.497   2.855   1.449 -0.5316  0.6649  0.4850
 3649SOL    HW122583   1.573   2.912   1.445 -0.2750  0.3052  0.2626
 3649SOL    HW222584   1.459   2.887   1.531 -0.8177 -0.0135  0.6203
 3650SOL     OW22585   2.536   3.036   9.903 -0.0397  0.0959 -0.5042
 3650SOL    HW122586   2.533   3.124   9.865 -1.1305 -0.6828 -2.2087
 3650SOL    HW222587   2.628   3.008   9.905  0.8008  2.8572  0.3904
 3651SOL     OW22588   3.548   0.777   2.857 -0.1731 -0.5924  0.4179
 3651SOL    HW122589   3.590   0.722   2.791 -1.5150 -0.7240 -0.3207
 3651SOL    HW222590   3.455   0.764   2.840 -0.1835  0.6565 -0.4311
 3652SOL     OW22591   3.165   4.703  10.150  0.1639 -0.7178 -0.2812
 3652SOL    HW122592   3.108   4.650  10.094 -0.8151  0.2520 -0.2161
 3652SOL    HW222593   3.254   4.671  10.137  0.9712  0.9226  1.3204
 3653SOL     OW22594   3.209   3.259   7.928  0.2753  0.1154 -0.5444
 3653SOL    HW122595   3.225   3.324   7.859  0.6650 -0.3160 -0.8630
 3653SOL    HW222596   3.140   3.201   7.897  0.1489  0.3426 -0.6903
 3654SOL     OW22597   1.919   2.972   7.126  0.2854 -0.0289  0.1236
 3654SOL    HW122598   1.849   3.034   7.148  3.2491  3.4853 -0.4033
 3654SOL    HW222599   1.959   3.013   7.049 -0.1541  0.2083  0.0236
 3655SOL     OW22600   1.079   0.126  12.746 -0.8810 -0.6760 -0.8913
 3655SOL    HW122601   1.041   0.164  12.825 -0.8259 -1.0987 -0.6675
 3655SOL    HW222602   1.113   0.209  12.711 -1.3705 -0.5947 -1.1866
 3656SOL     OW22603   1.030   2.886  12.750 -0.6824 -0.3015 -0.0666
 3656SOL    HW122604   1.015   2.826  12.823 -2.1250 -0.5512 -0.5677
 3656SOL    HW222605   1.075   2.946  12.809 -0.0682  0.9183 -1.7854
 3657SOL     OW22606   2.620   1.908   9.307 -0.6943 -0.5702 -0.1158
 3657SOL    HW122607   2.628   1.833   9.364  0.2953  0.6222  1.3185
 3657SOL    HW222608   2.713   1.928   9.291 -0.9937  1.4665  0.6114
 3658SOL     OW22609   3.279   4.412   6.923  0.6303 -0.3255 -0.3999
 3658SOL    HW122610   3.230   4.336   6.892  0.3984 -0.0359 -0.7429
 3658SOL    HW222611   3.244   4.475   6.859  2.4714 -1.7197 -2.7731
 3659SOL     OW22612   0.949   1.815   8.497 -0.6958 -0.4357  0.2386
 3659SOL    HW122613   0.959   1.796   8.590 -2.7890 -0.5282  0.4398
 3659SOL    HW222614   0.948   1.910   8.507  2.3043 -0.5043  1.0863
 3660SOL     OW22615   2.546   0.372   7.889 -0.0931 -0.5005  0.4392
 3660SOL    HW122616   2.581   0.293   7.848  1.6485  0.1667  0.6658
 3660SOL    HW222617   2.626   0.406   7.929 -0.1699  0.4878 -0.2418
 3661SOL     OW22618   0.414   1.216   4.888 -0.0637 -0.1359  0.4743
 3661SOL    HW122619   0.352   1.288   4.904 -1.1508 -0.9368 -0.1372
 3661SOL    HW222620   0.458   1.216   4.973  2.3162  2.4275 -0.7372
 3662SOL     OW22621   0.050   2.017  15.512  0.2216 -0.2451 -0.0511
 3662SOL    HW122622   0.070   1.931  15.548 -0.5133  0.1152  1.2182
 3662SOL    HW222623   0.078   2.077  15.580 -0.0290 -0.4450  0.2272
 3663SOL     OW22624   0.382   3.761  14.357 -0.7301 -0.7120 -0.3082
 3663SOL    HW122625   0.330   3.696  14.311 -1.0548 -0.7643  0.1291
 3663SOL    HW222626   0.317   3.787  14.423 -0.8224  2.2766 -1.5677
 3664SOL     OW22627   4.151   2.929   9.156 -0.3433 -0.4659 -0.2581
 3664SOL    HW122628   4.062   2.898   9.137  0.0498 -0.6131 -1.8454
 3664SOL    HW222629   4.156   2.916   9.250  1.2490 -1.0808 -0.4286
 3665SOL     OW22630   3.552   0.217   4.370 -0.3141  0.1750  0.1640
 3665SOL    HW122631   3.491   0.159   4.324 -0.4451  1.1992 -0.9360
 3665SOL    HW222632   3.533   0.297   4.321 -1.9893  0.1144  0.7255
 3666SOL     OW22633   1.396   2.498   1.644 -0.1126 -0.2823 -0.2558
 3666SOL    HW122634   1.347   2.567   1.599  0.5354  0.0855 -0.3952
 3666SOL    HW222635   1.433   2.449   1.571 -1.7297 -1.7289 -0.1096
 3667SOL     OW22636   4.471   0.865   6.415  0.5614 -0.0363 -0.2473
 3667SOL    HW122637   4.448   0.929   6.483 -1.4860 -0.8447 -0.1664
 3667SOL    HW222638   4.544   0.821   6.458  0.2192  0.0442  0.4101
 3668SOL     OW22639   3.107   3.714   8.419 -0.2236  0.0554 -0.6010
 3668SOL    HW122640   3.069   3.779   8.360 -2.8902  1.0705  2.2124
 3668SOL    HW222641   3.197   3.748   8.417  0.1689 -0.9207  0.4647
 3669SOL     OW22642   3.190   4.041   9.760  0.2467  0.0667 -0.1361
 3669SOL    HW122643   3.232   3.959   9.785  0.2260 -0.0465 -0.4625
 3669SOL    HW222644   3.263   4.091   9.722 -1.3381  2.5410  0.0632
 3670SOL     OW22645   4.255   4.683   4.871 -0.3099 -0.1840  0.1069
 3670SOL    HW122646   4.280   4.605   4.822  1.5838 -0.5088  1.5503
 3670SOL    HW222647   4.322   4.695   4.939  0.2556  0.2090 -0.5204
 3671SOL     OW22648   0.468   4.228   6.457  0.1173 -0.1413  0.4005
 3671SOL    HW122649   0.391   4.221   6.400 -2.6117 -0.7147  4.2310
 3671SOL    HW222650   0.531   4.165   6.421  0.5599  1.0649 -0.9499
 3672SOL     OW22651   0.661   2.828  13.470 -0.1921  0.3643  0.5873
 3672SOL    HW122652   0.628   2.859  13.555 -1.2288 -0.2818  0.4222
 3672SOL    HW222653   0.745   2.874  13.465 -0.0051 -0.2143 -1.2361
 3673SOL     OW22654   3.096   1.284   1.640  0.1564 -0.1601  0.0034
 3673SOL    HW122655   3.167   1.293   1.703  0.3811  0.4289 -0.3345
 3673SOL    HW222656   3.032   1.340   1.684 -0.0149  0.5069 -1.1008
 3674SOL     OW22657   4.032   1.527   6.896 -0.0373 -0.2075 -0.6411
 3674SOL    HW122658   4.005   1.435   6.897 -0.2490 -0.1065  3.4127
 3674SOL    HW222659   4.044   1.547   6.989 -2.0267 -1.9071 -0.0038
 3675SOL     OW22660   3.073   2.054  14.022  0.5950 -0.4470 -0.0171
 3675SOL    HW122661   3.095   1.975  13.973 -3.3826 -0.5211 -1.7125
 3675SOL    HW222662   2.985   2.033  14.055 -0.0367  0.6091 -1.0081
 3676SOL     OW22663   4.279   3.920   6.309 -0.1366  0.5276 -0.1300
 3676SOL    HW122664   4.362   3.951   6.274  1.1662  0.2216  2.6514
 3676SOL    HW222665   4.294   3.910   6.403  0.0389  0.4286 -0.1672
 3677SOL     OW22666   0.120   3.240   7.929 -0.2478  0.4868  0.0611
 3677SOL    HW122667   0.159   3.155   7.949  0.3416  0.8386  0.4006
 3677SOL    HW222668   0.031   3.216   7.956 -0.4751  0.9631 -0.2764
 3678SOL     OW22669   1.749   1.146   1.573 -0.1484 -0.8075  0.9579
 3678SOL    HW122670   1.764   1.052   1.588 -0.0087 -0.8584  0.4952
 3678SOL    HW222671   1.668   1.144   1.522  0.1635  0.5937  0.4060
 3679SOL     OW22672   1.388   4.431   0.437 -0.0413 -0.2623  0.1710
 3679SOL    HW122673   1.387   4.391   0.350 -2.1050 -0.7850  0.4425
 3679SOL    HW222674   1.476   4.410   0.470 -0.0061 -0.5407 -0.0948
 3680SOL     OW22675   4.466   1.521   1.493  0.0109 -0.3976 -0.2774
 3680SOL    HW122676   4.501   1.447   1.443  1.1593 -0.2363  0.2848
 3680SOL    HW222677   4.553   1.559   1.506 -0.1442 -0.2663  0.4013
 3681SOL     OW22678   0.738   0.980   3.135  0.0686 -0.2079  0.5236
 3681SOL    HW122679   0.706   0.917   3.071  1.1006 -0.6523  0.4425
 3681SOL    HW222680   0.657   1.019   3.166  0.7404  1.7207 -0.1442
 3682SOL     OW22681   3.546   0.336   1.076 -0.6858 -0.7379 -0.2558
 3682SOL    HW122682   3.544   0.259   1.019 -1.1494  0.1135 -1.3855
 3682SOL    HW222683   3.524   0.306   1.164 -3.6044  0.4079 -0.6135
 3683SOL     OW22684   1.550   3.454   1.149 -0.5002 -0.0644 -0.2534
 3683SOL    HW122685   1.459   3.424   1.149 -0.7778  0.7672 -0.8578
 3683SOL    HW222686   1.591   3.395   1.085 -2.2583 -2.5976  0.9672
 3684SOL     OW22687   1.790   2.171  12.620  0.1401 -0.0176  0.4707
 3684SOL    HW122688   1.709   2.221  12.633 -0.2074 -0.3042 -0.5602
 3684SOL    HW222689   1.776   2.082  12.653  0.1993 -0.1979  0.0138
 3685SOL     OW22690   2.597   3.328   4.627 -0.3380 -0.1176 -0.0728
 3685SOL    HW122691   2.535   3.381   4.677 -0.7485 -1.0092  0.3573
 3685SOL    HW222692   2.533   3.274   4.581 -0.5557  0.2262 -0.1743
 3686SOL     OW22693   4.109   2.294   2.742 -0.0564 -0.4597 -0.1060
 3686SOL    HW122694   4.077   2.373   2.785 -0.3983  0.4781 -2.0895
 3686SOL    HW222695   4.135   2.333   2.659 -0.7062 -1.3657 -0.7337
 3687SOL     OW22696   0.795   0.678  13.635  0.2915  0.1053 -0.4768
 3687SOL    HW122697   0.704   0.648  13.634  1.1861 -2.6675  1.2541
 3687SOL    HW222698   0.766   0.769  13.628  0.7406  0.2982  0.2341
 3688SOL     OW22699   3.957   1.745   8.088 -0.1326 -0.4693 -0.0208
 3688SOL    HW122700   3.963   1.652   8.109 -1.8823 -0.8761 -1.3671
 3688SOL    HW222701   3.913   1.737   8.004  0.4250  1.2172 -0.4744
 3689SOL     OW22702   3.055   1.651   1.656  0.5409  0.1558  0.7018
 3689SOL    HW122703   3.046   1.745   1.675  1.6168  0.9207 -2.5071
 3689SOL    HW222704   3.140   1.651   1.612  0.5392 -4.8469  0.7481
 3690SOL     OW22705   3.232   4.198   8.257  0.1162 -0.5688 -0.1633
 3690SOL    HW122706   3.167   4.194   8.327  1.7497  0.8445  1.4490
 3690SOL    HW222707   3.213   4.288   8.228 -1.1941 -1.2077 -1.2659
 3691SOL     OW22708   2.228   4.254  12.569 -0.6953  0.1355  0.1261
 3691SOL    HW122709   2.243   4.314  12.641 -3.5324  1.5796 -0.5056
 3691SOL    HW222710   2.179   4.185  12.614 -0.5889  0.2917  0.4807
 3692SOL     OW22711   0.778   2.720   2.896  0.1920 -0.4799 -0.4586
 3692SOL    HW122712   0.847   2.664   2.860 -0.2539 -2.6175  2.0362
 3692SOL    HW222713   0.745   2.668   2.968  0.0176  0.5055  0.1774
 3693SOL     OW22714   3.740   2.842   7.466  0.3148 -0.4676  0.2749
 3693SOL    HW122715   3.761   2.802   7.551 -0.9284  1.2660  1.4196
 3693SOL    HW222716   3.647   2.837   7.490  0.5065 -0.3291  1.0654
 3694SOL     OW22717   2.089   2.289   4.527 -0.0265 -0.4999  0.2369
 3694SOL    HW122718   2.088   2.364   4.467 -2.6965 -0.2385  0.6288
 3694SOL    HW222719   2.050   2.220   4.472 -1.9935 -0.1112  1.1457
 3695SOL     OW22720   0.622   3.806  14.839 -0.0406  0.1126  0.1822
 3695SOL    HW122721   0.683   3.880  14.840 -0.3755  0.3854  0.4618
 3695SOL    HW222722   0.654   3.754  14.765 -0.7220  0.8902 -0.6585
 3696SOL     OW22723   3.626   1.725   5.866 -0.4592 -0.3813  0.1688
 3696SOL    HW122724   3.690   1.743   5.797 -0.9202 -2.3397 -0.7591
 3696SOL    HW222725   3.575   1.651   5.833 -0.2715 -1.5154  2.4979
 3697SOL     OW22726   0.554   0.609  14.915 -0.0291 -0.0842 -0.1523
 3697SOL    HW122727   0.574   0.702  14.907 -1.0048  0.3144  2.1059
 3697SOL    HW222728   0.460   0.606  14.898 -0.4998 -0.1044  2.5262
 3698SOL     OW22729   2.007   1.112   1.911  0.3349  0.6516 -0.7186
 3698SOL    HW122730   1.966   1.084   1.994 -1.0523  0.0307 -1.6147
 3698SOL    HW222731   2.097   1.123   1.940  0.8349  1.0029 -2.4451
 3699SOL     OW22732   3.701   1.153   8.524 -0.6607 -0.3042  0.0494
 3699SOL    HW122733   3.700   1.149   8.428 -2.1595 -0.2699  0.0741
 3699SOL    HW222734   3.622   1.106   8.549 -2.0742  3.1225  2.0444
 3700SOL     OW22735   1.150   2.067   9.499  0.4963 -0.0021  0.2600
 3700SOL    HW122736   1.155   2.115   9.582 -2.2818  0.1424  0.3398
 3700SOL    HW222737   1.072   2.013   9.491  0.8331 -0.2872 -1.0168
 3701SOL     OW22738   1.974   2.358   3.405  0.2505 -0.0288  0.1136
 3701SOL    HW122739   1.923   2.388   3.330  0.7470  1.4621  0.3777
 3701SOL    HW222740   1.976   2.439   3.456 -2.5101  0.6251 -0.8031
 3702SOL     OW22741   0.771   0.641   4.948 -0.4030 -0.5979  0.2176
 3702SOL    HW122742   0.736   0.674   4.865 -0.9685 -1.1038  0.2569
 3702SOL    HW222743   0.862   0.614   4.931 -0.0707 -0.2207  1.3672
 3703SOL     OW22744   2.448   4.129   5.323  0.2282  0.5178 -0.2930
 3703SOL    HW122745   2.401   4.212   5.322 -0.0512  0.3649  0.1531
 3703SOL    HW222746   2.435   4.114   5.229 -0.6732 -0.0745 -0.0825
 3704SOL     OW22747   0.967   3.218   4.881  0.0980 -0.1193  0.5102
 3704SOL    HW122748   1.003   3.130   4.895  4.0846  1.7667  2.2721
 3704SOL    HW222749   1.008   3.254   4.802  1.4171 -0.3531  1.0804
 3705SOL     OW22750   4.327   4.225   6.125  0.1122 -0.7121 -0.1097
 3705SOL    HW122751   4.412   4.265   6.145 -0.1822 -0.5308  0.7456
 3705SOL    HW222752   4.357   4.162   6.060  1.5404 -2.0613  1.8479
 3706SOL     OW22753   4.113   0.379   7.132 -0.0307 -0.3088  0.3232
 3706SOL    HW122754   4.115   0.343   7.044  1.2811 -0.5806  0.4609
 3706SOL    HW222755   4.204   0.407   7.127 -0.3333  0.5731 -0.1010
 3707SOL     OW22756   3.576   4.448   1.169 -0.3015 -0.3365 -0.3176
 3707SOL    HW122757   3.573   4.510   1.242 -1.5321  2.2344 -2.5849
 3707SOL    HW222758   3.521   4.376   1.199  1.0821 -0.8567  0.9715
 3708SOL     OW22759   0.697   2.607   2.563 -0.2343 -0.0413 -0.0198
 3708SOL    HW122760   0.761   2.642   2.501 -1.0580  0.6185 -0.4818
 3708SOL    HW222761   0.688   2.676   2.628 -0.0631  0.5944 -0.6767
 3709SOL     OW22762   4.031   3.341   3.597  0.0074  0.0682 -0.3095
 3709SOL    HW122763   4.026   3.256   3.641  2.3853 -0.9346 -1.9666
 3709SOL    HW222764   4.085   3.315   3.523  2.2020 -0.5636  1.5195
 3710SOL     OW22765   4.252   0.268   2.217 -0.2633 -0.2343 -0.6809
 3710SOL    HW122766   4.158   0.253   2.228  0.3464 -2.2863  1.6994
 3710SOL    HW222767   4.286   0.180   2.229 -1.1247 -0.3713  0.7245
 3711SOL     OW22768   3.255   1.026   5.029  0.1017 -0.1152  0.0508
 3711SOL    HW122769   3.309   1.026   4.950 -0.3579  1.0366 -0.2654
 3711SOL    HW222770   3.256   1.120   5.048 -2.5752 -0.0845  0.0471
 3712SOL     OW22771   2.384   4.716  11.722  0.5435 -0.0266 -0.1040
 3712SOL    HW122772   2.340   4.668  11.792  0.6057 -2.6552 -1.8702
 3712SOL    HW222773   2.463   4.663  11.712 -0.5281 -1.5460 -0.4362
 3713SOL     OW22774   2.663   3.440   8.015 -0.0895 -0.4212 -0.0067
 3713SOL    HW122775   2.682   3.454   7.922 -2.4029  2.1055 -0.1038
 3713SOL    HW222776   2.734   3.381   8.042  0.0085  1.1875  3.2357
 3714SOL     OW22777   3.668   0.202   6.037  0.1741  0.4088 -0.1162
 3714SOL    HW122778   3.655   0.144   5.962 -2.1716 -1.6012  1.8682
 3714SOL    HW222779   3.611   0.278   6.028  0.0370  0.0059 -2.5330
 3715SOL     OW22780   4.410   2.441   7.459 -0.1291  0.3266  0.0667
 3715SOL    HW122781   4.360   2.498   7.401 -1.1935 -0.0549  0.6154
 3715SOL    HW222782   4.370   2.358   7.435 -0.3237  0.6019 -0.5537
 3716SOL     OW22783   3.746   4.318   1.930  0.5201  0.8568  0.9411
 3716SOL    HW122784   3.801   4.261   1.877  0.7686  0.1801  1.9115
 3716SOL    HW222785   3.682   4.253   1.961  0.5218  0.7874  0.7969
 3717SOL     OW22786   1.623   2.216   7.778 -0.1791 -0.1101  0.6000
 3717SOL    HW122787   1.609   2.292   7.834  0.9515 -0.1797  0.9744
 3717SOL    HW222788   1.695   2.257   7.728  0.2007  3.1962  3.9023
 3718SOL     OW22789   0.783   0.798   5.330 -0.0215  0.2346 -0.5407
 3718SOL    HW122790   0.719   0.763   5.268 -1.9619  1.6867  0.6340
 3718SOL    HW222791   0.845   0.832   5.266  0.4756  2.2986  1.0255
 3719SOL     OW22792   4.642   0.845  15.347  0.0066 -0.5580  0.3153
 3719SOL    HW122793   4.553   0.810  15.335 -1.0753  1.5655  2.1069
 3719SOL    HW222794   4.619   0.936  15.367  2.2806 -0.4780  2.3978
 3720SOL     OW22795   1.838   2.540   6.196 -0.4584 -0.0267  0.2416
 3720SOL    HW122796   1.792   2.587   6.266  0.2464  2.4648 -1.0054
 3720SOL    HW222797   1.771   2.539   6.128 -2.0890  3.2975  1.7860
 3721SOL     OW22798   4.151   3.838   2.893  0.4182 -0.1630 -0.6436
 3721SOL    HW122799   4.218   3.849   2.960 -0.6043 -0.3986  0.4303
 3721SOL    HW222800   4.088   3.905   2.919  1.1329  0.1646  0.2263
 3722SOL     OW22801   4.226   0.289   8.591  0.0105  0.1724 -0.1073
 3722SOL    HW122802   4.292   0.330   8.534  1.7878  0.4870  2.2046
 3722SOL    HW222803   4.272   0.209   8.616 -0.2616  0.3448  0.9226
 3723SOL     OW22804   4.245   2.871   5.177 -0.4811  0.5275 -0.2131
 3723SOL    HW122805   4.325   2.918   5.203 -0.6288 -0.1969  1.5303
 3723SOL    HW222806   4.193   2.886   5.256 -0.1119  1.8520 -0.2261
 3724SOL     OW22807   1.157   1.817   2.273 -0.2378 -0.0573 -0.0157
 3724SOL    HW122808   1.087   1.757   2.298 -0.5688  0.2162 -0.2887
 3724SOL    HW222809   1.208   1.785   2.198  0.8614  1.1633  0.2113
 3725SOL     OW22810   1.377   3.992  13.305  0.6566  0.0754 -0.6577
 3725SOL    HW122811   1.302   4.036  13.264 -1.8462 -1.2303  2.4694
 3725SOL    HW222812   1.400   3.928  13.238 -0.5473 -1.3312  0.2687
 3726SOL     OW22813   4.088   4.156   6.213 -0.5963 -0.2405 -0.0712
 3726SOL    HW122814   4.166   4.176   6.161 -1.4320 -1.3777 -1.7724
 3726SOL    HW222815   4.130   4.092   6.270 -1.1449 -0.4998  0.0378
 3727SOL     OW22816   1.909   2.725  17.733 -0.0345 -0.1671 -1.1435
 3727SOL    HW122817   1.916   2.807  17.686  0.3124 -0.0726 -0.9267
 3727SOL    HW222818   1.896   2.660  17.664  0.1981 -0.2648 -1.0948
 3728SOL     OW22819   1.690   2.837   8.297  0.4501 -0.1933 -0.2434
 3728SOL    HW122820   1.702   2.823   8.203  0.0713  0.6789 -0.4224
 3728SOL    HW222821   1.744   2.768   8.334  3.4046  2.8077  1.0698
 3729SOL     OW22822   1.393   2.507   5.094 -0.4895 -0.1905  0.0687
 3729SOL    HW122823   1.301   2.527   5.074 -0.1199  0.6990 -0.7363
 3729SOL    HW222824   1.440   2.549   5.022  0.1458 -0.0307  0.5833
 3730SOL     OW22825   4.280   4.274   4.846 -0.0866  0.1151  0.0966
 3730SOL    HW122826   4.322   4.340   4.901 -0.8349  0.6533  0.0198
 3730SOL    HW222827   4.201   4.327   4.835 -0.8856 -1.7217 -3.0375
 3731SOL     OW22828   1.828   4.523   4.454 -0.2029  0.2541  0.8410
 3731SOL    HW122829   1.798   4.488   4.538 -0.6797 -3.0288 -0.6934
 3731SOL    HW222830   1.915   4.485   4.445  0.4724  2.0377 -0.1845
 3732SOL     OW22831   4.644   2.615  11.565 -0.1181 -0.4674 -0.3752
 3732SOL    HW122832   4.729   2.572  11.554  0.5170  0.5529  0.4616
 3732SOL    HW222833   4.578   2.569  11.513  1.0896  0.3228 -2.5953
 3733SOL     OW22834   4.023   4.361  16.985  0.4688 -0.7030 -0.8410
 3733SOL    HW122835   4.033   4.266  16.989 -0.2642 -0.7182  0.7148
 3733SOL    HW222836   4.106   4.389  16.948  0.6944 -1.3164 -0.8011
 3734SOL     OW22837   3.897   1.133   9.546 -0.2443 -0.5429  0.0259
 3734SOL    HW122838   3.910   1.148   9.453  3.1272 -1.5146  0.3573
 3734SOL    HW222839   3.811   1.174   9.556  1.1287  2.0113  1.1663
 3735SOL     OW22840   4.370   2.318   5.678 -0.3795  0.5929 -0.2572
 3735SOL    HW122841   4.439   2.303   5.743 -2.0397  1.7284  1.7482
 3735SOL    HW222842   4.394   2.253   5.612 -0.7869  2.1607 -1.9319
 3736SOL     OW22843   3.363   2.895  10.103 -0.1646  0.4371  0.4854
 3736SOL    HW122844   3.448   2.905  10.144 -0.0279 -0.5612  0.4400
 3736SOL    HW222845   3.382   2.875  10.011  1.3668  2.2306  0.4304
 3737SOL     OW22846   1.293   2.002   5.143 -0.4131  0.4026  0.0680
 3737SOL    HW122847   1.315   2.093   5.162  3.0621 -0.3987 -0.2181
 3737SOL    HW222848   1.372   1.960   5.176 -1.9092 -2.1629  0.3745
 3738SOL     OW22849   0.928   4.111   4.290  0.3277 -0.1038 -0.2037
 3738SOL    HW122850   1.000   4.125   4.229 -0.5821 -4.4017 -2.2810
 3738SOL    HW222851   0.974   4.143   4.368 -1.1219  0.8699  0.2465
 3739SOL     OW22852   1.945   4.268   5.454  0.3752 -0.3548  0.3928
 3739SOL    HW122853   2.028   4.268   5.407  0.8012  1.1457  1.1482
 3739SOL    HW222854   1.963   4.234   5.541 -1.4491  0.5061  1.1030
 3740SOL     OW22855   3.149   4.172   8.770  0.1436 -0.1424 -0.2492
 3740SOL    HW122856   3.144   4.266   8.792  0.8136 -0.7122  2.3231
 3740SOL    HW222857   3.192   4.137   8.848 -1.1408 -1.8505 -0.3186
 3741SOL     OW22858   1.809   2.965   5.622 -0.0409  0.0357  0.5900
 3741SOL    HW122859   1.869   3.002   5.687 -0.7292  1.4845  0.4194
 3741SOL    HW222860   1.749   2.923   5.684 -0.4761 -0.2202 -0.0030
 3742SOL     OW22861   3.526   1.970  11.146 -0.1013  0.3240  0.3451
 3742SOL    HW122862   3.490   2.058  11.137 -1.2563  0.0611  2.6141
 3742SOL    HW222863   3.555   1.978  11.055  1.9393 -1.7179  0.8255
 3743SOL     OW22864   2.642   3.517  10.030 -0.3973  0.0223 -0.3928
 3743SOL    HW122865   2.566   3.575  10.031 -1.2106 -0.9985 -2.0119
 3743SOL    HW222866   2.638   3.480   9.942 -2.8553 -1.9767  0.5542
 3744SOL     OW22867   0.090   3.064  17.113  0.5055  0.2205  0.0441
 3744SOL    HW122868   0.185   3.077  17.113  0.4050  0.9031  2.2384
 3744SOL    HW222869   0.067   3.119  17.188 -0.7351 -1.7384  1.0943
 3745SOL     OW22870   0.835   2.330   0.644 -0.5805  0.6102 -0.3026
 3745SOL    HW122871   0.840   2.396   0.714 -0.3564  2.0464 -1.6758
 3745SOL    HW222872   0.828   2.382   0.564  3.6519 -0.6266 -1.4240
 3746SOL     OW22873   0.785   2.257   3.431 -0.3204 -0.0411  0.4902
 3746SOL    HW122874   0.878   2.235   3.422 -0.6608 -1.9418  1.4791
 3746SOL    HW222875   0.788   2.352   3.440  0.7796  0.2143 -2.5920
 3747SOL     OW22876   1.960   3.823   4.261  0.6471 -0.1929  0.1900
 3747SOL    HW122877   1.919   3.830   4.348  1.2741  1.8906  0.3151
 3747SOL    HW222878   1.981   3.730   4.249  3.3186  0.4036  0.1383
 3748SOL     OW22879   1.200   1.851  16.045 -0.3631  0.8002  0.3516
 3748SOL    HW122880   1.184   1.757  16.051  2.1194  0.4364  1.5180
 3748SOL    HW222881   1.250   1.861  16.126 -1.4639  1.0386  0.9956
 3749SOL     OW22882   4.116   4.717   4.022 -0.2286 -0.1432 -0.0462
 3749SOL    HW122883   4.210   4.731   4.032 -0.5260  0.8922  1.4354
 3749SOL    HW222884   4.088   4.685   4.108  0.4191  1.4876  0.7895
 3750SOL     OW22885   2.256   0.717   1.366 -0.2715  0.0617 -0.3301
 3750SOL    HW122886   2.300   0.793   1.328  0.4596  0.4759  1.3672
 3750SOL    HW222887   2.171   0.749   1.396  0.8211  0.0881  2.7398
 3751SOL     OW22888   0.061   0.747   1.574  0.4473 -0.0911  0.1571
 3751SOL    HW122889   0.011   0.773   1.497 -1.7460  0.3904  1.7175
 3751SOL    HW222890   0.075   0.832   1.615 -0.6690  0.5045 -0.6922
 3752SOL     OW22891   2.406   2.049   1.598 -0.0958  0.1751 -0.5600
 3752SOL    HW122892   2.493   2.081   1.622 -0.1723  0.1860 -0.2943
 3752SOL    HW222893   2.366   2.038   1.684  2.1077  0.1860  0.4639
 3753SOL     OW22894   1.896   1.019   8.891  0.1847  0.7621  0.5623
 3753SOL    HW122895   1.817   1.053   8.934  0.2957 -0.1210  1.4546
 3753SOL    HW222896   1.959   1.058   8.951 -0.0170  2.2431 -0.1866
 3754SOL     OW22897   2.982   3.852   7.199  0.0572 -0.4007  0.6147
 3754SOL    HW122898   3.009   3.797   7.125 -1.6651  1.5036 -1.4185
 3754SOL    HW222899   2.897   3.813   7.220  0.4380 -0.9833  1.0985
 3755SOL     OW22900   4.534   4.148   3.619 -0.0519 -0.2035 -0.2241
 3755SOL    HW122901   4.561   4.065   3.659  1.7624  0.5024  0.0070
 3755SOL    HW222902   4.590   4.144   3.542  0.0169 -0.2290 -0.1729
 3756SOL     OW22903   2.337   0.786   2.520  0.0535 -0.0458 -0.2157
 3756SOL    HW122904   2.359   0.700   2.486  0.3256 -0.4722  1.0601
 3756SOL    HW222905   2.299   0.824   2.440  2.7699 -2.1132 -2.5011
 3757SOL     OW22906   3.086   2.100   2.192  0.1932 -0.2386 -0.6192
 3757SOL    HW122907   3.114   2.108   2.283  0.1536 -0.5974 -0.5766
 3757SOL    HW222908   3.046   2.013   2.192 -0.0051 -0.1475  1.9132
 3758SOL     OW22909   2.787   1.820   8.860  0.4187 -0.2941 -0.1828
 3758SOL    HW122910   2.784   1.752   8.793  1.5469 -0.6180  0.0935
 3758SOL    HW222911   2.733   1.783   8.930 -1.5487  1.2614 -0.8780
 3759SOL     OW22912   4.167   2.577  13.060 -0.3766  0.1705 -0.1141
 3759SOL    HW122913   4.139   2.493  13.096 -0.5300 -0.0357 -0.7227
 3759SOL    HW222914   4.090   2.635  13.061 -0.9444 -0.5808  0.3343
 3760SOL     OW22915   2.200   1.786   2.555  0.3292 -0.3614 -1.1127
 3760SOL    HW122916   2.140   1.756   2.486 -0.7636 -0.1090 -0.2659
 3760SOL    HW222917   2.281   1.736   2.545  2.2362  2.2378  1.6745
 3761SOL     OW22918   0.748   0.596   4.033 -0.0107 -0.2889 -0.8116
 3761SOL    HW122919   0.820   0.629   4.085  0.1971 -0.9172 -0.6962
 3761SOL    HW222920   0.741   0.659   3.961 -1.6202 -0.1021 -0.4950
 3762SOL     OW22921   0.702   3.290   8.281 -0.2946  0.2141 -0.0992
 3762SOL    HW122922   0.728   3.235   8.355  1.2475 -2.1118 -2.3429
 3762SOL    HW222923   0.628   3.343   8.309  1.9191  2.2667  1.8806
 3763SOL     OW22924   2.784   2.324  15.539  0.2372 -0.6572 -0.0618
 3763SOL    HW122925   2.833   2.399  15.575 -1.7537 -0.0020  1.2835
 3763SOL    HW222926   2.712   2.368  15.494  1.2008  0.9740 -0.0471
 3764SOL     OW22927   3.920   4.305   7.003 -0.0751 -0.5650 -0.5178
 3764SOL    HW122928   3.938   4.395   6.975  1.2971 -0.6838 -0.0213
 3764SOL    HW222929   3.851   4.318   7.068  0.9229 -1.4182  0.7129
 3765SOL     OW22930   0.499   2.547   8.922  0.6074 -0.7599 -1.0145
 3765SOL    HW122931   0.558   2.478   8.954  0.4624  0.3376  1.5622
 3765SOL    HW222932   0.523   2.615   8.984  0.5934 -0.5418 -1.2493
 3766SOL     OW22933   3.670   4.241   3.689 -0.2676 -0.5387 -0.0489
 3766SOL    HW122934   3.711   4.171   3.740 -1.2747  0.6812  2.4519
 3766SOL    HW222935   3.620   4.186   3.630 -1.2555  0.4764 -0.1603
 3767SOL     OW22936   0.552   3.882   7.532 -0.0162  0.2058  0.5746
 3767SOL    HW122937   0.642   3.881   7.498 -0.5739 -0.6835 -0.8619
 3767SOL    HW222938   0.506   3.915   7.455 -0.6812 -3.9562 -0.7892
 3768SOL     OW22939   2.759   4.553   9.389  0.3063  0.2211 -0.1664
 3768SOL    HW122940   2.696   4.572   9.319  0.3233 -1.8661 -0.7583
 3768SOL    HW222941   2.700   4.552   9.464 -0.1233 -1.1065 -0.5170
 3769SOL     OW22942   0.165   1.710  15.890 -0.6063  0.5432 -0.4517
 3769SOL    HW122943   0.199   1.739  15.805 -0.8393 -0.0586 -0.7490
 3769SOL    HW222944   0.249   1.691  15.932 -0.7478  0.2423 -0.3039
 3770SOL     OW22945   1.401   4.509   1.896  0.1840 -0.3481 -0.3820
 3770SOL    HW122946   1.342   4.445   1.935  0.4415 -1.2026 -1.4092
 3770SOL    HW222947   1.454   4.463   1.831 -0.7223 -0.6372 -0.9021
 3771SOL     OW22948   0.816   1.105   3.865 -0.1028 -0.0024 -0.9778
 3771SOL    HW122949   0.822   1.158   3.944  0.7464  0.1112 -1.1136
 3771SOL    HW222950   0.724   1.082   3.860  0.1682 -0.7401 -2.7501
 3772SOL     OW22951   1.051   3.362  16.409  0.1790 -0.3569  0.2155
 3772SOL    HW122952   1.109   3.434  16.381 -0.8664  0.4319  0.0903
 3772SOL    HW222953   1.023   3.329  16.324  0.6048  0.2606 -0.1735
 3773SOL     OW22954   2.900   0.884   9.611 -0.1832  0.6121 -0.1063
 3773SOL    HW122955   2.919   0.850   9.698 -0.3228 -1.2466 -0.7911
 3773SOL    HW222956   2.911   0.801   9.563 -2.5572  1.2983 -1.8392
 3774SOL     OW22957   2.579   0.109  14.110 -0.0813  0.3219 -0.5964
 3774SOL    HW122958   2.552   0.025  14.146  0.9907 -0.1771 -0.9414
 3774SOL    HW222959   2.489   0.129  14.084 -0.9143 -2.1699  0.4950
 3775SOL     OW22960   3.195   0.062   2.234  0.2608  0.3267  1.2159
 3775SOL    HW122961   3.171   0.016   2.315  1.6479  0.0178  1.4615
 3775SOL    HW222962   3.288   0.037   2.228  0.9223  2.9359  0.4790
 3776SOL     OW22963   1.003   3.616   8.861 -0.4423 -0.1778 -0.2181
 3776SOL    HW122964   1.002   3.586   8.952 -0.1966 -0.5636 -0.3423
 3776SOL    HW222965   0.913   3.637   8.837 -0.6021  0.6353  1.0833
 3777SOL     OW22966   3.902   4.070   6.853  0.0728  0.4317 -0.2469
 3777SOL    HW122967   3.888   4.149   6.905 -0.9642  0.8229 -1.1253
 3777SOL    HW222968   3.812   4.055   6.823  0.3349 -1.3720 -0.1622
 3778SOL     OW22969   2.205   3.337   1.534 -0.1099  0.4746 -1.0652
 3778SOL    HW122970   2.263   3.262   1.524 -0.5712 -0.0042 -0.1358
 3778SOL    HW222971   2.242   3.410   1.484  0.6167  1.5455  1.0014
 3779SOL     OW22972   0.609   4.728   5.474 -0.1080  0.0051  0.3104
 3779SOL    HW122973   0.639   0.083   5.463  2.3403 -0.9293 -0.5507
 3779SOL    HW222974   0.523   0.017   5.508 -0.3825 -0.4017 -0.0992
 3780SOL     OW22975   2.490   3.139  13.421 -0.3899  0.2239  0.0063
 3780SOL    HW122976   2.532   3.122  13.337 -2.2562 -1.5880 -0.5857
 3780SOL    HW222977   2.416   3.191  13.389 -1.0115 -1.0923 -0.7301
 3781SOL     OW22978   2.261   1.075   2.024  0.2655 -0.3408 -0.0913
 3781SOL    HW122979   2.339   1.131   2.021 -0.3470  0.5153 -0.1372
 3781SOL    HW222980   2.299   0.992   1.996  0.2176 -0.1918 -0.5842
 3782SOL     OW22981   1.587   3.261  10.030  0.1775 -0.1028  0.0312
 3782SOL    HW122982   1.655   3.313  10.074  2.0443 -0.3229 -2.6364
 3782SOL    HW222983   1.509   3.296  10.074  2.1727  2.1449  1.8189
 3783SOL     OW22984   4.434   0.105   2.528  0.0885 -0.3095 -0.2376
 3783SOL    HW122985   4.449   0.084   2.436 -2.1789 -0.3642 -0.5956
 3783SOL    HW222986   4.344   0.139   2.523 -0.2008 -0.3525  4.6220
 3784SOL     OW22987   4.053   2.715   2.812 -0.2199 -0.5966 -0.2754
 3784SOL    HW122988   4.132   2.769   2.816 -0.0821 -0.9276  1.2893
 3784SOL    HW222989   4.082   2.641   2.864 -0.8477 -1.6565 -1.4189
 3785SOL     OW22990   3.783   0.666   2.049 -0.9683  0.5372  0.4985
 3785SOL    HW122991   3.869   0.683   2.088  0.0826 -0.8456 -1.2131
 3785SOL    HW222992   3.755   0.744   2.000  0.8768 -0.6671 -2.4588
 3786SOL     OW22993   2.919   3.309   6.071 -0.6591 -0.1981 -0.5585
 3786SOL    HW122994   2.930   3.360   6.151  1.7725  0.9434 -1.6107
 3786SOL    HW222995   2.946   3.365   5.998 -1.6185  0.6157 -0.2841
 3787SOL     OW22996   2.471   3.712   9.566  0.1183 -0.4847  0.1109
 3787SOL    HW122997   2.453   3.701   9.472 -1.4582  2.1147  0.1230
 3787SOL    HW222998   2.395   3.669   9.604 -0.2224 -0.8328 -0.9536
 3788SOL     OW22999   1.401   2.753  17.074  0.0421  0.4349  0.8960
 3788SOL    HW123000   1.329   2.805  17.038 -0.3179 -1.8048 -1.5269
 3788SOL    HW223001   1.363   2.701  17.145 -0.4191  2.0787  1.8816
 3789SOL     OW23002   0.911   0.800   2.162  0.3251  0.7535  0.1746
 3789SOL    HW123003   0.905   0.896   2.160 -1.8125  0.5563 -3.6827
 3789SOL    HW223004   0.941   0.787   2.073 -0.4011  1.5031 -0.1845
 3790SOL     OW23005   2.088   3.861   9.645  0.1655 -0.1674 -0.5578
 3790SOL    HW123006   2.014   3.811   9.612 -2.4498  2.1588  1.7543
 3790SOL    HW223007   2.120   3.907   9.567  0.5868 -1.2588 -1.0242
 3791SOL     OW23008   1.504   3.563   0.484 -0.5738 -0.1571 -0.4132
 3791SOL    HW123009   1.500   3.531   0.574 -1.9828 -0.5849 -0.6224
 3791SOL    HW223010   1.514   3.487   0.428 -1.4854  0.5346 -1.5222
 3792SOL     OW23011   1.174   0.522   6.517  0.1101  0.7534 -0.5288
 3792SOL    HW123012   1.194   0.608   6.478 -2.4660  0.9799 -1.4049
 3792SOL    HW223013   1.171   0.456   6.448 -1.8321  3.4669 -3.0958
 3793SOL     OW23014   2.441   4.582   8.669  0.6689  0.2879 -0.3382
 3793SOL    HW123015   2.387   4.630   8.607  0.4804 -0.9115 -1.1078
 3793SOL    HW223016   2.379   4.581   8.742 -0.2378  3.8280 -1.0919
 3794SOL     OW23017   3.436   2.265   3.273 -0.0128  0.1288 -0.1261
 3794SOL    HW123018   3.412   2.312   3.353  0.4924  0.0375  0.0772
 3794SOL    HW223019   3.360   2.278   3.217  0.6358  2.4756 -0.4528
 3795SOL     OW23020   0.550   1.799  11.330 -0.0794 -0.4053 -0.1930
 3795SOL    HW123021   0.507   1.733  11.276  0.1461 -1.3704  0.8027
 3795SOL    HW223022   0.473   1.856  11.335 -0.6245 -0.8818 -3.2589
 3796SOL     OW23023   3.339   2.462   9.574 -0.8005 -0.3065  0.2160
 3796SOL    HW123024   3.398   2.482   9.502  0.7166  0.3897  1.6652
 3796SOL    HW223025   3.362   2.537   9.628  0.5977 -0.4590 -0.1801
 3797SOL     OW23026   1.918   1.669   6.045 -0.7762 -0.2852  0.5172
 3797SOL    HW123027   2.009   1.650   6.025 -0.4240  0.4242  1.4520
 3797SOL    HW223028   1.943   1.736   6.108  0.8988 -1.5948  1.2383
 3798SOL     OW23029   4.068   4.380   4.155 -0.2038 -0.4086 -0.0592
 3798SOL    HW123030   4.158   4.395   4.126  0.1960  0.0112  1.4636
 3798SOL    HW223031   4.085   4.385   4.249 -0.0168  2.2693 -0.2434
 3799SOL     OW23032   1.952   1.623   9.262 -0.0539 -0.1311 -0.1740
 3799SOL    HW123033   1.880   1.593   9.318 -0.3041  0.1186 -0.3619
 3799SOL    HW223034   1.948   1.715   9.288  0.1207 -0.0393 -0.4744
 3800SOL     OW23035   4.344   1.006   9.135  0.6143 -0.2575  0.5810
 3800SOL    HW123036   4.374   1.043   9.052 -2.7301  0.1390 -0.4388
 3800SOL    HW223037   4.325   1.084   9.187 -1.4737  0.7517 -1.6729
 3801SOL     OW23038   1.212   0.908  13.568 -0.0303  0.4772 -0.1968
 3801SOL    HW123039   1.158   0.840  13.608  2.1175 -0.8128  0.5039
 3801SOL    HW223040   1.234   0.952  13.651  1.2178 -1.4613  0.5129
 3802SOL     OW23041   0.770   1.104  17.352 -0.3304 -0.4682  0.2339
 3802SOL    HW123042   0.795   1.096  17.444  1.0420 -1.4564 -0.2194
 3802SOL    HW223043   0.707   1.176  17.351  1.1174  0.7842 -0.4626
 3803SOL     OW23044   1.573   4.569  16.943  0.3062  0.0027  0.1593
 3803SOL    HW123045   1.629   4.573  17.020 -1.1908 -1.2931  1.3076
 3803SOL    HW223046   1.528   4.653  16.951 -0.6546 -0.5021  0.0144
 3804SOL     OW23047   2.152   0.375  12.950  0.3418  0.0926  0.0925
 3804SOL    HW123048   2.107   0.387  13.033  1.8136 -4.4280  1.4968
 3804SOL    HW223049   2.098   0.301  12.924 -0.2342  0.3109  0.6762
 3805SOL     OW23050   1.608   4.132   3.032  0.2420  0.1659  0.2199
 3805SOL    HW123051   1.651   4.175   3.105  1.8076 -0.7200 -0.1880
 3805SOL    HW223052   1.513   4.141   3.038  0.4044  0.4667  2.1215
 3806SOL     OW23053   2.496   0.906   6.733  0.5259 -0.0129 -0.1995
 3806SOL    HW123054   2.568   0.964   6.711  0.0509  0.7473  0.2526
 3806SOL    HW223055   2.430   0.974   6.723 -0.0563 -0.3799  1.0365
 3807SOL     OW23056   0.327   1.894  14.082  0.0056 -0.1998  0.2841
 3807SOL    HW123057   0.356   1.965  14.023  0.5738 -0.8565 -0.2211
 3807SOL    HW223058   0.285   1.957  14.141 -1.0989 -0.8679  0.2220
 3808SOL     OW23059   0.531   2.263   7.845  0.1811  0.2990 -0.4136
 3808SOL    HW123060   0.443   2.300   7.845  0.3313  0.6348  1.0171
 3808SOL    HW223061   0.525   2.185   7.899 -1.0350  0.1372 -0.7904
 3809SOL     OW23062   4.417   0.788  16.662 -0.0940  0.0808 -0.0201
 3809SOL    HW123063   4.510   0.795  16.686 -0.4906  2.0626  0.9252
 3809SOL    HW223064   4.420   0.732  16.585 -0.9427 -0.4976  0.3627
 3810SOL     OW23065   0.692   2.173  12.110  0.0786  0.5640 -0.1034
 3810SOL    HW123066   0.603   2.203  12.128 -0.1630  0.5401 -1.2289
 3810SOL    HW223067   0.751   2.246  12.128 -0.2155  0.3727  1.5907
 3811SOL     OW23068   4.080   0.336   9.931 -0.1516 -0.3867 -0.0245
 3811SOL    HW123069   4.014   0.392   9.971  0.8204  1.0190 -0.4114
 3811SOL    HW223070   4.075   0.368   9.841 -0.6988 -1.3706 -0.3464
 3812SOL     OW23071   3.242   1.604  10.217 -0.1746  0.3640  0.6580
 3812SOL    HW123072   3.280   1.549  10.286 -0.0918 -0.1829  0.1724
 3812SOL    HW223073   3.319   1.661  10.214 -0.0498 -0.0598 -3.5497
 3813SOL     OW23074   4.069   2.325  11.783  0.1256 -0.0387 -0.5266
 3813SOL    HW123075   4.014   2.376  11.725 -0.6685  0.2072  0.4491
 3813SOL    HW223076   4.015   2.324  11.862  0.2836 -2.6231 -0.4404
 3814SOL     OW23077   1.842   1.916   0.240  0.0116 -0.3347 -0.1469
 3814SOL    HW123078   1.787   1.839   0.225 -0.0088 -0.2516 -0.4959
 3814SOL    HW223079   1.828   1.975   0.167  0.6810 -1.4235 -1.1447
 3815SOL     OW23080   0.275   3.366   9.127 -0.3667 -0.0943 -0.6085
 3815SOL    HW123081   0.195   3.357   9.179  0.6833 -2.1417  0.6296
 3815SOL    HW223082   0.240   3.400   9.044  0.6813  1.9854 -0.2033
 3816SOL     OW23083   0.110   2.313   6.650 -0.3401 -0.0951 -0.1112
 3816SOL    HW123084   0.189   2.258   6.652 -0.0769  0.3055  0.4871
 3816SOL    HW223085   0.119   2.360   6.733 -2.3504  0.2578 -0.1026
 3817SOL     OW23086   2.615   0.438   6.227  0.4877 -0.8428  0.2356
 3817SOL    HW123087   2.548   0.437   6.296 -0.6895  0.6431 -0.8910
 3817SOL    HW223088   2.628   0.532   6.218 -0.2630 -0.6913  0.7454
 3818SOL     OW23089   3.399   4.348   8.978 -0.4745  0.0255  0.2321
 3818SOL    HW123090   3.328   4.380   8.923 -1.4615 -2.7813 -0.1122
 3818SOL    HW223091   3.388   4.253   8.980 -0.8400  0.0993  1.3468
 3819SOL     OW23092   2.533   0.893  15.099  0.0628  0.1746  0.0868
 3819SOL    HW123093   2.515   0.947  15.177 -0.3779 -0.2363  0.2718
 3819SOL    HW223094   2.606   0.947  15.069  0.9641 -0.3872  1.2715
 3820SOL     OW23095   1.587   2.449   1.293 -0.6248  0.6078 -0.2883
 3820SOL    HW123096   1.656   2.387   1.316 -1.4958 -0.7221 -1.2314
 3820SOL    HW223097   1.533   2.401   1.231 -0.3460 -0.6234  0.4326
 3821SOL     OW23098   1.525   0.366   6.417  0.0102 -0.3516  0.2854
 3821SOL    HW123099   1.586   0.292   6.419  1.3034  0.6451 -2.1866
 3821SOL    HW223100   1.533   0.390   6.325 -2.2173  1.9590  0.6951
 3822SOL     OW23101   0.180   4.274  16.849 -0.0138  0.4674  0.0682
 3822SOL    HW123102   0.264   4.244  16.815  0.5559  2.1322  0.0139
 3822SOL    HW223103   0.121   4.275  16.773 -1.6363  1.4603  1.3539
 3823SOL     OW23104   2.133   1.294  17.360 -0.1196  0.1112  0.2814
 3823SOL    HW123105   2.199   1.241  17.405  0.7627  1.1206  0.1777
 3823SOL    HW223106   2.064   1.286  17.426  0.5772  0.6793  1.0701
 3824SOL     OW23107   4.285   4.637  14.978  0.2144 -0.2645  0.4377
 3824SOL    HW123108   4.243   4.666  15.059  1.3737  1.5106  0.4075
 3824SOL    HW223109   4.234   4.568  14.936  0.6401  0.1417 -0.7802
 3825SOL     OW23110   0.619   1.377   4.194  0.4337  0.5298  0.2335
 3825SOL    HW123111   0.626   1.326   4.274 -0.9177 -1.9967 -1.2520
 3825SOL    HW223112   0.595   1.464   4.225  1.2866  1.5053 -1.8010
 3826SOL     OW23113   1.516   0.758   7.887 -0.7609 -0.2996  0.5912
 3826SOL    HW123114   1.596   0.711   7.864 -1.1090 -0.8144  0.4234
 3826SOL    HW223115   1.463   0.683   7.915  2.0827 -2.4185  0.2131
 3827SOL     OW23116   4.464   2.118   5.533  0.2112 -0.2634 -0.5954
 3827SOL    HW123117   4.558   2.124   5.520  0.4165 -1.3686  0.3505
 3827SOL    HW223118   4.461   2.056   5.606  0.5267 -3.4847 -3.3106
 3828SOL     OW23119   4.411   0.501   7.168 -0.0653 -0.9307  0.0668
 3828SOL    HW123120   4.441   0.535   7.252 -0.6264 -1.3388  0.4263
 3828SOL    HW223121   4.395   0.410   7.193 -0.3078 -0.7950  0.3894
 3829SOL     OW23122   2.411   4.462   3.066  0.1564  0.2216 -0.0632
 3829SOL    HW123123   2.463   4.507   3.132  2.2785  0.5244 -1.9230
 3829SOL    HW223124   2.380   4.387   3.116 -0.7713  0.3992 -0.3580
 3830SOL     OW23125   0.333   1.845   5.261  0.3299 -0.2180  0.2846
 3830SOL    HW123126   0.263   1.783   5.282 -1.3743  0.6896 -2.6619
 3830SOL    HW223127   0.378   1.793   5.194 -1.6956 -3.1832  1.2198
 3831SOL     OW23128   2.368   2.962   6.479 -0.3302  0.4318 -0.1886
 3831SOL    HW123129   2.344   2.938   6.390 -2.7330 -0.4801  0.7143
 3831SOL    HW223130   2.342   3.053   6.486 -1.5789  0.0314  0.3877
 3832SOL     OW23131   1.750   0.951  13.159  0.2805 -0.1814  0.1317
 3832SOL    HW123132   1.798   0.894  13.217 -0.0579 -1.9617 -1.3406
 3832SOL    HW223133   1.813   1.023  13.151 -0.3019  0.0650 -2.2004
 3833SOL     OW23134   4.074   0.403   8.242 -0.6546  0.3430  0.2847
 3833SOL    HW123135   4.006   0.361   8.190 -2.2425  2.4343  0.6591
 3833SOL    HW223136   4.055   0.374   8.331 -0.4650  0.3942  0.3426
 3834SOL     OW23137   2.211   0.051   5.213  0.1593  0.0756  0.0263
 3834SOL    HW123138   2.204   0.055   5.309  1.3381 -0.3376  0.1333
 3834SOL    HW223139   2.165   0.130   5.184 -0.9139 -1.5626 -2.6940
 3835SOL     OW23140   3.112   0.277   7.163  0.1713 -0.6927  0.4592
 3835SOL    HW123141   3.177   0.347   7.153 -0.2447 -0.7292 -2.3896
 3835SOL    HW223142   3.173   0.205   7.149  1.3787  0.8732 -2.1575
 3836SOL     OW23143   3.692   0.929  10.851 -0.1720 -0.4324  0.0683
 3836SOL    HW123144   3.748   0.876  10.796  0.6008  1.4888 -0.9875
 3836SOL    HW223145   3.710   1.015  10.813 -1.5924  0.1529  0.7017
 3837SOL     OW23146   0.546   1.146   7.418 -0.3149  0.6215  0.0242
 3837SOL    HW123147   0.631   1.180   7.390 -0.3316  0.4415 -0.2493
 3837SOL    HW223148   0.558   1.157   7.512  0.9900  1.0246 -0.1866
 3838SOL     OW23149   1.511   0.098   2.248  0.2403  0.1898 -0.3623
 3838SOL    HW123150   1.451   0.168   2.223 -0.4773 -0.7908 -1.4464
 3838SOL    HW223151   1.568   0.135   2.315 -0.4423 -0.3477  0.5224
 3839SOL     OW23152   0.070   1.287   8.908 -0.1449  0.2628 -0.5725
 3839SOL    HW123153   0.010   1.314   8.977 -1.0896 -1.4076 -0.7279
 3839SOL    HW223154   0.069   1.371   8.863 -2.8224 -0.6820 -2.2452
 3840SOL     OW23155   4.294   3.510   3.698  0.4234  0.1968  0.4541
 3840SOL    HW123156   4.274   3.418   3.680  0.7121  0.6221 -1.9653
 3840SOL    HW223157   4.321   3.507   3.790 -0.3223 -0.1978  0.6576
 3841SOL     OW23158   2.423   0.190   3.901 -0.4303 -0.4011 -0.2294
 3841SOL    HW123159   2.413   0.285   3.893  0.8258 -0.4160 -2.0307
 3841SOL    HW223160   2.386   0.157   3.819  0.7686  0.4909 -1.1224
 3842SOL     OW23161   3.596   4.267   5.862  0.1805  0.1298  0.3352
 3842SOL    HW123162   3.558   4.351   5.837  0.7572  0.6166  1.1077
 3842SOL    HW223163   3.517   4.218   5.886  1.3892 -1.3334  1.2930
 3843SOL     OW23164   0.410   4.225   4.358  0.3869  0.2897 -0.6746
 3843SOL    HW123165   0.424   4.280   4.435 -0.1191  0.3695 -0.6396
 3843SOL    HW223166   0.401   4.138   4.396  0.6457  0.9559  0.9299
 3844SOL     OW23167   3.337   0.946   6.765  0.5829 -0.0791 -0.3352
 3844SOL    HW123168   3.271   0.898   6.815  1.4576 -1.5402 -0.5733
 3844SOL    HW223169   3.412   0.887   6.770 -0.5810 -1.6074 -0.7019
 3845SOL     OW23170   3.185   2.502   4.567  0.3281  0.6927 -0.4431
 3845SOL    HW123171   3.158   2.495   4.659  2.3099 -1.6866 -0.0096
 3845SOL    HW223172   3.279   2.515   4.580  0.4344 -0.8140  0.2665
 3846SOL     OW23173   2.010   0.837   7.729  0.3632  0.4586 -0.4184
 3846SOL    HW123174   2.012   0.916   7.782 -1.1145  1.3885 -1.7235
 3846SOL    HW223175   2.067   0.854   7.654 -0.1559  1.3070 -0.6223
 3847SOL     OW23176   1.952   0.950   7.383 -0.4227  0.0271  0.2251
 3847SOL    HW123177   1.890   0.963   7.455 -1.4631  0.8073 -0.8114
 3847SOL    HW223178   2.000   0.869   7.399  0.8886  1.0225  1.3359
 3848SOL     OW23179   2.733   1.672  12.830  0.1808 -0.1389 -0.8291
 3848SOL    HW123180   2.774   1.759  12.820  1.1175 -0.7584 -2.3910
 3848SOL    HW223181   2.700   1.657  12.741 -1.0220 -2.7670  0.0914
 3849SOL     OW23182   3.952   3.357   4.753 -0.5212  0.0975  0.0960
 3849SOL    HW123183   4.016   3.428   4.743 -0.6765  0.0621 -1.0734
 3849SOL    HW223184   3.925   3.363   4.845 -0.6814 -1.9739  0.1744
 3850SOL     OW23185   2.202   0.880  16.534  0.1376  0.0929 -0.0182
 3850SOL    HW123186   2.202   0.954  16.596  2.5064 -2.2086  2.7161
 3850SOL    HW223187   2.109   0.877  16.512  0.1985  1.6043 -0.5066
 3851SOL     OW23188   3.896   1.450   8.721  0.5945  0.0476 -0.3150
 3851SOL    HW123189   3.966   1.384   8.720 -0.9302 -1.5901  3.4439
 3851SOL    HW223190   3.931   1.506   8.790 -0.1226  0.0642  0.0365
 3852SOL     OW23191   0.940   2.568   5.333  0.2011 -0.3016  0.0325
 3852SOL    HW123192   0.896   2.653   5.327  2.0913  0.5657 -1.4969
 3852SOL    HW223193   0.968   2.561   5.425  2.2331 -2.4223 -0.7678
 3853SOL     OW23194   2.218   4.161   4.121  0.1030 -0.0853  0.0869
 3853SOL    HW123195   2.167   4.153   4.041 -0.1706 -1.8379  0.4465
 3853SOL    HW223196   2.208   4.257   4.120 -1.3304 -0.2105  2.3023
 3854SOL     OW23197   3.409   1.072   7.921  0.2449 -0.4913  0.5916
 3854SOL    HW123198   3.478   1.065   7.987  0.8771  0.2505  0.0068
 3854SOL    HW223199   3.458   1.102   7.845  2.0662 -1.8901  1.2161
 3855SOL     OW23200   1.539   2.988   3.726  0.5458 -0.1202 -0.2114
 3855SOL    HW123201   1.543   2.893   3.737  1.9320  0.0186  0.5362
 3855SOL    HW223202   1.578   2.994   3.638 -0.4585 -0.8809 -0.7000
 3856SOL     OW23203   0.376   3.203  11.050 -0.7854  0.6137 -0.2793
 3856SOL    HW123204   0.312   3.256  11.003 -1.7360  1.0263  1.4880
 3856SOL    HW223205   0.312   3.158  11.105  0.8972 -2.7126 -1.0216
 3857SOL     OW23206   0.753   3.307  12.708  0.1903  0.5142 -0.0374
 3857SOL    HW123207   0.826   3.247  12.694  0.5996  0.5966  1.6839
 3857SOL    HW223208   0.738   3.338  12.618 -1.8330  0.6433  0.3329
 3858SOL     OW23209   1.484   1.325  17.144  0.2658  0.2463 -0.3160
 3858SOL    HW123210   1.488   1.390  17.074  1.3897 -0.1756 -0.6340
 3858SOL    HW223211   1.571   1.332  17.183  0.1413 -0.2069  0.0415
 3859SOL     OW23212   2.142   1.915   5.612 -0.5141  0.5714 -0.4175
 3859SOL    HW123213   2.065   1.860   5.598  1.3302 -2.2592  0.5108
 3859SOL    HW223214   2.173   1.910   5.522 -3.2128 -3.1935 -1.1838
 3860SOL     OW23215   2.224   4.257   3.813  0.1765 -0.2309  0.1611
 3860SOL    HW123216   2.238   4.231   3.722 -1.7979  2.0716 -0.8058
 3860SOL    HW223217   2.304   4.306   3.832 -0.0036 -0.2369  0.9202
 3861SOL     OW23218   0.715   3.265   0.135 -0.0228  0.2628  0.4392
 3861SOL    HW123219   0.728   3.204   0.207  1.1057  1.2503  1.0707
 3861SOL    HW223220   0.802   3.270   0.095 -0.3608 -0.5099 -0.4036
 3862SOL     OW23221   2.175   1.577   3.004 -0.4096  0.3284 -0.2122
 3862SOL    HW123222   2.154   1.588   3.097  2.1551  0.7892  0.2927
 3862SOL    HW223223   2.215   1.656   2.968  0.6428  0.7876  1.9847
 3863SOL     OW23224   3.894   1.658   0.270 -0.9276 -0.0678  0.1776
 3863SOL    HW123225   3.872   1.571   0.237  0.1830  0.4565 -1.9277
 3863SOL    HW223226   3.898   1.704   0.187  1.0291  0.7431  0.7367
 3864SOL     OW23227   2.474   0.922   6.310 -0.0103 -0.1220 -0.2821
 3864SOL    HW123228   2.520   0.966   6.239  0.7957 -1.2472 -0.4388
 3864SOL    HW223229   2.409   0.987   6.338 -1.5193 -1.5426 -0.5145
 3865SOL     OW23230   3.723   4.325  11.367 -0.2951  0.5340  0.3349
 3865SOL    HW123231   3.667   4.284  11.301  0.2839 -0.9835  0.8025
 3865SOL    HW223232   3.738   4.255  11.431  0.4445  0.2711 -0.1209
 3866SOL     OW23233   3.573   1.380   6.653 -0.8578  0.0148 -0.3513
 3866SOL    HW123234   3.571   1.322   6.576 -0.8030 -1.0186  0.4170
 3866SOL    HW223235   3.560   1.314   6.721 -0.0417 -0.7849 -0.9608
 3867SOL     OW23236   4.177   3.735  10.559  0.1490  0.3105  0.0162
 3867SOL    HW123237   4.204   3.651  10.595  0.5321  0.6106  0.4415
 3867SOL    HW223238   4.092   3.751  10.598  0.2690 -1.3415  0.9522
 3868SOL     OW23239   3.855   0.355  11.990  0.0432 -0.2698 -0.2613
 3868SOL    HW123240   3.920   0.285  11.984 -0.0186 -0.4042  0.6351
 3868SOL    HW223241   3.909   0.428  11.962 -0.4112 -0.2103 -0.9947
 3869SOL     OW23242   0.902   1.053   8.877 -0.3985 -0.5005 -0.0721
 3869SOL    HW123243   0.954   1.066   8.956  0.8888  3.9795 -1.6291
 3869SOL    HW223244   0.971   1.052   8.811 -1.4292  1.6413 -1.1832
 3870SOL     OW23245   2.123   0.253   6.611  0.1190 -0.0694 -0.5944
 3870SOL    HW123246   2.154   0.215   6.693 -1.1356  1.3513  0.5414
 3870SOL    HW223247   2.205   0.247   6.561  0.2090  1.4782 -0.6354
 3871SOL     OW23248   3.898   0.962   8.658  0.3832  0.6005  0.0187
 3871SOL    HW123249   3.869   0.982   8.569 -0.0333 -0.1927 -0.0256
 3871SOL    HW223250   3.900   0.866   8.654  4.3948  0.6653  0.1975
 3872SOL     OW23251   2.644   2.172   7.626  0.3213 -0.1265  0.0838
 3872SOL    HW123252   2.609   2.240   7.684  1.2707  0.8426 -0.4738
 3872SOL    HW223253   2.678   2.111   7.691  2.5661 -1.4308 -2.3240
 3873SOL     OW23254   1.145   0.245  10.806 -0.3705  0.3803  0.4289
 3873SOL    HW123255   1.233   0.263  10.841  1.2096  0.8711 -3.8241
 3873SOL    HW223256   1.159   0.207  10.719 -1.5539  2.7944 -0.8024
 3874SOL     OW23257   2.123   4.672   4.166 -0.5781  0.1489 -0.5336
 3874SOL    HW123258   2.155   4.689   4.078 -0.3587  0.4742 -0.3931
 3874SOL    HW223259   2.068   0.013   4.185 -2.0840 -1.8519  3.1710
 3875SOL     OW23260   3.475   2.245   8.829  0.4564 -0.3395 -0.0999
 3875SOL    HW123261   3.421   2.176   8.867 -1.3570  0.1931 -1.7497
 3875SOL    HW223262   3.461   2.229   8.736 -3.0752 -1.0029  0.5682
 3876SOL     OW23263   2.217   4.256   4.961 -0.5843  0.3796  0.0845
 3876SOL    HW123264   2.242   4.202   4.886  0.9935  1.5662 -0.2486
 3876SOL    HW223265   2.196   4.197   5.033 -0.9941 -0.1489 -0.4675
 3877SOL     OW23266   2.351   0.070   3.017 -0.5485  0.2213 -0.4083
 3877SOL    HW123267   2.428   0.025   3.052 -0.8343 -0.0545 -0.1272
 3877SOL    HW223268   2.285   0.039   3.079 -0.4270  1.6249  0.4278
 3878SOL     OW23269   3.475   3.461   0.199  0.0885 -0.2356  0.1480
 3878SOL    HW123270   3.489   3.391   0.263 -2.3386 -0.8226  0.0185
 3878SOL    HW223271   3.456   3.536   0.255  3.6715  0.1382  0.8715
 3879SOL     OW23272   1.423   2.286   6.321  0.1153  0.1157 -0.0653
 3879SOL    HW123273   1.488   2.333   6.374  1.5112 -1.7791 -0.1155
 3879SOL    HW223274   1.381   2.222   6.378 -0.9985  0.3184 -0.6485
 3880SOL     OW23275   3.017   1.449   2.841 -0.2755 -0.2329 -0.1961
 3880SOL    HW123276   3.055   1.535   2.858  1.9599 -1.6925  2.2900
 3880SOL    HW223277   2.989   1.463   2.751  1.6615  1.5146 -0.5070
 3881SOL     OW23278   0.244   0.997   5.601 -0.1263 -0.0282  0.4444
 3881SOL    HW123279   0.205   1.081   5.627 -1.1389 -0.1605 -0.5991
 3881SOL    HW223280   0.320   0.983   5.656 -0.0432  1.4738  0.7152
 3882SOL     OW23281   1.752   3.244   6.957  0.1275  0.1707  0.0103
 3882SOL    HW123282   1.681   3.221   6.896  1.5847 -2.3770 -0.7276
 3882SOL    HW223283   1.828   3.231   6.900  0.5631 -1.0248  0.8650
 3883SOL     OW23284   0.068   3.137  17.364 -0.1074  0.3327 -0.3065
 3883SOL    HW123285   4.718   3.162  17.401 -0.9809 -0.1938 -1.9781
 3883SOL    HW223286   0.067   3.044  17.387 -0.9452  0.0071 -1.6717
 3884SOL     OW23287   1.665   1.514   5.725 -0.0017  0.4321  0.3104
 3884SOL    HW123288   1.581   1.524   5.770 -1.1150  0.7827 -1.8327
 3884SOL    HW223289   1.688   1.597   5.682  2.0834 -0.8930 -1.0972
 3885SOL     OW23290   2.323   3.536   8.017  0.1796  0.4864 -0.3256
 3885SOL    HW123291   2.403   3.553   7.969  0.6429 -0.8134 -0.0097
 3885SOL    HW223292   2.345   3.566   8.105  1.4654  0.0876 -0.5139
 3886SOL     OW23293   4.316   3.395   0.511 -0.6095  0.7038  0.2519
 3886SOL    HW123294   4.319   3.491   0.504 -1.0304  0.6966  0.0024
 3886SOL    HW223295   4.298   3.371   0.420 -1.3732  0.4390  0.4765
 3887SOL     OW23296   4.319   1.321  10.161 -0.1227 -0.3569 -0.0667
 3887SOL    HW123297   4.270   1.275  10.092 -0.2873  1.7932 -1.3929
 3887SOL    HW223298   4.406   1.283  10.146  0.6983  1.4347  0.0942
 3888SOL     OW23299   4.670   0.003  12.983  0.0621 -0.2795 -0.5311
 3888SOL    HW123300   4.732   0.067  13.017  0.4876 -1.3626  0.7546
 3888SOL    HW223301   4.587   0.023  13.025 -0.8889 -0.9932 -2.0269
 3889SOL     OW23302   1.779   3.541  15.573  0.1627  0.0339 -0.1514
 3889SOL    HW123303   1.705   3.600  15.564 -1.6981 -2.7077 -2.8637
 3889SOL    HW223304   1.733   3.459  15.554 -0.4496  0.7847 -1.8430
 3890SOL     OW23305   0.691   2.676   5.808 -0.2337 -0.7094  0.1991
 3890SOL    HW123306   0.783   2.665   5.834 -0.0112  0.9793  0.1214
 3890SOL    HW223307   0.693   2.768   5.780 -2.9820 -0.8047 -0.3178
 3891SOL     OW23308   1.554   1.212   7.175  0.9304  0.0656  0.0562
 3891SOL    HW123309   1.539   1.273   7.248 -1.0068  0.5408 -0.7404
 3891SOL    HW223310   1.621   1.153   7.210  1.0491  0.1126 -0.0913
 3892SOL     OW23311   3.626   3.944  17.193  0.1577  0.1174 -0.1915
 3892SOL    HW123312   3.624   3.982  17.104  2.2723  0.5231 -0.0646
 3892SOL    HW223313   3.697   3.996  17.231 -1.4820 -0.3717  3.4802
 3893SOL     OW23314   2.516   1.473   4.016  0.1382 -0.1469  0.3218
 3893SOL    HW123315   2.508   1.406   3.948 -0.8378  0.0914  0.1929
 3893SOL    HW223316   2.435   1.453   4.064 -0.4438  2.1555  0.2883
 3894SOL     OW23317   1.448   1.933   4.460  0.0448 -0.6079  0.0113
 3894SOL    HW123318   1.361   1.951   4.497 -0.4744 -0.5752 -1.2203
 3894SOL    HW223319   1.476   1.864   4.519  1.6743  1.3339  1.5164
 3895SOL     OW23320   0.547   1.060   3.882  0.1971  0.0490 -0.0041
 3895SOL    HW123321   0.525   1.142   3.925 -1.9429 -0.3645 -0.3031
 3895SOL    HW223322   0.525   0.996   3.950  0.2824  0.7673  0.6996
 3896SOL     OW23323   4.706   0.659   0.860 -0.1536 -0.3224  0.5460
 3896SOL    HW123324   0.014   0.577   0.883  2.9478  1.1456 -0.2139
 3896SOL    HW223325   4.618   0.644   0.896 -0.9977  2.5802 -0.3341
 3897SOL     OW23326   2.874   4.297   9.326 -0.2551 -1.1452  0.3694
 3897SOL    HW123327   2.846   4.377   9.369  0.8051 -1.2175  1.2061
 3897SOL    HW223328   2.806   4.284   9.260  0.3462 -1.6689 -0.1536
 3898SOL     OW23329   3.475   4.071   2.064 -0.3764 -0.2156  0.2896
 3898SOL    HW123330   3.534   4.111   2.127 -2.7688  1.1010  1.7108
 3898SOL    HW223331   3.401   4.054   2.123  1.1245 -1.9436  1.7040
 3899SOL     OW23332   1.361   2.941  11.774  0.2820 -0.5642 -0.5562
 3899SOL    HW123333   1.425   2.923  11.842 -1.4815 -0.3015  1.1668
 3899SOL    HW223334   1.278   2.944  11.821  0.3367 -2.4981 -0.3597
 3900SOL     OW23335   3.971   3.361   7.886  0.1843 -0.5615 -0.5604
 3900SOL    HW123336   3.936   3.401   7.965 -1.1720  0.8132 -1.8362
 3900SOL    HW223337   4.034   3.297   7.917 -0.3605 -0.9570 -0.2914
 3901SOL     OW23338   2.968   2.532  17.350  0.2956 -0.4129  0.2336
 3901SOL    HW123339   2.984   2.527  17.444  0.2678 -1.7329  0.1712
 3901SOL    HW223340   2.977   2.625  17.332  0.5209 -0.6589 -0.9088
 3902SOL     OW23341   3.030   1.420   8.081 -0.5086  0.3066  0.0439
 3902SOL    HW123342   3.094   1.491   8.079 -1.8096  1.3814 -2.5719
 3902SOL    HW223343   3.068   1.361   8.017  1.6930 -0.4670  2.0727
 3903SOL     OW23344   0.090   2.584  16.597 -0.6899 -0.2306  0.0522
 3903SOL    HW123345   0.016   2.523  16.601  0.1055 -1.1783  0.2945
 3903SOL    HW223346   0.154   2.520  16.565 -0.7187  0.7785 -2.0168
 3904SOL     OW23347   4.356   3.540  17.405  0.5140  0.0699  0.0079
 3904SOL    HW123348   4.365   3.625  17.363  0.6247 -0.1695 -0.4477
 3904SOL    HW223349   4.339   3.487  17.327 -2.1656 -2.0372  1.9750
 3905SOL     OW23350   1.992   1.038   2.527  0.4209  0.2007  0.1624
 3905SOL    HW123351   1.916   1.000   2.571 -1.6569  1.3870 -2.4182
 3905SOL    HW223352   2.060   1.040   2.594 -1.5779 -0.2775  2.2014
 3906SOL     OW23353   3.068   4.393  13.643 -0.4165 -0.4485  0.2157
 3906SOL    HW123354   2.998   4.416  13.704  0.5508 -0.0476  1.1802
 3906SOL    HW223355   3.021   4.356  13.568  0.9743 -0.4622 -0.6465
 3907SOL     OW23356   2.905   4.217   1.096  0.8113  0.5983  0.1613
 3907SOL    HW123357   2.824   4.203   1.048  0.9845 -1.3792  0.4264
 3907SOL    HW223358   2.878   4.254   1.180  0.5138 -1.6018  1.0376
 3908SOL     OW23359   3.374   1.869   8.330  0.1233  0.2975 -0.3780
 3908SOL    HW123360   3.285   1.854   8.363  0.1668  0.3786 -0.2271
 3908SOL    HW223361   3.410   1.918   8.403 -0.0551  1.7869 -1.2972
 3909SOL     OW23362   3.157   4.700  16.506  0.1235 -0.0631  0.3686
 3909SOL    HW123363   3.128   0.005  16.424  0.0287  0.6755  0.7688
 3909SOL    HW223364   3.252   4.701  16.496 -0.0120  0.9415 -0.8773
 3910SOL     OW23365   1.737   2.401   1.776  0.0163 -0.2579  0.7135
 3910SOL    HW123366   1.826   2.385   1.743 -0.6854 -3.9876  0.5940
 3910SOL    HW223367   1.694   2.440   1.700 -0.2071 -0.9740  0.4747
 3911SOL     OW23368   4.367   2.470  12.550 -0.4229 -0.1969  0.4555
 3911SOL    HW123369   4.312   2.495  12.624 -2.3193 -0.9229 -0.7008
 3911SOL    HW223370   4.413   2.393  12.583  0.4989  0.2813  0.2857
 3912SOL     OW23371   3.284   1.027  10.306 -0.8576 -0.1269  0.0696
 3912SOL    HW123372   3.349   0.996  10.244 -1.9203 -0.5179 -0.8574
 3912SOL    HW223373   3.261   1.112  10.268 -0.7543  0.4617  1.3124
 3913SOL     OW23374   2.970   2.355   6.747 -0.2199 -0.6084 -0.0730
 3913SOL    HW123375   2.986   2.414   6.821  1.1452 -0.8851 -0.1498
 3913SOL    HW223376   3.012   2.397   6.672  1.7785 -0.6554  1.0273
 3914SOL     OW23377   1.300   0.316   3.626 -0.3120  0.2170  0.1860
 3914SOL    HW123378   1.282   0.358   3.711  1.6825 -1.6990  1.5512
 3914SOL    HW223379   1.229   0.252   3.626 -2.5190  2.6448 -0.2318
 3915SOL     OW23380   0.483   2.033   7.984 -0.5720 -0.4575 -0.4965
 3915SOL    HW123381   0.538   2.011   8.060 -2.4256 -0.5069  0.8258
 3915SOL    HW223382   0.413   1.970   7.999 -0.7336 -0.5593 -1.6777
 3916SOL     OW23383   2.126   3.609  13.767 -0.2968 -0.0180 -0.9558
 3916SOL    HW123384   2.163   3.529  13.730 -0.9731 -0.9298  0.3217
 3916SOL    HW223385   2.185   3.675  13.731  0.4067 -0.2592 -0.2522
 3917SOL     OW23386   2.588   4.009  10.788  0.7767 -0.3365 -0.0921
 3917SOL    HW123387   2.603   4.104  10.790  3.3073 -0.6710 -2.9067
 3917SOL    HW223388   2.667   3.977  10.745  2.0564  0.7410  1.4576
 3918SOL     OW23389   3.510   2.179   1.532  0.0290  0.7728  0.2564
 3918SOL    HW123390   3.591   2.226   1.552  0.1747  1.3686 -1.7054
 3918SOL    HW223391   3.527   2.094   1.572 -1.2855  0.8188  0.9022
 3919SOL     OW23392   3.185   3.067   4.665  0.3564  0.1549  0.8071
 3919SOL    HW123393   3.239   3.125   4.612 -0.6251  0.9296  0.6631
 3919SOL    HW223394   3.105   3.118   4.676  0.5270  0.5205  0.3131
 3920SOL     OW23395   1.608   2.522   0.038 -0.5630 -0.0782 -0.2632
 3920SOL    HW123396   1.612   2.594   0.101  1.2700  0.4662 -1.0130
 3920SOL    HW223397   1.609   2.437   0.082  1.3734  0.9544  1.7152
 3921SOL     OW23398   3.800   1.447   6.347 -0.1092 -0.1736  0.5087
 3921SOL    HW123399   3.818   1.528   6.301  0.0227 -0.8231 -0.5759
 3921SOL    HW223400   3.881   1.424   6.392  0.0079  0.3069  0.5442
 3922SOL     OW23401   3.506   0.290   5.225  0.1313  0.1323  0.2243
 3922SOL    HW123402   3.514   0.284   5.320 -0.6908  0.7335  0.3331
 3922SOL    HW223403   3.514   0.385   5.218 -0.2247  0.3194  2.3595
 3923SOL     OW23404   3.244   2.890   9.074 -0.5728  0.4088  0.5168
 3923SOL    HW123405   3.175   2.894   9.008 -0.6727  0.0624  0.5969
 3923SOL    HW223406   3.210   2.944   9.145 -0.8034  1.6150 -0.5177
 3924SOL     OW23407   3.301   2.345   3.494  0.3268 -0.2779 -0.0766
 3924SOL    HW123408   3.345   2.301   3.567  2.9019  0.2548 -1.3098
 3924SOL    HW223409   3.220   2.372   3.537  1.9591  3.0286  0.9387
 3925SOL     OW23410   2.955   0.673   9.785  0.0911  0.1068  0.4481
 3925SOL    HW123411   3.033   0.666   9.839  0.4252 -0.8969 -0.1689
 3925SOL    HW223412   2.890   0.618   9.830 -1.1537  0.4321 -0.9658
 3926SOL     OW23413   4.221   2.894   4.838 -0.3808 -0.4705 -0.7073
 3926SOL    HW123414   4.273   2.950   4.896  1.1117 -2.1951 -0.3950
 3926SOL    HW223415   4.186   2.829   4.899 -0.7855 -0.1745 -0.6249
 3927SOL     OW23416   1.436   3.254   5.202  0.0621  0.0673 -0.3021
 3927SOL    HW123417   1.503   3.240   5.134  1.9176  3.1758  0.9001
 3927SOL    HW223418   1.383   3.177   5.184  1.6072 -0.7964 -1.1738
 3928SOL     OW23419   4.425   2.063   2.876  0.1118  0.7302  0.2630
 3928SOL    HW123420   4.387   2.136   2.924  1.0730  0.2745  1.7075
 3928SOL    HW223421   4.504   2.035   2.922  1.6207  1.5489 -1.8021
 3929SOL     OW23422   3.236   1.132   4.114  0.4273 -0.6852  0.0411
 3929SOL    HW123423   3.172   1.196   4.146  1.3852  0.5155 -0.4401
 3929SOL    HW223424   3.226   1.047   4.155 -0.8823 -1.6051 -2.1858
 3930SOL     OW23425   1.669   2.783  17.512  0.1587 -0.5360 -0.1981
 3930SOL    HW123426   1.638   2.700  17.548 -0.4183 -0.3962 -0.3802
 3930SOL    HW223427   1.665   2.759  17.419 -2.7976  0.0689 -0.2281
 3931SOL     OW23428   1.173   2.969  11.321  0.4026 -0.2007  0.0824
 3931SOL    HW123429   1.240   2.904  11.345 -0.3981 -1.6754 -1.6932
 3931SOL    HW223430   1.226   3.011  11.253  0.4860  0.2031  0.3925
 3932SOL     OW23431   2.720   1.567   4.157  0.0951  0.3414 -0.0983
 3932SOL    HW123432   2.657   1.517   4.104  0.6917  1.0519 -1.4849
 3932SOL    HW223433   2.761   1.610   4.082  0.0300 -0.4295 -0.5874
 3933SOL     OW23434   4.301   3.035  14.451  0.3712 -0.8051 -0.1910
 3933SOL    HW123435   4.208   3.050  14.466  0.2624 -0.5478 -1.1151
 3933SOL    HW223436   4.339   3.117  14.483  0.9279 -1.5215  0.9886
 3934SOL     OW23437   1.044   4.096   2.511  0.0088  0.2405  0.7499
 3934SOL    HW123438   1.077   4.126   2.595  0.4093 -0.4004  0.8236
 3934SOL    HW223439   1.053   4.177   2.462  0.0589 -0.0970  0.1989
 3935SOL     OW23440   4.478   0.993   3.110 -0.1078  0.1518  0.3361
 3935SOL    HW123441   4.406   1.044   3.072 -1.2121 -1.3062  0.4533
 3935SOL    HW223442   4.500   1.043   3.189 -0.8540  0.3132  0.4423
 3936SOL     OW23443   1.358   3.159   6.578  0.4439 -0.0273  0.0681
 3936SOL    HW123444   1.307   3.082   6.603  0.4149 -0.0027  0.0848
 3936SOL    HW223445   1.299   3.234   6.588 -0.2406 -0.5308 -0.2167
 3937SOL     OW23446   0.533   2.811   9.730  0.1458  0.0619  0.3581
 3937SOL    HW123447   0.442   2.784   9.744  0.9872 -2.9450  0.1587
 3937SOL    HW223448   0.566   2.745   9.668  2.9158  1.3857  0.4444
 3938SOL     OW23449   0.626   3.200  10.920  0.0114 -0.3298 -0.1772
 3938SOL    HW123450   0.610   3.293  10.903  0.0070 -0.6450 -1.8114
 3938SOL    HW223451   0.545   3.184  10.969 -0.3878 -1.3543 -1.2003
 3939SOL     OW23452   0.938   2.303   8.871  0.8143  0.3233 -0.3926
 3939SOL    HW123453   1.026   2.314   8.906  0.6756 -1.5505  0.5462
 3939SOL    HW223454   0.951   2.361   8.796  4.3412 -0.7685 -0.6328
 3940SOL     OW23455   2.948   2.321   5.068  0.4863  0.2559 -0.1951
 3940SOL    HW123456   3.008   2.389   5.100 -0.9103  0.4359  2.1036
 3940SOL    HW223457   3.010   2.282   5.007  0.1696 -1.0839  0.3588
 3941SOL     OW23458   0.093   0.919   8.273  0.7076 -0.0281  0.1689
 3941SOL    HW123459   0.173   0.972   8.274 -0.5945  1.9967 -1.9191
 3941SOL    HW223460   0.130   0.832   8.261 -1.0407 -0.7123 -0.2517
 3942SOL     OW23461   0.441   3.726   8.242  0.7360  0.6087  0.4861
 3942SOL    HW123462   0.477   3.812   8.262  2.2348 -0.0367  0.5140
 3942SOL    HW223463   0.502   3.694   8.176 -0.0626 -2.1631  1.1015
 3943SOL     OW23464   4.253   3.166   6.241 -0.2995  0.5885  0.3108
 3943SOL    HW123465   4.258   3.233   6.310  1.8347  0.5052  0.2555
 3943SOL    HW223466   4.183   3.204   6.188 -2.0533  0.2411  2.3665
 3944SOL     OW23467   3.861   2.982   0.497 -0.3574 -0.3627 -0.3555
 3944SOL    HW123468   3.941   2.947   0.536 -0.0966 -0.3998 -0.9179
 3944SOL    HW223469   3.848   3.063   0.545 -1.5714  0.2083 -1.6476
 3945SOL     OW23470   2.004   2.727   6.469 -0.1381 -0.0419  0.4030
 3945SOL    HW123471   2.083   2.750   6.518 -0.3091  1.3886  0.0123
 3945SOL    HW223472   1.946   2.716   6.544  0.5539  0.5898  1.0435
 3946SOL     OW23473   2.779   0.070   2.826 -0.5777 -0.0597  0.5051
 3946SOL    HW123474   2.777   0.138   2.758  2.1574  0.4835  0.9739
 3946SOL    HW223475   2.746   0.127   2.896 -1.8046  0.6611 -0.6573
 3947SOL     OW23476   1.613   2.855  10.124  0.4017  0.3333  0.2132
 3947SOL    HW123477   1.641   2.908  10.049  1.2746 -1.5799 -0.8396
 3947SOL    HW223478   1.555   2.911  10.174  0.9596  0.7235  0.4275
 3948SOL     OW23479   1.824   2.319   2.429 -0.1848 -0.2573 -0.4304
 3948SOL    HW123480   1.874   2.239   2.409 -2.7732 -2.2822  1.3018
 3948SOL    HW223481   1.741   2.277   2.411 -0.1472 -0.8387  0.7498
 3949SOL     OW23482   2.055   1.811   8.430 -0.1849 -0.4098 -0.1472
 3949SOL    HW123483   2.082   1.839   8.517 -0.1331  0.2637 -0.3746
 3949SOL    HW223484   2.017   1.888   8.386  0.5755  0.4445  0.6762
 3950SOL     OW23485   3.575   3.619  17.369  0.2616  0.3006  0.3282
 3950SOL    HW123486   3.647   3.558  17.384  1.9267  1.6707 -2.0221
 3950SOL    HW223487   3.541   3.630  17.458  0.0706 -0.2883  0.3235
 3951SOL     OW23488   3.629   3.538  12.314  0.5643 -0.0315 -0.2508
 3951SOL    HW123489   3.566   3.538  12.242 -1.0682 -0.6555  1.1477
 3951SOL    HW223490   3.619   3.451  12.354  0.6763 -0.5793 -1.4241
 3952SOL     OW23491   2.687   4.520   5.072 -0.3578 -0.3336 -0.5760
 3952SOL    HW123492   2.732   4.532   5.155 -0.7870  2.9928 -0.8154
 3952SOL    HW223493   2.625   4.449   5.090 -0.8192 -0.2308 -1.7105
 3953SOL     OW23494   0.324   2.322  14.701  0.6951  0.2780  0.1655
 3953SOL    HW123495   0.415   2.343  14.720  0.4295  1.2391  0.3429
 3953SOL    HW223496   0.281   2.407  14.711  1.2249  0.4328  1.1241
 3954SOL     OW23497   2.865   3.882  10.752 -0.2173 -0.3245 -0.3002
 3954SOL    HW123498   2.898   3.824  10.821 -0.8261 -1.1850 -0.7341
 3954SOL    HW223499   2.912   3.848  10.676 -0.6515  1.3072 -1.2883
 3955SOL     OW23500   1.160   4.168   6.861  0.6270  0.1395 -0.3881
 3955SOL    HW123501   1.182   4.257   6.834 -1.0706  0.7351  0.1670
 3955SOL    HW223502   1.222   4.116   6.810  1.9463 -0.0053  1.3696
 3956SOL     OW23503   0.134   0.109  15.220  0.5213  0.5145 -0.2666
 3956SOL    HW123504   0.165   0.166  15.150  2.5580  0.7245  0.8128
 3956SOL    HW223505   0.214   0.056  15.221 -1.1639 -2.0562  0.6341
 3957SOL     OW23506   3.211   3.616   1.832  0.3805 -0.2336  0.2576
 3957SOL    HW123507   3.306   3.613   1.844  0.5554 -1.5102 -1.3748
 3957SOL    HW223508   3.203   3.686   1.767  0.5225 -1.0722 -0.6787
 3958SOL     OW23509   0.685   1.406   6.859 -0.3518 -0.1063  0.4303
 3958SOL    HW123510   0.623   1.431   6.790 -2.0221 -1.1728  1.5162
 3958SOL    HW223511   0.641   1.326   6.890 -1.2503  0.0500 -0.4329
 3959SOL     OW23512   0.130   1.802  13.857 -0.6895  0.6509 -0.1287
 3959SOL    HW123513   0.137   1.886  13.810  1.2518  0.6800  0.2468
 3959SOL    HW223514   0.210   1.826  13.902 -0.6797 -1.3051  0.8773
 3960SOL     OW23515   3.315   3.009  15.260  0.4747  0.1173 -0.7666
 3960SOL    HW123516   3.349   3.007  15.350 -0.5004  1.9736 -0.3544
 3960SOL    HW223517   3.242   3.068  15.276  1.2330  0.9803 -0.4280
 3961SOL     OW23518   2.525   0.979  10.111  0.1451  0.1132 -0.6232
 3961SOL    HW123519   2.583   0.929  10.054  1.1556 -0.4164  0.8884
 3961SOL    HW223520   2.470   1.023  10.046 -1.3288  3.5198  2.9416
 3962SOL     OW23521   0.509   4.021   8.305  0.4556 -0.4396  0.0419
 3962SOL    HW123522   0.586   3.987   8.350  0.1879  1.5270  1.9553
 3962SOL    HW223523   0.544   4.101   8.266  0.3677 -1.2779 -1.7630
 3963SOL     OW23524   1.677   4.254   4.495  0.0105  0.6350  0.0273
 3963SOL    HW123525   1.633   4.295   4.569  1.1596  0.2518  0.9213
 3963SOL    HW223526   1.654   4.314   4.424  0.2677  1.0059  0.2609
 3964SOL     OW23527   1.089   4.376   2.887 -0.0073  0.3909  0.2195
 3964SOL    HW123528   1.040   4.454   2.861  1.3894  1.1474 -0.1700
 3964SOL    HW223529   1.177   4.413   2.889  0.1900 -0.0010 -1.0594
 3965SOL     OW23530   0.639   1.515   5.499  0.8400  0.4142  0.0394
 3965SOL    HW123531   0.658   1.602   5.466 -1.8614  0.9716 -0.0606
 3965SOL    HW223532   0.544   1.525   5.505  0.6139 -0.5534 -1.8791
 3966SOL     OW23533   1.555   2.495  15.808 -0.1123 -0.1237  0.3097
 3966SOL    HW123534   1.535   2.402  15.821  0.7862 -0.3733 -0.1117
 3966SOL    HW223535   1.504   2.535  15.879 -2.0110 -1.0404 -0.5270
 3967SOL     OW23536   1.448   2.375   5.500 -0.3963  0.7176  0.3926
 3967SOL    HW123537   1.356   2.357   5.517 -0.7684  1.4500 -0.8365
 3967SOL    HW223538   1.446   2.464   5.536  1.5787  0.5102  0.9949
 3968SOL     OW23539   3.835   0.018   7.101  0.0883 -0.3610 -0.1341
 3968SOL    HW123540   3.889   0.087   7.141 -0.2499  0.4991 -1.1608
 3968SOL    HW223541   3.754   0.012   7.153 -0.2852  0.6176 -0.5977
 3969SOL     OW23542   1.253   1.092   2.568 -0.5641 -0.3593  0.0759
 3969SOL    HW123543   1.233   1.183   2.590 -0.9014 -0.5348  0.5076
 3969SOL    HW223544   1.170   1.058   2.601 -0.5440  0.3764  0.8837
 3970SOL     OW23545   1.135   4.379   5.731  0.0854  0.7138 -0.0434
 3970SOL    HW123546   1.047   4.401   5.762 -0.4681  0.8343 -1.7441
 3970SOL    HW223547   1.191   4.456   5.742  1.1506 -0.1985  0.9273
 3971SOL     OW23548   0.806   3.452   4.066 -0.3759 -0.0068  0.4820
 3971SOL    HW123549   0.898   3.427   4.052 -0.7552 -1.0248 -0.2042
 3971SOL    HW223550   0.805   3.445   4.161  0.7913 -1.0219  0.4254
 3972SOL     OW23551   2.665   3.576  10.299 -0.3421 -0.2002  0.5249
 3972SOL    HW123552   2.595   3.513  10.315 -1.0959  0.5428  0.1573
 3972SOL    HW223553   2.675   3.555  10.205 -1.8659 -1.1734  0.5800
 3973SOL     OW23554   2.537   2.716  11.834  0.1907 -0.0099  0.0874
 3973SOL    HW123555   2.583   2.739  11.754  0.2165 -3.1194 -0.7636
 3973SOL    HW223556   2.513   2.798  11.878  1.1569  1.5097 -2.2454
 3974SOL     OW23557   0.305   4.392   9.734  0.0835 -0.0056 -0.2550
 3974SOL    HW123558   0.385   4.430   9.769 -1.0019  1.8798  0.1808
 3974SOL    HW223559   0.341   4.315   9.689  1.1108  0.3988 -0.1234
 3975SOL     OW23560   4.207   2.218   4.004  0.4736 -0.2656  0.1097
 3975SOL    HW123561   4.254   2.141   4.036  0.1038 -0.5723 -0.0908
 3975SOL    HW223562   4.143   2.240   4.071  0.0337  0.0484 -0.4195
 3976SOL     OW23563   2.719   4.324  15.460 -0.0576 -0.2224 -1.1534
 3976SOL    HW123564   2.641   4.268  15.466 -1.5891  2.0818  0.6713
 3976SOL    HW223565   2.734   4.330  15.366  1.3142 -0.6039 -0.9499
 3977SOL     OW23566   3.928   3.648   6.478  0.2114  0.0280 -0.0780
 3977SOL    HW123567   3.880   3.571   6.509 -2.4890  1.9702  0.5963
 3977SOL    HW223568   3.860   3.715   6.473 -1.2873 -1.4709  0.1319
 3978SOL     OW23569   3.701   0.750   4.812 -0.3125  0.4145  0.7104
 3978SOL    HW123570   3.740   0.741   4.725 -0.1304  0.2649  0.8086
 3978SOL    HW223571   3.775   0.792   4.856 -1.2677 -0.5655  3.2536
 3979SOL     OW23572   2.364   1.831   2.152  0.0641  0.0155 -0.2444
 3979SOL    HW123573   2.316   1.895   2.205  0.7595  0.4220 -0.1097
 3979SOL    HW223574   2.332   1.750   2.192  0.7365 -0.3767 -0.4955
 3980SOL     OW23575   0.937   2.572   4.363  0.8095 -0.0588 -0.1142
 3980SOL    HW123576   0.929   2.667   4.355  1.4415 -0.0014 -0.0355
 3980SOL    HW223577   1.022   2.563   4.319  1.4077 -1.9265  1.4334
 3981SOL     OW23578   2.303   0.796   7.911  0.1772 -0.2367  0.4112
 3981SOL    HW123579   2.343   0.755   7.987 -1.7913  0.4859  1.8313
 3981SOL    HW223580   2.257   0.875   7.941  0.0461 -0.0861 -0.1794
 3982SOL     OW23581   3.701   4.217  11.631  0.0503  0.4889 -0.2884
 3982SOL    HW123582   3.617   4.232  11.675 -0.2767 -0.9662 -0.4233
 3982SOL    HW223583   3.743   4.174  11.706  1.3791  0.0760 -1.2662
 3983SOL     OW23584   4.454   0.587  16.446  0.6263 -0.0568 -0.3615
 3983SOL    HW123585   4.422   0.632  16.368  2.7831  3.2315  0.6462
 3983SOL    HW223586   4.545   0.575  16.420  0.7052 -0.5246  0.1267
 3984SOL     OW23587   1.425   1.972   2.867 -0.2093 -0.1127  0.5115
 3984SOL    HW123588   1.500   2.012   2.911 -0.4493 -1.3512  2.0635
 3984SOL    HW223589   1.436   2.000   2.776  0.7405 -0.8463  0.4081
 3985SOL     OW23590   0.092   0.471   3.216 -0.3192  0.1558  0.0001
 3985SOL    HW123591   0.161   0.524   3.256  0.1115  0.0284 -0.5759
 3985SOL    HW223592   0.102   0.500   3.126 -3.5233  0.4093 -0.2743
 3986SOL     OW23593   4.078   2.528  14.390 -0.0780 -0.7128  0.2902
 3986SOL    HW123594   4.042   2.543  14.303  2.6371  2.0893 -0.3677
 3986SOL    HW223595   4.013   2.565  14.449 -0.1945  0.8971 -0.8500
 3987SOL     OW23596   0.685   3.384   7.149 -0.3274  0.5258  0.3655
 3987SOL    HW123597   0.636   3.430   7.081  0.6570 -0.8406 -1.2692
 3987SOL    HW223598   0.606   3.369   7.201 -1.8845 -3.4569 -3.1329
 3988SOL     OW23599   2.214   1.892   1.498  0.4816 -0.7454 -0.0839
 3988SOL    HW123600   2.293   1.850   1.464  1.7899  1.0230  0.7185
 3988SOL    HW223601   2.252   1.969   1.540  0.8564 -2.5138  2.7888
 3989SOL     OW23602   2.058   1.663   5.437 -0.1897 -0.1534 -0.1898
 3989SOL    HW123603   2.137   1.609   5.448  2.0241  3.3183  1.0195
 3989SOL    HW223604   1.998   1.610   5.385 -0.4299 -1.0644  1.0417
 3990SOL     OW23605   2.150   1.528  17.170 -0.2053 -0.0400 -0.1262
 3990SOL    HW123606   2.242   1.552  17.168  0.2983 -2.1041 -0.9804
 3990SOL    HW223607   2.156   1.455  17.231  0.1265  0.0380 -0.0686
 3991SOL     OW23608   3.018   2.192   6.003 -1.0048 -0.2087  0.6042
 3991SOL    HW123609   2.991   2.283   5.991  1.6130  0.4556 -0.3195
 3991SOL    HW223610   2.976   2.175   6.087 -2.0912 -0.2250  0.0456
 3992SOL     OW23611   1.008   0.218  13.412 -0.6490 -0.5455 -0.4763
 3992SOL    HW123612   0.980   0.307  13.432 -1.5014 -0.7717 -0.6496
 3992SOL    HW223613   1.091   0.212  13.458 -1.4971  1.9917  1.3573
 3993SOL     OW23614   3.466   1.319   8.108  0.3443  0.3156  0.4966
 3993SOL    HW123615   3.416   1.270   8.174  0.0152  0.3478  0.2703
 3993SOL    HW223616   3.405   1.331   8.035  0.5406  2.0763  0.6257
 3994SOL     OW23617   0.997   3.020   1.311  0.4358  0.4346  0.1287
 3994SOL    HW123618   1.037   3.043   1.394 -0.6647 -0.9698  1.0510
 3994SOL    HW223619   0.912   3.065   1.310  0.7589  1.0503  0.6044
 3995SOL     OW23620   4.090   4.680  10.186 -0.0680  0.1768 -0.4531
 3995SOL    HW123621   4.101   4.708  10.277  0.1774  0.5245 -0.5909
 3995SOL    HW223622   4.112   0.029  10.149  0.1015  0.0063 -0.7455
 3996SOL     OW23623   0.635   1.728  15.748 -0.6502  0.6429 -0.1111
 3996SOL    HW123624   0.611   1.756  15.837 -1.6418 -0.2796 -0.0895
 3996SOL    HW223625   0.712   1.675  15.764 -0.3907  1.8004  2.5502
 3997SOL     OW23626   1.719   2.627   5.774  0.6872  0.5262  0.4122
 3997SOL    HW123627   1.629   2.640   5.747  0.4202 -0.6067  0.7276
 3997SOL    HW223628   1.742   2.547   5.725  0.6270  0.2714  0.7969
 3998SOL     OW23629   0.190   2.410   7.508  0.0709 -0.0257 -0.1719
 3998SOL    HW123630   0.270   2.397   7.456 -1.4576  0.0052 -2.5306
 3998SOL    HW223631   0.205   2.493   7.555 -0.8334 -1.1362  2.0876
 3999SOL     OW23632   3.477   2.434  11.102  0.1203 -0.2446  0.1418
 3999SOL    HW123633   3.533   2.419  11.179  0.3752 -1.1113 -0.2113
 3999SOL    HW223634   3.440   2.347  11.090 -3.0902  1.0694  0.4022
 4000SOL     OW23635   3.844   1.316   3.100 -0.6486 -0.7256  0.4213
 4000SOL    HW123636   3.934   1.291   3.080 -1.0598 -2.6545  1.0717
 4000SOL    HW223637   3.855   1.409   3.122  1.8635 -1.4725  2.3957
 4001SOL     OW23638   3.854   0.849   7.912 -0.6757 -0.1186 -0.3407
 4001SOL    HW123639   3.883   0.860   7.821 -0.0816  1.2481  0.0065
 4001SOL    HW223640   3.769   0.805   7.912 -1.5430  1.5526  2.0025
 4002SOL     OW23641   0.432   3.570   7.762 -0.1729 -0.1279  0.4339
 4002SOL    HW123642   0.420   3.491   7.814 -2.4030  1.2576  2.0245
 4002SOL    HW223643   0.362   3.628   7.791 -1.1172 -0.9076 -0.3120
 4003SOL     OW23644   0.040   3.038   6.981  0.2219  0.1269  0.5796
 4003SOL    HW123645   0.100   3.110   6.961  0.0127  0.1110 -0.0794
 4003SOL    HW223646   4.716   3.083   7.041 -2.6192 -1.2066 -1.2653
 4004SOL     OW23647   0.297   2.975   9.160  0.2924  0.0443 -0.1683
 4004SOL    HW123648   0.228   3.029   9.122  1.3654  0.2299 -1.8581
 4004SOL    HW223649   0.271   2.976   9.252 -1.2875 -1.5671 -0.5920
 4005SOL     OW23650   1.090   3.021  12.523  0.2908  0.1154  0.2129
 4005SOL    HW123651   1.063   2.972  12.601  2.7231 -0.1782  0.8588
 4005SOL    HW223652   1.163   2.969  12.490  0.7144  1.6456 -1.2631
 4006SOL     OW23653   1.440   2.348   3.732 -0.2134  0.7226  0.0656
 4006SOL    HW123654   1.530   2.375   3.751 -0.1817  2.1857 -2.1062
 4006SOL    HW223655   1.436   2.371   3.639 -1.0118 -3.8293 -0.9925
 4007SOL     OW23656   2.791   1.627   8.652  0.1464  0.0862  0.2849
 4007SOL    HW123657   2.779   1.533   8.665 -2.1179  0.3021 -0.1920
 4007SOL    HW223658   2.866   1.627   8.593 -0.3819  0.2831 -0.3815
 4008SOL     OW23659   0.884   0.441  12.838 -0.2701 -0.0437 -0.5338
 4008SOL    HW123660   0.956   0.502  12.852 -0.6642  0.6662 -1.5642
 4008SOL    HW223661   0.864   0.440  12.744 -0.7323  0.4570 -0.4416
 4009SOL     OW23662   0.811   2.459   3.065 -0.1406 -0.3648 -0.1301
 4009SOL    HW123663   0.900   2.428   3.080 -0.8306 -1.5020  1.6262
 4009SOL    HW223664   0.793   2.395   2.996  0.9400  0.1190 -0.8692
 4010SOL     OW23665   0.537   1.967   7.715 -0.7564 -0.1855  0.0367
 4010SOL    HW123666   0.545   2.033   7.785 -0.4694  0.4971 -0.6419
 4010SOL    HW223667   0.450   1.927   7.723 -0.5565  0.0161  3.4133
 4011SOL     OW23668   4.394   4.648   4.407 -0.2934 -0.7974  0.5935
 4011SOL    HW123669   4.388   0.006   4.388 -0.5792 -0.9484 -0.0484
 4011SOL    HW223670   4.470   4.623   4.354  0.3609 -0.6151  1.4562
 4012SOL     OW23671   0.962   0.526   3.701  0.3401  0.4241 -0.2769
 4012SOL    HW123672   0.963   0.504   3.607 -0.5283 -1.8771  0.2473
 4012SOL    HW223673   0.910   0.606   3.706  0.9368  0.8011 -0.1432
 4013SOL     OW23674   0.213   0.180   4.914  0.2705  0.7732  0.5676
 4013SOL    HW123675   0.283   0.181   4.980  1.0811 -0.3090 -0.2734
 4013SOL    HW223676   0.180   0.270   4.916 -0.6874  0.4292  0.0752
 4014SOL     OW23677   1.212   3.142   5.990  0.1025  0.0374  0.4982
 4014SOL    HW123678   1.199   3.178   6.078 -0.8926 -0.5608  0.6016
 4014SOL    HW223679   1.291   3.088   5.996  0.2130  0.1089 -0.2650
 4015SOL     OW23680   4.508   3.999   6.631  0.5453 -0.2923  0.0025
 4015SOL    HW123681   4.592   3.961   6.657  0.7913 -0.4069 -0.9724
 4015SOL    HW223682   4.519   4.093   6.640  1.2188 -0.4384  0.7064
 4016SOL     OW23683   0.584   3.096   3.291 -0.1603  0.3218 -0.1555
 4016SOL    HW123684   0.489   3.083   3.297 -0.2559  0.9049 -0.3966
 4016SOL    HW223685   0.605   3.008   3.260  0.5005  1.0025 -1.6351
 4017SOL     OW23686   3.060   4.708  15.586  0.1240 -0.0595  0.3340
 4017SOL    HW123687   3.041   0.066  15.589  1.7742  0.2826  0.3301
 4017SOL    HW223688   2.989   4.663  15.632  0.6048 -0.3108  0.8383
 4018SOL     OW23689   0.872   1.058   4.985  0.5348  0.1425  0.3029
 4018SOL    HW123690   0.810   1.069   5.057 -0.0396 -2.9742  0.2869
 4018SOL    HW223691   0.829   0.992   4.932 -1.1108  1.2648  0.2389
 4019SOL     OW23692   3.880   1.197   6.685  0.1931 -0.3562  0.8321
 4019SOL    HW123693   3.848   1.151   6.608 -0.3050 -1.1371  1.5075
 4019SOL    HW223694   3.929   1.268   6.643 -0.1159 -0.3517  0.4807
 4020SOL     OW23695   1.640   3.633  15.840 -0.3842  0.4039 -0.3515
 4020SOL    HW123696   1.616   3.544  15.814  0.8581 -0.3634  1.1336
 4020SOL    HW223697   1.634   3.685  15.760  0.6973 -1.4635 -1.6535
 4021SOL     OW23698   1.818   4.585   0.206 -0.1913 -0.2407 -0.1201
 4021SOL    HW123699   1.762   4.662   0.195 -1.0959 -0.9366 -0.3488
 4021SOL    HW223700   1.883   4.590   0.135  2.0893  0.1966  1.9688
 4022SOL     OW23701   2.687   1.106   6.666  0.1185 -0.2146  0.8578
 4022SOL    HW123702   2.642   1.157   6.598 -0.7427  1.5440  2.7611
 4022SOL    HW223703   2.772   1.149   6.671  1.2221 -2.2827  0.2279
 4023SOL     OW23704   1.892   1.727   3.061 -0.7738 -0.0408 -0.6388
 4023SOL    HW123705   1.913   1.766   2.976 -0.8045  0.1896 -0.5429
 4023SOL    HW223706   1.864   1.806   3.108  1.5588  0.4931 -0.1679
 4024SOL     OW23707   2.801   2.310  14.358  0.1626  0.0648 -0.0139
 4024SOL    HW123708   2.878   2.359  14.329  1.4561 -1.3411  1.0464
 4024SOL    HW223709   2.783   2.285  14.267 -2.1432  0.3003  0.3826
 4025SOL     OW23710   1.723   2.545   0.372 -0.2369 -0.2112 -0.6845
 4025SOL    HW123711   1.783   2.479   0.406 -0.5357 -0.4143 -0.5460
 4025SOL    HW223712   1.700   2.597   0.449 -3.3446 -1.6754 -0.5987
 4026SOL     OW23713   0.933   2.390   5.112  0.1693 -0.0749  0.2774
 4026SOL    HW123714   0.854   2.427   5.073  1.0372  0.5155 -0.9096
 4026SOL    HW223715   0.929   2.417   5.204  1.2093  0.3275  0.2129
 4027SOL     OW23716   2.464   0.997   1.502  0.2972 -0.5083 -0.1090
 4027SOL    HW123717   2.374   1.021   1.478  0.7370  0.9010 -0.3764
 4027SOL    HW223718   2.521   1.074   1.497 -0.6528  0.2833  1.1399
 4028SOL     OW23719   2.821   1.217   6.951  0.0205 -0.3286 -0.3969
 4028SOL    HW123720   2.769   1.271   6.892 -0.7661 -1.6084 -0.8686
 4028SOL    HW223721   2.775   1.217   7.035 -0.7218 -2.5332 -0.8035
 4029SOL     OW23722   3.933   0.384  12.673  0.3425 -0.2418  0.2177
 4029SOL    HW123723   3.944   0.381  12.768  1.6684 -1.3088  0.0383
 4029SOL    HW223724   4.012   0.428  12.640  0.0028  1.3506  1.5634
 4030SOL     OW23725   1.310   4.017   7.206  0.2583 -0.1639 -0.1744
 4030SOL    HW123726   1.390   3.990   7.162 -0.9269 -0.2367 -2.2788
 4030SOL    HW223727   1.262   4.056   7.133  0.2209 -1.5399 -0.8632
 4031SOL     OW23728   2.484   2.517  16.804 -0.2367  1.0737  0.8248
 4031SOL    HW123729   2.531   2.487  16.726 -0.7624 -2.4145  1.8786
 4031SOL    HW223730   2.396   2.486  16.784 -1.2921  3.0510  2.3261
 4032SOL     OW23731   1.824   2.743   4.324 -0.0134  0.1791  0.3945
 4032SOL    HW123732   1.749   2.738   4.384 -0.2116 -0.1900  0.1177
 4032SOL    HW223733   1.855   2.653   4.318 -1.3971 -0.4230  2.0772
 4033SOL     OW23734   0.444   3.734   6.251 -0.1356  0.8110  0.2057
 4033SOL    HW123735   0.415   3.675   6.183  1.9038 -0.0041  0.0458
 4033SOL    HW223736   0.363   3.769   6.289  0.0749  1.3602  0.1579
 4034SOL     OW23737   1.060   4.364  11.343  0.3709  0.2791 -0.5369
 4034SOL    HW123738   1.010   4.398  11.417  0.5956  0.2464 -0.3714
 4034SOL    HW223739   1.038   4.426  11.273  0.3452 -0.7815 -1.4561
 4035SOL     OW23740   2.119   3.974   8.308  0.2937 -0.0050 -0.1766
 4035SOL    HW123741   2.135   4.001   8.399 -2.1370 -1.0427  0.5809
 4035SOL    HW223742   2.024   3.965   8.297  0.5876 -1.4734 -1.5100
 4036SOL     OW23743   2.938   2.542   8.913  0.1924  0.0829  0.3542
 4036SOL    HW123744   2.895   2.616   8.870  2.1330  1.0349  0.0792
 4036SOL    HW223745   3.017   2.535   8.859  1.5557 -1.0565  2.4968
 4037SOL     OW23746   4.454   1.066   8.005  0.0858 -0.0516  0.1222
 4037SOL    HW123747   4.540   1.099   8.032  1.1872 -1.6802 -1.4101
 4037SOL    HW223748   4.483   0.975   8.003  1.8253  0.5003 -0.5900
 4038SOL     OW23749   1.112   2.423   0.548 -0.5319 -0.6516 -0.0754
 4038SOL    HW123750   1.041   2.479   0.516 -1.5139 -1.4682  0.6738
 4038SOL    HW223751   1.071   2.381   0.624  2.0862 -0.5443  1.3877
 4039SOL     OW23752   3.628   2.946   5.022  0.2073  0.0962 -0.0252
 4039SOL    HW123753   3.618   2.856   5.053  0.9799 -0.0805 -0.2842
 4039SOL    HW223754   3.587   2.951   4.936  1.6269  0.7448 -0.6609
 4040SOL     OW23755   2.568   3.705   1.959  0.5638  0.5206 -0.1643
 4040SOL    HW123756   2.613   3.763   2.021 -0.7221  0.2956  0.9803
 4040SOL    HW223757   2.511   3.774   1.923  0.5323  0.8558  0.5378
 4041SOL     OW23758   1.378   3.005  11.155  0.0356  0.3021 -1.0354
 4041SOL    HW123759   1.442   2.934  11.147  1.8154  1.8419 -0.4841
 4041SOL    HW223760   1.412   3.048  11.233 -0.8390  0.0297 -0.5030
 4042SOL     OW23761   2.517   4.634   5.343 -0.9500 -0.3500 -0.0251
 4042SOL    HW123762   2.569   4.683   5.279  0.6978 -0.9648  0.8623
 4042SOL    HW223763   2.436   4.625   5.293 -0.8639 -1.1996 -0.0026
 4043SOL     OW23764   1.034   4.689   4.282  0.5032  0.5004  0.1620
 4043SOL    HW123765   1.001   4.619   4.339 -0.3583  0.1352 -0.7802
 4043SOL    HW223766   1.066   0.016   4.346  1.8103  1.0086 -0.9823
 4044SOL     OW23767   2.236   1.525   3.677  0.3525  0.1941  0.1873
 4044SOL    HW123768   2.303   1.493   3.617  0.5420 -0.0561  0.5340
 4044SOL    HW223769   2.220   1.453   3.738 -0.7992  0.7685  0.5541
 4045SOL     OW23770   4.355   3.106   4.482  0.0904 -0.0742  0.5508
 4045SOL    HW123771   4.311   3.028   4.515  1.2925  0.0504  2.5074
 4045SOL    HW223772   4.308   3.129   4.402 -1.5171 -1.0773  1.2184
 4046SOL     OW23773   3.546   1.826   2.736 -0.4540  0.3821  0.3496
 4046SOL    HW123774   3.622   1.774   2.709 -1.6929 -0.6686 -1.1124
 4046SOL    HW223775   3.554   1.806   2.829  2.3284  1.0891  0.2722
 4047SOL     OW23776   4.094   0.378   2.996 -0.1719  0.1949 -0.4232
 4047SOL    HW123777   4.177   0.377   3.044  0.5245 -1.8641 -1.6431
 4047SOL    HW223778   4.043   0.430   3.059  1.5846 -1.1659  2.1181
 4048SOL     OW23779   4.671   4.428   5.153 -0.0622 -0.3318 -0.0072
 4048SOL    HW123780   0.008   4.471   5.107 -1.1614 -0.3814 -1.7924
 4048SOL    HW223781   4.708   4.344   5.180  0.2045  0.7028  2.7759
 4049SOL     OW23782   4.136   0.686   6.908  0.1614  0.7647  0.0421
 4049SOL    HW123783   4.104   0.678   6.818 -1.4487  1.6830  0.5203
 4049SOL    HW223784   4.051   0.706   6.949 -0.3922 -0.6891 -0.3747
 4050SOL     OW23785   0.310   1.714   2.885 -0.0099 -0.3689 -0.3376
 4050SOL    HW123786   0.373   1.663   2.935 -0.1507 -0.6126 -0.4092
 4050SOL    HW223787   0.368   1.789   2.872  0.0303  0.0900  2.6778
 4051SOL     OW23788   3.080   0.177   6.716 -0.5140 -0.7862 -0.0750
 4051SOL    HW123789   3.010   0.206   6.658 -0.8076 -2.1065 -0.3948
 4051SOL    HW223790   3.142   0.150   6.647 -0.0567 -0.5817  0.2567
 4052SOL     OW23791   0.948   0.935   5.532  0.2660 -0.1411  0.0948
 4052SOL    HW123792   0.870   0.950   5.585  0.7025 -2.1961  1.3091
 4052SOL    HW223793   0.907   0.887   5.461 -0.7817  0.2392  0.4534
 4053SOL     OW23794   0.415   4.322   2.194 -0.3302  0.5181  0.3452
 4053SOL    HW123795   0.414   4.376   2.116 -3.8953  0.8476  0.6117
 4053SOL    HW223796   0.395   4.238   2.151 -0.7988  1.6637 -1.6521
 4054SOL     OW23797   1.971   2.290  17.450  0.5708 -0.3742 -0.0731
 4054SOL    HW123798   1.882   2.256  17.456  0.9612 -1.5686 -1.0676
 4054SOL    HW223799   2.020   2.217  17.488  2.1508 -0.3368 -2.0696
 4055SOL     OW23800   1.911   3.916  14.578 -0.2106 -0.9798  0.9409
 4055SOL    HW123801   1.923   3.826  14.549 -0.4079 -0.6789 -0.0732
 4055SOL    HW223802   1.848   3.937  14.509  0.9890  1.4329  0.5577
 4056SOL     OW23803   0.942   0.191  12.979 -0.0763 -0.1704  0.4711
 4056SOL    HW123804   0.869   0.171  13.038 -0.5812  1.2251  0.3144
 4056SOL    HW223805   0.892   0.242  12.916 -1.7224 -1.4320  0.7617
 4057SOL     OW23806   1.477   0.201   3.313  0.3538 -0.4167 -0.3702
 4057SOL    HW123807   1.566   0.183   3.344  0.5689  0.6506 -0.3570
 4057SOL    HW223808   1.472   0.286   3.356 -1.1577 -0.0620 -1.2474
 4058SOL     OW23809   4.650   0.720   6.571 -0.2054 -0.5209  0.5374
 4058SOL    HW123810   4.693   0.777   6.636 -1.1864  0.1594  0.5804
 4058SOL    HW223811   4.624   0.647   6.628 -0.2492 -0.7162  0.2635
 4059SOL     OW23812   4.300   1.411  17.032  0.2685 -0.0102 -0.5009
 4059SOL    HW123813   4.355   1.475  16.986  0.7424  0.2900  0.5046
 4059SOL    HW223814   4.289   1.456  17.115 -2.7074  0.7155 -1.2614
 4060SOL     OW23815   3.008   2.539   9.466  0.4155  0.2316 -0.7360
 4060SOL    HW123816   3.047   2.618   9.503  1.0923 -0.8431  0.8671
 4060SOL    HW223817   3.039   2.547   9.376  1.4652 -1.4997 -0.5361
 4061SOL     OW23818   0.068   1.672  11.259  0.2318 -0.2538 -0.3303
 4061SOL    HW123819   0.033   1.718  11.183  1.5993 -1.0817 -1.4607
 4061SOL    HW223820   0.160   1.688  11.241  0.5652 -1.6430  0.0919
 4062SOL     OW23821   3.430   3.058   3.137  0.5433 -0.5222  0.1687
 4062SOL    HW123822   3.378   2.978   3.134  0.3469 -0.3275 -2.2112
 4062SOL    HW223823   3.364   3.126   3.127 -1.5411 -2.8955 -2.3031
 4063SOL     OW23824   2.752   2.285   9.980  0.0134 -0.0917  0.4617
 4063SOL    HW123825   2.838   2.304  10.018  0.3506 -0.7684  0.0254
 4063SOL    HW223826   2.780   2.214   9.923 -1.9904  0.3022 -0.9894
 4064SOL     OW23827   4.353   0.451   6.673  0.4630  0.3706 -0.5499
 4064SOL    HW123828   4.284   0.506   6.634 -1.4804 -1.3419  0.4585
 4064SOL    HW223829   4.379   0.498   6.752  0.7770 -2.4534  1.0398
 4065SOL     OW23830   2.660   4.605   9.112 -0.2012  0.2180 -0.3806
 4065SOL    HW123831   2.654   4.532   9.049  1.3773  1.0997 -1.5435
 4065SOL    HW223832   2.590   4.661   9.078  1.3051  1.9090 -0.6642
 4066SOL     OW23833   0.274   2.314   7.915  0.1429 -0.0899  0.5525
 4066SOL    HW123834   0.196   2.272   7.879 -1.3397  2.7497  0.4564
 4066SOL    HW223835   0.251   2.297   8.006  0.8636 -1.2132  0.5270
 4067SOL     OW23836   4.038   1.031   2.729  0.2129 -0.4114 -0.0886
 4067SOL    HW123837   4.011   0.960   2.671  0.1083  0.5102 -1.1672
 4067SOL    HW223838   3.955   1.062   2.766 -0.4725  0.9864 -2.7688
 4068SOL     OW23839   0.948   4.070   8.920  0.4739 -0.2087 -0.1201
 4068SOL    HW123840   0.990   4.081   8.835 -1.9255 -0.2422 -1.2877
 4068SOL    HW223841   1.015   4.090   8.987  1.4475  0.3697 -1.2686
 4069SOL     OW23842   3.235   4.106   4.317  0.3585 -0.2744 -0.2482
 4069SOL    HW123843   3.238   4.134   4.226  1.2903 -0.6450 -0.3355
 4069SOL    HW223844   3.145   4.078   4.333  1.3832 -3.0586  0.6738
 4070SOL     OW23845   0.325   2.656   3.496  0.0129  0.2450  0.7139
 4070SOL    HW123846   0.340   2.694   3.583 -0.4285  3.9312 -0.8112
 4070SOL    HW223847   0.401   2.685   3.445 -1.2161  2.6473  0.2550
 4071SOL     OW23848   4.212   3.413  14.440  0.6581  0.2638  0.2862
 4071SOL    HW123849   4.139   3.406  14.378 -0.6249  0.8257  1.7269
 4071SOL    HW223850   4.167   3.419  14.524  2.2275  1.1314  1.0561
 4072SOL     OW23851   4.355   4.670  12.723  0.4457 -0.0826  0.1322
 4072SOL    HW123852   4.285   4.616  12.687 -0.4252  2.6518 -2.3241
 4072SOL    HW223853   4.436   4.620  12.715  1.3454  1.4761 -0.5144
 4073SOL     OW23854   2.225   2.378   8.938 -0.2490 -0.5458  0.8239
 4073SOL    HW123855   2.143   2.424   8.955  0.7388  1.2937  0.7149
 4073SOL    HW223856   2.217   2.296   8.985  0.0617 -1.8916 -1.4377
 4074SOL     OW23857   1.887   2.003   3.160 -0.4456  0.7025  0.3305
 4074SOL    HW123858   1.894   2.067   3.089  1.0626 -1.3720 -1.3902
 4074SOL    HW223859   1.980   1.986   3.177 -0.7091 -1.8080 -0.7685
 4075SOL     OW23860   3.307   2.659   4.941 -0.1849  0.4519  0.2883
 4075SOL    HW123861   3.337   2.718   4.871  0.0911  1.2300  1.0592
 4075SOL    HW223862   3.235   2.613   4.899 -0.0600  1.3995 -0.9727
 4076SOL     OW23863   2.732   4.256   7.624  0.4688  0.3019  0.1803
 4076SOL    HW123864   2.682   4.303   7.691  0.6539  2.5825 -1.2926
 4076SOL    HW223865   2.660   4.235   7.564  0.1459 -1.1444  1.0634
 4077SOL     OW23866   4.457   1.747  10.691  0.3954  0.2635 -0.4481
 4077SOL    HW123867   4.541   1.724  10.731 -0.1498  1.1936  1.2204
 4077SOL    HW223868   4.472   1.783  10.604  1.6912 -0.7813 -0.6570
 4078SOL     OW23869   1.656   0.766  13.004  0.3636 -0.4885  0.0627
 4078SOL    HW123870   1.654   0.843  13.061 -0.2092 -0.3278 -0.1787
 4078SOL    HW223871   1.751   0.754  13.004  0.1142 -2.3981  0.8067
 4079SOL     OW23872   4.410   1.578   4.968  0.9278 -0.1075  0.7533
 4079SOL    HW123873   4.431   1.668   4.992 -2.0194  0.2389  2.0682
 4079SOL    HW223874   4.397   1.572   4.873  1.1555 -1.2141  0.7885
 4080SOL     OW23875   3.758   0.325   8.642  0.3588  0.2752  0.1273
 4080SOL    HW123876   3.666   0.338   8.617  2.2923  4.4430 -4.7273
 4080SOL    HW223877   3.769   0.397   8.704 -0.1232  1.3284 -1.0170
 4081SOL     OW23878   0.065   1.995   1.562 -0.0784 -0.0002 -0.1840
 4081SOL    HW123879   0.115   1.970   1.485  1.2017 -1.3332  1.0767
 4081SOL    HW223880   0.118   1.951   1.628 -0.0069  0.8448  0.3339
 4082SOL     OW23881   4.194   0.643  10.506 -0.8234 -0.2733  0.2068
 4082SOL    HW123882   4.212   0.676  10.594  0.1086 -0.6823  0.1662
 4082SOL    HW223883   4.245   0.707  10.457 -0.2505 -0.1412  0.9799
 4083SOL     OW23884   4.057   3.772   6.262 -0.1125  0.3072  0.0194
 4083SOL    HW123885   4.035   3.752   6.353 -2.3398 -0.5775 -0.7064
 4083SOL    HW223886   4.142   3.814   6.274  0.4227 -0.6973 -0.2608
 4084SOL     OW23887   0.324   3.879   4.971 -0.1987  0.2067  0.3238
 4084SOL    HW123888   0.324   3.939   4.896 -0.3756  0.6517  0.6766
 4084SOL    HW223889   0.417   3.860   4.966  0.2005  2.2216 -0.1919
 4085SOL     OW23890   3.230   0.592   7.553 -0.3234  0.4333 -0.3169
 4085SOL    HW123891   3.300   0.563   7.495  0.5341  1.5295  0.1829
 4085SOL    HW223892   3.176   0.516   7.574  0.2181  0.5419  1.4234
 4086SOL     OW23893   3.903   1.940   5.133 -0.4088 -0.1861  0.2144
 4086SOL    HW123894   3.892   1.893   5.216  2.1819  1.1736  1.3289
 4086SOL    HW223895   3.955   1.877   5.084 -0.4877 -1.5617  1.9097
 4087SOL     OW23896   4.545   4.083   8.145  0.8041  0.3042  0.4769
 4087SOL    HW123897   4.622   4.027   8.156  0.0817 -0.4088  1.8620
 4087SOL    HW223898   4.583   4.170   8.141  1.6107 -0.1193 -1.0364
 4088SOL     OW23899   3.224   3.401   4.735 -0.4411  0.7333  0.5470
 4088SOL    HW123900   3.166   3.372   4.806 -1.1486  2.0761  0.5141
 4088SOL    HW223901   3.183   3.369   4.655 -1.7313 -0.0488  1.5186
 4089SOL     OW23902   2.875   1.680  14.691 -0.2877  0.0623  0.6448
 4089SOL    HW123903   2.860   1.773  14.710 -1.0279  0.5645 -2.4572
 4089SOL    HW223904   2.969   1.677  14.673 -0.8572 -1.7678 -1.8502
 4090SOL     OW23905   3.958   3.056   5.616  0.0262  0.5826 -0.0341
 4090SOL    HW123906   3.919   2.980   5.573  0.9569 -0.6129  1.2111
 4090SOL    HW223907   4.014   3.014   5.682  0.7610 -1.1819 -1.7772
 4091SOL     OW23908   2.722   1.903  16.276  0.3398  0.2516  0.1614
 4091SOL    HW123909   2.728   1.949  16.192 -0.7836 -0.4515 -0.3097
 4091SOL    HW223910   2.683   1.971  16.333  0.1705 -1.5016  2.1388
 4092SOL     OW23911   4.089   0.722  16.777  0.1177  0.3793  0.2744
 4092SOL    HW123912   4.091   0.631  16.807  0.3471 -0.1215 -1.2386
 4092SOL    HW223913   4.118   0.769  16.855 -0.6836 -1.1226  1.4792
 4093SOL     OW23914   4.556   2.296   7.218 -0.6683  0.1702 -0.1742
 4093SOL    HW123915   4.610   2.241   7.275  1.7200  2.1646 -0.4855
 4093SOL    HW223916   4.488   2.233   7.195 -2.0823  1.6816 -0.1698
 4094SOL     OW23917   0.578   2.868   2.761 -0.3258  0.1661 -0.6131
 4094SOL    HW123918   0.504   2.824   2.802 -0.8856 -0.0088 -1.8221
 4094SOL    HW223919   0.650   2.832   2.814 -0.3361 -0.7060 -1.1917
 4095SOL     OW23920   4.054   1.351   6.039  0.1720  0.2696 -0.4211
 4095SOL    HW123921   4.095   1.360   5.954 -0.7773  1.6302 -0.7231
 4095SOL    HW223922   4.003   1.432   6.048 -0.3114 -0.1432  0.6301
 4096SOL     OW23923   4.089   1.407   4.896  0.0052  0.1116  0.3675
 4096SOL    HW123924   4.046   1.406   4.982 -1.4511  1.6966 -0.3572
 4096SOL    HW223925   4.010   1.419   4.844  0.9806 -0.2413 -1.2043
 4097SOL     OW23926   0.167   4.348   4.182 -0.3815 -0.0667  0.2128
 4097SOL    HW123927   0.227   4.421   4.194  0.4558 -0.4391 -1.6990
 4097SOL    HW223928   0.224   4.281   4.144 -1.2318 -0.4563 -0.3947
 4098SOL     OW23929   0.932   1.771   4.520  0.3630 -0.4089  0.0191
 4098SOL    HW123930   0.978   1.740   4.442 -1.1178  0.9980 -1.4359
 4098SOL    HW223931   0.986   1.746   4.595  1.1668  2.5593  0.4247
 4099SOL     OW23932   0.602   0.139  17.346 -0.5579  0.0540  0.2190
 4099SOL    HW123933   0.521   0.094  17.323  0.3177 -1.4275  0.0256
 4099SOL    HW223934   0.631   0.183  17.265 -1.4778 -0.1030 -0.2000
 4100SOL     OW23935   1.249   3.569  16.244  0.2613  0.0175  0.4084
 4100SOL    HW123936   1.208   3.531  16.166  0.2391  1.7566 -0.4359
 4100SOL    HW223937   1.342   3.575  16.223  0.1041 -0.0817 -0.3213
 4101SOL     OW23938   2.170   3.319   0.538  0.2479 -0.0239 -0.2596
 4101SOL    HW123939   2.226   3.337   0.614 -0.9712 -0.3169  0.7032
 4101SOL    HW223940   2.131   3.235   0.562  0.4439  0.5980  2.2258
 4102SOL     OW23941   4.674   1.395   4.656 -0.4662 -0.1006  0.0168
 4102SOL    HW123942   4.704   1.353   4.576 -0.5364  0.9015 -0.5291
 4102SOL    HW223943   4.630   1.468   4.612 -2.2381  0.2472  2.3491
 4103SOL     OW23944   4.201   1.611   8.832 -0.3034  0.1575 -0.0268
 4103SOL    HW123945   4.252   1.680   8.873 -1.2146  2.0623 -2.1082
 4103SOL    HW223946   4.126   1.601   8.890 -1.1207 -1.4029 -1.3317
 4104SOL     OW23947   3.630   2.668  13.528  0.2553  0.3310 -0.0915
 4104SOL    HW123948   3.623   2.760  13.502  0.0137 -0.3083 -2.2647
 4104SOL    HW223949   3.609   2.674  13.621 -1.6916 -1.1503 -0.4262
 4105SOL     OW23950   0.212   2.200   1.694  0.0381  0.1640  0.4738
 4105SOL    HW123951   0.179   2.267   1.636 -1.0771 -2.1472 -1.5503
 4105SOL    HW223952   0.176   2.126   1.646 -0.4320  1.2794 -0.8655
 4106SOL     OW23953   2.997   0.979   1.917  0.0028  0.3976 -0.2989
 4106SOL    HW123954   3.078   0.971   1.867 -0.6297 -0.7139 -1.1355
 4106SOL    HW223955   3.003   1.073   1.935  0.3434  0.3350 -0.0880
 4107SOL     OW23956   3.292   0.882   8.120  0.7087  0.1170 -0.1091
 4107SOL    HW123957   3.293   0.805   8.063  0.2362  1.1920 -1.6054
 4107SOL    HW223958   3.381   0.911   8.101  0.4238 -0.2879 -2.0849
 4108SOL     OW23959   1.092   1.455   3.491 -0.4136 -0.2243 -0.2512
 4108SOL    HW123960   1.097   1.537   3.541  0.4310 -0.5326  0.1671
 4108SOL    HW223961   1.121   1.392   3.558 -1.8570 -2.4021 -1.6827
 4109SOL     OW23962   3.619   2.634  14.800 -0.0196  0.8863 -0.1242
 4109SOL    HW123963   3.675   2.684  14.859 -0.4733  0.9909  0.2156
 4109SOL    HW223964   3.542   2.690  14.792 -1.1527 -0.8047 -1.0642
 4110SOL     OW23965   0.362   3.661   5.912  0.1955  0.1275 -0.1361
 4110SOL    HW123966   0.409   3.606   5.848 -1.2519 -1.8585  0.5114
 4110SOL    HW223967   0.383   3.748   5.879  0.2137  0.8375  1.7583
 4111SOL     OW23968   3.378   4.259  15.034 -0.5576 -0.3033 -0.2751
 4111SOL    HW123969   3.462   4.214  15.021 -0.7687 -0.5898 -0.6408
 4111SOL    HW223970   3.365   4.300  14.948  0.0732  1.5009  0.4877
 4112SOL     OW23971   0.883   4.423   7.016 -0.7198 -0.2774 -0.8484
 4112SOL    HW123972   0.840   4.369   7.082  1.6738  1.5753  2.2447
 4112SOL    HW223973   0.825   4.420   6.940 -1.2028 -0.9503 -0.4480
 4113SOL     OW23974   0.968   2.965   5.350  0.6935 -0.0541 -0.0809
 4113SOL    HW123975   0.877   2.984   5.328  0.9028  1.4712  0.3975
 4113SOL    HW223976   0.947   2.898   5.416 -2.3662  0.4522 -0.5642
 4114SOL     OW23977   2.516   2.946  11.968  0.5352  0.3410  0.0397
 4114SOL    HW123978   2.480   3.031  11.944  0.1271  0.9332  2.7190
 4114SOL    HW223979   2.597   2.969  12.013 -0.0041 -0.0472  1.2297
 4115SOL     OW23980   1.546   1.127   2.701 -0.3041 -0.9844  0.2865
 4115SOL    HW123981   1.636   1.151   2.679 -1.1216  0.2400 -1.7588
 4115SOL    HW223982   1.520   1.212   2.736 -1.7836 -2.8257  3.6567
 4116SOL     OW23983   3.475   4.529   0.534  0.4931 -0.2437  0.2688
 4116SOL    HW123984   3.467   4.457   0.597 -0.0114  0.3240  0.8536
 4116SOL    HW223985   3.529   4.493   0.463  2.8116  1.0259  1.3646
 4117SOL     OW23986   0.472   0.898   5.733  0.1936 -0.0976  0.1839
 4117SOL    HW123987   0.479   0.863   5.644  2.1444  2.2120 -0.5564
 4117SOL    HW223988   0.560   0.921   5.763  0.4106  0.7251 -1.0897
 4118SOL     OW23989   2.084   3.635   6.648  0.1420  0.0153 -0.1571
 4118SOL    HW123990   2.084   3.628   6.743  1.9408 -1.2814 -0.2492
 4118SOL    HW223991   2.014   3.696   6.624  0.5495  0.3882 -0.4062
 4119SOL     OW23992   3.878   2.152   2.732  0.2194  0.0629  0.0488
 4119SOL    HW123993   3.967   2.186   2.737 -0.2878  1.7365 -2.3735
 4119SOL    HW223994   3.889   2.059   2.750 -0.8036 -0.4465 -1.9336
 4120SOL     OW23995   4.287   3.403   7.591  0.2528  0.0338 -0.2118
 4120SOL    HW123996   4.232   3.479   7.611 -1.5916 -0.6767 -2.4652
 4120SOL    HW223997   4.344   3.424   7.517  2.2536 -0.8711  1.0717
 4121SOL     OW23998   3.975   3.461  10.594  0.0257  0.2234 -0.7603
 4121SOL    HW123999   3.920   3.537  10.612 -0.6512 -0.0494 -1.6800
 4121SOL    HW224000   4.050   3.468  10.652 -1.2891  1.6044  0.7478
 4122SOL     OW24001   3.823   3.081  16.952  0.0878  0.2247 -0.5876
 4122SOL    HW124002   3.877   3.160  16.956 -0.0378  0.2456  0.9169
 4122SOL    HW224003   3.750   3.102  17.011 -0.2453  2.1710 -1.7052
 4123SOL     OW24004   3.508   3.319  12.833  0.1797  0.7001  0.1445
 4123SOL    HW124005   3.564   3.386  12.794 -1.4773  0.4340 -2.7059
 4123SOL    HW224006   3.456   3.313  12.753 -0.7906  0.7921  0.7764
 4124SOL     OW24007   1.685   0.223   1.344 -0.2077  0.1211  0.1589
 4124SOL    HW124008   1.652   0.187   1.261  0.4013  0.2087 -0.1155
 4124SOL    HW224009   1.628   0.178   1.407  1.5712  1.1181  2.4274
 4125SOL     OW24010   1.917   2.384  13.175 -0.1866 -0.3807  0.7410
 4125SOL    HW124011   1.977   2.347  13.111  0.3508 -0.2471  1.1628
 4125SOL    HW224012   1.945   2.476  13.177  0.0295 -0.4509  0.9247
 4126SOL     OW24013   2.405   0.383   7.002 -0.1746 -0.0093  0.6288
 4126SOL    HW124014   2.347   0.438   6.950  0.0673 -0.0580  0.3082
 4126SOL    HW224015   2.342   0.360   7.071  1.4986 -1.7036  1.5809
 4127SOL     OW24016   3.417   1.656   3.166  0.3466  0.3785  0.2719
 4127SOL    HW124017   3.416   1.690   3.255  1.1767 -0.3864  0.5656
 4127SOL    HW224018   3.485   1.707   3.122  1.5992 -0.3559  1.3752
 4128SOL     OW24019   4.298   2.260   1.750 -0.1779  0.7091  0.6475
 4128SOL    HW124020   4.290   2.262   1.654  0.6037 -1.8069  0.5172
 4128SOL    HW224021   4.258   2.337   1.790  0.8863  1.6935 -0.1698
 4129SOL     OW24022   0.088   1.705   2.727 -0.6147 -0.6364  0.1461
 4129SOL    HW124023   0.028   1.742   2.791  0.8716  0.8680  0.6449
 4129SOL    HW224024   0.168   1.714   2.779 -1.6714 -0.3549  1.7245
 4130SOL     OW24025   2.482   0.357   3.056  0.3174 -0.2217  0.4267
 4130SOL    HW124026   2.426   0.280   3.065 -1.0208  0.7276  0.1916
 4130SOL    HW224027   2.439   0.394   2.979  0.8063  1.0395  0.7445
 4131SOL     OW24028   2.496   4.675   6.480  0.3984 -0.6882 -0.1946
 4131SOL    HW124029   2.504   4.582   6.502  0.6808 -0.3043  1.3105
 4131SOL    HW224030   2.517   4.669   6.386 -0.0813 -1.4780 -0.2534
 4132SOL     OW24031   3.289   0.052   6.165  0.0333  0.0593  0.4731
 4132SOL    HW124032   3.369   0.082   6.208  0.3032  1.3288 -0.8713
 4132SOL    HW224033   3.283   0.113   6.091  1.5913 -0.1992  0.1320
 4133SOL     OW24034   1.165   0.570   5.363 -0.3128  0.1383 -0.3315
 4133SOL    HW124035   1.164   0.504   5.293 -2.1955 -0.4112  0.2204
 4133SOL    HW224036   1.137   0.647   5.313 -2.7510 -1.1875 -1.0042
 4134SOL     OW24037   4.700   0.410   6.653  0.2086 -0.0400  0.5172
 4134SOL    HW124038   4.690   0.480   6.718  0.1534  0.3619  0.0792
 4134SOL    HW224039   4.633   0.351   6.684  1.8700 -0.4696  3.3026
 4135SOL     OW24040   2.173   2.045   1.754 -0.1853 -0.1092  0.3293
 4135SOL    HW124041   2.216   1.989   1.819 -0.9989 -0.1047  0.8701
 4135SOL    HW224042   2.169   2.130   1.797 -0.2971  0.1415 -0.1864
 4136SOL     OW24043   1.867   2.146   7.284 -0.4167  0.3894  0.2943
 4136SOL    HW124044   1.899   2.118   7.199  0.0157  2.2974 -0.1621
 4136SOL    HW224045   1.773   2.142   7.267 -0.2508 -0.0007 -0.4867
 4137SOL     OW24046   0.313   1.753  13.199 -0.0857 -0.0463 -0.0247
 4137SOL    HW124047   0.303   1.781  13.290 -0.6549 -1.0905  0.2398
 4137SOL    HW224048   0.348   1.665  13.219 -1.5184 -0.8157 -0.9130
 4138SOL     OW24049   3.615   1.159   3.019 -0.2982 -0.5922 -0.3820
 4138SOL    HW124050   3.569   1.243   3.027 -0.3336 -0.4913 -1.6693
 4138SOL    HW224051   3.702   1.191   3.044 -1.1184  1.2574  0.1499
 4139SOL     OW24052   1.283   4.260   8.725  0.1404 -0.9247 -0.1088
 4139SOL    HW124053   1.337   4.304   8.660 -3.1727  0.3491 -1.9768
 4139SOL    HW224054   1.244   4.335   8.771 -0.1702 -0.5664 -0.9609
 4140SOL     OW24055   1.159   0.851   4.072 -0.4541  0.3342 -0.4122
 4140SOL    HW124056   1.206   0.775   4.039 -1.3601 -0.7083  0.7171
 4140SOL    HW224057   1.225   0.919   4.054 -0.3367  0.5507  0.7911
 4141SOL     OW24058   2.958   2.397  13.982 -0.2313 -0.2301  1.0278
 4141SOL    HW124059   3.012   2.348  14.044  0.1797  0.0714  0.9063
 4141SOL    HW224060   2.992   2.366  13.898 -0.9128 -2.4326  1.5409
 4142SOL     OW24061   4.441   1.477   5.498  0.4034  0.2148  0.0275
 4142SOL    HW124062   4.466   1.552   5.551  2.0295  0.5680 -1.2471
 4142SOL    HW224063   4.359   1.515   5.467  0.1569 -1.1981 -1.0397
 4143SOL     OW24064   1.579   3.004  12.807 -0.1690 -0.5250  0.7360
 4143SOL    HW124065   1.599   3.027  12.898 -0.9480 -0.4424  0.8853
 4143SOL    HW224066   1.629   2.923  12.801 -0.2397 -0.3791 -1.5841
 4144SOL     OW24067   0.062   2.872   3.097  0.6242 -0.1641 -0.4262
 4144SOL    HW124068   0.099   2.958   3.075 -3.0336  1.1621 -1.3355
 4144SOL    HW224069   0.095   2.811   3.031 -0.4497  0.1286 -1.2409
 4145SOL     OW24070   0.910   3.723   5.205  0.3758  0.6736 -0.6504
 4145SOL    HW124071   0.863   3.739   5.286  0.3712 -0.0485 -0.5133
 4145SOL    HW224072   0.915   3.811   5.166  0.0893  2.0342  2.3797
 4146SOL     OW24073   2.490   2.710   7.473  0.1412 -0.0423  0.2523
 4146SOL    HW124074   2.408   2.666   7.493  0.6526 -0.6724  1.0110
 4146SOL    HW224075   2.456   2.789   7.431  0.1788 -0.5179 -0.6700
 4147SOL     OW24076   1.503   4.399   1.662  0.2690 -0.2294  0.0670
 4147SOL    HW124077   1.489   4.466   1.596 -1.5276 -0.5119  0.1567
 4147SOL    HW224078   1.440   4.336   1.625  1.2571 -0.3960 -1.3084
 4148SOL     OW24079   3.615   0.548  10.035 -0.3834  0.6255 -0.0329
 4148SOL    HW124080   3.627   0.631   9.988  2.5676  0.4682  0.4360
 4148SOL    HW224081   3.548   0.571  10.099  0.0409 -1.3436  1.1004
 4149SOL     OW24082   2.210   3.800   8.561 -0.3085 -0.3266  0.3683
 4149SOL    HW124083   2.161   3.876   8.532  1.7146  0.1399 -1.7862
 4149SOL    HW224084   2.301   3.818   8.540 -0.8809  2.0873  0.0243
 4150SOL     OW24085   4.316   4.017   7.095  0.5926 -0.0438  0.2954
 4150SOL    HW124086   4.267   4.097   7.112 -1.7808 -1.5154  0.3542
 4150SOL    HW224087   4.375   4.053   7.028 -0.1031 -1.8673 -1.2971
 4151SOL     OW24088   2.278   1.685   9.263 -0.3400 -0.1749  0.7309
 4151SOL    HW124089   2.226   1.665   9.185  1.7727 -2.0994 -0.2143
 4151SOL    HW224090   2.247   1.618   9.324  2.2812 -1.1346  1.0027
 4152SOL     OW24091   0.736   0.375   6.483  0.6628 -0.9696 -0.1167
 4152SOL    HW124092   0.688   0.353   6.403 -1.6965  1.6617  0.5697
 4152SOL    HW224093   0.789   0.454   6.468 -0.1476  0.0658  2.5200
 4153SOL     OW24094   1.150   3.045   5.511  0.0809 -0.0350 -0.2246
 4153SOL    HW124095   1.171   3.117   5.451  1.3827  1.0218  1.4952
 4153SOL    HW224096   1.079   3.003   5.463 -0.4676  2.4925 -1.6575
 4154SOL     OW24097   2.562   1.050  12.789 -0.6202 -0.5743 -0.1537
 4154SOL    HW124098   2.524   0.974  12.833 -2.1280  0.5165  0.4419
 4154SOL    HW224099   2.656   1.039  12.805 -0.7353 -0.1560  0.8245
 4155SOL     OW24100   4.246   3.657   5.431 -0.0271 -0.3472  0.7566
 4155SOL    HW124101   4.163   3.631   5.472 -0.6903  2.4243  1.1861
 4155SOL    HW224102   4.231   3.748   5.403  2.7389  0.1130  0.7834
 4156SOL     OW24103   0.351   0.146   5.501 -0.8557  0.2610  0.0801
 4156SOL    HW124104   0.286   0.106   5.559  0.3308 -1.8243 -0.0628
 4156SOL    HW224105   0.302   0.181   5.427  0.5924  1.4646 -0.3156
 4157SOL     OW24106   3.658   4.286   7.199  0.5175  0.4728  0.0790
 4157SOL    HW124107   3.613   4.317   7.121 -1.6787 -0.2012  1.0673
 4157SOL    HW224108   3.619   4.199   7.209  1.9772  0.0085  1.7100
 4158SOL     OW24109   0.975   4.697   4.024 -0.0316  0.7877  0.1310
 4158SOL    HW124110   0.882   4.719   4.030 -0.1628  0.6644 -1.4784
 4158SOL    HW224111   0.992   4.693   4.118 -0.0630  0.1519  0.1092
 4159SOL     OW24112   1.017   4.266  13.856  0.7147  0.3163  0.7930
 4159SOL    HW124113   1.046   4.319  13.930  0.4961 -1.3000  2.0530
 4159SOL    HW224114   1.023   4.324  13.781 -0.1612 -0.4133  0.1567
 4160SOL     OW24115   2.577   0.571  15.433  0.2593 -0.4583  0.1562
 4160SOL    HW124116   2.643   0.579  15.365  0.1466  2.2623  0.3825
 4160SOL    HW224117   2.519   0.500  15.405  0.5671 -1.0654  1.0566
 4161SOL     OW24118   2.805   1.316   5.863  0.3250 -0.8004  0.3022
 4161SOL    HW124119   2.786   1.384   5.798  0.5018 -1.0520 -0.0169
 4161SOL    HW224120   2.839   1.259   5.793 -0.7639 -1.1700  0.0736
 4162SOL     OW24121   4.220   2.914   0.041  0.3430  0.4508  0.2006
 4162SOL    HW124122   4.252   2.827   0.061  1.4944  0.8776  0.1939
 4162SOL    HW224123   4.179   2.893  17.698  2.2348 -0.0442 -0.5915
 4163SOL     OW24124   3.729   4.098   7.884  0.1792 -0.6339 -0.6666
 4163SOL    HW124125   3.672   4.023   7.872  0.9331 -1.3427  0.0968
 4163SOL    HW224126   3.713   4.109   7.978 -1.9904  0.1502 -1.1422
 4164SOL     OW24127   3.651   3.577   4.981 -0.2861 -0.1863 -0.4841
 4164SOL    HW124128   3.567   3.531   4.979 -0.0002 -0.8279  1.9629
 4164SOL    HW224129   3.654   3.626   4.899  0.8208  0.2918 -0.1615
 4165SOL     OW24130   3.612   2.702   8.507 -0.0563  0.4868  0.6509
 4165SOL    HW124131   3.581   2.677   8.594  0.4158 -1.5271  0.2552
 4165SOL    HW224132   3.531   2.714   8.458  0.1430  0.3516  0.2897
 4166SOL     OW24133   2.690   2.831   5.876  0.1272 -0.1419  0.5443
 4166SOL    HW124134   2.660   2.922   5.877 -2.1997 -0.9281  2.2112
 4166SOL    HW224135   2.774   2.830   5.831  1.4898 -0.6062  3.1150
 4167SOL     OW24136   0.993   2.689   8.314 -0.4743  0.2666  0.0881
 4167SOL    HW124137   0.999   2.679   8.409  1.3897  1.8943  0.1367
 4167SOL    HW224138   0.898   2.690   8.303 -0.6263  0.7393  1.4881
 4168SOL     OW24139   3.459   2.446  11.509  0.0510  0.7468 -0.0960
 4168SOL    HW124140   3.404   2.478  11.580 -0.7533  0.1931 -0.4812
 4168SOL    HW224141   3.448   2.518  11.446 -1.7378 -0.1499 -0.8056
 4169SOL     OW24142   2.023   0.494   6.267  0.2202  0.0369  0.1481
 4169SOL    HW124143   2.007   0.587   6.286  2.2454  1.0496 -3.0892
 4169SOL    HW224144   2.104   0.478   6.316  0.8576  2.1062 -0.2366
 4170SOL     OW24145   2.542   4.428  16.576  0.5220  0.7890 -0.4455
 4170SOL    HW124146   2.589   4.356  16.618 -1.4408 -0.2808 -0.0914
 4170SOL    HW224147   2.590   4.508  16.594  1.1126  0.0547  1.2305
 4171SOL     OW24148   4.197   3.507  16.822 -0.0304 -0.3480  0.3538
 4171SOL    HW124149   4.152   3.519  16.905 -0.7527  2.8258 -0.4955
 4171SOL    HW224150   4.123   3.480  16.768 -0.0044  0.2428  0.0255
 4172SOL     OW24151   2.585   3.094   2.949  0.0502  0.3538  0.7011
 4172SOL    HW124152   2.618   3.113   3.037  2.6158  4.6665 -1.1557
 4172SOL    HW224153   2.510   3.039   2.972  1.2512 -1.9721 -0.8910
 4173SOL     OW24154   4.388   3.038   3.182 -0.1383  0.1461 -0.2384
 4173SOL    HW124155   4.444   2.973   3.140  1.1069 -0.4181  2.2763
 4173SOL    HW224156   4.323   3.073   3.121 -1.2409  1.0805  1.4853
 4174SOL     OW24157   4.199   3.469  14.798 -0.4202  0.1359 -0.1178
 4174SOL    HW124158   4.286   3.480  14.761 -1.0510  1.9900 -1.0741
 4174SOL    HW224159   4.150   3.445  14.719 -3.1996  0.6568  1.4576
 4175SOL     OW24160   0.985   2.124   7.856 -0.1787  0.1991 -0.1189
 4175SOL    HW124161   0.908   2.073   7.879 -0.2972 -0.3683 -1.7648
 4175SOL    HW224162   0.981   2.125   7.760  1.9395 -0.1295 -0.2186
 4176SOL     OW24163   3.549   3.090   1.312  0.3741  0.5491  0.8043
 4176SOL    HW124164   3.568   3.014   1.257 -3.0214 -1.0940  1.9368
 4176SOL    HW224165   3.553   3.049   1.398 -1.6605  0.8305  1.0288
 4177SOL     OW24166   2.528   1.489  16.505 -0.1926 -0.2565  0.1067
 4177SOL    HW124167   2.565   1.401  16.496  1.9469  0.4936  1.5136
 4177SOL    HW224168   2.573   1.535  16.434 -1.1145  2.6735  1.4154
 4178SOL     OW24169   4.383   1.296  17.692 -0.5362  0.2476 -0.1061
 4178SOL    HW124170   4.328   1.233  17.646  0.5912 -0.4739 -0.4516
 4178SOL    HW224171   4.313   1.346  17.734 -1.1108 -1.6366  1.1782
 4179SOL     OW24172   1.254   4.113   3.743 -0.2064 -0.6692  0.1543
 4179SOL    HW124173   1.314   4.099   3.815  0.2620  0.7888  0.0570
 4179SOL    HW224174   1.174   4.080   3.785 -0.0215 -0.3473  0.7642
 4180SOL     OW24175   4.074   3.851   6.847  0.5416 -0.7298 -0.1958
 4180SOL    HW124176   4.132   3.885   6.779 -3.7646  0.8939 -3.0847
 4180SOL    HW224177   4.005   3.917   6.854  0.8376 -0.4416 -0.0047
 4181SOL     OW24178   2.477   3.384   6.439 -0.4451 -0.0477  0.5289
 4181SOL    HW124179   2.539   3.312   6.433 -1.4449 -1.0208  1.7959
 4181SOL    HW224180   2.404   3.339   6.483  0.6172 -2.1522  0.1695
 4182SOL     OW24181   0.181   4.268  12.710  0.1195  0.0981  0.1785
 4182SOL    HW124182   0.097   4.239  12.745  1.1049 -2.0062  0.7893
 4182SOL    HW224183   0.162   4.353  12.670 -1.4694  0.1155  0.9672
 4183SOL     OW24184   3.632   2.546   4.128  0.4325 -0.3841  0.3026
 4183SOL    HW124185   3.709   2.518   4.078 -0.3665 -2.0178 -0.0171
 4183SOL    HW224186   3.607   2.628   4.086  1.8349 -0.3082 -0.3650
 4184SOL     OW24187   0.005   4.294   4.399 -0.0715 -0.3939 -0.7638
 4184SOL    HW124188   0.054   4.315   4.479 -1.5908  1.5510 -0.3472
 4184SOL    HW224189   0.072   4.317   4.335  1.5932  2.1048  1.8763
 4185SOL     OW24190   2.528   1.346   8.088  0.8468  0.2115  0.2445
 4185SOL    HW124191   2.621   1.326   8.098  0.7757 -0.0776  0.3420
 4185SOL    HW224192   2.525   1.390   8.003 -0.0025  0.3951  0.3705
 4186SOL     OW24193   3.314   1.791  10.584 -0.8598 -0.3385 -0.1631
 4186SOL    HW124194   3.245   1.839  10.538 -0.3686  0.8073  0.2747
 4186SOL    HW224195   3.286   1.700  10.593  0.8528 -0.9961 -1.5650
 4187SOL     OW24196   1.494   0.898  12.412  0.0417 -0.0492 -0.0699
 4187SOL    HW124197   1.410   0.923  12.373 -0.1382 -1.1021 -0.3716
 4187SOL    HW224198   1.456   0.870  12.496 -1.1252 -2.3767 -1.3736
 4188SOL     OW24199   1.044   1.388  12.378 -0.1117 -0.6134  0.6465
 4188SOL    HW124200   1.029   1.309  12.430  1.6772 -1.0194  0.5489
 4188SOL    HW224201   1.106   1.437  12.432 -1.7506  2.1488  0.0358
 4189SOL     OW24202   0.418   0.046   6.050 -0.1833 -0.1086  0.1910
 4189SOL    HW124203   0.329   0.077   6.067 -0.3494 -1.2556  1.3999
 4189SOL    HW224204   0.424   4.694   6.089  0.9833 -0.6810 -1.2604
 4190SOL     OW24205   1.117   0.943   4.697  0.1381  0.5724 -0.1016
 4190SOL    HW124206   1.129   0.851   4.671  2.1163  0.7853  0.1158
 4190SOL    HW224207   1.125   0.990   4.614  2.1290  1.1431  0.4330
 4191SOL     OW24208   3.579   3.170   5.515  0.0608 -0.2096  0.3348
 4191SOL    HW124209   3.573   3.202   5.425 -0.7320 -1.0676  0.0830
 4191SOL    HW224210   3.580   3.075   5.504  2.6412 -0.0569 -0.7114
 4192SOL     OW24211   3.732   4.537   0.706 -0.0163  0.0036 -0.3231
 4192SOL    HW124212   3.649   4.557   0.663 -0.6714 -0.0271  0.9566
 4192SOL    HW224213   3.706   4.490   0.785  1.6639 -0.2881  0.0488
 4193SOL     OW24214   4.114   1.485  16.265  0.4430  0.1222  0.1800
 4193SOL    HW124215   4.134   1.569  16.223  2.4747  0.8287  2.5627
 4193SOL    HW224216   4.020   1.500  16.276  0.0084 -0.8680 -2.3018
 4194SOL     OW24217   0.972   1.890   4.947  0.2146 -0.1345  0.6513
 4194SOL    HW124218   0.901   1.920   4.890  0.8378  0.0035 -0.0490
 4194SOL    HW224219   1.001   1.976   4.977 -0.4253 -0.0296  0.9884
 4195SOL     OW24220   1.896   0.272   4.588 -0.1400  0.6071  0.1835
 4195SOL    HW124221   1.979   0.279   4.540 -0.2034  0.4385  0.0476
 4195SOL    HW224222   1.860   0.193   4.548 -0.0096  0.1662  0.9408
 4196SOL     OW24223   2.978   1.050   6.267 -0.3273 -0.2944 -0.8986
 4196SOL    HW124224   3.029   1.036   6.187  2.4518  1.5557  0.5565
 4196SOL    HW224225   2.977   1.146   6.271  1.8122 -0.2957 -0.6656
 4197SOL     OW24226   1.540   0.259   5.801  0.8383  0.0824  0.4530
 4197SOL    HW124227   1.513   0.344   5.833  2.1095 -0.0960  2.0058
 4197SOL    HW224228   1.530   0.204   5.879  2.6432  0.2267  0.7791
 4198SOL     OW24229   3.689   0.847   1.731 -0.3026 -0.3468  0.2251
 4198SOL    HW124230   3.744   0.914   1.689 -0.9674  0.6544  0.9527
 4198SOL    HW224231   3.720   0.764   1.695  1.4676 -0.9042  3.0501
 4199SOL     OW24232   1.057   3.185   4.183  0.1739  0.2630  0.6250
 4199SOL    HW124233   1.125   3.145   4.236  1.0531  2.1333  0.9319
 4199SOL    HW224234   0.987   3.172   4.247  0.1732  0.7010  0.7159
 4200SOL     OW24235   2.973   1.181   7.688 -0.7010  0.5706  0.2899
 4200SOL    HW124236   3.067   1.161   7.687 -0.9042 -0.4907  1.9150
 4200SOL    HW224237   2.942   1.122   7.620  0.0858  1.1963 -0.6262
 4201SOL     OW24238   4.690   2.372  17.417  0.7924  0.2782 -0.2199
 4201SOL    HW124239   4.639   2.292  17.405  3.2034 -1.2392 -0.5546
 4201SOL    HW224240   4.691   2.389  17.322  0.8840  3.4580  0.3681
 4202SOL     OW24241   2.965   0.071  13.706 -0.1179 -0.0017 -0.0401
 4202SOL    HW124242   3.005   0.052  13.621  2.1404  1.9756  0.5808
 4202SOL    HW224243   2.938   4.720  13.737  0.2798 -0.5718 -1.2983
 4203SOL     OW24244   3.057   4.041   6.212  0.1449 -0.0148 -0.1071
 4203SOL    HW124245   3.028   4.013   6.125 -0.7745 -2.5609  1.0156
 4203SOL    HW224246   2.970   4.063   6.245  0.3516  0.0502  0.3943
 4204SOL     OW24247   0.151   3.091   8.718  0.0805  0.3508  0.1224
 4204SOL    HW124248   0.110   3.128   8.640 -3.2477 -0.7497  1.3652
 4204SOL    HW224249   0.100   3.140   8.782  0.4323  0.8727 -0.0007
 4205SOL     OW24250   2.233   1.469  13.603  0.0286  0.3191 -0.1498
 4205SOL    HW124251   2.319   1.505  13.625 -1.0288  2.0766  1.1741
 4205SOL    HW224252   2.186   1.553  13.608 -0.5881  0.0253 -1.0671
 4206SOL     OW24253   3.154   3.025   4.920 -0.0638  0.1975 -0.1131
 4206SOL    HW124254   3.180   3.023   4.828 -2.8837  2.6594 -0.9893
 4206SOL    HW224255   3.173   3.117   4.938 -0.9543  0.2667  0.4635
 4207SOL     OW24256   1.976   2.223  10.320 -0.4942 -0.6446 -0.0716
 4207SOL    HW124257   2.053   2.273  10.347 -0.2486 -1.1617  0.1988
 4207SOL    HW224258   1.958   2.277  10.243 -2.4705 -0.4103  0.5833
 4208SOL     OW24259   0.799   4.577   3.186  0.2264 -0.0180 -0.7070
 4208SOL    HW124260   0.781   4.660   3.144 -0.5741 -0.1031 -0.5299
 4208SOL    HW224261   0.775   4.513   3.120  0.3992  1.1472 -1.8869
 4209SOL     OW24262   1.289   1.121   7.143  0.4910 -0.4957  0.0327
 4209SOL    HW124263   1.378   1.149   7.123  0.1885  1.6277  1.6088
 4209SOL    HW224264   1.257   1.128   7.053  1.7495 -1.5780 -0.5007
 4210SOL     OW24265   2.836   3.242   9.388  0.5381  0.6964  0.7564
 4210SOL    HW124266   2.858   3.228   9.295  1.2225 -0.6572  1.1292
 4210SOL    HW224267   2.741   3.229   9.389  0.8404 -1.3500  1.9680
 4211SOL     OW24268   4.432   2.837   1.299 -0.0004  0.1655 -0.1170
 4211SOL    HW124269   4.361   2.828   1.362  1.0412 -0.0966  1.0200
 4211SOL    HW224270   4.507   2.860   1.354  0.3216 -0.1859 -0.4094
 4212SOL     OW24271   3.026   4.120   7.016  0.0288 -0.1087 -0.6630
 4212SOL    HW124272   3.001   4.171   6.939  0.3748  1.3801  0.2103
 4212SOL    HW224273   2.960   4.050   7.017  2.6368 -2.5509  0.7552
 4213SOL     OW24274   0.975   1.640   8.277  0.4482 -0.3841 -0.3021
 4213SOL    HW124275   0.943   1.713   8.330 -0.6494 -0.6857 -0.5488
 4213SOL    HW224276   0.985   1.571   8.342 -0.5104 -0.2174  0.0217
 4214SOL     OW24277   0.022   4.023  12.326  0.1459 -1.1336 -0.4794
 4214SOL    HW124278   0.087   3.989  12.387  0.8736 -1.1469 -1.2573
 4214SOL    HW224279   4.689   3.961  12.352  1.2097 -2.8268 -1.7115
 4215SOL     OW24280   1.081   1.534   3.114 -0.0650 -0.4698 -0.1025
 4215SOL    HW124281   1.036   1.468   3.166  2.2956 -1.8351  0.2404
 4215SOL    HW224282   1.080   1.604   3.180 -0.0754  0.3910 -1.0298
 4216SOL     OW24283   0.879   0.286  10.747  0.2968 -0.3619 -0.1379
 4216SOL    HW124284   0.847   0.296  10.836  0.1960  0.4399 -0.2578
 4216SOL    HW224285   0.973   0.276  10.760 -0.0045 -1.8110  0.8191
 4217SOL     OW24286   0.189   3.133  15.568 -0.1495  1.1243 -0.4120
 4217SOL    HW124287   0.158   3.224  15.561 -0.4305  1.1286  0.8625
 4217SOL    HW224288   0.120   3.091  15.619 -0.6482  0.9377 -1.2422
 4218SOL     OW24289   2.481   4.454  15.010  0.2524 -0.1810 -0.2807
 4218SOL    HW124290   2.435   4.529  14.972 -2.4332 -0.6677  1.9610
 4218SOL    HW224291   2.536   4.496  15.076  0.8197 -0.5799 -0.5064
 4219SOL     OW24292   0.625   1.465  17.077 -0.0810  0.3170  0.3251
 4219SOL    HW124293   0.720   1.466  17.069 -0.0603  0.5700  0.6190
 4219SOL    HW224294   0.619   1.401  17.147 -3.9452 -0.5889 -0.8120
 4220SOL     OW24295   3.681   2.969  11.916  0.0590 -0.0258  0.5198
 4220SOL    HW124296   3.645   2.964  11.827  0.3012 -0.2523  0.4340
 4220SOL    HW224297   3.760   3.023  11.909  0.2557 -0.2276  1.1503
 4221SOL     OW24298   1.392   0.401  11.554  0.2144 -0.0886 -0.1589
 4221SOL    HW124299   1.395   0.490  11.590 -0.8263  0.3652 -1.1926
 4221SOL    HW224300   1.441   0.339  11.608 -1.5678  0.1630  1.7474
 4222SOL     OW24301   2.281   2.632   7.828  0.1212 -0.0865  0.3451
 4222SOL    HW124302   2.271   2.566   7.897  0.2872 -0.7993 -0.3100
 4222SOL    HW224303   2.282   2.709   7.884 -2.4511  0.0987  0.1409
 4223SOL     OW24304   4.127   3.628   2.234 -0.7240  0.0793  0.2860
 4223SOL    HW124305   4.171   3.578   2.165 -0.3361 -0.4846  0.9477
 4223SOL    HW224306   4.036   3.620   2.206 -0.5968  1.7252 -0.6262
 4224SOL     OW24307   0.174   4.463   3.559 -0.3191  0.0421  0.3087
 4224SOL    HW124308   0.218   4.427   3.636  0.3583  2.0211  0.8496
 4224SOL    HW224309   0.198   4.414   3.481  0.1147 -0.8324  0.9857
 4225SOL     OW24310   3.553   4.009   6.148  0.3046  0.1956 -0.0906
 4225SOL    HW124311   3.482   3.999   6.212 -0.7853 -2.6209 -1.7428
 4225SOL    HW224312   3.557   4.102   6.130 -2.4201  0.4798  0.7233
 4226SOL     OW24313   2.802   4.510   8.091 -0.1585  0.3787 -0.2456
 4226SOL    HW124314   2.845   4.568   8.154 -1.4541  1.9376 -0.8095
 4226SOL    HW224315   2.766   4.446   8.152  1.7814  0.2227  0.7577
 4227SOL     OW24316   2.902   2.663   3.049 -0.0402  0.2830  0.1639
 4227SOL    HW124317   2.838   2.623   2.991  0.7235  0.4683 -0.8011
 4227SOL    HW224318   2.909   2.757   3.032  2.7426 -0.1942 -1.2984
 4228SOL     OW24319   4.661   0.574   6.863  0.3682 -0.4776  0.2044
 4228SOL    HW124320   4.686   0.531   6.945  2.3245  0.5127  0.1399
 4228SOL    HW224321   4.568   0.595   6.875  0.8677  1.7556  0.1760
 4229SOL     OW24322   0.687   0.718  16.960  0.0763 -0.3225 -0.7961
 4229SOL    HW124323   0.768   0.764  16.937  0.5802 -0.7093  0.2025
 4229SOL    HW224324   0.661   0.762  17.040  0.1934 -0.1381 -0.8603
 4230SOL     OW24325   1.848   3.612   6.297  0.0979 -0.8311  0.3284
 4230SOL    HW124326   1.804   3.527   6.300  0.5936 -1.1303 -1.2449
 4230SOL    HW224327   1.942   3.597   6.308  0.1348  0.7463  2.2202
 4231SOL     OW24328   4.534   3.437   1.983 -0.4884  0.5271  0.5095
 4231SOL    HW124329   4.606   3.413   1.924 -3.7288 -1.6048 -2.6115
 4231SOL    HW224330   4.565   3.524   2.006  2.2415 -0.9724  2.4986
 4232SOL     OW24331   4.247   3.802   3.736  0.2132  0.3480 -0.0922
 4232SOL    HW124332   4.191   3.842   3.802  0.4717 -1.3120  1.1218
 4232SOL    HW224333   4.194   3.742   3.684 -0.5663  0.4211  0.6129
 4233SOL     OW24334   0.889   0.574   2.958  0.0050  0.1049  0.1046
 4233SOL    HW124335   0.974   0.539   2.932 -0.8115 -1.4328 -0.5511
 4233SOL    HW224336   0.889   0.657   2.911 -1.3610  0.1882  0.2494
 4234SOL     OW24337   1.494   3.566  11.913  0.2219  0.4895  0.1337
 4234SOL    HW124338   1.500   3.477  11.879  1.7690  0.4708  0.4214
 4234SOL    HW224339   1.538   3.556  11.998 -1.1693 -0.8076  0.6845
 4235SOL     OW24340   2.508   0.650   5.228  0.0600  0.6328  0.1914
 4235SOL    HW124341   2.481   0.692   5.146 -3.0575  0.5390  1.1782
 4235SOL    HW224342   2.465   0.565   5.216 -0.2568  0.5927  1.5886
 4236SOL     OW24343   3.041   1.689   7.070 -0.3485  0.2547 -0.5288
 4236SOL    HW124344   3.008   1.739   7.145 -1.0816 -2.4528  0.9517
 4236SOL    HW224345   2.999   1.740   7.001  0.8228  1.3035 -0.4583
 4237SOL     OW24346   3.802   1.645   7.446  0.7612 -0.0920 -0.1494
 4237SOL    HW124347   3.741   1.662   7.517  1.3608  0.6280  0.2008
 4237SOL    HW224348   3.824   1.557   7.476  1.0209  0.2437  0.6400
 4238SOL     OW24349   4.131   0.910   9.990  0.6127 -0.3560  0.0658
 4238SOL    HW124350   4.080   0.857   9.930 -1.3820  0.9837  0.5870
 4238SOL    HW224351   4.053   0.932  10.041  0.6006 -1.5435  0.5542
 4239SOL     OW24352   2.075   0.253   3.992  0.0562  0.4177  0.0161
 4239SOL    HW124353   1.999   0.194   3.989  0.2837 -0.0082  2.5175
 4239SOL    HW224354   2.105   0.260   3.901  0.7442  0.1981  0.2225
 4240SOL     OW24355   1.632   2.886   4.736  0.0203 -0.6832  0.3170
 4240SOL    HW124356   1.625   2.948   4.809 -1.1134 -0.0514 -0.3378
 4240SOL    HW224357   1.688   2.817   4.773 -1.3484 -1.1817  1.4833
 4241SOL     OW24358   3.654   1.995   7.313 -0.1547  0.3244 -0.2157
 4241SOL    HW124359   3.646   1.990   7.408 -0.9370  1.0111 -0.2493
 4241SOL    HW224360   3.715   2.065   7.290 -0.6107  0.4307 -1.1193
 4242SOL     OW24361   4.586   1.201   0.105  0.0198 -0.0173 -0.1814
 4242SOL    HW124362   4.580   1.108   0.083 -0.3819 -0.5315  2.1468
 4242SOL    HW224363   4.526   1.251   0.050  1.1508  0.8096 -0.6705
 4243SOL     OW24364   1.800   0.893   0.488 -0.6161  0.1565  0.1701
 4243SOL    HW124365   1.722   0.924   0.443 -2.9301 -1.8466  2.8616
 4243SOL    HW224366   1.778   0.803   0.512  0.8707 -1.1988 -3.5216
 4244SOL     OW24367   1.252   0.545   3.291  0.1273  0.4094  0.1661
 4244SOL    HW124368   1.336   0.521   3.331  0.7663  3.1289  0.4358
 4244SOL    HW224369   1.268   0.591   3.209  1.2500  2.2960  1.4514
 4245SOL     OW24370   0.629   2.783  15.074  0.1248 -0.2535  0.3832
 4245SOL    HW124371   0.651   2.803  14.983  0.1084 -3.5280 -0.3197
 4245SOL    HW224372   0.616   2.872  15.106  0.0146  0.0276 -0.4271
 4246SOL     OW24373   0.316   0.239   4.380 -0.6702  0.2625  0.2315
 4246SOL    HW124374   0.383   0.234   4.312 -0.4041  1.9821  0.3492
 4246SOL    HW224375   0.281   0.327   4.367 -1.2100 -0.0209 -0.1954
 4247SOL     OW24376   0.663   1.378   2.863 -0.1288  0.3737 -0.0158
 4247SOL    HW124377   0.589   1.323   2.889  1.6228 -1.6733  0.6479
 4247SOL    HW224378   0.731   1.355   2.927 -0.5450  0.3634  0.4227
 4248SOL     OW24379   2.660   2.189   1.568 -0.4702  0.2077  0.0374
 4248SOL    HW124380   2.660   2.164   1.476 -1.7906 -1.4619  0.4996
 4248SOL    HW224381   2.625   2.277   1.575 -1.7480 -0.2236 -0.9999
 4249SOL     OW24382   3.294   0.790   3.244  0.0346 -0.0414  0.0360
 4249SOL    HW124383   3.291   0.710   3.191  1.7529 -1.1622  1.6345
 4249SOL    HW224384   3.349   0.847   3.190  0.7874 -0.2975  0.5320
 4250SOL     OW24385   3.202   4.061  16.216 -0.3068  0.6672  0.0960
 4250SOL    HW124386   3.225   4.154  16.209 -0.9574  0.7814 -0.6005
 4250SOL    HW224387   3.141   4.045  16.144  0.1349  0.0345 -0.1411
 4251SOL     OW24388   1.722   0.539   2.510 -0.0346 -0.2860 -0.1655
 4251SOL    HW124389   1.689   0.604   2.447  1.0910  0.0151 -0.4508
 4251SOL    HW224390   1.730   0.596   2.587 -0.0891  0.6795 -0.8761
 4252SOL     OW24391   3.891   3.010   2.146  0.0630 -0.1991 -0.1451
 4252SOL    HW124392   3.911   2.991   2.238 -1.7164 -4.0377 -0.5099
 4252SOL    HW224393   3.912   2.926   2.105  0.5694 -0.5872  0.9191
 4253SOL     OW24394   2.823   3.599   1.765  0.0827 -0.1763  0.3704
 4253SOL    HW124395   2.859   3.527   1.714  1.8200  0.2929  0.9398
 4253SOL    HW224396   2.736   3.563   1.784 -0.6994  1.5470  0.0338
 4254SOL     OW24397   1.134   4.081   2.129 -0.4239  0.2231  0.6409
 4254SOL    HW124398   1.048   4.091   2.169 -0.7139 -0.4840  0.1945
 4254SOL    HW224399   1.125   3.990   2.102 -0.1949  0.2668  0.4160
 4255SOL     OW24400   0.253   4.338   7.683  0.5771  0.6723  0.0096
 4255SOL    HW124401   0.321   4.286   7.639 -0.0834  0.4240 -0.7226
 4255SOL    HW224402   0.238   4.411   7.623  2.0864  0.5345 -0.5479
 4256SOL     OW24403   4.179   3.147   4.278 -0.3038  0.2191  0.0095
 4256SOL    HW124404   4.179   3.119   4.187 -1.5564 -2.2943  0.7929
 4256SOL    HW224405   4.094   3.113   4.304 -1.0811  1.6619 -0.6627
 4257SOL     OW24406   4.457   1.934   1.072  0.5475  0.0164 -0.3311
 4257SOL    HW124407   4.368   1.912   1.044  0.3914 -1.5208  1.3631
 4257SOL    HW224408   4.468   2.023   1.039  0.4796 -0.0435 -0.5116
 4258SOL     OW24409   0.553   0.611  16.755 -0.3238 -0.2175 -0.0741
 4258SOL    HW124410   0.609   0.633  16.829 -0.6806 -0.6218  0.3144
 4258SOL    HW224411   0.599   0.664  16.690 -0.1081 -0.9463 -0.5194
 4259SOL     OW24412   1.690   1.759   1.996 -0.3172  0.0232 -0.0901
 4259SOL    HW124413   1.665   1.678   1.951 -0.3265 -0.2136  0.3354
 4259SOL    HW224414   1.633   1.766   2.073  0.2400  0.7965  0.2535
 4260SOL     OW24415   0.414   4.214   5.474  0.0036 -0.0796  0.3818
 4260SOL    HW124416   0.400   4.127   5.437 -1.5571  1.3780 -2.4216
 4260SOL    HW224417   0.363   4.213   5.555  1.9266 -0.5382  1.5920
 4261SOL     OW24418   2.509   0.995   8.205 -0.0628 -0.6149  0.3177
 4261SOL    HW124419   2.440   0.959   8.260 -0.9706  1.0990  0.3124
 4261SOL    HW224420   2.554   0.912   8.191  0.9752  0.1310 -0.7357
 4262SOL     OW24421   2.641   2.174   2.785 -0.2440  0.0148  0.6963
 4262SOL    HW124422   2.716   2.130   2.744  0.6410  0.9110  1.3493
 4262SOL    HW224423   2.637   2.260   2.742  2.2258 -0.2500 -0.1124
 4263SOL     OW24424   0.330   3.979   4.528 -0.2157 -0.1137 -0.9634
 4263SOL    HW124425   0.412   3.936   4.553  1.0306  0.0880 -4.7991
 4263SOL    HW224426   0.324   4.035   4.606  0.8123 -1.0952 -0.1763
 4264SOL     OW24427   3.386   4.031   9.399  0.1943  0.1406  0.0053
 4264SOL    HW124428   3.316   3.967   9.411  0.8830 -0.8197 -1.0309
 4264SOL    HW224429   3.332   4.110   9.403  0.0832  0.1369 -1.4592
 4265SOL     OW24430   4.080   1.025   8.256  0.7450  0.6676  0.0556
 4265SOL    HW124431   4.124   1.104   8.225  1.5503  0.0067 -0.5119
 4265SOL    HW224432   4.149   1.001   8.319  2.0207  0.2966 -1.4801
 4266SOL     OW24433   0.062   0.663   8.743  0.1376  0.0156 -0.2223
 4266SOL    HW124434   0.148   0.660   8.701  1.1439 -1.0122  1.9714
 4266SOL    HW224435   0.074   0.625   8.829  1.5145 -0.7751 -0.7722
 4267SOL     OW24436   2.952   3.803   5.240  0.0486  0.3189 -0.3019
 4267SOL    HW124437   2.969   3.711   5.261  1.2618  0.9717  1.6181
 4267SOL    HW224438   3.008   3.815   5.164  1.4534 -0.0905  0.6708
 4268SOL     OW24439   1.395   4.162   6.339  0.4594 -0.6022  0.5898
 4268SOL    HW124440   1.372   4.072   6.313 -1.2103 -0.3728  1.2718
 4268SOL    HW224441   1.476   4.174   6.289 -0.1691 -1.3951 -0.6517
 4269SOL     OW24442   2.211   2.549  12.872 -0.0886  0.4100 -0.0362
 4269SOL    HW124443   2.284   2.489  12.887 -1.5388 -0.6441  2.7894
 4269SOL    HW224444   2.246   2.624  12.823  0.0247 -0.4375 -1.2548
 4270SOL     OW24445   4.287   3.432  11.016 -0.4162  0.0049 -0.4633
 4270SOL    HW124446   4.381   3.440  11.030 -0.7738  1.9439  0.9035
 4270SOL    HW224447   4.252   3.464  11.099  1.3993 -0.6921  0.5491
 4271SOL     OW24448   0.644   2.008   0.890  0.1575  0.2395 -0.1846
 4271SOL    HW124449   0.594   1.953   0.828  1.5615 -1.6799  0.3833
 4271SOL    HW224450   0.719   2.039   0.840  1.2490 -0.3090  1.1262
 4272SOL     OW24451   3.932   4.163   7.683  0.2078  0.1410 -0.5508
 4272SOL    HW124452   3.985   4.220   7.739  0.6191 -1.2778  0.4977
 4272SOL    HW224453   3.882   4.126   7.755 -1.4720  1.8477 -0.8324
 4273SOL     OW24454   0.126   0.573   2.133 -0.2269  0.3487 -0.0046
 4273SOL    HW124455   0.100   0.642   2.194  0.8314  0.2929  0.5062
 4273SOL    HW224456   0.163   0.622   2.059  0.4523  0.5620  0.4748
 4274SOL     OW24457   2.745   3.140   3.183 -0.0929 -0.3392  0.0338
 4274SOL    HW124458   2.764   3.231   3.161 -2.1736  0.4411  1.5229
 4274SOL    HW224459   2.746   3.143   3.279  0.9717  0.0597  0.0103
 4275SOL     OW24460   1.971   2.746  12.105  0.2035 -0.1912 -0.5412
 4275SOL    HW124461   1.968   2.726  12.199  0.7337  1.1195 -0.2523
 4275SOL    HW224462   2.046   2.805  12.097  1.3661 -1.5303  0.4100
 4276SOL     OW24463   3.598   0.795   9.264  0.1264  0.0635  0.3120
 4276SOL    HW124464   3.554   0.817   9.182  2.3288 -0.0229 -0.8693
 4276SOL    HW224465   3.580   0.702   9.275 -0.2257  0.3779  2.4166
 4277SOL     OW24466   2.167   1.790   0.920 -0.1153 -0.0325 -0.1082
 4277SOL    HW124467   2.203   1.711   0.962  0.0627 -0.4880 -1.1267
 4277SOL    HW224468   2.228   1.794   0.847  0.3787  2.0634  0.4341
 4278SOL     OW24469   2.062   2.033   8.255 -0.0016 -0.0687 -0.1706
 4278SOL    HW124470   2.017   2.064   8.176  1.7207  0.9762 -0.7201
 4278SOL    HW224471   2.138   2.090   8.247  0.5265 -0.4244  2.3804
 4279SOL     OW24472   3.235   3.221   3.988  0.4471 -0.0290 -0.0092
 4279SOL    HW124473   3.301   3.151   3.978 -0.1311 -0.4090 -1.1813
 4279SOL    HW224474   3.226   3.259   3.900 -0.3558 -1.7042 -0.6533
 4280SOL     OW24475   0.871   3.182   7.434 -0.6048  0.0522  0.3659
 4280SOL    HW124476   0.831   3.253   7.485  0.3788  1.9173 -1.4132
 4280SOL    HW224477   0.948   3.163   7.488  0.3829  2.4366 -0.1832
 4281SOL     OW24478   3.270   0.687  16.286 -0.1758 -0.3565 -0.4759
 4281SOL    HW124479   3.305   0.738  16.213  0.7528 -0.1288  0.1265
 4281SOL    HW224480   3.176   0.701  16.275  0.1975  1.5152 -1.2875
 4282SOL     OW24481   1.872   3.934   8.854 -0.3581  0.5013  0.1134
 4282SOL    HW124482   1.885   3.849   8.813  0.4652  0.3978  0.5907
 4282SOL    HW224483   1.904   3.925   8.944  0.7816 -1.6441 -0.5156
 4283SOL     OW24484   4.602   2.903   3.350 -0.5322 -0.2002 -0.1526
 4283SOL    HW124485   4.691   2.882   3.377 -0.7111 -0.1551  0.4855
 4283SOL    HW224486   4.599   2.995   3.377  2.0932 -0.0458 -0.3426
 4284SOL     OW24487   2.775   2.000   4.309 -0.7182  0.0001 -0.2929
 4284SOL    HW124488   2.858   2.026   4.349 -1.6943  1.1943  0.9297
 4284SOL    HW224489   2.708   2.066   4.323 -0.7291 -0.4290  1.6912
 4285SOL     OW24490   3.370   3.555   5.918  0.2237 -0.6188 -0.1927
 4285SOL    HW124491   3.383   3.619   5.849  0.9973  1.7939  2.1663
 4285SOL    HW224492   3.398   3.595   6.001  0.1044 -2.1640  0.6066
 4286SOL     OW24493   0.458   1.103   5.947  0.5934 -0.3289 -0.1001
 4286SOL    HW124494   0.460   1.165   6.020  1.6072  0.3778 -0.7373
 4286SOL    HW224495   0.476   1.017   5.986 -0.0234 -1.2300 -1.7868
 4287SOL     OW24496   4.604   2.248   4.260  0.3602  0.3085 -0.2414
 4287SOL    HW124497   4.509   2.246   4.275  0.0743  2.9906 -1.6321
 4287SOL    HW224498   4.637   2.238   4.349 -2.1366 -1.1465  0.5159
 4288SOL     OW24499   0.637   4.663   6.615 -0.3474  0.1064  0.3069
 4288SOL    HW124500   0.684   0.008   6.633  2.4582 -1.6397  0.7886
 4288SOL    HW224501   0.569   4.697   6.556  1.1220  1.4682 -0.6057
 4289SOL     OW24502   4.012   2.513   7.781  0.3944  0.6679 -0.4529
 4289SOL    HW124503   4.021   2.443   7.716  0.9372 -2.4940  2.9826
 4289SOL    HW224504   4.093   2.563   7.770 -0.6492  2.1812 -1.1488
 4290SOL     OW24505   4.337   4.605   8.185  0.0960  0.4365 -0.1426
 4290SOL    HW124506   4.353   4.647   8.101  1.7585  2.8460  1.3652
 4290SOL    HW224507   4.352   4.688   8.232 -0.6710  2.1868 -3.0354
 4291SOL     OW24508   4.146   4.149   6.722 -0.1348  0.3613  0.3596
 4291SOL    HW124509   4.183   4.070   6.682 -2.6290  1.8953 -4.9438
 4291SOL    HW224510   4.068   4.112   6.764 -0.2360 -0.4994 -0.5925
 4292SOL     OW24511   2.118   3.689   7.445  0.9502 -0.4201  0.6669
 4292SOL    HW124512   2.195   3.739   7.471  0.3737 -0.2504  2.0764
 4292SOL    HW224513   2.047   3.753   7.435 -0.5467 -2.0117  1.0814
 4293SOL     OW24514   3.022   4.025  10.339  0.4425 -0.0730 -0.0529
 4293SOL    HW124515   2.986   4.108  10.371 -0.7471 -0.5216 -0.2371
 4293SOL    HW224516   2.945   3.989  10.294  0.7141 -0.5650 -0.1227
 4294SOL     OW24517   2.147   1.811   4.973  0.0456 -0.7008  0.0366
 4294SOL    HW124518   2.229   1.861   4.974 -1.8247  2.3522 -0.2273
 4294SOL    HW224519   2.189   1.738   5.018 -1.9026 -1.5014  0.5424
 4295SOL     OW24520   2.713   3.474   2.967  0.1464 -1.0093  0.4017
 4295SOL    HW124521   2.667   3.406   2.919  1.3183 -0.4723 -1.4682
 4295SOL    HW224522   2.653   3.548   2.953  2.9002  1.0257 -0.7095
 4296SOL     OW24523   4.730   3.986  17.606 -0.7323 -0.0061 -0.4171
 4296SOL    HW124524   0.008   3.988  17.701  0.6997  1.6360 -0.6697
 4296SOL    HW224525   4.720   4.080  17.592  0.5297  0.3910  1.2892
 4297SOL     OW24526   2.972   4.322  10.471 -0.1184 -0.0306  0.2257
 4297SOL    HW124527   2.900   4.337  10.409 -2.6119 -2.6180  2.5371
 4297SOL    HW224528   3.044   4.353  10.415 -1.7372  3.6983  0.1918
 4298SOL     OW24529   3.731   0.213   5.085  0.4343  0.2870  0.3120
 4298SOL    HW124530   3.778   0.296   5.089  1.5007 -0.2744 -0.4381
 4298SOL    HW224531   3.657   0.224   5.144  1.1005  0.9234  1.0438
 4299SOL     OW24532   4.216   1.672   5.808  0.4227  0.3560  0.4096
 4299SOL    HW124533   4.139   1.726   5.826  1.9583  2.7953 -0.3526
 4299SOL    HW224534   4.177   1.621   5.737  0.8379 -0.5945  0.8544
 4300SOL     OW24535   3.297   4.643   1.191  0.3506 -0.0073  0.0725
 4300SOL    HW124536   3.297   4.567   1.249 -0.8260  2.9908  4.1086
 4300SOL    HW224537   3.276   4.709   1.257  0.0459 -0.7536  0.7253
 4301SOL     OW24538   1.964   4.028   2.858  1.3245 -0.5723 -0.3556
 4301SOL    HW124539   1.891   4.087   2.843  0.7327 -1.5409 -1.3002
 4301SOL    HW224540   1.999   4.062   2.940  0.5270  0.4608 -0.4431
 4302SOL     OW24541   3.401   0.057   3.468 -0.5416 -0.7186 -0.5827
 4302SOL    HW124542   3.373   4.710   3.427  0.1952 -1.4341  0.3611
 4302SOL    HW224543   3.404   0.038   3.562  0.4882  0.7051 -0.3312
 4303SOL     OW24544   3.470   3.505   5.470 -0.4086 -0.3111  0.1747
 4303SOL    HW124545   3.509   3.433   5.421 -1.5072  0.2495 -1.5088
 4303SOL    HW224546   3.548   3.551   5.502  0.9650 -0.4576 -2.9904
 4304SOL     OW24547   2.563   2.343  15.957  0.2490  0.2962 -0.0337
 4304SOL    HW124548   2.515   2.403  16.015 -0.4056  2.2144 -2.5573
 4304SOL    HW224549   2.568   2.276  16.025 -0.5940  0.4730  0.2078
 4305SOL     OW24550   2.995   4.471  11.778  0.3101  0.4661  0.1595
 4305SOL    HW124551   3.002   4.456  11.684  1.9734 -1.3518  0.5724
 4305SOL    HW224552   2.983   4.566  11.769  1.9291  0.5293 -1.4055
 4306SOL     OW24553   3.048   4.440   8.324 -0.4217  1.0020  0.0036
 4306SOL    HW124554   2.963   4.404   8.351 -0.4258 -0.0131 -1.4099
 4306SOL    HW224555   3.020   4.527   8.355  0.4445  1.8296 -1.5162
 4307SOL     OW24556   3.073   0.384   7.474 -0.1875  0.4633  0.4265
 4307SOL    HW124557   2.996   0.439   7.457 -1.2805 -0.9470  0.7667
 4307SOL    HW224558   3.104   0.366   7.386 -0.2071 -1.3055  0.7813
 4308SOL     OW24559   0.015   3.465   9.870  0.0571  0.2742 -0.0770
 4308SOL    HW124560   0.103   3.500   9.851  0.3362 -0.8559 -0.8418
 4308SOL    HW224561   0.044   3.382   9.906  1.4716  0.7757 -0.0576
 4309SOL     OW24562   2.814   1.119  15.743 -0.3570 -0.2672  0.2160
 4309SOL    HW124563   2.844   1.098  15.655 -1.3596  1.3419 -0.5204
 4309SOL    HW224564   2.719   1.122  15.729 -0.0291 -0.8885 -2.1448
 4310SOL     OW24565   4.109   0.247   6.614 -0.1795  0.0930 -0.7680
 4310SOL    HW124566   4.107   0.286   6.527  1.8371 -0.4115 -1.0364
 4310SOL    HW224567   4.030   0.194   6.610  1.0680 -1.8856  0.5511
 4311SOL     OW24568   0.245   3.940   4.282  0.0010  0.0064 -0.3424
 4311SOL    HW124569   0.266   3.944   4.375  2.0696 -0.6413 -0.7655
 4311SOL    HW224570   0.152   3.960   4.289 -0.4113 -2.2601  0.8200
 4312SOL     OW24571   1.941   2.663  14.326 -0.4365 -0.1351 -0.5811
 4312SOL    HW124572   1.997   2.714  14.385  1.8459 -0.1162 -2.7553
 4312SOL    HW224573   1.968   2.575  14.351 -0.8895  0.1694  0.9937
 4313SOL     OW24574   0.143   0.556   9.301  0.3464 -0.0171 -0.0649
 4313SOL    HW124575   0.221   0.526   9.253  0.9866  2.4195 -0.5756
 4313SOL    HW224576   0.115   0.627   9.243  1.0335  0.2976 -0.0128
 4314SOL     OW24577   0.018   3.221   8.225 -0.2526 -0.2929 -0.8882
 4314SOL    HW124578   0.016   3.126   8.212 -0.4918 -0.4672  0.3981
 4314SOL    HW224579   4.662   3.243   8.204 -0.1089  1.1384 -0.0268
 4315SOL     OW24580   3.407   2.603   3.798  0.1723  0.2994  0.1926
 4315SOL    HW124581   3.468   2.672   3.774 -0.1116  0.4118 -0.2064
 4315SOL    HW224582   3.451   2.518   3.793  1.4611  1.0482 -1.2415
 4316SOL     OW24583   2.963   3.977   8.329 -0.2587 -0.1794  0.0810
 4316SOL    HW124584   2.983   3.991   8.236  0.0045 -0.8295  0.0391
 4316SOL    HW224585   3.022   4.036   8.376 -0.5679  1.2763 -1.3408
 4317SOL     OW24586   3.524   0.700   6.737 -0.5278  0.1123 -0.4153
 4317SOL    HW124587   3.524   0.639   6.663 -0.2341 -0.5863  0.1535
 4317SOL    HW224588   3.610   0.741   6.730  0.3581 -1.5829  0.5999
 4318SOL     OW24589   3.224   0.025   1.419  0.4190  0.3372 -0.0664
 4318SOL    HW124590   3.167   0.099   1.442  1.1830  1.4316 -1.7542
 4318SOL    HW224591   3.192   4.697   1.485  1.1507 -2.4347 -2.3967
 4319SOL     OW24592   3.741   1.632  12.583 -0.2266  0.0988 -0.2172
 4319SOL    HW124593   3.757   1.715  12.629  2.5931  0.6960 -2.2799
 4319SOL    HW224594   3.788   1.662  12.505 -3.0376 -0.8452 -2.2557
 4320SOL     OW24595   0.243   1.305   7.711 -0.5615  0.0413  0.1174
 4320SOL    HW124596   0.290   1.295   7.628  0.2639  2.7589  0.2892
 4320SOL    HW224597   0.172   1.365   7.687 -1.7910 -1.3729  0.1985
 4321SOL     OW24598   4.459   0.287   6.476  0.2804  0.6192  0.1255
 4321SOL    HW124599   4.505   0.345   6.416  0.6772  0.8857  0.6809
 4321SOL    HW224600   4.416   0.347   6.538  1.8257  1.7908  0.0535
 4322SOL     OW24601   3.745   4.067   7.505  0.0938 -0.0170 -0.2076
 4322SOL    HW124602   3.787   4.005   7.447  0.2391  0.0441 -0.1671
 4322SOL    HW224603   3.811   4.092   7.570 -0.6013  0.9357  0.1407
 4323SOL     OW24604   2.860   0.439  15.171 -0.0051 -0.3080 -0.0447
 4323SOL    HW124605   2.879   0.507  15.236 -2.2863 -1.3296  1.6872
 4323SOL    HW224606   2.907   0.360  15.197  1.2422  0.9861  1.6222
 4324SOL     OW24607   2.319   1.526  13.931 -0.1479 -0.8648 -0.7407
 4324SOL    HW124608   2.224   1.527  13.917 -0.6568  2.9279  2.7302
 4324SOL    HW224609   2.354   1.611  13.903  3.4701 -1.4468  2.0293
 4325SOL     OW24610   4.111   3.910   3.936  0.1436 -0.1817 -0.0431
 4325SOL    HW124611   4.142   3.879   4.021  0.6986  0.6791  0.0729
 4325SOL    HW224612   4.094   4.003   3.948 -0.4634 -0.2304 -0.5109
 4326SOL     OW24613   0.175   3.048   2.911  0.4583  0.3056 -0.0527
 4326SOL    HW124614   0.175   3.141   2.889  1.7161  0.6522  1.4131
 4326SOL    HW224615   0.102   3.014   2.859  0.4086  1.2195 -0.5851
 4327SOL     OW24616   2.360   3.669   3.441  0.2647 -0.4397 -0.4436
 4327SOL    HW124617   2.438   3.707   3.481  0.4297  0.0822 -1.2598
 4327SOL    HW224618   2.283   3.688   3.496 -0.0892 -1.0746 -0.7179
 4328SOL     OW24619   2.016   1.704   3.509 -0.4524  0.0190  0.7334
 4328SOL    HW124620   2.044   1.625   3.555  2.8835  1.0453  0.4796
 4328SOL    HW224621   2.041   1.687   3.419 -1.0531 -0.3460  0.6363
 4329SOL     OW24622   0.325   1.588  10.513  0.1007 -0.0064 -0.3914
 4329SOL    HW124623   0.345   1.681  10.523 -0.3731  0.0446  0.1010
 4329SOL    HW224624   0.345   1.551  10.599  0.6128 -0.9177 -0.9120
 4330SOL     OW24625   1.855   2.875   8.784  0.0710 -0.6056 -0.3517
 4330SOL    HW124626   1.822   2.962   8.809  0.9178 -0.9620  1.9770
 4330SOL    HW224627   1.772   2.826   8.781 -0.8088  0.9742 -2.2167
 4331SOL     OW24628   4.367   3.350   3.131  0.3275  0.1075  0.3230
 4331SOL    HW124629   4.352   3.312   3.044  0.7325  0.7403 -0.0270
 4331SOL    HW224630   4.387   3.442   3.113  1.6043 -0.1367  0.4580
 4332SOL     OW24631   3.029   4.493   7.332  0.0412  0.0019 -0.4553
 4332SOL    HW124632   2.944   4.458   7.358 -0.8394  0.0962 -3.1197
 4332SOL    HW224633   3.023   4.487   7.236  0.5777 -0.6051 -0.4448
 4333SOL     OW24634   0.728   1.947   4.459 -0.1607 -0.0364  0.4315
 4333SOL    HW124635   0.773   2.009   4.401  2.1044 -0.9603  1.2000
 4333SOL    HW224636   0.801   1.891   4.485  0.0273  0.1147  0.2354
 4334SOL     OW24637   2.158   2.747   0.551  0.8511 -0.0674  0.0654
 4334SOL    HW124638   2.162   2.767   0.458 -0.9774 -0.7591 -0.1548
 4334SOL    HW224639   2.246   2.711   0.562  0.8764  0.0468  0.2359
 4335SOL     OW24640   3.842   2.859   5.473 -0.2502  0.4117  0.1051
 4335SOL    HW124641   3.767   2.799   5.472 -1.5660  2.0395 -0.3339
 4335SOL    HW224642   3.820   2.900   5.389 -0.8407 -1.8722 -0.8598
 4336SOL     OW24643   3.528   3.218   5.132 -0.2732  0.3278  0.4918
 4336SOL    HW124644   3.576   3.152   5.081  0.6803  1.2466  0.1990
 4336SOL    HW224645   3.443   3.175   5.143 -0.3530  0.8759  1.9155
 4337SOL     OW24646   2.909   4.726   4.666  0.1073 -0.6726 -0.5194
 4337SOL    HW124647   2.982   0.043   4.699 -0.0905 -1.4332  1.1506
 4337SOL    HW224648   2.898   4.654   4.729 -0.6762 -0.0872  0.0029
 4338SOL     OW24649   0.871   3.935  14.938 -0.1599 -0.2472  0.1513
 4338SOL    HW124650   0.946   3.880  14.919  1.1382  1.3819  0.5235
 4338SOL    HW224651   0.860   3.928  15.032 -0.1594  0.9246  0.2458
 4339SOL     OW24652   4.356   1.014   6.644 -0.2139 -0.1093 -0.5537
 4339SOL    HW124653   4.348   1.097   6.691  1.1556  0.5403 -1.4564
 4339SOL    HW224654   4.264   0.998   6.627 -0.3075 -0.6134  0.4301
 4340SOL     OW24655   3.466   2.728   6.603 -0.5284 -0.0258 -0.3767
 4340SOL    HW124656   3.406   2.793   6.567 -1.6375 -0.6840  0.2759
 4340SOL    HW224657   3.527   2.776   6.658 -0.1987  1.1067 -1.7316
 4341SOL     OW24658   1.198   0.036   6.741  0.1932 -0.2897 -0.4355
 4341SOL    HW124659   1.190   0.131   6.748 -2.8329 -0.6077  0.5269
 4341SOL    HW224660   1.107   0.011   6.726  0.0375  0.6043 -0.9534
 4342SOL     OW24661   2.721   3.887   8.455 -0.2224 -0.1083 -0.3306
 4342SOL    HW124662   2.808   3.909   8.421  0.8008 -0.0187  2.3752
 4342SOL    HW224663   2.702   3.971   8.498  1.0380  0.1863 -0.3582
 4343SOL     OW24664   2.645   0.780   6.982  0.1070 -0.4438 -0.0647
 4343SOL    HW124665   2.642   0.796   6.887  1.7627 -0.8324 -0.1961
 4343SOL    HW224666   2.556   0.753   7.001  0.4121 -0.3835  1.4676
 4344SOL     OW24667   1.643   0.573   7.430  0.0939 -0.4531  0.0587
 4344SOL    HW124668   1.709   0.595   7.496 -1.4953 -0.2152  1.5557
 4344SOL    HW224669   1.693   0.531   7.360 -0.7862 -0.8558 -0.3224
 4345SOL     OW24670   0.760   1.710   7.929  0.4131 -0.1197  0.1890
 4345SOL    HW124671   0.721   1.658   7.859  0.8891 -1.0579  0.6194
 4345SOL    HW224672   0.747   1.656   8.007  1.5109  0.7109  0.9460
 4346SOL     OW24673   4.123   2.519   3.894 -0.4869 -0.5177  0.2447
 4346SOL    HW124674   4.200   2.572   3.875  0.3291 -1.2378  1.5549
 4346SOL    HW224675   4.084   2.520   3.807  0.5523  0.4596 -0.2071
 4347SOL     OW24676   1.386   0.653   7.093 -0.0663  0.3711 -0.1729
 4347SOL    HW124677   1.454   0.692   7.148  0.8841  0.3183 -1.3035
 4347SOL    HW224678   1.414   0.688   7.008  1.2578  1.2943  0.6504
 4348SOL     OW24679   3.615   2.014   3.062  0.0285 -0.1907 -0.1552
 4348SOL    HW124680   3.595   2.095   3.014 -1.7127  0.2299  1.2999
 4348SOL    HW224681   3.642   2.047   3.148 -0.2666 -0.0276 -0.1253
 4349SOL     OW24682   1.428   0.480   9.382  0.5280  0.1993  0.0501
 4349SOL    HW124683   1.447   0.388   9.399 -0.7146  0.0919  0.8878
 4349SOL    HW224684   1.415   0.483   9.287  1.0896  0.6193 -0.0062
 4350SOL     OW24685   3.593   3.549   8.751 -0.1441 -0.2081 -0.2876
 4350SOL    HW124686   3.564   3.571   8.840 -1.7930  1.3202 -1.1784
 4350SOL    HW224687   3.634   3.630   8.721 -3.7751  1.4072 -0.9630
 4351SOL     OW24688   4.667   2.573  14.636 -0.3174 -0.5019  0.4579
 4351SOL    HW124689   4.575   2.563  14.610 -0.9674  0.4424  2.3527
 4351SOL    HW224690   4.699   2.518  14.565  1.2101  0.5213  0.3633
 4352SOL     OW24691   1.141   2.389   4.947  0.6142  0.4909 -0.1849
 4352SOL    HW124692   1.084   2.376   5.023  0.6070 -0.9232 -0.4407
 4352SOL    HW224693   1.086   2.457   4.909 -0.0583 -0.9312 -1.7704
 4353SOL     OW24694   3.146   3.743   9.231 -0.0910 -0.6394  0.0812
 4353SOL    HW124695   3.160   3.649   9.238  2.3792 -0.2220  0.6201
 4353SOL    HW224696   3.181   3.770   9.316  0.1814 -1.2405  0.1556
 4354SOL     OW24697   2.315   2.278   2.410  0.3698 -0.4369 -0.7163
 4354SOL    HW124698   2.357   2.216   2.470 -0.1545 -1.1169 -1.0484
 4354SOL    HW224699   2.278   2.215   2.348 -1.1182 -0.6089  0.3377
 4355SOL     OW24700   3.148   0.396  13.727  0.1681 -0.0896 -0.5903
 4355SOL    HW124701   3.072   0.361  13.772 -0.8329 -1.9077 -3.6328
 4355SOL    HW224702   3.209   0.400  13.800  0.5521  1.8053 -1.0304
 4356SOL     OW24703   3.345   3.612   9.464  0.3978 -0.4005  0.3587
 4356SOL    HW124704   3.274   3.558   9.431  0.7252  0.6373 -2.0624
 4356SOL    HW224705   3.374   3.548   9.528 -2.5506  0.8164  2.9355
 4357SOL     OW24706   0.201   2.418   5.623 -0.4189  0.0918 -0.4272
 4357SOL    HW124707   0.201   2.323   5.638  0.6357  0.0603 -0.5989
 4357SOL    HW224708   0.225   2.453   5.709 -4.1047  2.0405 -0.2156
 4358SOL     OW24709   4.461   1.709   2.609 -0.1949  0.3616 -0.1196
 4358SOL    HW124710   4.396   1.652   2.648  0.2120  1.2406  1.8541
 4358SOL    HW224711   4.522   1.648   2.567 -0.4890 -1.7668  2.5899
 4359SOL     OW24712   3.469   2.139   6.947 -0.0106 -0.0811  0.3976
 4359SOL    HW124713   3.400   2.085   6.908 -2.1122  2.6983  0.1918
 4359SOL    HW224714   3.432   2.172   7.029 -0.4062  0.3761  0.0373
 4360SOL     OW24715   2.142   2.899   0.297 -0.2869  0.1665  0.0262
 4360SOL    HW124716   2.066   2.955   0.314 -0.9198 -0.5194 -0.5447
 4360SOL    HW224717   2.211   2.958   0.328 -0.4864  0.7112 -0.5787
 4361SOL     OW24718   1.153   0.377   4.601 -0.0918  0.4533  0.1187
 4361SOL    HW124719   1.104   0.330   4.533  0.3683  0.9094 -0.5303
 4361SOL    HW224720   1.145   0.459   4.552 -1.5959 -0.7314 -1.6061
 4362SOL     OW24721   3.852   0.836  17.007 -0.5446 -0.2020 -0.0692
 4362SOL    HW124722   3.834   0.886  16.928  1.0891 -1.1964 -1.0716
 4362SOL    HW224723   3.910   0.898  17.051  0.7196 -1.3126 -0.1694
 4363SOL     OW24724   3.579   1.136   0.905 -0.4761 -0.0980 -0.1861
 4363SOL    HW124725   3.530   1.090   0.973  0.3399  1.1990  1.2810
 4363SOL    HW224726   3.524   1.213   0.888  0.6409  1.3341  2.6685
 4364SOL     OW24727   0.409   2.709   6.018  0.3995 -0.1163  0.3265
 4364SOL    HW124728   0.474   2.738   6.082  0.7761 -0.0054 -0.1132
 4364SOL    HW224729   0.334   2.769   6.016  0.2931 -0.1907  2.2606
 4365SOL     OW24730   1.016   1.984  15.760 -0.2975  0.3346 -0.1901
 4365SOL    HW124731   0.937   2.030  15.731 -1.1781  0.5858  2.6485
 4365SOL    HW224732   1.010   1.907  15.703 -2.0162  1.4853 -1.5838
 4366SOL     OW24733   1.362   4.441  13.213  0.0030  0.2812  0.6482
 4366SOL    HW124734   1.375   4.425  13.120  0.6666 -1.4833  1.0427
 4366SOL    HW224735   1.328   4.530  13.206 -2.1199 -0.5127  1.1075
 4367SOL     OW24736   0.974   0.361   1.229 -0.2599 -0.1639  0.0368
 4367SOL    HW124737   0.889   0.404   1.217 -0.4218 -0.5676 -0.2897
 4367SOL    HW224738   1.007   0.402   1.309 -0.5743 -0.9900  0.5868
 4368SOL     OW24739   1.353   1.112   8.586 -0.1135 -0.4044 -0.9075
 4368SOL    HW124740   1.414   1.101   8.660  0.8181  1.3803 -1.4041
 4368SOL    HW224741   1.409   1.156   8.522 -0.9335  1.2954 -0.4614
 4369SOL     OW24742   2.345   2.493   3.082  0.4686 -0.3487  0.1217
 4369SOL    HW124743   2.408   2.546   3.132  1.8109 -2.0246  0.2097
 4369SOL    HW224744   2.269   2.551   3.081 -0.7295 -1.9027  1.2199
 4370SOL     OW24745   4.728   1.364   2.728 -0.4538 -0.0245  0.2479
 4370SOL    HW124746   0.018   1.347   2.637  0.0194 -0.1577  0.4013
 4370SOL    HW224747   4.634   1.354   2.718 -0.4634  0.5976 -0.3042
 4371SOL     OW24748   1.814   0.373   7.292  0.0329 -0.2577  0.1187
 4371SOL    HW124749   1.747   0.358   7.224 -0.5423  0.0209  0.6292
 4371SOL    HW224750   1.877   0.313   7.252  0.8106  1.0544 -0.6265
 4372SOL     OW24751   3.613   3.094   1.803 -0.4428  0.6190  0.1005
 4372SOL    HW124752   3.658   3.011   1.817  1.3404  1.8081  1.5435
 4372SOL    HW224753   3.556   3.094   1.880  0.3809 -0.1151  0.7071
 4373SOL     OW24754   1.609   2.674   7.217  0.1854  0.4535  0.5601
 4373SOL    HW124755   1.564   2.590   7.205  1.1790  0.5861 -4.1553
 4373SOL    HW224756   1.676   2.653   7.282 -0.1474  1.3010  1.1797
 4374SOL     OW24757   1.595   2.280   3.440 -0.3403 -0.1373  0.3776
 4374SOL    HW124758   1.657   2.227   3.491  1.3773  2.0590  0.5681
 4374SOL    HW224759   1.520   2.221   3.434 -0.8235  0.5483 -0.2965
 4375SOL     OW24760   4.431   3.692   1.511 -0.5369 -0.1778 -0.2766
 4375SOL    HW124761   4.381   3.634   1.453 -0.5960 -0.3145 -0.0872
 4375SOL    HW224762   4.402   3.656   1.595  0.8311 -0.5339  0.0427
 4376SOL     OW24763   1.515   2.335   7.469 -0.3156 -0.7839 -0.4905
 4376SOL    HW124764   1.468   2.373   7.544  0.0858 -1.3211  0.0352
 4376SOL    HW224765   1.608   2.352   7.483 -0.7329  0.1726  1.1679
 4377SOL     OW24766   1.092   0.119  15.876  0.4686 -0.2769  0.5261
 4377SOL    HW124767   1.163   0.092  15.818  0.3748  1.5165 -0.3987
 4377SOL    HW224768   1.141   0.158  15.949  1.4165 -0.5133  0.0178
 4378SOL     OW24769   2.638   2.824  11.327 -0.3913  0.2594 -0.1278
 4378SOL    HW124770   2.548   2.833  11.295  0.2352  1.5970 -1.5139
 4378SOL    HW224771   2.678   2.885  11.265 -1.5979  0.7665 -0.4119
 4379SOL     OW24772   1.344   2.879   8.186  0.2202 -0.2925  0.1457
 4379SOL    HW124773   1.281   2.942   8.220  0.1863  0.7079 -1.7666
 4379SOL    HW224774   1.326   2.886   8.092 -0.9596  0.3093  0.4097
 4380SOL     OW24775   4.170   3.169   7.545 -0.2230 -0.4525 -0.4542
 4380SOL    HW124776   4.209   3.255   7.561  0.6078 -1.2979  1.9625
 4380SOL    HW224777   4.242   3.124   7.588 -1.6497 -2.5009 -0.2139
 4381SOL     OW24778   0.768   0.396   2.391 -0.0992  0.0567  0.2837
 4381SOL    HW124779   0.726   0.311   2.382  2.5877 -0.9650 -2.4068
 4381SOL    HW224780   0.736   0.414   2.479 -2.2918 -1.2057 -0.2726
 4382SOL     OW24781   3.438   3.221  15.116  0.5793 -0.1066 -0.8854
 4382SOL    HW124782   3.406   3.143  15.161 -0.8703  1.9407  1.6684
 4382SOL    HW224783   3.424   3.289  15.182  2.7466 -0.9689  0.4651
 4383SOL     OW24784   3.187   0.463   1.307  0.0061 -0.5962 -0.2549
 4383SOL    HW124785   3.175   0.509   1.390  1.3620  0.1509 -0.4735
 4383SOL    HW224786   3.231   0.535   1.261 -0.2570  0.0057  0.4374
 4384SOL     OW24787   4.340   1.739   1.629 -0.5797  0.2642 -0.2289
 4384SOL    HW124788   4.407   1.807   1.622  0.3933 -0.6542  0.3805
 4384SOL    HW224789   4.382   1.671   1.578 -2.5052 -0.8858 -0.2892
 4385SOL     OW24790   3.569   3.096   8.450 -0.2159 -0.0242 -0.0547
 4385SOL    HW124791   3.489   3.144   8.469  0.9709  1.5208  1.0842
 4385SOL    HW224792   3.550   3.068   8.361  0.5298 -0.7028 -0.0068
 4386SOL     OW24793   2.454   0.372   5.721  0.8100  0.4978  0.5268
 4386SOL    HW124794   2.434   0.298   5.777 -1.0852  1.3385  0.9686
 4386SOL    HW224795   2.499   0.341   5.642 -1.2947 -2.2209  0.4010
 4387SOL     OW24796   3.939   0.470  10.349  0.3670  0.0090  0.7006
 4387SOL    HW124797   4.033   0.456  10.360  0.6059  0.3971 -0.7853
 4387SOL    HW224798   3.927   0.549  10.402 -1.5893  0.9171 -1.0937
 4388SOL     OW24799   2.436   0.359   8.517  0.1423 -0.2527  0.5622
 4388SOL    HW124800   2.377   0.388   8.448  0.8670  0.7278  0.3545
 4388SOL    HW224801   2.515   0.328   8.471 -0.6733 -1.5522  0.0399
 4389SOL     OW24802   3.140   2.552   2.936  0.5141  0.2433 -0.5716
 4389SOL    HW124803   3.051   2.520   2.928  0.6068  0.1053 -1.0571
 4389SOL    HW224804   3.175   2.491   3.001 -0.6793  1.1701  0.9419
 4390SOL     OW24805   1.064   2.079  13.464  0.2354  0.6507 -0.3391
 4390SOL    HW124806   1.019   2.025  13.529  1.4611 -0.2770 -0.2516
 4390SOL    HW224807   0.994   2.128  13.422  0.2154 -0.4170 -1.5408
 4391SOL     OW24808   2.598   0.783   7.341 -0.2581 -0.3463 -0.0837
 4391SOL    HW124809   2.517   0.748   7.378  0.8112 -2.5874  0.1297
 4391SOL    HW224810   2.591   0.749   7.252 -0.2991  1.6191 -0.8425
 4392SOL     OW24811   0.054   0.173   3.169 -0.1291  0.2830  0.1471
 4392SOL    HW124812   0.146   0.185   3.147  0.9448 -1.9664  3.4615
 4392SOL    HW224813   0.034   0.258   3.208 -0.0215  0.0901  0.6280
 4393SOL     OW24814   0.707   3.431   7.597  0.1158 -0.0668  0.4428
 4393SOL    HW124815   0.643   3.454   7.529  2.3755  1.7993 -1.0817
 4393SOL    HW224816   0.692   3.490   7.671 -0.0527  0.1965  0.2001
 4394SOL     OW24817   2.713   3.594   3.736 -0.0388  0.3842 -0.3242
 4394SOL    HW124818   2.638   3.649   3.715  1.7688  2.6455 -0.7713
 4394SOL    HW224819   2.742   3.561   3.651 -0.7891 -0.9446 -0.0752
 4395SOL     OW24820   0.297   4.671  11.848  0.2855  0.2020 -0.2200
 4395SOL    HW124821   0.235   0.004  11.822 -0.2647 -0.1302  0.1984
 4395SOL    HW224822   0.351   4.667  11.769  0.3339 -2.2648 -0.0455
 4396SOL     OW24823   0.531   3.680   8.627  0.5556  0.3528 -0.6118
 4396SOL    HW124824   0.467   3.611   8.645 -1.4367  2.4088  0.1748
 4396SOL    HW224825   0.482   3.762   8.636 -0.3063 -0.1914 -0.2964
 4397SOL     OW24826   0.311   1.176   4.614 -0.3424 -0.5683 -0.6882
 4397SOL    HW124827   0.357   1.170   4.697 -0.9691  0.0464 -0.2906
 4397SOL    HW224828   0.326   1.089   4.579  0.0803  0.0642 -2.0835
 4398SOL     OW24829   3.738   0.997  14.608 -0.3387  0.3523 -0.1813
 4398SOL    HW124830   3.815   1.053  14.623 -0.9044  1.0728  0.0562
 4398SOL    HW224831   3.702   0.978  14.694 -0.7407  1.3322 -0.1319
 4399SOL     OW24832   2.074   0.567   8.148 -0.1438 -0.7981  0.7046
 4399SOL    HW124833   1.991   0.569   8.195 -0.7310 -1.8341 -0.2845
 4399SOL    HW224834   2.100   0.659   8.148  1.6382 -1.2877 -1.9473
 4400SOL     OW24835   1.964   1.537   6.380  0.4457  0.7359 -0.4772
 4400SOL    HW124836   1.890   1.476   6.388  1.4926 -0.8770 -2.9312
 4400SOL    HW224837   2.023   1.491   6.320  0.6316  0.5165 -0.1195
 4401SOL     OW24838   0.621   2.712   3.769  0.0384  0.7539 -0.0308
 4401SOL    HW124839   0.551   2.654   3.797 -0.6687  1.4094 -0.4556
 4401SOL    HW224840   0.585   2.800   3.778 -1.8011 -0.0237  0.0345
 4402SOL     OW24841   1.983   2.394   0.034 -0.2353 -0.0263  0.3386
 4402SOL    HW124842   1.904   2.438   0.065 -0.3678 -1.6777  2.3025
 4402SOL    HW224843   1.976   2.426  17.684  0.0328 -2.4304 -0.5432
 4403SOL     OW24844   0.716   4.462   5.543  0.2366 -0.2957  0.3499
 4403SOL    HW124845   0.796   4.489   5.586  0.6121 -1.5924  0.4762
 4403SOL    HW224846   0.673   4.547   5.540  0.5292 -0.1020  2.1774
 4404SOL     OW24847   1.869   1.098  14.102 -0.5579 -0.4907 -0.8538
 4404SOL    HW124848   1.910   1.175  14.139 -1.3511  0.0101 -1.0079
 4404SOL    HW224849   1.881   1.114  14.008 -1.2230  1.8552 -0.5231
 4405SOL     OW24850   2.401   4.563   3.512 -0.3316  0.5708  0.9121
 4405SOL    HW124851   2.320   4.514   3.502 -0.2461  0.5832  0.2087
 4405SOL    HW224852   2.458   4.496   3.550  0.3864  1.1538  0.8625
 4406SOL     OW24853   3.160   1.416   7.510  0.9867 -0.0895  0.1930
 4406SOL    HW124854   3.095   1.486   7.521  0.1389 -0.9096  0.3848
 4406SOL    HW224855   3.115   1.365   7.443  2.1432 -1.0532  0.1533
 4407SOL     OW24856   3.791   2.728  16.836  0.4102 -0.0868 -0.6535
 4407SOL    HW124857   3.760   2.673  16.764 -0.1435 -0.2340 -0.2982
 4407SOL    HW224858   3.725   2.738  16.904  1.6368  3.2122  0.0565
 4408SOL     OW24859   0.006   1.876  15.153  0.2262  0.5920 -0.2105
 4408SOL    HW124860   4.717   1.899  15.063 -0.9978  0.3947  0.0693
 4408SOL    HW224861   0.026   1.785  15.131  0.5008  0.8542 -1.0565
 4409SOL     OW24862   3.379   3.200   8.142 -0.4661  0.4297  0.1313
 4409SOL    HW124863   3.314   3.223   8.076 -1.1802 -1.8854  0.0138
 4409SOL    HW224864   3.388   3.286   8.183 -0.7028 -0.3078  1.7637
 4410SOL     OW24865   0.680   4.332   1.115 -0.0824  0.1944 -0.2790
 4410SOL    HW124866   0.722   4.355   1.198 -0.6382 -1.8293  0.5600
 4410SOL    HW224867   0.752   4.367   1.063 -0.8412  1.7061 -0.3361
 4411SOL     OW24868   1.049   4.351   5.478  0.3754 -0.5841 -0.2624
 4411SOL    HW124869   1.090   4.393   5.554 -1.1906  2.2462 -1.0022
 4411SOL    HW224870   1.072   4.259   5.492  1.9376 -0.6502 -3.3088
 4412SOL     OW24871   3.548   3.539  16.243  0.2458 -0.0510  0.2557
 4412SOL    HW124872   3.537   3.614  16.300  0.4110 -0.7341  1.1760
 4412SOL    HW224873   3.634   3.553  16.203 -0.8325 -0.8169 -2.3482
 4413SOL     OW24874   2.161   0.183   1.168 -0.5565 -0.2050 -0.3909
 4413SOL    HW124875   2.150   0.090   1.188 -0.3708 -0.2990 -0.7122
 4413SOL    HW224876   2.205   0.220   1.244  0.4113 -0.2259 -0.9318
 4414SOL     OW24877   3.047   3.558  12.048  0.2606  0.3052  0.4039
 4414SOL    HW124878   2.979   3.500  12.012 -0.5065  1.3930  0.0550
 4414SOL    HW224879   3.114   3.520  11.991 -0.7438 -0.2748 -0.3935
 4415SOL     OW24880   0.592   3.025   4.756  0.0121  0.1538 -0.1666
 4415SOL    HW124881   0.534   2.952   4.777  0.0871 -0.3721 -1.8138
 4415SOL    HW224882   0.633   3.052   4.839  0.3893 -0.0199 -0.2953
 4416SOL     OW24883   4.463   3.399  11.709  0.1764  0.7989  0.2773
 4416SOL    HW124884   4.384   3.379  11.759 -1.1512  0.4838 -1.9026
 4416SOL    HW224885   4.517   3.320  11.715 -0.4713  0.2339 -1.1772
 4417SOL     OW24886   0.831   2.894   9.724 -0.3750  0.1417 -0.0078
 4417SOL    HW124887   0.738   2.877   9.708 -0.8513  1.7663  1.0300
 4417SOL    HW224888   0.844   2.889   9.819  1.4680  1.0903 -0.2113
 4418SOL     OW24889   0.791   4.123   6.427 -0.4739  0.5737  0.7795
 4418SOL    HW124890   0.775   4.217   6.424  0.1801  0.6204 -1.9234
 4418SOL    HW224891   0.834   4.121   6.341 -0.4420 -2.3908  0.8497
 4419SOL     OW24892   2.007   3.718   2.279 -0.2070  0.1474  0.0777
 4419SOL    HW124893   2.031   3.707   2.372 -0.0624  0.1440  0.0397
 4419SOL    HW224894   1.940   3.785   2.281 -0.2037  0.1950 -1.9066
 4420SOL     OW24895   0.373   2.985   6.495  0.3464 -0.1175 -0.4582
 4420SOL    HW124896   0.315   3.018   6.564  1.8060 -0.3920  0.9030
 4420SOL    HW224897   0.348   2.892   6.492  0.0665 -0.0785  0.5765
 4421SOL     OW24898   4.629   1.976   8.229 -0.2479  0.1945 -0.2803
 4421SOL    HW124899   4.663   2.064   8.213  1.5737 -1.0287 -3.1626
 4421SOL    HW224900   4.534   1.980   8.228 -0.3031 -0.5585  0.9436
 4422SOL     OW24901   0.374   0.811   9.536  0.2704 -0.2535 -0.0201
 4422SOL    HW124902   0.379   0.719   9.512  2.2239 -0.4241  1.0617
 4422SOL    HW224903   0.389   0.804   9.631 -0.0475  3.4769  0.3133
 4423SOL     OW24904   3.740   2.892   0.917 -0.1860 -0.6372 -0.5931
 4423SOL    HW124905   3.792   2.829   0.868  0.4974 -1.2640  0.9484
 4423SOL    HW224906   3.802   2.944   0.967 -0.0085 -1.0952 -0.3423
 4424SOL     OW24907   3.239   3.886   7.265  0.3343 -0.3350  0.4451
 4424SOL    HW124908   3.242   3.977   7.293 -0.6383  0.1778 -1.1088
 4424SOL    HW224909   3.155   3.874   7.220  0.5307  1.0849 -0.3046
 4425SOL     OW24910   2.811   2.193   9.402 -0.3070 -0.1264 -0.0818
 4425SOL    HW124911   2.788   2.208   9.310 -0.3652 -1.9332 -0.3539
 4425SOL    HW224912   2.857   2.110   9.393 -0.3726 -0.0497 -1.0619
 4426SOL     OW24913   0.661   4.301  12.642  0.0406 -0.0565  0.2149
 4426SOL    HW124914   0.632   4.287  12.552  0.0364 -1.0232  0.3686
 4426SOL    HW224915   0.573   4.273  12.669  0.5302 -1.2666  0.5554
 4427SOL     OW24916   0.458   0.941   6.656  0.9615  0.5193  0.8527
 4427SOL    HW124917   0.388   0.995   6.619 -0.8721 -1.1448  1.8955
 4427SOL    HW224918   0.413   0.860   6.634  0.3902  0.8833  0.6782
 4428SOL     OW24919   2.524   3.949  17.353  0.0845 -0.1337 -0.5342
 4428SOL    HW124920   2.489   3.917  17.271 -0.4908  3.3741 -1.6667
 4428SOL    HW224921   2.608   3.984  17.322  0.0310  0.5333  0.0576
 4429SOL     OW24922   1.728   4.187   5.768  0.3091 -0.2694  0.5687
 4429SOL    HW124923   1.721   4.094   5.744 -0.6083  0.0646 -0.4733
 4429SOL    HW224924   1.823   4.196   5.780  0.4026 -2.2884  1.3012
 4430SOL     OW24925   4.052   3.911   3.240  0.2856  0.3889 -0.7363
 4430SOL    HW124926   3.985   3.912   3.171 -0.8398  0.8179  0.3568
 4430SOL    HW224927   4.073   4.004   3.246 -0.6580  0.6285 -1.0473
 4431SOL     OW24928   2.156   0.187   3.719  0.2448 -0.5389 -0.6119
 4431SOL    HW124929   2.222   0.120   3.698  0.0570 -1.6965  2.5638
 4431SOL    HW224930   2.188   0.260   3.666 -1.0337  0.3792 -0.1179
 4432SOL     OW24931   4.219   0.643   8.211 -0.6966 -0.5902  0.2398
 4432SOL    HW124932   4.178   0.705   8.150 -0.8977 -1.5504 -0.6023
 4432SOL    HW224933   4.167   0.562   8.201  0.3200 -1.4086  1.6195
 4433SOL     OW24934   3.796   4.524  11.616 -0.4761 -0.4521  0.9566
 4433SOL    HW124935   3.743   4.445  11.627 -0.0524 -0.6607  1.4519
 4433SOL    HW224936   3.743   4.587  11.664  0.6911 -0.6928  2.5469
 4434SOL     OW24937   0.284   1.266   7.444 -0.2023 -0.2944  0.3752
 4434SOL    HW124938   0.363   1.225   7.409  0.3995  0.2414  1.1166
 4434SOL    HW224939   0.256   1.328   7.378  1.9227  0.9099  0.6155
 4435SOL     OW24940   3.757   3.099   7.560  0.0542  0.0854 -0.5612
 4435SOL    HW124941   3.754   3.006   7.538 -1.2642 -0.3050  1.2084
 4435SOL    HW224942   3.667   3.126   7.541 -0.5571 -1.3459  0.3326
 4436SOL     OW24943   2.104   3.735   7.861 -0.2531  0.4436  0.2511
 4436SOL    HW124944   2.148   3.657   7.827  1.5830  1.3993  0.4629
 4436SOL    HW224945   2.091   3.706   7.952  1.2333  0.2794  0.4159
 4437SOL     OW24946   4.587   1.110   3.368 -0.2236 -0.1941 -0.3283
 4437SOL    HW124947   4.657   1.137   3.428  0.4585 -1.2029 -0.6630
 4437SOL    HW224948   4.535   1.190   3.367 -2.0930 -1.4444 -2.6244
 4438SOL     OW24949   0.119   4.158  17.285  0.2120  0.3233  0.2917
 4438SOL    HW124950   0.178   4.232  17.270 -2.5628  2.5916  0.5179
 4438SOL    HW224951   0.058   4.208  17.340  0.4411  0.1768  0.6838
 4439SOL     OW24952   2.065   2.395   4.028 -0.4664  0.2070 -0.5128
 4439SOL    HW124953   2.059   2.300   4.024  1.5626  0.0212  1.0367
 4439SOL    HW224954   2.010   2.418   4.103 -3.5493 -3.2355 -1.7147
 4440SOL     OW24955   1.120   1.549   0.914  0.0705 -0.1187  0.2779
 4440SOL    HW124956   1.158   1.594   0.989  1.1519 -0.8870  0.1893
 4440SOL    HW224957   1.132   1.613   0.844  0.1750  0.2583  0.6416
 4441SOL     OW24958   2.272   4.492  11.831 -0.4728 -0.2864 -0.0457
 4441SOL    HW124959   2.178   4.473  11.820 -0.2342 -1.9563  0.6764
 4441SOL    HW224960   2.275   4.463  11.922 -1.7827  0.9240  0.3907
 4442SOL     OW24961   1.644   1.487   8.875 -0.5388 -0.6245  0.0777
 4442SOL    HW124962   1.623   1.570   8.916  0.2620  0.8968 -2.5948
 4442SOL    HW224963   1.661   1.441   8.958 -0.6098 -0.0035  0.4346
 4443SOL     OW24964   2.227   1.542   7.011 -0.1593  0.3780  0.0832
 4443SOL    HW124965   2.255   1.586   7.091 -1.3103 -0.8757  1.1781
 4443SOL    HW224966   2.210   1.451   7.036  2.4824 -0.4052 -0.9692
 4444SOL     OW24967   2.064   0.085   2.403  0.0179  0.1680 -0.0907
 4444SOL    HW124968   2.092   0.029   2.331  0.3366 -1.8599  1.5927
 4444SOL    HW224969   2.056   0.028   2.480 -0.3184 -0.6791 -0.7453
 4445SOL     OW24970   1.889   1.337   0.274  0.8586 -0.0583 -0.1058
 4445SOL    HW124971   1.916   1.248   0.298  1.2215 -0.6181 -2.6165
 4445SOL    HW224972   1.968   1.389   0.256  0.9240 -0.4094 -0.8446
 4446SOL     OW24973   2.882   4.450  17.200  0.4613 -0.1640  0.1763
 4446SOL    HW124974   2.810   4.475  17.142 -2.0674 -1.7816  2.6082
 4446SOL    HW224975   2.831   4.391  17.255 -0.8111  1.6376  0.9595
 4447SOL     OW24976   3.955   3.614  16.565  0.2127  0.6574  0.0551
 4447SOL    HW124977   3.940   3.561  16.487  0.3489  1.5013 -0.5324
 4447SOL    HW224978   3.962   3.533  16.617  0.6352  1.8989  1.9385
 4448SOL     OW24979   2.251   3.253   6.468 -0.1376  0.3874 -0.0399
 4448SOL    HW124980   2.173   3.234   6.520  0.2091 -2.1539 -0.4585
 4448SOL    HW224981   2.226   3.267   6.376  0.4725  0.1507 -0.2390
 4449SOL     OW24982   3.171   2.955   8.101 -0.1390 -0.0147  0.1700
 4449SOL    HW124983   3.182   3.000   8.184 -1.6046 -1.2032  1.0024
 4449SOL    HW224984   3.141   3.026   8.045 -2.5956 -0.0115  1.5101
 4450SOL     OW24985   4.312   2.017   4.174  0.9993 -0.1006 -0.0149
 4450SOL    HW124986   4.330   2.023   4.268  1.4500 -0.9582 -0.0503
 4450SOL    HW224987   4.222   1.984   4.178  1.8332 -2.2493  1.2041
 4451SOL     OW24988   1.602   2.496   6.034  0.1029 -0.3367  0.2362
 4451SOL    HW124989   1.618   2.494   5.940 -0.7340 -0.1461  0.0949
 4451SOL    HW224990   1.608   2.590   6.054  0.0773 -0.7755  2.3400
 4452SOL     OW24991   2.240   4.003   2.377  0.2506  0.0273 -0.3374
 4452SOL    HW124992   2.217   4.026   2.467 -0.5465  2.3559 -1.1236
 4452SOL    HW224993   2.183   4.066   2.332 -0.1114 -0.0359  0.0307
 4453SOL     OW24994   4.349   3.200  17.468  0.9650 -0.1982  0.2574
 4453SOL    HW124995   4.338   3.114  17.427  0.3882 -1.1390  2.3352
 4453SOL    HW224996   4.335   3.173  17.560 -0.9724  1.3978  0.4306
 4454SOL     OW24997   1.988   3.115  15.526 -0.3836  0.2675 -0.5908
 4454SOL    HW124998   2.062   3.166  15.491  0.5187 -0.5771  0.0696
 4454SOL    HW224999   2.028   3.034  15.559  0.2548  0.4022 -1.0350
 4455SOL     OW25000   1.550   3.139   8.211 -0.1938 -0.3927  0.5146
 4455SOL    HW125001   1.561   3.048   8.237  1.0870 -0.2299  0.5690
 4455SOL    HW225002   1.575   3.141   8.118 -0.5410  0.6815  0.4411
 4456SOL     OW25003   3.808   4.187   6.205 -0.1724  0.2897 -0.1624
 4456SOL    HW125004   3.901   4.164   6.200 -0.6286 -1.4363 -0.8247
 4456SOL    HW225005   3.809   4.268   6.154 -1.6704  0.0516 -0.5526
 4457SOL     OW25006   1.415   3.942  16.486 -0.6546 -0.3016  0.0374
 4457SOL    HW125007   1.463   3.868  16.449  1.1041 -0.4774  2.7431
 4457SOL    HW225008   1.428   3.929  16.580 -2.9937  2.6257  0.7828
 4458SOL     OW25009   0.928   2.794   6.072  0.1020 -0.2151 -0.0376
 4458SOL    HW125010   0.953   2.702   6.072  1.4432  0.1402  0.7180
 4458SOL    HW225011   0.864   2.791   6.143 -0.4708  0.3395 -0.5293
 4459SOL     OW25012   4.535   3.285   3.337 -0.3036  1.2277  0.3428
 4459SOL    HW125013   4.537   3.379   3.319 -1.3646  1.4704  1.5018
 4459SOL    HW225014   4.472   3.258   3.271  1.8003 -0.1380 -1.1054
 4460SOL     OW25015   3.205   4.480  13.312  0.3064 -0.3636  0.0688
 4460SOL    HW125016   3.206   4.564  13.267 -1.1779  0.0160  0.7493
 4460SOL    HW225017   3.112   4.467  13.331  0.5132 -1.4829  0.3329
 4461SOL     OW25018   4.531   4.252  13.926  0.5424  0.0219  0.0285
 4461SOL    HW125019   4.535   4.231  13.833 -0.2448 -1.4979  0.3462
 4461SOL    HW225020   4.604   4.313  13.938  2.0361 -2.2272  2.2586
 4462SOL     OW25021   0.485   3.642  15.371  0.1433  0.6044  0.2550
 4462SOL    HW125022   0.523   3.697  15.302  0.1574  0.3980  0.0949
 4462SOL    HW225023   0.395   3.650  15.339 -0.2039 -1.7896  0.6242
 4463SOL     OW25024   0.439   4.004   7.992 -0.3620  0.0789  0.3140
 4463SOL    HW125025   0.484   4.059   8.057  0.8771  1.1641 -1.4550
 4463SOL    HW225026   0.489   4.021   7.912 -0.1351 -0.0006  0.4398
 4464SOL     OW25027   3.618   0.437   6.320  0.9914 -0.4191 -0.1945
 4464SOL    HW125028   3.587   0.523   6.292  0.2563 -0.5530  0.2118
 4464SOL    HW225029   3.710   0.462   6.326  0.8463  0.7166 -2.7362
 4465SOL     OW25030   2.195   4.015   5.415  0.3165 -0.2571  0.0141
 4465SOL    HW125031   2.278   3.983   5.379 -0.2393 -3.1586  1.3034
 4465SOL    HW225032   2.220   4.022   5.507 -0.2669  0.7904  0.0918
 4466SOL     OW25033   4.514   0.966   8.549 -0.5194  0.2445 -0.2192
 4466SOL    HW125034   4.572   1.042   8.553  2.0498 -1.6971 -0.8649
 4466SOL    HW225035   4.534   0.924   8.632 -1.9403 -2.0733 -1.0349
 4467SOL     OW25036   2.157   2.489   8.037  0.1325 -0.1095 -0.5423
 4467SOL    HW125037   2.097   2.558   8.010 -0.7602 -0.3735  0.7800
 4467SOL    HW225038   2.189   2.515   8.123  2.3183 -1.1609 -1.0405
 4468SOL     OW25039   0.425   4.234   7.515  0.2039 -0.0439 -0.3820
 4468SOL    HW125040   0.414   4.303   7.450  1.1708 -0.8017 -1.3538
 4468SOL    HW225041   0.432   4.158   7.459  3.3090  0.6390 -0.9491
 4469SOL     OW25042   0.812   1.079   5.723 -0.6397 -0.3767  0.0583
 4469SOL    HW125043   0.791   1.095   5.815 -1.6875  0.4657 -0.3214
 4469SOL    HW225044   0.901   1.112   5.736 -0.7185 -0.4295  0.7238
 4470SOL     OW25045   3.846   2.709   7.987 -0.0848 -0.2616 -0.5497
 4470SOL    HW125046   3.810   2.743   8.069 -2.8892 -1.4697 -1.2805
 4470SOL    HW225047   3.823   2.616   7.986  1.6485 -0.7066  1.5731
 4471SOL     OW25048   1.929   3.020   7.873  0.1288  0.0368 -0.0713
 4471SOL    HW125049   1.906   3.113   7.870 -0.6153 -0.1387  0.3314
 4471SOL    HW225050   2.012   3.035   7.917  1.3961 -0.8550 -2.1567
 4472SOL     OW25051   0.403   1.519  10.225 -0.0805  0.7018  0.3048
 4472SOL    HW125052   0.486   1.552  10.192 -0.4454  0.5421 -0.7846
 4472SOL    HW225053   0.390   1.562  10.309 -2.1413 -0.8272  0.7734
 4473SOL     OW25054   0.776   1.167   5.980  0.0479  0.0796 -0.4331
 4473SOL    HW125055   0.689   1.135   5.955  0.7993 -1.6133 -0.8915
 4473SOL    HW225056   0.775   1.262   5.978 -0.0504  0.0864 -0.1082
 4474SOL     OW25057   1.399   0.607   2.366  0.5067  0.0613 -0.1874
 4474SOL    HW125058   1.422   0.547   2.295  1.5755 -0.8625  0.9471
 4474SOL    HW225059   1.457   0.682   2.351  0.1114  0.5075  0.5212
 4475SOL     OW25060   3.180   1.964   4.858  0.6985  0.2414 -0.0418
 4475SOL    HW125061   3.123   1.894   4.826  0.4375  0.1295  0.6690
 4475SOL    HW225062   3.254   1.934   4.805  0.2879 -0.5744 -0.1629
 4476SOL     OW25063   3.928   4.446   7.253 -0.1530  0.0149  0.1865
 4476SOL    HW125064   3.930   4.396   7.335 -0.0263 -0.1202  0.1001
 4476SOL    HW225065   3.836   4.444   7.226  0.0890 -0.0844 -0.6164
 4477SOL     OW25066   1.501   0.834   2.269  0.1921  0.2150  0.2272
 4477SOL    HW125067   1.483   0.853   2.177  1.1156  1.1546  0.2400
 4477SOL    HW225068   1.460   0.911   2.309  0.4125  0.5313 -0.1500
 4478SOL     OW25069   0.181   2.065  11.739  0.2387  0.1186 -0.2363
 4478SOL    HW125070   0.156   1.973  11.740  0.4845  0.0607  0.8171
 4478SOL    HW225071   0.123   2.110  11.678 -1.3333  0.4208  1.4846
 4479SOL     OW25072   4.331   2.360   4.378  0.3783  0.0814 -0.2020
 4479SOL    HW125073   4.283   2.375   4.297 -0.1270 -0.6316 -0.0315
 4479SOL    HW225074   4.283   2.410   4.443  0.3517 -0.2432  0.0315
 4480SOL     OW25075   2.038   1.806   2.239  0.0848  0.1772 -0.6616
 4480SOL    HW125076   1.964   1.829   2.295 -1.3700  0.4090 -2.6936
 4480SOL    HW225077   2.004   1.811   2.150 -0.3865  3.5349 -0.2872
 4481SOL     OW25078   4.040   0.080   3.355  0.7526 -0.5394 -0.3417
 4481SOL    HW125079   4.027   0.008   3.417  0.2023 -0.0692  0.0886
 4481SOL    HW225080   3.996   0.153   3.397  4.7007  1.1121  0.9869
 4482SOL     OW25081   0.819   2.666   8.590  0.0840 -0.4254 -0.3066
 4482SOL    HW125082   0.744   2.699   8.640  0.6524 -0.8826  0.8448
 4482SOL    HW225083   0.774   2.632   8.512  0.7335  1.0901 -1.3451
 4483SOL     OW25084   1.457   4.355  13.625 -0.4215 -0.4974 -0.1177
 4483SOL    HW125085   1.499   4.278  13.587 -0.0499  0.6721 -2.0582
 4483SOL    HW225086   1.459   4.351  13.721  1.8431  0.8448 -0.1012
 4484SOL     OW25087   1.805   1.905  15.094 -0.1033 -0.1239 -0.3204
 4484SOL    HW125088   1.754   1.950  15.028 -2.3876 -0.6932  1.0712
 4484SOL    HW225089   1.762   1.899  15.180  2.9973 -0.3265  1.2405
 4485SOL     OW25090   2.999   1.399   5.467 -0.2367 -0.1784 -0.4608
 4485SOL    HW125091   3.006   1.478   5.520 -1.0172 -1.1577  1.1187
 4485SOL    HW225092   3.068   1.342   5.502 -0.8776 -0.0650  0.9812
 4486SOL     OW25093   3.206   3.084   0.516 -0.2182 -0.4857  0.1053
 4486SOL    HW125094   3.125   3.131   0.537  1.7110  2.1196  1.9019
 4486SOL    HW225095   3.172   3.015   0.460 -1.0976 -0.0981  0.1635
 4487SOL     OW25096   0.332   1.606   6.327  0.0686 -0.6485  0.1303
 4487SOL    HW125097   0.400   1.572   6.269 -0.2138  1.0674 -1.1956
 4487SOL    HW225098   0.265   1.615   6.260 -0.4856  1.2062  0.9225
 4488SOL     OW25099   2.052   2.910   5.179  0.1700  0.4157 -0.1088
 4488SOL    HW125100   2.146   2.913   5.163  0.1020  0.7520 -0.4618
 4488SOL    HW225101   2.051   2.816   5.195 -0.3534  0.6292  1.1526
 4489SOL     OW25102   2.304   4.487   7.904  0.0331 -0.3215 -0.0214
 4489SOL    HW125103   2.267   4.515   7.821 -0.7953  0.7242  0.6981
 4489SOL    HW225104   2.246   4.413   7.921 -0.0397 -0.4976 -1.0353
 4490SOL     OW25105   0.164   4.026   0.345  0.3022 -0.0771 -0.1706
 4490SOL    HW125106   0.178   3.935   0.319  1.5130 -0.6487  2.4673
 4490SOL    HW225107   0.088   4.048   0.292  1.5169  2.1089 -0.9971
 4491SOL     OW25108   3.525   2.737   3.244 -0.0001 -0.2046  0.4339
 4491SOL    HW125109   3.599   2.676   3.241 -0.4406 -0.6745 -0.6550
 4491SOL    HW225110   3.485   2.701   3.323 -0.6805  0.2556  0.2956
 4492SOL     OW25111   1.978   1.135  11.643 -0.2460  0.1834  0.1240
 4492SOL    HW125112   1.904   1.087  11.606  1.0233 -1.3529 -0.4545
 4492SOL    HW225113   1.942   1.188  11.714  1.1784  3.0939 -1.3222
 4493SOL     OW25114   3.747   3.978   8.569 -0.3256 -0.2307  0.0178
 4493SOL    HW125115   3.781   4.066   8.588 -0.2648 -0.9001  2.9814
 4493SOL    HW225116   3.758   3.986   8.474 -0.7494  2.9904  0.2265
 4494SOL     OW25117   1.035   2.331   2.652 -0.3379 -0.0742  0.1764
 4494SOL    HW125118   1.038   2.255   2.710 -1.3664  1.4499  2.2091
 4494SOL    HW225119   1.069   2.303   2.567  3.6793  0.3011  1.7012
 4495SOL     OW25120   2.656   1.159   7.161 -0.3043  0.5950 -0.7599
 4495SOL    HW125121   2.630   1.163   7.253 -1.4990 -0.6381 -1.0490
 4495SOL    HW225122   2.571   1.137   7.125 -0.5532  1.8388 -0.9483
 4496SOL     OW25123   3.178   3.651   4.493  0.0134 -0.4605 -0.3820
 4496SOL    HW125124   3.098   3.675   4.539 -0.0347 -0.6298 -0.3768
 4496SOL    HW225125   3.191   3.560   4.522  0.9367  0.4111  1.9048
 4497SOL     OW25126   4.701   2.729   3.919 -0.2864  0.0427  0.0308
 4497SOL    HW125127   4.686   2.750   4.011 -0.1147 -0.3495  0.1470
 4497SOL    HW225128   0.022   2.802   3.894  2.5463 -2.2191 -0.1764
 4498SOL     OW25129   3.533   4.037   9.137 -0.7641 -0.1510  0.5150
 4498SOL    HW125130   3.493   4.033   9.224 -0.5952 -0.8311  0.5572
 4498SOL    HW225131   3.481   3.982   9.080  0.3004 -1.3779  0.7303
 4499SOL     OW25132   3.240   0.076   8.425 -0.4633 -0.3524  0.1373
 4499SOL    HW125133   3.255   0.170   8.428  2.5261 -0.8179 -1.2229
 4499SOL    HW225134   3.157   0.068   8.378 -0.3247 -1.2854  0.0573
 4500SOL     OW25135   4.383   1.165  16.446 -0.2776 -0.0720 -0.1531
 4500SOL    HW125136   4.322   1.118  16.503 -1.8948  1.2789 -0.7851
 4500SOL    HW225137   4.328   1.241  16.426  1.0026  0.8557 -0.1812
 4501SOL     OW25138   3.244   4.065   5.582  0.6843  0.3564  0.3294
 4501SOL    HW125139   3.326   4.020   5.558 -0.2140 -0.7308 -0.6833
 4501SOL    HW225140   3.187   4.038   5.510  2.0808 -2.1838  0.1591
 4502SOL     OW25141   2.221   3.838   3.983  0.2173 -0.1526 -0.0439
 4502SOL    HW125142   2.296   3.863   4.036 -0.6647 -0.2852  1.2492
 4502SOL    HW225143   2.250   3.748   3.970  2.8353  0.5200  1.2547
 4503SOL     OW25144   3.346   2.285   4.416  0.4180  0.1788 -0.2038
 4503SOL    HW125145   3.310   2.333   4.341  1.1429 -2.4685 -2.2667
 4503SOL    HW225146   3.328   2.192   4.400 -1.1792  0.3017  0.8685
 4504SOL     OW25147   4.682   3.929   5.687 -0.1207  0.3130 -0.0370
 4504SOL    HW125148   0.014   3.862   5.697  1.9844  2.6989  1.7721
 4504SOL    HW225149   4.612   3.883   5.641  1.4630 -1.4875 -0.6456
 4505SOL     OW25150   0.267   0.389   9.480 -0.3138 -0.6403 -0.1465
 4505SOL    HW125151   0.343   0.447   9.485 -0.9457  0.1155  0.6446
 4505SOL    HW225152   0.205   0.449   9.439  0.5595  0.3766  0.0274
 4506SOL     OW25153   2.229   2.230   3.379 -0.0058  0.8903 -0.1291
 4506SOL    HW125154   2.270   2.236   3.466  1.6399  2.6671 -1.0300
 4506SOL    HW225155   2.152   2.282   3.400 -1.6770 -0.8568 -1.9687
 4507SOL     OW25156   0.316   4.637   9.022  0.5425 -0.3011 -0.4198
 4507SOL    HW125157   0.322   4.719   9.070  1.3198 -0.7973  0.3407
 4507SOL    HW225158   0.243   4.665   8.967 -0.8632  2.5364  2.9588
 4508SOL     OW25159   4.142   4.540   6.757  0.8349  0.0896  0.7712
 4508SOL    HW125160   4.211   4.606   6.749  0.8545  0.0563  0.6604
 4508SOL    HW225161   4.087   4.573   6.828  0.4587 -0.9548  0.9689
 4509SOL     OW25162   3.260   3.416   1.250 -0.1628 -0.3277  0.4962
 4509SOL    HW125163   3.171   3.402   1.280 -0.1836  0.7583  0.9687
 4509SOL    HW225164   3.282   3.507   1.271 -2.2204  0.6968 -1.8040
 4510SOL     OW25165   3.179   4.377   9.551 -0.1319 -0.0053  0.2793
 4510SOL    HW125166   3.209   4.316   9.483  1.2119  1.9232 -0.8703
 4510SOL    HW225167   3.127   4.442   9.504  0.8915  0.2903 -0.4689
 4511SOL     OW25168   3.219   2.112   6.358 -0.4055  0.6641 -0.9868
 4511SOL    HW125169   3.212   2.101   6.453  1.4371  0.6915 -0.8554
 4511SOL    HW225170   3.288   2.054   6.327  0.4508  0.4484  1.2759
 4512SOL     OW25171   0.297   2.022  14.827 -0.0776  0.1739  0.7637
 4512SOL    HW125172   0.289   2.104  14.874 -0.5628 -0.2304  1.3862
 4512SOL    HW225173   0.350   1.965  14.883  0.6549 -0.1573 -0.2589
 4513SOL     OW25174   2.036   3.437   5.659 -0.6244 -0.1624  0.6670
 4513SOL    HW125175   1.970   3.399   5.600 -1.2646 -0.0986  1.3460
 4513SOL    HW225176   1.988   3.416   5.739  2.2283  0.5501  2.5903
 4514SOL     OW25177   1.588   2.569  15.537  0.1251 -0.2160 -0.3156
 4514SOL    HW125178   1.559   2.551  15.626 -1.9969  0.7481 -0.8131
 4514SOL    HW225179   1.657   2.635  15.553 -0.4430  0.5453 -1.0127
 4515SOL     OW25180   4.052   3.633   8.714  0.0323 -0.7216  0.3153
 4515SOL    HW125181   4.102   3.672   8.786 -1.2448  0.5979  0.4820
 4515SOL    HW225182   3.972   3.686   8.715 -0.6672 -1.7941  0.4583
 4516SOL     OW25183   1.994   4.176   3.389  0.4949 -0.0161  0.3662
 4516SOL    HW125184   2.077   4.198   3.433  0.7674  2.9813 -1.6187
 4516SOL    HW225185   1.944   4.158   3.469  2.7137 -0.4576  1.6604
 4517SOL     OW25186   2.086   0.949   3.843 -0.2963  0.2041 -0.3911
 4517SOL    HW125187   2.039   0.867   3.859 -1.3922  0.6285 -1.4860
 4517SOL    HW225188   2.033   1.008   3.896  0.2486 -0.7624  1.2100
 4518SOL     OW25189   4.519   2.708   6.861 -0.1283 -0.4856  0.3942
 4518SOL    HW125190   4.611   2.729   6.841 -0.3982 -0.6503 -1.0395
 4518SOL    HW225191   4.533   2.652   6.937 -0.2616  0.8229  1.3964
 4519SOL     OW25192   1.669   2.045  14.887  0.3204  0.5207  0.0020
 4519SOL    HW125193   1.733   2.063  14.818  1.5990 -0.7308  0.8641
 4519SOL    HW225194   1.658   2.127  14.934  1.2339 -0.5745  2.1500
 4520SOL     OW25195   0.588   0.761   1.288 -0.0910  0.2609 -0.5429
 4520SOL    HW125196   0.558   0.679   1.327  0.2012  0.4144  0.0088
 4520SOL    HW225197   0.662   0.779   1.346 -1.8612 -0.5613  1.9616
 4521SOL     OW25198   3.597   2.508   0.109  0.8170  0.3313 -0.5197
 4521SOL    HW125199   3.570   2.434   0.165  0.2027  0.7067 -0.3204
 4521SOL    HW225200   3.536   2.573   0.143  0.0844 -0.6454  0.0250
 4522SOL     OW25201   4.278   2.956   7.261  0.5597 -0.3914 -0.1270
 4522SOL    HW125202   4.201   2.945   7.206 -1.2758  2.2456  1.9522
 4522SOL    HW225203   4.245   2.913   7.340 -1.4181  0.3969 -0.5290
 4523SOL     OW25204   1.046   2.603   8.970 -0.1221 -0.5403  0.1753
 4523SOL    HW125205   1.065   2.594   8.877 -0.2027 -0.3816  0.1439
 4523SOL    HW225206   1.138   2.600   8.998 -0.2677  0.7627  0.7771
 4524SOL     OW25207   0.439   0.638  12.145  0.0753 -0.4738  0.2615
 4524SOL    HW125208   0.443   0.600  12.058  0.6613  0.4108 -0.1075
 4524SOL    HW225209   0.346   0.627  12.163  0.2516  0.3386  1.6631
 4525SOL     OW25210   3.643   3.815  13.742 -0.7057  0.0123 -0.4406
 4525SOL    HW125211   3.683   3.901  13.731 -0.5903 -0.0366 -0.4021
 4525SOL    HW225212   3.671   3.765  13.666  0.7522 -0.5541  0.4720
 4526SOL     OW25213   2.156   1.714  13.653 -0.0937 -0.1743 -0.2129
 4526SOL    HW125214   2.062   1.714  13.634 -0.1775  0.5764  0.1858
 4526SOL    HW225215   2.167   1.792  13.707  0.7394  0.0400 -0.6959
 4527SOL     OW25216   2.507   0.329   2.540 -0.1820 -0.4372  0.3355
 4527SOL    HW125217   2.517   0.409   2.592 -1.6106 -0.7817  1.1275
 4527SOL    HW225218   2.469   0.373   2.464 -1.6652  0.3984  1.5740
 4528SOL     OW25219   0.097   1.950   5.697  0.0056  0.7129 -0.1352
 4528SOL    HW125220   0.179   1.907   5.674 -1.0585 -2.4236  2.0140
 4528SOL    HW225221   0.039   1.875   5.711  1.0923  0.0138  0.5885
 4529SOL     OW25222   4.266   0.999  16.817 -0.2184 -0.3119 -0.0521
 4529SOL    HW125223   4.195   1.039  16.766 -1.2111 -2.3331 -0.2392
 4529SOL    HW225224   4.302   0.925  16.768  2.0622 -0.2408  1.4956
 4530SOL     OW25225   4.197   3.168   7.989 -0.1758 -0.1825 -0.1304
 4530SOL    HW125226   4.231   3.092   8.036 -2.0952 -1.7841 -1.2683
 4530SOL    HW225227   4.192   3.233   8.058  4.2515 -0.8581  0.8189
 4531SOL     OW25228   2.121   0.855  11.063  0.2004  0.5156  0.0298
 4531SOL    HW125229   2.044   0.875  11.011 -0.2233 -0.0591  0.4421
 4531SOL    HW225230   2.096   0.854  11.155 -0.4340 -1.0532 -0.1666
 4532SOL     OW25231   0.954   2.908   9.505 -0.1274 -1.0472 -0.6158
 4532SOL    HW125232   0.889   2.906   9.435 -0.3422 -0.8538 -0.4203
 4532SOL    HW225233   0.913   2.887   9.588 -2.0377 -0.2561 -1.3642
 4533SOL     OW25234   2.825   3.422   4.695  0.0061 -0.5308 -0.0110
 4533SOL    HW125235   2.878   3.343   4.704  1.4444  0.7750  2.7875
 4533SOL    HW225236   2.737   3.384   4.683 -0.2009  0.2989 -1.1018
 4534SOL     OW25237   2.042   4.269   8.279  0.4362  0.2785 -0.0843
 4534SOL    HW125238   1.959   4.276   8.327  1.1178  0.3257  1.0639
 4534SOL    HW225239   2.015   4.207   8.211 -0.6452 -0.1605  0.7363
 4535SOL     OW25240   3.324   4.192   1.081 -0.3786  0.1298  0.4595
 4535SOL    HW125241   3.257   4.235   1.028  1.3553  0.5611 -1.3752
 4535SOL    HW225242   3.354   4.121   1.024  3.1986  0.6360  1.7175
 4536SOL     OW25243   0.690   0.284   5.711  0.6552  0.2164 -0.5307
 4536SOL    HW125244   0.644   0.217   5.762  3.3802 -1.2990 -0.0479
 4536SOL    HW225245   0.781   0.267   5.737  0.0700 -0.0750  1.3224
 4537SOL     OW25246   4.268   2.549   3.199 -0.3442  0.3853  0.2047
 4537SOL    HW125247   4.326   2.559   3.275  1.4534  1.1209 -1.2697
 4537SOL    HW225248   4.333   2.521   3.134  0.0572  0.0119  0.7655
 4538SOL     OW25249   1.290   3.507   8.338 -0.2600 -0.0150 -0.1267
 4538SOL    HW125250   1.346   3.430   8.343 -1.3761 -0.8170  0.1285
 4538SOL    HW225251   1.277   3.524   8.431  0.8108 -0.2567  0.0639
 4539SOL     OW25252   4.287   3.760   7.195 -0.2746 -0.2945  0.5339
 4539SOL    HW125253   4.295   3.846   7.154 -1.8003 -1.0194 -1.2924
 4539SOL    HW225254   4.235   3.718   7.127  0.6706  1.6846 -1.4027
 4540SOL     OW25255   2.797   2.973   2.144 -0.4275 -0.1105 -0.3838
 4540SOL    HW125256   2.724   3.034   2.136 -0.2278  0.0097 -1.2464
 4540SOL    HW225257   2.774   2.934   2.228  0.4177  0.8828  0.3293
 4541SOL     OW25258   1.655   0.863   8.810  0.0946  0.8711 -0.5940
 4541SOL    HW125259   1.743   0.899   8.827  1.4359 -2.0916 -1.2797
 4541SOL    HW225260   1.606   0.936   8.847  0.1575 -0.7996  2.7805
 4542SOL     OW25261   2.682   2.781  16.716  0.0575  0.1644  0.5055
 4542SOL    HW125262   2.742   2.843  16.757 -1.5047  2.9484 -1.3994
 4542SOL    HW225263   2.701   2.793  16.623  0.6557  0.1241  0.6217
 4543SOL     OW25264   3.803   3.860   1.880 -0.4024  0.2979  0.0111
 4543SOL    HW125265   3.779   3.886   1.969  2.2592  0.9620  0.5412
 4543SOL    HW225266   3.775   3.769   1.869  2.5658 -0.5801 -0.2925
 4544SOL     OW25267   2.021   0.585   7.836  0.1694 -0.2585  0.0296
 4544SOL    HW125268   2.027   0.676   7.804 -1.8015  0.2499  1.0887
 4544SOL    HW225269   2.023   0.608   7.929 -1.0134 -0.7319  0.1768
 4545SOL     OW25270   1.581   0.576  11.691 -0.0169  0.1189  0.5213
 4545SOL    HW125271   1.665   0.557  11.649  0.1182 -1.0315  1.3244
 4545SOL    HW225272   1.596   0.594  11.784 -1.2394  0.3556  0.6811
 4546SOL     OW25273   2.787   4.218   3.212  0.4214 -0.8018 -0.1905
 4546SOL    HW125274   2.863   4.211   3.154  0.2649  0.0464 -0.4967
 4546SOL    HW225275   2.783   4.313   3.221 -0.1786 -0.7473 -1.1057
 4547SOL     OW25276   3.521   4.123   1.261 -0.0266  0.5237 -0.2201
 4547SOL    HW125277   3.474   4.048   1.297  0.6916  0.0315 -0.3086
 4547SOL    HW225278   3.467   4.138   1.183 -1.7384 -0.0593  0.8436
 4548SOL     OW25279   3.544   3.206   5.775 -0.2044 -0.1776  0.5006
 4548SOL    HW125280   3.552   3.221   5.681  1.3201  0.8205  0.7838
 4548SOL    HW225281   3.509   3.118   5.782  0.8355 -0.5721  0.7885
 4549SOL     OW25282   1.266   1.934  12.507  0.3691  0.3052  0.1354
 4549SOL    HW125283   1.256   1.903  12.417 -0.6365 -0.9691  0.6845
 4549SOL    HW225284   1.360   1.921  12.518  0.7790 -0.5727 -4.3021
 4550SOL     OW25285   0.323   4.308   8.286  0.3461  0.0881 -0.5597
 4550SOL    HW125286   0.323   4.309   8.191 -0.2998 -0.7441 -0.5669
 4550SOL    HW225287   0.394   4.368   8.309 -0.7318  1.1991 -0.1315
 4551SOL     OW25288   0.831   2.862   0.982 -0.0825  0.0019  0.1431
 4551SOL    HW125289   0.898   2.795   0.969  1.1154  0.1964  5.1079
 4551SOL    HW225290   0.812   2.864   1.076  1.2641 -0.5291  0.4303
 4552SOL     OW25291   0.686   4.062   5.521  0.1626 -0.4778 -0.6163
 4552SOL    HW125292   0.619   4.097   5.463 -0.4839 -0.1669  0.3127
 4552SOL    HW225293   0.629   3.999   5.566 -0.6632 -0.0706 -1.0958
 4553SOL     OW25294   0.986   2.144  10.548 -0.3508  0.0362 -0.1661
 4553SOL    HW125295   0.919   2.116  10.610  1.2564 -0.1822  1.4613
 4553SOL    HW225296   0.937   2.183  10.475 -1.8924 -1.8006 -0.1235
 4554SOL     OW25297   3.211   0.877   5.613  0.7732 -0.2845  0.2803
 4554SOL    HW125298   3.299   0.880   5.576  1.2241 -0.9295  1.2825
 4554SOL    HW225299   3.204   0.961   5.658 -0.6126  0.5360 -1.5039
 4555SOL     OW25300   2.871   0.526   7.314  0.4451  0.4416 -0.1502
 4555SOL    HW125301   2.871   0.537   7.219  0.5137  1.9742  0.0291
 4555SOL    HW225302   2.800   0.463   7.325  1.1791 -0.2220  0.8418
 4556SOL     OW25303   3.902   3.221   4.515  0.2273 -0.2922  0.0789
 4556SOL    HW125304   3.916   3.260   4.601  1.5364  0.0678 -0.2955
 4556SOL    HW225305   3.892   3.130   4.545  0.5281 -0.2876  0.1933
 4557SOL     OW25306   0.076   2.161  15.744 -0.0801  0.1048  0.0870
 4557SOL    HW125307   0.155   2.134  15.791  1.2106  2.1820 -0.9277
 4557SOL    HW225308   0.032   2.209  15.815  0.7181  2.1673 -0.8192
 4558SOL     OW25309   1.586   2.144   2.409  0.3924  0.0477 -0.5191
 4558SOL    HW125310   1.510   2.191   2.374 -0.2141 -1.4365 -1.1641
 4558SOL    HW225311   1.623   2.103   2.331 -0.4038 -0.2357 -0.7450
 4559SOL     OW25312   4.703   3.584   3.338  0.0098 -0.8188  0.4493
 4559SOL    HW125313   4.722   3.652   3.403 -4.1789  1.1472 -0.4145
 4559SOL    HW225314   4.608   3.594   3.346  0.3083  0.9938  1.7377
 4560SOL     OW25315   3.776   2.044   6.366 -0.2781  0.0064 -0.0519
 4560SOL    HW125316   3.708   2.084   6.419  1.2737  0.1382  1.8273
 4560SOL    HW225317   3.826   2.118   6.333  0.2319 -0.8707 -1.2780
 4561SOL     OW25318   2.782   4.295   9.597 -0.2758 -0.1979  0.1923
 4561SOL    HW125319   2.831   4.228   9.549 -1.8616 -0.6393 -0.8296
 4561SOL    HW225320   2.692   4.264   9.605 -0.3640 -0.3980 -1.5356
 4562SOL     OW25321   3.831   4.484   1.481  0.5323  0.4089  0.1380
 4562SOL    HW125322   3.838   4.471   1.386  1.9992  0.0706  0.2796
 4562SOL    HW225323   3.768   4.414   1.498  0.2007  0.6677 -0.0207
 4563SOL     OW25324   0.311   0.418   6.314 -0.2977  0.1104 -0.1029
 4563SOL    HW125325   0.274   0.497   6.274  0.9032  0.4307 -0.5874
 4563SOL    HW225326   0.271   0.421   6.401 -0.6121 -0.1457 -0.2363
 4564SOL     OW25327   1.587   2.991   4.991 -0.4208  0.2208  0.2836
 4564SOL    HW125328   1.663   2.965   5.042 -0.9965  0.5822  1.3155
 4564SOL    HW225329   1.522   3.001   5.060 -1.2972  0.0138 -0.5109
 4565SOL     OW25330   3.360   1.194  11.623 -0.0018 -0.4536 -0.4653
 4565SOL    HW125331   3.438   1.150  11.658  0.6859  0.4615 -0.8118
 4565SOL    HW225332   3.395   1.236  11.544 -1.0551  1.3346  0.0145
 4566SOL     OW25333   2.015   0.395   1.025  0.2182  0.7910  0.0459
 4566SOL    HW125334   2.085   0.459   1.032 -1.0844  2.2487 -0.3416
 4566SOL    HW225335   2.054   0.328   1.082 -0.7201 -0.4275 -0.7351
 4567SOL     OW25336   3.589   1.274   6.385 -0.2406 -0.4128 -0.7185
 4567SOL    HW125337   3.616   1.221   6.309 -0.9742 -1.2922 -0.3634
 4567SOL    HW225338   3.663   1.334   6.383 -0.2335 -0.3606  1.2524
 4568SOL     OW25339   3.015   4.721   6.101  0.5132  0.0770 -0.0971
 4568SOL    HW125340   3.004   4.702   6.008  1.6588 -4.7462  0.7494
 4568SOL    HW225341   3.110   0.000   6.106  0.3617  1.2053 -0.7096
 4569SOL     OW25342   1.553   2.296   8.467 -0.1446 -0.0469  0.2023
 4569SOL    HW125343   1.502   2.269   8.391 -0.8003 -0.2857  0.7203
 4569SOL    HW225344   1.563   2.388   8.445  0.0066  0.7213  3.4254
 4570SOL     OW25345   0.543   2.183   5.139  0.2231  0.3505 -0.0372
 4570SOL    HW125346   0.601   2.190   5.063 -1.2685 -1.0033 -1.2934
 4570SOL    HW225347   0.462   2.147   5.104 -1.2053  2.7048  0.7814
 4571SOL     OW25348   4.305   4.591   3.287  0.4992 -0.5984  0.2940
 4571SOL    HW125349   4.217   4.596   3.324  1.1655  1.7967  1.5274
 4571SOL    HW225350   4.362   4.627   3.355 -0.5275  1.2348  0.1586
 4572SOL     OW25351   1.019   4.476   4.863  0.2334  0.2663 -0.5378
 4572SOL    HW125352   0.926   4.473   4.839  0.4486  1.4610 -1.5762
 4572SOL    HW225353   1.007   4.476   4.958  0.9268 -0.0547 -0.4541
 4573SOL     OW25354   1.582   3.487  17.419  0.0899 -0.3550 -0.0966
 4573SOL    HW125355   1.625   3.411  17.380  1.1410 -0.2143  0.7896
 4573SOL    HW225356   1.660   3.529  17.455 -0.3078 -0.0104  0.3742
 4574SOL     OW25357   3.218   4.163   6.715  0.7482 -0.0180 -0.6523
 4574SOL    HW125358   3.252   4.235   6.661  0.7401  0.8633  0.5180
 4574SOL    HW225359   3.144   4.137   6.661 -0.5760  0.2047  1.0673
 4575SOL     OW25360   0.762   3.800   0.318  0.6562 -0.3555 -0.0535
 4575SOL    HW125361   0.670   3.818   0.337  0.6646  1.1570 -1.3870
 4575SOL    HW225362   0.769   3.713   0.278  0.0897 -1.8378  3.1122
 4576SOL     OW25363   4.122   4.173   3.228  0.0699 -0.4045 -0.0944
 4576SOL    HW125364   4.172   4.172   3.309 -1.1743  0.7755  0.6825
 4576SOL    HW225365   4.143   4.261   3.198 -0.5588  0.7051  2.7690
 4577SOL     OW25366   3.069   2.761   2.651 -0.4170 -0.8971 -0.1253
 4577SOL    HW125367   3.072   2.854   2.670 -2.2116 -0.3834 -2.3027
 4577SOL    HW225368   3.107   2.753   2.563 -0.2053  0.9827 -0.1958
 4578SOL     OW25369   0.598   1.369  17.357  0.2713  0.2621 -0.0530
 4578SOL    HW125370   0.552   1.450  17.335 -0.9921 -0.3064  0.4751
 4578SOL    HW225371   0.585   1.375  17.452  0.6232  1.4721 -0.0747
 4579SOL     OW25372   2.582   1.056   5.087 -0.2539 -0.3356  0.4061
 4579SOL    HW125373   2.505   1.108   5.063  1.4129  1.8909 -0.1146
 4579SOL    HW225374   2.579   1.079   5.180  0.6451  3.2312 -0.4163
 4580SOL     OW25375   1.032   4.200  10.999  0.4628 -0.3288  0.2218
 4580SOL    HW125376   1.060   4.142  10.929 -0.8382 -0.7622  0.0727
 4580SOL    HW225377   0.953   4.152  11.025 -0.4673  0.3758 -1.3221
 4581SOL     OW25378   1.608   3.185   2.609  0.5437 -0.1780 -0.0612
 4581SOL    HW125379   1.525   3.189   2.657  1.1132 -1.4071  1.0331
 4581SOL    HW225380   1.604   3.272   2.570 -0.9560  0.5288  1.6681
 4582SOL     OW25381   1.411   1.850   9.601  0.1032  0.3269 -0.4340
 4582SOL    HW125382   1.385   1.769   9.556 -0.5223  0.8004 -0.9139
 4582SOL    HW225383   1.329   1.880   9.639  1.4323  4.7644 -1.1636
 4583SOL     OW25384   0.294   3.057   3.354  0.1827 -0.3621  0.3065
 4583SOL    HW125385   0.222   3.104   3.312  0.9612 -0.2767 -0.9596
 4583SOL    HW225386   0.246   2.975   3.361 -0.6367  0.0297 -0.7763
 4584SOL     OW25387   3.181   2.811   6.970  0.4409 -0.1896 -0.5939
 4584SOL    HW125388   3.172   2.903   6.996 -1.1900 -0.9505  1.5150
 4584SOL    HW225389   3.175   2.771   7.056 -0.8471  1.8560  0.2667
 4585SOL     OW25390   0.179   0.603  16.373  0.0143 -0.5206  0.7192
 4585SOL    HW125391   0.216   0.577  16.458 -0.2634 -2.3800  0.2818
 4585SOL    HW225392   0.102   0.656  16.393 -1.9406 -2.2912 -2.0286
 4586SOL     OW25393   2.189   3.672   5.331 -0.2191 -0.0799 -0.0832
 4586SOL    HW125394   2.140   3.690   5.412  2.2941  2.6354  0.7999
 4586SOL    HW225395   2.275   3.709   5.349  0.5572 -2.6988  1.6945
 4587SOL     OW25396   0.543   2.692  17.291  0.2280 -0.0650 -0.1585
 4587SOL    HW125397   0.566   2.615  17.344  3.3863  0.5329 -0.6580
 4587SOL    HW225398   0.627   2.734  17.272  0.1377 -0.1261 -0.7017
 4588SOL     OW25399   3.333   3.777   6.123 -0.0969  0.0584  0.5345
 4588SOL    HW125400   3.275   3.734   6.185 -0.6810 -0.9063 -0.6860
 4588SOL    HW225401   3.410   3.789   6.178 -0.8880 -2.0533  2.0973
 4589SOL     OW25402   3.015   2.723   5.453 -0.6552  0.0579 -0.0850
 4589SOL    HW125403   2.984   2.640   5.417  2.9695 -1.5701  0.5858
 4589SOL    HW225404   3.093   2.734   5.400 -1.2577 -0.9966 -1.1904
 4590SOL     OW25405   3.607   1.994   7.588 -0.0256 -0.0480  0.3004
 4590SOL    HW125406   3.596   1.903   7.616 -0.0823  0.2048  1.0842
 4590SOL    HW225407   3.612   2.050   7.665 -0.7489  0.7797 -0.2527
 4591SOL     OW25408   2.331   0.668   3.742 -0.3690  0.3224  0.4024
 4591SOL    HW125409   2.393   0.680   3.670  0.1011 -0.2328  0.7143
 4591SOL    HW225410   2.254   0.712   3.708  0.8820  1.8862 -0.4263
 4592SOL     OW25411   0.644   1.048   5.155 -0.4289  0.1269  0.0830
 4592SOL    HW125412   0.621   0.996   5.232 -0.2857  0.0991  0.1076
 4592SOL    HW225413   0.612   1.135   5.179 -2.8377 -0.0762 -2.4251
 4593SOL     OW25414   3.253   1.342   1.430 -0.4027  0.2190  0.4711
 4593SOL    HW125415   3.238   1.434   1.411 -2.5926 -0.3864 -0.6573
 4593SOL    HW225416   3.194   1.323   1.503  0.9966  1.2991  1.8850
 4594SOL     OW25417   2.590   0.358  13.042  0.0463 -0.2903 -0.4418
 4594SOL    HW125418   2.530   0.285  13.023 -0.9276 -0.0147  1.6086
 4594SOL    HW225419   2.667   0.301  13.045  0.3651  0.2374  1.2066
 4595SOL     OW25420   3.196   4.167  15.858 -0.1794  0.0309  0.1917
 4595SOL    HW125421   3.257   4.240  15.866 -3.4364  2.7188  0.1456
 4595SOL    HW225422   3.223   4.125  15.776  0.2900  0.7888 -0.0413
 4596SOL     OW25423   3.434   0.236   9.105 -0.1292 -0.7477 -0.7473
 4596SOL    HW125424   3.383   0.197   9.034 -0.5613 -0.3778 -0.6473
 4596SOL    HW225425   3.424   0.177   9.180  0.9734  0.0094 -0.0051
 4597SOL     OW25426   4.697   1.334   7.920  0.4735  0.3258 -0.4557
 4597SOL    HW125427   0.035   1.371   7.970  0.8763 -0.8163 -0.2060
 4597SOL    HW225428   4.626   1.397   7.935  0.8199  0.5600  0.2021
 4598SOL     OW25429   0.150   2.563  10.922 -0.4462 -0.2968  0.1197
 4598SOL    HW125430   0.178   2.646  10.960 -0.5422 -0.2457  0.0799
 4598SOL    HW225431   0.055   2.567  10.931 -0.4810 -1.9398  0.4709
 4599SOL     OW25432   2.429   4.018   8.254 -0.1419 -0.0292 -0.1165
 4599SOL    HW125433   2.433   3.948   8.189 -0.6974  0.8803 -1.1256
 4599SOL    HW225434   2.372   4.082   8.211  0.9850  1.0642  0.0128
 4600SOL     OW25435   1.835   1.397   2.363 -0.1820 -0.1597 -0.2919
 4600SOL    HW125436   1.761   1.428   2.311 -0.9882 -1.0027  0.3561
 4600SOL    HW225437   1.806   1.306   2.367 -1.5626  0.2953  0.1614
 4601SOL     OW25438   1.511   0.369   6.139 -0.2881 -0.0809 -0.0570
 4601SOL    HW125439   1.423   0.402   6.127 -0.3440 -0.5643 -1.0014
 4601SOL    HW225440   1.563   0.445   6.113 -1.4505  0.3351 -1.1091
 4602SOL     OW25441   0.034   4.702   7.001  0.2188 -0.3767 -0.6538
 4602SOL    HW125442   0.120   4.665   7.020  1.2872  1.1985 -2.4423
 4602SOL    HW225443   0.020   0.014   7.084  1.9662  0.8861 -1.0823
 4603SOL     OW25444   4.505   3.201   2.169  0.1518 -0.3579 -0.5455
 4603SOL    HW125445   4.426   3.233   2.213  0.2596 -0.3363 -0.3693
 4603SOL    HW225446   4.515   3.255   2.090 -0.0503 -0.5859 -0.7292
 4604SOL     OW25447   3.483   4.540   1.705 -0.3387  0.6773  0.0451
 4604SOL    HW125448   3.425   4.475   1.745 -1.4850  3.2677  2.5212
 4604SOL    HW225449   3.454   4.610   1.763  2.5027  0.6635  1.4883
 4605SOL     OW25450   2.250   3.878   7.188  0.3473 -0.1738  0.2951
 4605SOL    HW125451   2.188   3.804   7.184  0.9670 -0.6249 -1.0137
 4605SOL    HW225452   2.186   3.941   7.221 -1.1330 -1.9250  0.7837
 4606SOL     OW25453   1.444   2.411   8.710  0.0773  0.2478  0.6592
 4606SOL    HW125454   1.466   2.375   8.625 -1.9646 -0.3201  0.3649
 4606SOL    HW225455   1.349   2.426   8.704  0.3073  0.5681 -1.8920
 4607SOL     OW25456   0.740   0.462   1.206 -0.0988  0.2553  0.0668
 4607SOL    HW125457   0.665   0.405   1.192 -0.3736  0.8019 -0.7055
 4607SOL    HW225458   0.698   0.548   1.207 -1.5879 -0.4735 -0.8708
 4608SOL     OW25459   1.373   2.982  12.615 -0.1242  0.4156 -0.0736
 4608SOL    HW125460   1.442   2.943  12.670 -0.2554  2.0979  1.2818
 4608SOL    HW225461   1.380   2.925  12.538  1.2105 -0.1143  0.4337
 4609SOL     OW25462   1.388   2.022  16.831 -0.6899  0.0046  0.6198
 4609SOL    HW125463   1.381   2.072  16.749 -1.1523 -3.5418 -1.5366
 4609SOL    HW225464   1.385   2.092  16.896 -1.4130  1.5921 -1.1191
 4610SOL     OW25465   1.222   4.623   3.077  0.0557  0.3769 -0.8908
 4610SOL    HW125466   1.215   4.551   3.140 -0.3648 -1.1064 -2.6136
 4610SOL    HW225467   1.296   4.594   3.023 -0.4625 -1.7596 -0.4595
 4611SOL     OW25468   1.244   0.284  15.612  0.4295  0.4538 -0.3326
 4611SOL    HW125469   1.248   0.189  15.627  0.1746  0.3159 -1.1285
 4611SOL    HW225470   1.250   0.286  15.517  1.6803  0.4050 -0.2618
 4612SOL     OW25471   3.444   3.075   8.764  0.5040 -0.4014 -0.1992
 4612SOL    HW125472   3.516   3.048   8.821  0.4775 -1.6470 -0.7646
 4612SOL    HW225473   3.484   3.104   8.682  0.5757  0.0678 -0.0002
 4613SOL     OW25474   3.039   0.794   8.197 -0.3459 -0.2408 -0.1057
 4613SOL    HW125475   2.989   0.815   8.118 -1.7997 -0.5530  0.7152
 4613SOL    HW225476   3.131   0.804   8.175 -0.3173  0.4198  0.3147
 4614SOL     OW25477   3.657   4.010   9.473  0.7710  0.3030 -0.4354
 4614SOL    HW125478   3.618   3.978   9.555  0.1214  2.0693 -0.0714
 4614SOL    HW225479   3.578   4.022   9.421  0.3546  2.2074  0.6522
 4615SOL     OW25480   2.021   4.477   3.159  0.3053  0.2520  0.0150
 4615SOL    HW125481   2.071   4.413   3.209  0.0928  0.5383  0.5858
 4615SOL    HW225482   2.062   4.470   3.072 -2.0278  2.1309 -1.2515
 4616SOL     OW25483   0.705   2.553   7.264  0.6201 -0.0614  0.4939
 4616SOL    HW125484   0.742   2.585   7.346 -1.1234  3.4390 -0.0775
 4616SOL    HW225485   0.627   2.515   7.305 -0.3196 -0.5934 -1.8078
 4617SOL     OW25486   3.790   4.126   1.744 -0.3505  0.4005 -0.1194
 4617SOL    HW125487   3.790   4.123   1.648  2.2637  1.0094 -0.1299
 4617SOL    HW225488   3.785   4.034   1.771 -0.9118  0.2365 -0.7685
 4618SOL     OW25489   4.187   3.486  17.615 -0.7959  0.3302 -0.0790
 4618SOL    HW125490   4.133   3.418  17.574 -0.2017  0.2202 -0.6768
 4618SOL    HW225491   4.252   3.503  17.547  0.4200 -1.9996  0.4878
 4619SOL     OW25492   3.269   0.314   3.843 -0.4924 -0.3928 -0.5019
 4619SOL    HW125493   3.192   0.276   3.800 -1.8190 -1.0197  2.4598
 4619SOL    HW225494   3.228   0.394   3.876 -0.7701 -2.5439  4.3064
 4620SOL     OW25495   2.263   2.885   3.457  0.2452  0.5336 -0.5399
 4620SOL    HW125496   2.291   2.874   3.548  1.7013 -0.4349 -1.1286
 4620SOL    HW225497   2.325   2.949   3.423  1.0357  0.1461  0.1706
 4621SOL     OW25498   2.784   2.160  14.612  0.7561 -0.1254  0.4654
 4621SOL    HW125499   2.787   2.229  14.546  0.4867 -1.7586 -1.2576
 4621SOL    HW225500   2.824   2.215  14.679 -0.9995  0.8614  0.7137
 4622SOL     OW25501   0.050   1.584   3.679 -0.9604  0.1348  0.4473
 4622SOL    HW125502   0.140   1.615   3.667 -1.2539  1.6599  2.1384
 4622SOL    HW225503   0.026   1.573   3.587 -0.5845 -0.4833  0.4228
 4623SOL     OW25504   0.270   0.039   4.697  0.3767 -0.1124  0.3758
 4623SOL    HW125505   0.279   0.095   4.774  0.0872  0.9668 -0.3743
 4623SOL    HW225506   0.175   0.045   4.692  0.3773 -0.9235 -0.6570
 4624SOL     OW25507   1.073   1.625   1.883  0.0641 -0.3778  0.3103
 4624SOL    HW125508   1.137   1.588   1.822 -0.7253 -0.6238 -0.3741
 4624SOL    HW225509   1.135   1.662   1.946  2.1781 -0.6751 -1.5664
 4625SOL     OW25510   3.545   2.917   7.886 -0.3149 -0.3975  0.8673
 4625SOL    HW125511   3.530   3.010   7.869  1.0778 -0.1615  0.9331
 4625SOL    HW225512   3.637   2.920   7.860 -0.9453  2.6261 -1.0449
 4626SOL     OW25513   3.663   3.229   2.236 -0.1042 -0.0185  0.4873
 4626SOL    HW125514   3.616   3.220   2.319 -1.0456 -0.1245 -0.0586
 4626SOL    HW225515   3.630   3.154   2.187 -1.2898  0.5929  0.3345
 4627SOL     OW25516   1.083   2.198  12.176  0.0509  0.4044 -0.0031
 4627SOL    HW125517   1.176   2.180  12.162  0.1441  1.8463 -1.2406
 4627SOL    HW225518   1.112   2.274  12.227  0.0520  0.1219  0.4214
 4628SOL     OW25519   0.417   2.633   4.720 -0.2785  0.1615  0.3879
 4628SOL    HW125520   0.458   2.552   4.747  0.4918  1.5650  3.3994
 4628SOL    HW225521   0.413   2.617   4.626 -0.1800  1.8465  0.0973
 4629SOL     OW25522   4.247   2.861   4.580 -0.2098 -0.9407  0.1363
 4629SOL    HW125523   4.248   2.866   4.676 -1.5375  3.7000 -0.0784
 4629SOL    HW225524   4.155   2.833   4.576  0.4575 -3.0468 -0.4538
 4630SOL     OW25525   3.952   1.964  17.493  0.1959 -0.4265 -0.1167
 4630SOL    HW125526   3.946   2.058  17.508 -0.3489 -0.4817  0.0081
 4630SOL    HW225527   3.866   1.955  17.452 -2.0722  3.3064  3.8093
 4631SOL     OW25528   1.407   1.951   8.694 -0.2532 -0.7033 -0.9156
 4631SOL    HW125529   1.386   1.887   8.626  1.1662 -0.8342 -1.2284
 4631SOL    HW225530   1.479   2.004   8.661 -1.1228  0.2211 -1.3443
 4632SOL     OW25531   3.051   0.358   2.269 -0.5997  0.2742 -0.0662
 4632SOL    HW125532   3.046   0.453   2.264  0.1363  0.3165 -0.0224
 4632SOL    HW225533   2.984   0.328   2.207 -0.0417  2.9838 -1.9528
 4633SOL     OW25534   3.119   0.955   6.055 -0.3041 -0.0917  0.1506
 4633SOL    HW125535   3.191   0.897   6.081 -0.9180  0.0945  2.3142
 4633SOL    HW225536   3.067   0.901   5.996 -0.9777  1.1326 -0.3500
 4634SOL     OW25537   3.802   3.794  17.018 -0.0127  0.0987  0.2717
 4634SOL    HW125538   3.860   3.785  17.093  0.2937  3.1784  0.4107
 4634SOL    HW225539   3.719   3.759  17.050 -0.4133 -0.4736 -1.4119
 4635SOL     OW25540   2.105   0.730   5.974  0.9601  0.0185 -0.2299
 4635SOL    HW125541   2.139   0.721   6.063  0.8115 -0.4206 -0.2189
 4635SOL    HW225542   2.175   0.689   5.923  0.5686  1.8772 -2.2847
 4636SOL     OW25543   2.989   4.450   0.002 -0.5657  0.0848  0.2837
 4636SOL    HW125544   3.026   4.371   0.042  0.9788  0.7593  0.1969
 4636SOL    HW225545   2.923   4.413  17.684  1.8581  0.9163 -2.9620
 4637SOL     OW25546   3.561   0.968   2.531  0.1765 -0.0692  0.1524
 4637SOL    HW125547   3.484   0.912   2.524  1.5211 -1.8226 -0.7235
 4637SOL    HW225548   3.637   0.911   2.539  0.1984  0.1892  1.6802
 4638SOL     OW25549   3.985   2.398  12.089  0.1840  0.4553 -0.3880
 4638SOL    HW125550   4.038   2.476  12.105 -0.9974  1.1397  0.1986
 4638SOL    HW225551   3.902   2.424  12.129  0.9052  2.0411  0.0741
 4639SOL     OW25552   3.458   4.065   8.337  1.1617 -0.0819  0.1303
 4639SOL    HW125553   3.446   3.971   8.322 -0.3017 -0.0289  0.9802
 4639SOL    HW225554   3.372   4.095   8.305  0.5761 -3.5754 -1.5768
 4640SOL     OW25555   0.651   4.317   7.150 -0.3101 -0.6469 -0.0736
 4640SOL    HW125556   0.565   4.305   7.190  0.2672  0.8893  1.6276
 4640SOL    HW225557   0.682   4.386   7.209  0.6236 -1.7822  0.7650
 4641SOL     OW25558   0.112   4.551   4.977  0.5242 -0.4622 -0.3196
 4641SOL    HW125559   0.107   4.641   5.011 -0.2304 -0.9679  0.9068
 4641SOL    HW225560   0.054   4.559   4.902 -0.5319  1.0963  0.6517
 4642SOL     OW25561   3.374   2.168  11.096 -0.2286 -0.1238 -0.0675
 4642SOL    HW125562   3.304   2.146  11.158 -1.5752  1.7615 -0.9205
 4642SOL    HW225563   3.336   2.187  11.010 -1.6213  1.2235  0.8375
 4643SOL     OW25564   1.739   0.056   7.055 -0.0279  0.1145  0.0292
 4643SOL    HW125565   1.647   0.029   7.063  0.4918 -2.0105 -1.0734
 4643SOL    HW225566   1.771   4.727   6.992  1.4203 -0.0293  0.9117
 4644SOL     OW25567   3.487   4.238   1.626  0.9138  0.6061  0.1810
 4644SOL    HW125568   3.580   4.236   1.606  1.2370  3.2100  1.4525
 4644SOL    HW225569   3.479   4.161   1.682  2.2472  0.5609  0.3113
 4645SOL     OW25570   0.293   2.998   2.570 -0.3107 -0.3146  0.0391
 4645SOL    HW125571   0.201   3.025   2.574  0.7820  3.2691  0.7387
 4645SOL    HW225572   0.292   2.920   2.626  4.9983 -1.4723 -1.4972
 4646SOL     OW25573   0.287   4.407  17.325 -1.0092  0.0460 -0.3331
 4646SOL    HW125574   0.323   4.426  17.238 -0.7299  0.4321 -0.1335
 4646SOL    HW225575   0.214   4.469  17.328 -0.4511  0.8318 -3.0323
 4647SOL     OW25576   2.379   0.750   8.791  0.4039 -0.1612 -0.1864
 4647SOL    HW125577   2.397   0.680   8.854 -2.3626 -0.6320  0.0742
 4647SOL    HW225578   2.309   0.802   8.829  0.2187 -1.6445  1.5321
 4648SOL     OW25579   4.443   1.636   5.962  0.1888 -0.3437 -0.8504
 4648SOL    HW125580   4.411   1.612   6.049  2.5886 -1.1945 -0.2020
 4648SOL    HW225581   4.362   1.661   5.918 -1.0236 -0.3480  1.3798
 4649SOL     OW25582   4.477   2.601   2.521 -0.0565  0.3789  1.1096
 4649SOL    HW125583   4.395   2.619   2.475  0.7680 -0.2852 -0.6102
 4649SOL    HW225584   4.481   2.506   2.512 -0.3831  0.7152 -2.4306
 4650SOL     OW25585   4.119   2.722   4.268  0.0881  0.3796  0.4777
 4650SOL    HW125586   4.120   2.745   4.175 -1.7779  1.4651  0.7331
 4650SOL    HW225587   4.057   2.786   4.302  1.0209  0.9631  1.0506
 4651SOL     OW25588   3.381   3.935  17.275  0.6128 -0.1712 -0.1160
 4651SOL    HW125589   3.474   3.924  17.257  0.7754 -0.1916  0.7130
 4651SOL    HW225590   3.367   4.030  17.282  1.6913  0.0344 -0.8111
 4652SOL     OW25591   0.463   2.439   2.922 -0.9722  0.3374 -0.0406
 4652SOL    HW125592   0.513   2.410   2.846 -2.2883 -0.5100 -0.5716
 4652SOL    HW225593   0.413   2.365   2.957  0.9685 -0.8103  0.2927
 4653SOL     OW25594   0.496   3.494   5.758  0.4720 -0.2069 -0.4470
 4653SOL    HW125595   0.518   3.430   5.825  1.2998  1.3124  0.7488
 4653SOL    HW225596   0.583   3.531   5.745  0.6620 -0.9784 -1.3700
 4654SOL     OW25597   1.338   1.814  16.285 -0.0743 -0.0325 -0.2654
 4654SOL    HW125598   1.381   1.866  16.353 -2.0053  0.6252  0.4568
 4654SOL    HW225599   1.388   1.733  16.287 -0.0304  0.0030  0.1378
 4655SOL     OW25600   1.246   0.450   4.231 -0.6171  0.1646 -0.6486
 4655SOL    HW125601   1.307   0.419   4.298 -0.3064 -0.4395 -1.2078
 4655SOL    HW225602   1.235   0.544   4.247  0.6495  0.4139 -1.2846
 4656SOL     OW25603   2.663   2.467   5.420  0.8303 -0.5149 -0.4047
 4656SOL    HW125604   2.659   2.529   5.493  0.1800 -0.5438 -0.4073
 4656SOL    HW225605   2.694   2.522   5.347 -0.0846 -1.9750 -1.9054
 4657SOL     OW25606   2.726   1.304   2.140 -0.4409  0.2345  0.2729
 4657SOL    HW125607   2.644   1.293   2.091  0.4409 -0.6928 -1.0072
 4657SOL    HW225608   2.694   1.363   2.208  3.0792  2.1069  0.2575
 4658SOL     OW25609   4.721   1.248   3.647 -0.0333  0.4146 -0.0520
 4658SOL    HW125610   0.032   1.216   3.724 -3.2901 -2.0175  0.8799
 4658SOL    HW225611   0.055   1.299   3.605 -0.3487 -2.2169 -3.7483
 4659SOL     OW25612   0.003   1.731   4.443  0.4679 -0.2977  0.1306
 4659SOL    HW125613   4.675   1.786   4.396  1.3639 -1.0702 -1.9744
 4659SOL    HW225614   0.061   1.716   4.369  1.1175 -0.2235  0.6227
 4660SOL     OW25615   1.540   4.371  12.973 -0.1690  0.0149  0.4511
 4660SOL    HW125616   1.611   4.394  13.034  0.7303 -3.3237  0.6713
 4660SOL    HW225617   1.556   4.406  12.886  1.7301 -0.5570  0.5685
 4661SOL     OW25618   1.561   1.921   2.609  0.0905 -0.0859  0.4869
 4661SOL    HW125619   1.575   2.002   2.560  1.5331  0.3262  1.5635
 4661SOL    HW225620   1.492   1.883   2.555  1.2837 -1.0899 -0.3161
 4662SOL     OW25621   0.242   0.232  17.562  0.3518 -0.0421  0.8147
 4662SOL    HW125622   0.333   0.255  17.582  0.8846 -1.2766 -0.1413
 4662SOL    HW225623   0.261   0.201  17.474 -1.7277  0.6525  0.1343
 4663SOL     OW25624   3.879   1.648  12.095  0.0991 -0.0823 -0.4930
 4663SOL    HW125625   3.867   1.693  12.012  0.6922  0.3405 -0.3470
 4663SOL    HW225626   3.840   1.565  12.067 -0.4236  0.4279 -1.2305
 4664SOL     OW25627   1.424   2.007  10.978  0.0052  0.0311 -0.0176
 4664SOL    HW125628   1.466   1.980  10.896 -2.6012  1.3040 -1.7413
 4664SOL    HW225629   1.342   1.959  10.972  1.4065 -2.2246 -1.3043
 4665SOL     OW25630   2.219   2.811   8.264  0.2155 -0.0858  0.2947
 4665SOL    HW125631   2.222   2.898   8.305 -1.1642 -0.4128  1.1051
 4665SOL    HW225632   2.170   2.762   8.330 -0.2361 -0.2359 -0.1547
 4666SOL     OW25633   4.733   3.604   5.287  0.3196  0.2082  0.5221
 4666SOL    HW125634   0.001   3.575   5.378  0.8190  0.8183  0.6924
 4666SOL    HW225635   0.060   3.537   5.260 -0.5028 -0.1940 -0.3864
 4667SOL     OW25636   0.964   4.208   6.685 -0.2191 -0.6851  0.7800
 4667SOL    HW125637   1.017   4.187   6.762  0.3386 -0.7084  0.3886
 4667SOL    HW225638   0.910   4.130   6.672  0.1673 -0.8451  0.1369
 4668SOL     OW25639   3.701   1.805  10.812  0.0769 -0.0313 -0.1945
 4668SOL    HW125640   3.727   1.721  10.774  0.3887 -0.4294  0.8853
 4668SOL    HW225641   3.682   1.849  10.729  0.4443  1.3565  0.4553
 4669SOL     OW25642   3.664   0.398   3.512 -0.0440  0.1655  0.2779
 4669SOL    HW125643   3.633   0.417   3.601 -0.5575  0.5576  0.0104
 4669SOL    HW225644   3.666   0.478   3.461 -1.4852  0.5087  0.7750
 4670SOL     OW25645   1.053   4.648   3.323  0.4379  0.1558  0.4573
 4670SOL    HW125646   1.015   4.685   3.403 -0.9442  0.1189 -0.1783
 4670SOL    HW225647   0.978   4.666   3.266  0.8560  0.3738 -0.0271
 4671SOL     OW25648   2.100   0.385   2.456  0.2242 -0.8307  0.7601
 4671SOL    HW125649   2.083   0.299   2.418 -1.7903 -0.6201  1.1726
 4671SOL    HW225650   2.075   0.373   2.548 -0.2425 -0.6164  0.6627
 4672SOL     OW25651   3.366   0.200   7.381 -0.3424 -0.4468  0.4042
 4672SOL    HW125652   3.424   0.156   7.443 -1.1379  0.9401  2.1340
 4672SOL    HW225653   3.289   0.142   7.386 -0.3651 -0.4784 -0.2826
 4673SOL     OW25654   0.913   0.306   5.268 -0.4032 -0.4434 -0.3270
 4673SOL    HW125655   0.920   0.303   5.363 -2.3427  0.6026 -0.1438
 4673SOL    HW225656   0.873   0.223   5.244  0.0070 -0.2550 -1.6541
 4674SOL     OW25657   3.483   1.084   4.884 -0.1683  0.2146  0.3589
 4674SOL    HW125658   3.544   1.108   4.814 -0.0765  1.1812  0.7767
 4674SOL    HW225659   3.517   1.132   4.958 -0.3598  0.6706  0.1514
 4675SOL     OW25660   1.901   3.707  16.996 -0.1221 -0.2443  0.0696
 4675SOL    HW125661   1.858   3.682  17.078  3.3040 -3.2264  0.9684
 4675SOL    HW225662   1.865   3.640  16.938  0.6883  0.1596 -0.9049
 4676SOL     OW25663   0.797   0.143   2.685 -1.3067 -0.7427 -0.1903
 4676SOL    HW125664   0.814   0.115   2.595  0.0236 -1.1936  0.2046
 4676SOL    HW225665   0.874   0.199   2.693 -0.8556 -1.5701  1.3093
 4677SOL     OW25666   4.446   1.942   8.649  0.0237 -0.2444  0.0742
 4677SOL    HW125667   4.460   2.036   8.655  2.1693 -0.5403 -0.2732
 4677SOL    HW225668   4.359   1.939   8.609 -0.0421  1.2046  0.1255
 4678SOL     OW25669   0.656   3.442   5.532 -0.2415 -0.6392 -0.0409
 4678SOL    HW125670   0.679   3.383   5.603  2.1354 -1.2491 -1.3195
 4678SOL    HW225671   0.725   3.423   5.469  1.4551  1.4852  1.1861
 4679SOL     OW25672   1.362   1.141   4.368 -0.7448  0.0125  0.1849
 4679SOL    HW125673   1.353   1.224   4.415  0.4986  0.1693  0.1409
 4679SOL    HW225674   1.403   1.162   4.284  0.8392  0.6738  1.1210
 4680SOL     OW25675   3.164   3.237  15.501 -0.1908 -0.3221  0.3003
 4680SOL    HW125676   3.247   3.237  15.548 -0.2749 -1.5155  0.4342
 4680SOL    HW225677   3.108   3.280  15.566 -0.8569 -0.8670  0.0755
 4681SOL     OW25678   1.333   1.739  15.121 -0.0156 -0.1449 -0.0395
 4681SOL    HW125679   1.257   1.693  15.157  0.6876  0.2185  1.9153
 4681SOL    HW225680   1.313   1.829  15.149  0.5341 -0.3256  0.9554
 4682SOL     OW25681   3.379   1.871   4.681 -0.0516 -0.2906  0.3467
 4682SOL    HW125682   3.454   1.815   4.662 -0.1675  0.1233 -1.3015
 4682SOL    HW225683   3.307   1.831   4.633 -0.2832  0.4581  0.0605
 4683SOL     OW25684   4.385   1.456   9.135 -0.4221  0.0614 -0.0780
 4683SOL    HW125685   4.364   1.550   9.138 -0.1507  0.1297 -0.2575
 4683SOL    HW225686   4.389   1.448   9.040  1.5565 -1.5353  0.1492
 4684SOL     OW25687   0.339   2.727  15.153 -0.0909  0.1140  0.4357
 4684SOL    HW125688   0.417   2.782  15.143  1.6605 -2.4996 -0.3370
 4684SOL    HW225689   0.266   2.785  15.130 -0.2501 -0.4796 -0.5789
 4685SOL     OW25690   0.168   3.624   4.618 -0.3546 -0.1793 -0.4202
 4685SOL    HW125691   0.185   3.556   4.552 -0.4670 -2.2303  1.6811
 4685SOL    HW225692   0.102   3.664   4.561  0.2302  0.9590 -0.2994
 4686SOL     OW25693   3.100   1.532   9.070 -0.2023  0.1520  0.0394
 4686SOL    HW125694   3.182   1.572   9.096  0.3464 -0.6361 -0.4700
 4686SOL    HW225695   3.071   1.513   9.159  2.1755 -2.4411  0.2625
 4687SOL     OW25696   1.119   4.396   0.535  0.1265 -0.1241 -0.2255
 4687SOL    HW125697   1.213   4.413   0.523  0.2727 -0.6234  0.2049
 4687SOL    HW225698   1.106   4.311   0.493  0.4057  0.3860 -1.3535
 4688SOL     OW25699   1.277   3.064   4.314 -0.3363  0.1159  0.5600
 4688SOL    HW125700   1.348   3.025   4.263 -0.7353  0.3877 -0.2134
 4688SOL    HW225701   1.306   3.039   4.401 -0.8746  2.0834  1.3083
 4689SOL     OW25702   3.445   4.510   5.774 -0.1539  0.3849  0.1048
 4689SOL    HW125703   3.399   4.560   5.707  0.0377 -0.8538 -0.9625
 4689SOL    HW225704   3.372   4.461   5.812  0.3511 -0.2713  0.2304
 4690SOL     OW25705   4.396   3.244  13.726  0.1754 -0.7134 -0.4129
 4690SOL    HW125706   4.402   3.220  13.818  0.7218  0.8958 -0.0346
 4690SOL    HW225707   4.418   3.163  13.680  1.2432 -1.1975  0.9482
 4691SOL     OW25708   1.792   4.731   9.256 -0.4423 -0.2950  0.0417
 4691SOL    HW125709   1.881   4.710   9.284  0.3200  0.8584 -1.4984
 4691SOL    HW225710   1.790   0.088   9.231  0.6795 -0.3566 -0.2762
 4692SOL     OW25711   0.348   3.200   6.304  0.3281  0.5934  0.0894
 4692SOL    HW125712   0.419   3.236   6.359  1.4850 -0.4803 -0.7105
 4692SOL    HW225713   0.343   3.118   6.354 -0.0785 -0.9786 -2.5489
 4693SOL     OW25714   3.185   2.718   4.383  0.2843 -0.3330  0.3017
 4693SOL    HW125715   3.162   2.638   4.431 -1.3990  0.2510  0.4628
 4693SOL    HW225716   3.130   2.783   4.427  1.0241  1.1833 -1.0239
 4694SOL     OW25717   3.574   3.396   1.326 -0.0861  0.6407  0.2733
 4694SOL    HW125718   3.486   3.390   1.288  0.4419 -1.1989 -0.6844
 4694SOL    HW225719   3.606   3.308   1.306 -0.1566  0.4752  0.8795
 4695SOL     OW25720   4.340   2.355   3.633  0.5445  0.7264 -0.1804
 4695SOL    HW125721   4.282   2.278   3.632  1.9753 -0.3445 -0.0907
 4695SOL    HW225722   4.305   2.401   3.709  0.5903 -0.0176  0.2941
 4696SOL     OW25723   0.842   4.367   3.906 -0.0980  0.0667  0.5645
 4696SOL    HW125724   0.778   4.375   3.836  0.5496  0.0132 -0.0284
 4696SOL    HW225725   0.839   4.455   3.942  3.8022  0.4808 -0.1748
 4697SOL     OW25726   4.110   0.061   3.072  0.1384 -0.3597  0.4675
 4697SOL    HW125727   4.120   0.091   3.162 -5.4563  2.8829 -0.0002
 4697SOL    HW225728   4.019   0.088   3.060  0.2723  0.4794  1.3883
 4698SOL     OW25729   2.630   1.708   1.812 -0.3150 -0.0428 -0.2148
 4698SOL    HW125730   2.664   1.775   1.752 -0.0027 -0.2575 -0.2816
 4698SOL    HW225731   2.626   1.758   1.893  1.1411  0.8337 -0.6784
 4699SOL     OW25732   2.022   3.457   2.671 -0.4270 -0.4199 -0.1325
 4699SOL    HW125733   2.100   3.438   2.620 -0.5953  3.2216 -1.7042
 4699SOL    HW225734   1.995   3.372   2.705 -2.9536  0.1233 -0.7996
 4700SOL     OW25735   3.545   4.190   3.198  0.8268 -0.0940 -0.2644
 4700SOL    HW125736   3.608   4.211   3.129  0.9129 -1.3732 -0.5788
 4700SOL    HW225737   3.470   4.168   3.143  0.0848 -1.1028  1.1463
 4701SOL     OW25738   2.889   1.339  13.127 -0.0938  0.3293 -0.1305
 4701SOL    HW125739   2.884   1.386  13.044 -1.7481  4.0811  2.0856
 4701SOL    HW225740   2.840   1.398  13.184 -1.8586  0.8912 -2.1968
 4702SOL     OW25741   3.690   3.750   2.222 -0.4862 -0.0029  0.0613
 4702SOL    HW125742   3.712   3.707   2.305  0.4688 -0.2681 -0.3281
 4702SOL    HW225743   3.595   3.745   2.225 -0.4917 -0.3097 -0.8295
 4703SOL     OW25744   1.978   0.682   1.367 -0.4423 -0.2519 -0.3719
 4703SOL    HW125745   2.014   0.603   1.326 -0.1848  0.6518 -1.8809
 4703SOL    HW225746   1.987   0.652   1.457 -1.3943 -1.6772 -0.7424
 4704SOL     OW25747   1.183   1.963   8.199 -0.0101  0.0379  0.3158
 4704SOL    HW125748   1.112   1.993   8.256 -0.7784 -0.2259 -0.4859
 4704SOL    HW225749   1.254   1.966   8.262 -1.0755 -3.0854  1.6804
 4705SOL     OW25750   1.168   2.058   8.777  0.3726 -0.4855  0.0700
 4705SOL    HW125751   1.155   2.122   8.846 -2.7337 -1.1584  0.1188
 4705SOL    HW225752   1.261   2.056   8.756 -0.3362  4.3134 -3.6072
 4706SOL     OW25753   3.995   1.526   2.243 -0.0333  0.0257  0.1694
 4706SOL    HW125754   4.008   1.431   2.236  1.6044  0.0809  2.2655
 4706SOL    HW225755   4.081   1.552   2.278  0.3498 -1.9077  0.6641
 4707SOL     OW25756   0.043   2.672  14.321 -0.4110 -0.0667 -0.0676
 4707SOL    HW125757   0.125   2.664  14.370 -0.5470 -1.9268 -0.1481
 4707SOL    HW225758   0.022   2.763  14.343 -0.4596  0.1063 -0.8322
 4708SOL     OW25759   0.280   0.585   1.513 -0.0163  0.0818 -0.0805
 4708SOL    HW125760   0.342   0.607   1.583 -1.3427  1.8745  0.5394
 4708SOL    HW225761   0.208   0.643   1.538 -0.3157 -1.4723  2.7310
 4709SOL     OW25762   3.732   0.845   9.014  0.7804  0.1508 -0.0753
 4709SOL    HW125763   3.773   0.908   8.955 -0.9807  1.3114 -0.0355
 4709SOL    HW225764   3.762   0.880   9.098  0.2042 -0.0831  0.2305
 4710SOL     OW25765   4.598   0.671   1.938  0.2527 -0.1625  0.3501
 4710SOL    HW125766   4.608   0.667   2.034 -0.2512 -1.0926  0.3614
 4710SOL    HW225767   4.660   0.609   1.899 -1.3904 -0.3693 -1.8803
 4711SOL     OW25768   0.199   1.347   6.206 -0.7052  0.1684 -0.4996
 4711SOL    HW125769   0.129   1.402   6.171 -0.2455  0.9279 -0.2157
 4711SOL    HW225770   0.190   1.264   6.159  0.3542 -0.2774  0.0800
 4712SOL     OW25771   3.219   1.563   2.298  0.0970  0.7517  0.2231
 4712SOL    HW125772   3.202   1.483   2.249  2.9748  0.1230  0.2414
 4712SOL    HW225773   3.179   1.631   2.244  0.4358 -0.9845 -2.1903
 4713SOL     OW25774   1.972   2.128   8.507  0.5252 -0.0345 -0.2217
 4713SOL    HW125775   2.063   2.159   8.510  0.3057  0.3640  2.6614
 4713SOL    HW225776   1.973   2.074   8.428 -0.9892 -4.0569  2.4958
 4714SOL     OW25777   3.422   0.864   4.232 -0.2451 -0.8418  0.0607
 4714SOL    HW125778   3.331   0.880   4.259 -0.8472 -0.1784 -2.3371
 4714SOL    HW225779   3.436   0.929   4.163  2.5893 -0.4412  1.0387
 4715SOL     OW25780   3.507   2.619  13.765  0.1753  0.1107  0.2131
 4715SOL    HW125781   3.421   2.621  13.806  0.0842  1.2344 -0.0170
 4715SOL    HW225782   3.558   2.678  13.820 -1.9899  0.9752  1.2783
 4716SOL     OW25783   2.356   3.637   6.373  0.0034  0.3614  0.1161
 4716SOL    HW125784   2.351   3.671   6.462 -1.7593  0.1120  0.1079
 4716SOL    HW225785   2.396   3.551   6.388 -1.7736 -0.5377 -0.3347
 4717SOL     OW25786   0.557   2.398   2.650 -0.1780  0.3579  0.5587
 4717SOL    HW125787   0.618   2.470   2.632  0.2865 -0.6125 -1.7094
 4717SOL    HW225788   0.512   2.375   2.570 -1.8051  0.5272  1.4322
 4718SOL     OW25789   3.660   1.417   7.941  0.6010  0.3234  0.1105
 4718SOL    HW125790   3.585   1.400   7.998  0.8621  2.3661  1.0354
 4718SOL    HW225791   3.696   1.328   7.941  0.4048  0.2433  3.0730
 4719SOL     OW25792   2.667   0.130   3.434 -0.5874  0.3781  0.1698
 4719SOL    HW125793   2.675   0.212   3.483  0.9501  0.4255 -0.1470
 4719SOL    HW225794   2.722   0.149   3.358 -1.8365  0.2794 -0.7403
 4720SOL     OW25795   1.765   0.496   9.080 -0.2120 -0.3808  0.0319
 4720SOL    HW125796   1.811   0.563   9.129 -0.3389  0.4709 -1.0097
 4720SOL    HW225797   1.787   0.518   8.989  0.4274 -0.2500  0.2207
 4721SOL     OW25798   0.066   1.558   8.829 -0.5192  0.2417 -0.1757
 4721SOL    HW125799   0.033   1.598   8.909  0.9186 -0.0219  0.5386
 4721SOL    HW225800   0.098   1.633   8.779  1.8958 -1.3866 -1.0382
 4722SOL     OW25801   0.234   3.770   0.317 -0.2302  0.1893 -0.2922
 4722SOL    HW125802   0.222   3.719   0.236 -3.2906 -0.7355  0.7476
 4722SOL    HW225803   0.215   3.699   0.378 -1.2025  1.0866  0.4511
 4723SOL     OW25804   0.238   2.709   8.689  0.8363  0.1113  0.6545
 4723SOL    HW125805   0.191   2.641   8.738 -2.9300  0.5901 -2.3204
 4723SOL    HW225806   0.250   2.772   8.761 -0.4204 -0.3077  1.2234
 4724SOL     OW25807   1.639   1.260   6.241  0.3975  0.3765 -0.3067
 4724SOL    HW125808   1.669   1.191   6.183  1.3202  0.4559  0.0845
 4724SOL    HW225809   1.546   1.258   6.217  0.2337 -1.6296  0.4853
 4725SOL     OW25810   0.520   1.131  11.710  0.5639  0.9127 -0.4512
 4725SOL    HW125811   0.425   1.125  11.712  0.6323  0.1260  0.3740
 4725SOL    HW225812   0.542   1.051  11.662 -0.6110  0.6924 -0.6218
 4726SOL     OW25813   2.401   4.618   9.823 -0.1351 -0.5703  0.0449
 4726SOL    HW125814   2.413   4.549   9.888  2.8774 -1.7282 -1.7418
 4726SOL    HW225815   2.461   4.686   9.854 -1.2362  0.7566 -0.7240
 4727SOL     OW25816   3.234   3.547   5.622  0.3829  0.0686  0.0366
 4727SOL    HW125817   3.309   3.604   5.640  1.8552 -1.5015 -1.0854
 4727SOL    HW225818   3.273   3.498   5.549 -3.5235 -2.3507 -0.4322
 4728SOL     OW25819   0.477   2.686  13.336 -0.0805 -0.1888  0.1040
 4728SOL    HW125820   0.534   2.754  13.374 -1.7397  1.5522 -0.5199
 4728SOL    HW225821   0.499   2.689  13.243  0.5344  1.2269  0.2926
 4729SOL     OW25822   0.328   2.299   2.069  0.2006 -0.4699  0.3895
 4729SOL    HW125823   0.398   2.361   2.046 -0.7287 -0.0697 -1.2973
 4729SOL    HW225824   0.284   2.335   2.147  0.9313  0.1550  0.5105
 4730SOL     OW25825   0.236   4.509  15.537 -0.1344 -0.1903  0.4245
 4730SOL    HW125826   0.211   4.422  15.568  0.5759 -1.3377 -2.2620
 4730SOL    HW225827   0.196   4.567  15.602  0.5225  0.5315  0.1832
 4731SOL     OW25828   1.852   2.545   4.615  0.1868 -0.1501 -0.4050
 4731SOL    HW125829   1.886   2.604   4.683  1.6606  1.2491 -2.3263
 4731SOL    HW225830   1.933   2.550   4.564 -0.0649  2.1343 -0.5807
 4732SOL     OW25831   3.902   1.393   1.369 -0.1197 -0.0849 -0.4459
 4732SOL    HW125832   3.848   1.352   1.301 -1.0116  0.7179 -0.2154
 4732SOL    HW225833   3.961   1.318   1.373  0.5585  0.3807 -1.8249
 4733SOL     OW25834   1.749   1.400   6.499 -0.4402 -0.0388  0.0999
 4733SOL    HW125835   1.764   1.325   6.555 -1.3944  0.6889  1.3316
 4733SOL    HW225836   1.702   1.362   6.424 -1.3839  2.8235 -0.7878
 4734SOL     OW25837   0.660   1.486   5.774  0.2296 -0.3282  0.0817
 4734SOL    HW125838   0.581   1.442   5.740 -0.3362  0.9317 -0.2148
 4734SOL    HW225839   0.700   1.521   5.695  1.2539 -0.0802  0.7174
 4735SOL     OW25840   3.006   3.996   2.246 -0.1198  0.1954 -0.3164
 4735SOL    HW125841   3.042   3.907   2.243 -1.0915 -0.1919 -0.3042
 4735SOL    HW225842   2.981   4.005   2.155 -1.2635  0.4550  0.0255
 4736SOL     OW25843   1.995   3.079   3.251 -0.1750  0.4377 -0.2396
 4736SOL    HW125844   1.948   3.048   3.174  0.3099 -0.5051 -0.1575
 4736SOL    HW225845   1.990   3.005   3.312 -0.2918  1.0399  0.4899
 4737SOL     OW25846   3.379   1.583   6.541 -0.2164 -0.1057  0.5848
 4737SOL    HW125847   3.415   1.642   6.607  1.8220  0.3360 -0.9331
 4737SOL    HW225848   3.399   1.497   6.577  1.3918 -0.2103 -0.6200
 4738SOL     OW25849   1.469   2.705   6.666 -0.1800 -0.5003  0.3850
 4738SOL    HW125850   1.456   2.667   6.579  3.2049 -1.0671  0.1271
 4738SOL    HW225851   1.476   2.626   6.719  0.2630 -0.3141  0.5962
 4739SOL     OW25852   2.711   1.261   9.006 -0.5447 -0.4233 -0.1673
 4739SOL    HW125853   2.778   1.240   8.940  0.7037  2.3860  0.1989
 4739SOL    HW225854   2.683   1.172   9.027 -0.7484 -0.1267  0.8220
 4740SOL     OW25855   0.582   2.138   6.369 -0.2767 -0.1858 -0.3372
 4740SOL    HW125856   0.643   2.116   6.299  3.3769  0.6024  2.6005
 4740SOL    HW225857   0.601   2.059   6.420  1.6449  0.2216 -0.4109
 4741SOL     OW25858   0.685   0.941  11.592 -0.4656 -0.0585  0.1729
 4741SOL    HW125859   0.655   0.910  11.507  3.0598 -0.3522 -0.9637
 4741SOL    HW225860   0.774   0.966  11.570 -1.3016  0.7321 -2.3139
 4742SOL     OW25861   3.125   4.473   4.229 -0.0013 -0.1135  0.3867
 4742SOL    HW125862   3.209   4.430   4.216 -0.0696 -0.3153  0.6002
 4742SOL    HW225863   3.106   4.494   4.138  1.5812  1.6607  0.4667
 4743SOL     OW25864   2.605   1.031   7.953  0.1821  0.3139 -0.0623
 4743SOL    HW125865   2.699   1.052   7.962 -0.0711  0.8180  1.4913
 4743SOL    HW225866   2.567   1.051   8.039 -4.8140  0.2446 -2.2991
 4744SOL     OW25867   4.643   1.380  17.261 -0.3424  0.1571 -0.4254
 4744SOL    HW125868   4.689   1.337  17.188  1.5863  0.6545  0.4911
 4744SOL    HW225869   4.642   1.468  17.223 -0.1194  0.5760  0.5487
 4745SOL     OW25870   3.459   2.402   4.636 -0.3225  0.1330  0.1111
 4745SOL    HW125871   3.530   2.431   4.579  1.7444 -2.3084  1.4099
 4745SOL    HW225872   3.406   2.353   4.574  1.5362 -0.5506 -0.9497
 4746SOL     OW25873   3.215   0.191  17.698 -0.0980  0.0057  0.4734
 4746SOL    HW125874   3.165   0.111  17.715  0.0617 -0.7835 -2.7390
 4746SOL    HW225875   3.266   0.183   0.037 -0.3072 -0.1400  0.5937
 4747SOL     OW25876   2.579   3.441   4.199  0.0586 -0.3801 -0.5928
 4747SOL    HW125877   2.504   3.492   4.231  0.4073  0.0978 -0.5310
 4747SOL    HW225878   2.577   3.369   4.261  1.0228  0.9233  0.9555
 4748SOL     OW25879   2.806   2.821   9.438 -0.0499 -0.1659  0.3910
 4748SOL    HW125880   2.773   2.853   9.354 -0.4661 -0.9479  0.2646
 4748SOL    HW225881   2.897   2.816   9.408 -1.2940  0.6419 -3.5329
 4749SOL     OW25882   1.804   0.862   7.036 -0.1717  0.2235 -0.7529
 4749SOL    HW125883   1.859   0.790   7.067  2.1012  2.5831  0.7786
 4749SOL    HW225884   1.732   0.838   7.094  0.5413 -1.3490 -0.5201
 4750SOL     OW25885   3.949   2.638   7.086  0.4733 -0.3608 -0.0465
 4750SOL    HW125886   3.907   2.714   7.128 -1.3356 -0.3945 -1.7650
 4750SOL    HW225887   4.039   2.669   7.088  0.3351  0.1799 -1.5936
 4751SOL     OW25888   1.242   2.302   7.250 -0.4167 -0.6133 -0.7257
 4751SOL    HW125889   1.254   2.208   7.237  0.2488 -0.5403 -0.6867
 4751SOL    HW225890   1.202   2.306   7.336 -0.6970 -2.0654 -0.7920
 4752SOL     OW25891   0.396   0.432  12.618 -0.2580  0.4511  0.0411
 4752SOL    HW125892   0.437   0.407  12.535 -0.9564 -1.2775  0.2285
 4752SOL    HW225893   0.444   0.510  12.646 -1.4009  0.9698  0.5924
 4753SOL     OW25894   2.083   4.379   4.473 -0.0475 -0.2407 -0.8775
 4753SOL    HW125895   2.127   4.436   4.536 -1.5705  0.3871 -0.4034
 4753SOL    HW225896   2.064   4.303   4.528  2.6212 -0.0497  0.3160
 4754SOL     OW25897   0.648   0.955   8.440  0.0355 -0.2733  0.4912
 4754SOL    HW125898   0.638   0.975   8.533  0.8025  1.7273  0.1509
 4754SOL    HW225899   0.576   1.011   8.411  0.5667  0.3896  0.4511
 4755SOL     OW25900   1.687   1.125   3.134 -0.3400 -0.5301 -0.2398
 4755SOL    HW125901   1.658   1.201   3.185 -0.4438 -0.5061 -0.3357
 4755SOL    HW225902   1.782   1.129   3.143 -0.3094 -0.3958 -0.6067
 4756SOL     OW25903   3.905   4.395   7.500 -0.2456 -0.0038  0.4598
 4756SOL    HW125904   3.992   4.395   7.540 -0.0836 -0.3533  0.1042
 4756SOL    HW225905   3.858   4.324   7.544 -1.2553  0.4418  0.0965
 4757SOL     OW25906   3.768   0.525   5.735 -0.4018 -0.2185 -0.2499
 4757SOL    HW125907   3.718   0.592   5.687 -0.4161 -0.7559 -0.9862
 4757SOL    HW225908   3.782   0.569   5.819  2.5706  1.5263 -1.6507
 4758SOL     OW25909   1.205   2.426  11.993  0.1747  0.2896 -0.3502
 4758SOL    HW125910   1.171   2.515  11.991  0.8854  0.6167  2.1550
 4758SOL    HW225911   1.231   2.403  11.904  1.1420  0.0678 -0.0087
 4759SOL     OW25912   3.287   4.557   5.402 -0.1905  0.2273  0.8249
 4759SOL    HW125913   3.302   4.506   5.322 -0.7717  0.7966  0.3573
 4759SOL    HW225914   3.372   4.601   5.407  0.0600 -0.4445  2.7619
 4760SOL     OW25915   1.127   0.621   2.274 -0.1064  0.7101 -0.3042
 4760SOL    HW125916   1.204   0.677   2.276  0.4466 -0.1566  3.2098
 4760SOL    HW225917   1.061   0.691   2.268  0.3393  1.1331 -0.2787
 4761SOL     OW25918   3.360   2.533   2.750  0.0458  0.1572 -0.0073
 4761SOL    HW125919   3.277   2.552   2.793  0.2687 -0.5251  0.7195
 4761SOL    HW225920   3.325   2.471   2.686  0.1677 -0.2928  0.3607
 4762SOL     OW25921   0.195   1.812   3.629  0.2991  0.2353 -0.6892
 4762SOL    HW125922   0.266   1.870   3.600 -1.8109  2.9239 -0.4173
 4762SOL    HW225923   0.176   1.843   3.717 -0.6243 -1.5687 -0.2521
 4763SOL     OW25924   3.981   1.547   8.962  0.0132 -0.4145  0.1944
 4763SOL    HW125925   3.997   1.456   8.987  2.6553 -0.0740 -0.2136
 4763SOL    HW225926   3.891   1.569   8.987 -0.2176  0.2415 -1.2156
 4764SOL     OW25927   3.973   0.730   8.355  0.3424 -0.5188  0.0193
 4764SOL    HW125928   3.977   0.636   8.340  0.5686 -0.4661 -0.2524
 4764SOL    HW225929   4.055   0.764   8.318 -1.1211  0.7837 -2.0144
 4765SOL     OW25930   4.092   4.679   3.739  0.6662 -0.7749 -0.0001
 4765SOL    HW125931   4.081   4.692   3.833 -0.8035 -2.9856  0.1305
 4765SOL    HW225932   4.010   4.718   3.708  0.3629 -1.5971 -0.2475
 4766SOL     OW25933   1.360   0.144   3.054  0.2513  0.6147 -0.4079
 4766SOL    HW125934   1.300   0.069   3.058  0.4359  0.6491  2.7611
 4766SOL    HW225935   1.417   0.143   3.131  0.0374 -0.1452 -0.2545
 4767SOL     OW25936   2.528   2.161  16.170  0.2133 -0.0994  0.3444
 4767SOL    HW125937   2.511   2.121  16.255 -0.6688 -2.0269 -0.7114
 4767SOL    HW225938   2.584   2.096  16.127 -1.2336 -2.1285  1.5305
 4768SOL     OW25939   4.060   2.858  10.217 -0.0124 -0.1540 -0.0321
 4768SOL    HW125940   4.101   2.890  10.297 -1.0610 -0.1234  0.4998
 4768SOL    HW225941   3.979   2.818  10.250 -0.2906 -0.7904 -1.4856
 4769SOL     OW25942   2.231   1.271   3.775 -0.3598  0.2034 -0.1776
 4769SOL    HW125943   2.297   1.264   3.843 -0.3377  3.2686  0.1304
 4769SOL    HW225944   2.261   1.224   3.697  0.3874  1.0597 -0.4034
 4770SOL     OW25945   2.246   4.603   9.617  0.8410  0.0124  0.0284
 4770SOL    HW125946   2.192   4.677   9.645  1.8405  0.3818  0.9499
 4770SOL    HW225947   2.309   4.593   9.687  0.8293 -0.3638 -0.0151
 4771SOL     OW25948   3.948   3.179   5.117 -0.0144  0.3941  0.4500
 4771SOL    HW125949   3.933   3.255   5.061  0.0112  0.2894  0.2997
 4771SOL    HW225950   4.028   3.196   5.165 -0.1347  2.5662 -0.1392
 4772SOL     OW25951   3.954   0.420   2.239  0.3053  0.2856  0.8630
 4772SOL    HW125952   3.873   0.423   2.188  1.6643  1.1294 -1.2432
 4772SOL    HW225953   3.959   0.326   2.261  1.1225 -0.3297 -1.9392
 4773SOL     OW25954   1.994   2.454   1.654 -0.9360  0.4459  0.3537
 4773SOL    HW125955   2.050   2.527   1.680  0.4335 -0.0620 -1.1659
 4773SOL    HW225956   1.925   2.495   1.602 -0.3939 -0.8175 -1.3728
 4774SOL     OW25957   4.377   0.349   4.881 -0.2594 -0.2116 -0.6894
 4774SOL    HW125958   4.443   0.357   4.813  0.7493 -0.0498  0.3078
 4774SOL    HW225959   4.394   0.430   4.929  0.1933  0.9255 -2.7813
 4775SOL     OW25960   3.330   4.650   3.707  0.5814  0.2331  0.1987
 4775SOL    HW125961   3.358   4.701   3.783 -0.7893 -0.1618  0.9690
 4775SOL    HW225962   3.360   4.563   3.735 -1.8275 -1.5359 -2.7112
 4776SOL     OW25963   3.812   0.526   5.082  0.6559 -0.3911  0.0503
 4776SOL    HW125964   3.723   0.553   5.105  1.1122  2.2501 -1.2048
 4776SOL    HW225965   3.842   0.611   5.049 -2.3073 -0.8856 -4.0400
 4777SOL     OW25966   3.039   4.023  16.018 -0.1653 -0.3137 -1.0525
 4777SOL    HW125967   2.993   3.981  15.945 -0.3971  2.8609 -2.7157
 4777SOL    HW225968   3.090   4.087  15.970  0.7655 -0.3549 -0.1175
 4778SOL     OW25969   0.498   3.840   0.365  0.4162  0.0289 -0.5340
 4778SOL    HW125970   0.503   3.782   0.441  1.8164 -1.7653 -2.0074
 4778SOL    HW225971   0.404   3.827   0.348  0.1789 -1.3361  1.6998
 4779SOL     OW25972   2.844   0.961   2.144  0.2689 -0.1102  0.4701
 4779SOL    HW125973   2.896   0.972   2.065  1.0247 -0.8464  0.8716
 4779SOL    HW225974   2.762   1.006   2.121 -0.1945 -1.3347 -0.2740
 4780SOL     OW25975   0.178   1.849   3.093 -0.7609  0.1208 -0.1589
 4780SOL    HW125976   0.247   1.782   3.096  1.1852  2.2176  1.6106
 4780SOL    HW225977   0.177   1.865   3.188  0.6183  2.2413 -0.4941
 4781SOL     OW25978   0.450   4.278   8.816  0.1560 -0.5310 -0.0570
 4781SOL    HW125979   0.416   4.220   8.749  2.7918 -0.7855 -1.1709
 4781SOL    HW225980   0.442   4.367   8.782 -0.6721  0.1120  1.8176
 4782SOL     OW25981   1.023   0.218   8.001  0.2344  0.4464  0.0838
 4782SOL    HW125982   1.105   0.183   8.036 -0.2003 -0.1948  0.4662
 4782SOL    HW225983   1.022   0.183   7.912 -0.5321 -1.6201  0.9228
 4783SOL     OW25984   0.272   1.260   5.375 -0.0081  0.0080 -0.2693
 4783SOL    HW125985   0.221   1.205   5.436  1.3320 -0.4191  0.4754
 4783SOL    HW225986   0.254   1.219   5.291  0.8626  0.2065 -0.5439
 4784SOL     OW25987   2.388   3.374   5.453 -0.0759 -0.4508 -0.7012
 4784SOL    HW125988   2.297   3.376   5.483 -0.4985 -0.6795 -1.9713
 4784SOL    HW225989   2.417   3.465   5.442  1.4340 -0.5645  2.3828
 4785SOL     OW25990   2.723   3.244   8.511 -0.4624 -0.0715 -0.2887
 4785SOL    HW125991   2.750   3.318   8.456  0.1916  0.5233  0.8232
 4785SOL    HW225992   2.737   3.174   8.448 -0.1385  0.0140 -0.3099
 4786SOL     OW25993   4.600   1.462   6.706  0.2762  0.0752 -0.6681
 4786SOL    HW125994   4.505   1.447   6.712  0.3556 -0.7886 -1.6821
 4786SOL    HW225995   4.601   1.557   6.691  1.7304 -0.1714 -2.1086
 4787SOL     OW25996   1.419   2.243   5.851  0.2015 -0.1114 -0.3960
 4787SOL    HW125997   1.346   2.194   5.813  1.3978 -2.6487  0.5464
 4787SOL    HW225998   1.396   2.250   5.943 -0.4998 -0.3010 -0.5571
 4788SOL     OW25999   1.963   1.396   6.736 -0.1447 -0.3527  0.3982
 4788SOL    HW126000   1.882   1.362   6.699  0.6458 -0.4721 -1.2232
 4788SOL    HW226001   1.927   1.460   6.798  1.2791 -0.5971  1.4679
 4789SOL     OW26002   4.653   1.379   6.962  0.0834  0.5079 -0.0753
 4789SOL    HW126003   4.655   1.392   6.868 -1.9973 -0.0327 -0.2017
 4789SOL    HW226004   4.636   1.470   6.986  1.6158  1.3375 -2.1559
 4790SOL     OW26005   1.190   4.565   6.064  0.3617 -0.6754  0.2475
 4790SOL    HW126006   1.274   4.548   6.105  0.5164 -2.0356 -0.6266
 4790SOL    HW226007   1.221   4.562   5.974 -0.0085 -0.9661  0.1285
 4791SOL     OW26008   1.465   0.767   5.885 -0.4554 -0.3796  0.2938
 4791SOL    HW126009   1.509   0.786   5.803 -0.1931  0.9912  0.7519
 4791SOL    HW226010   1.373   0.791   5.870  0.1907  1.1596 -1.1554
 4792SOL     OW26011   0.294   0.700  14.615  0.1242 -0.2058  0.5236
 4792SOL    HW126012   0.345   0.622  14.595 -0.7128 -1.0922  1.8462
 4792SOL    HW226013   0.257   0.722  14.529  0.0538  0.5316  0.7371
 4793SOL     OW26014   4.158   3.621   7.000 -0.3832  0.2090  0.0547
 4793SOL    HW126015   4.073   3.594   7.035 -0.7690  1.7664  0.2958
 4793SOL    HW226016   4.131   3.688   6.937 -2.5445  1.0748  1.8840
 4794SOL     OW26017   1.506   3.450  13.830 -0.2759  0.3346  0.3140
 4794SOL    HW126018   1.600   3.463  13.818 -0.3639  1.6992  1.1192
 4794SOL    HW226019   1.470   3.538  13.843 -3.1861 -0.8682  0.3370
 4795SOL     OW26020   3.020   1.305   4.170 -0.1103 -0.4795  0.3962
 4795SOL    HW126021   3.006   1.379   4.111 -1.7025 -0.8534  0.2912
 4795SOL    HW226022   3.019   1.343   4.259  0.1468 -0.7617  0.5189
 4796SOL     OW26023   1.206   2.370   8.105  0.2552  0.1565 -0.2180
 4796SOL    HW126024   1.136   2.367   8.040 -0.4809 -0.3670  0.6111
 4796SOL    HW226025   1.204   2.464   8.125  2.2072 -0.0350  0.9119
 4797SOL     OW26026   0.965   1.149  13.147  0.5860  0.1166  0.3646
 4797SOL    HW126027   1.039   1.162  13.088 -0.4062 -0.3252 -0.9755
 4797SOL    HW226028   0.889   1.171  13.095  1.0784 -1.2544 -0.9549
 4798SOL     OW26029   3.656   3.415   4.625 -0.1820  0.2501  0.3005
 4798SOL    HW126030   3.750   3.405   4.638 -0.1170 -1.4240 -1.4088
 4798SOL    HW226031   3.628   3.490   4.677  2.2494  1.4846 -0.1741
 4799SOL     OW26032   4.153   1.146   2.521  0.4168  0.6773  0.6161
 4799SOL    HW126033   4.133   1.237   2.542 -1.2972  0.2620  0.8564
 4799SOL    HW226034   4.120   1.101   2.599  0.2992 -1.8145 -0.8580
 4800SOL     OW26035   3.565   0.554   9.489 -0.4147 -0.4752 -0.4541
 4800SOL    HW126036   3.563   0.518   9.578  1.7795  0.0324 -0.2156
 4800SOL    HW226037   3.474   0.584   9.491  0.3608  1.6843  1.9832
 4801SOL     OW26038   4.008   1.187   7.258 -0.0418 -0.1246  0.0341
 4801SOL    HW126039   4.051   1.102   7.250 -1.0156 -0.3932 -2.4072
 4801SOL    HW226040   3.924   1.172   7.303 -0.2274 -3.7240 -1.4737
 4802SOL     OW26041   2.006   4.177   5.714 -0.4969  0.1948 -0.3042
 4802SOL    HW126042   2.007   4.097   5.767 -1.0302  1.5812  1.8360
 4802SOL    HW226043   2.089   4.162   5.669  1.0824  0.9072  2.3625
 4803SOL     OW26044   4.183   0.809  17.010 -0.3889 -0.3676 -0.2893
 4803SOL    HW126045   4.231   0.884  16.974 -0.6152  0.4676  1.1494
 4803SOL    HW226046   4.130   0.850  17.078  0.0442  1.6996 -1.1880
 4804SOL     OW26047   3.995   3.838   5.908 -0.3954 -0.0984 -0.0964
 4804SOL    HW126048   3.908   3.874   5.923 -1.3993 -2.6587  0.2141
 4804SOL    HW226049   3.989   3.756   5.957  1.9454 -0.7275 -0.8374
 4805SOL     OW26050   0.683   4.215   4.658  0.1037 -0.5809  0.8984
 4805SOL    HW126051   0.748   4.168   4.710 -1.2168 -1.0882  2.1052
 4805SOL    HW226052   0.696   4.167   4.576 -0.0974  0.5834  0.1765
 4806SOL     OW26053   4.612   3.269  16.824 -0.9325 -0.4803 -0.2366
 4806SOL    HW126054   4.673   3.195  16.815  1.0638  1.1878 -0.5258
 4806SOL    HW226055   4.659   3.311  16.896  1.9259  0.9882 -2.9452
 4807SOL     OW26056   1.692   0.075   4.738 -0.0114 -0.2213  0.2194
 4807SOL    HW126057   1.628   0.142   4.764  0.1716  0.0439 -0.0179
 4807SOL    HW226058   1.642   4.729   4.744  0.7292 -0.6627  0.3120
 4808SOL     OW26059   0.210   4.698   4.382 -0.2412 -0.2634 -0.1244
 4808SOL    HW126060   0.187   4.711   4.474  0.9153  0.4864  0.0515
 4808SOL    HW226061   0.252   0.047   4.368 -0.0356 -0.4131 -0.4122
 4809SOL     OW26062   4.608   0.746   7.706  0.5431 -0.3906  0.1944
 4809SOL    HW126063   4.549   0.774   7.636 -1.0391 -1.5447  1.0447
 4809SOL    HW226064   4.681   0.807   7.709 -0.3882  0.7870 -1.3578
 4810SOL     OW26065   0.466   1.970   3.928  0.1721  0.0331 -0.0356
 4810SOL    HW126066   0.403   2.002   3.992  0.0095 -0.7420  0.1948
 4810SOL    HW226067   0.518   1.909   3.980 -0.3920  0.8808  1.5066
 4811SOL     OW26068   0.423   0.414   7.555 -1.1197 -0.0821  0.4378
 4811SOL    HW126069   0.488   0.474   7.590 -0.7309  0.6700 -1.5530
 4811SOL    HW226070   0.360   0.408   7.626  0.7694  0.7062  2.1681
 4812SOL     OW26071   4.534   0.953   6.161 -0.2090  0.2951 -0.2863
 4812SOL    HW126072   4.540   0.870   6.113 -1.4629 -0.4894  0.9029
 4812SOL    HW226073   4.519   0.920   6.250 -1.5093  2.8145  0.4152
 4813SOL     OW26074   4.592   1.616   3.191 -0.2636 -0.0856  0.4145
 4813SOL    HW126075   4.586   1.710   3.176  1.1285  0.2108  1.6726
 4813SOL    HW226076   4.597   1.578   3.103 -3.1105 -1.1051  0.6942
 4814SOL     OW26077   2.976   3.301   3.608  0.4494 -0.1099  0.6076
 4814SOL    HW126078   3.065   3.281   3.636 -0.4522  0.2204  3.7127
 4814SOL    HW226079   2.995   3.369   3.543 -0.0018  0.3211  0.9342
 4815SOL     OW26080   0.793   2.097   3.063 -0.0657 -0.2176 -0.5119
 4815SOL    HW126081   0.865   2.039   3.040 -0.1755 -1.1894  1.5657
 4815SOL    HW226082   0.794   2.148   2.982 -0.5184 -1.3387 -1.2192
 4816SOL     OW26083   0.740   2.853  14.838  0.0459 -0.1660 -0.1903
 4816SOL    HW126084   0.832   2.878  14.831 -0.8344  2.5336 -2.0756
 4816SOL    HW226085   0.725   2.801  14.758 -0.5067 -2.1100  1.1802
 4817SOL     OW26086   1.362   1.860   8.974  0.1668 -0.1579 -0.0103
 4817SOL    HW126087   1.340   1.876   8.882 -0.2958  0.1288  0.1504
 4817SOL    HW226088   1.383   1.947   9.007  1.2203  0.5989 -2.7023
 4818SOL     OW26089   0.551   3.456   9.072  0.4034  0.2489 -0.1864
 4818SOL    HW126090   0.476   3.400   9.095  0.3532 -0.1133 -1.2184
 4818SOL    HW226091   0.502   3.501   9.003 -1.6004 -2.8486 -0.8302
 4819SOL     OW26092   1.372   2.184   0.002 -0.1299  0.0535 -0.2796
 4819SOL    HW126093   1.412   2.118   0.058 -0.2960  0.8109  0.7325
 4819SOL    HW226094   1.395   2.267   0.045  0.7460 -0.1668 -0.3378
 4820SOL     OW26095   0.017   4.607   8.519 -0.2739 -0.5911 -0.1692
 4820SOL    HW126096   0.108   4.581   8.535 -0.4026 -0.7811  0.2365
 4820SOL    HW226097   0.020   4.616   8.423 -0.5644  0.0623 -0.1171
 4821SOL     OW26098   1.494   2.486  17.009 -0.1420 -0.1539 -0.0171
 4821SOL    HW126099   1.527   2.493  16.919  2.2140  0.2985  0.8912
 4821SOL    HW226100   1.467   2.574  17.036 -1.0993  0.2803 -2.3406
 4822SOL     OW26101   0.305   2.901   8.861  0.4081 -0.1483 -0.3810
 4822SOL    HW126102   0.301   2.919   8.955  2.9522  0.4410 -0.3890
 4822SOL    HW226103   0.256   2.977   8.828 -2.1560 -0.1305  3.4003
 4823SOL     OW26104   4.677   4.302   7.494 -0.3457  0.4557  0.0708
 4823SOL    HW126105   4.589   4.273   7.473  0.3267 -1.8376  0.4457
 4823SOL    HW226106   4.680   4.288   7.589  1.4227 -1.3961 -0.2398
 4824SOL     OW26107   3.655   1.212   7.222  0.1287  0.1816  0.3703
 4824SOL    HW126108   3.695   1.296   7.201  0.9018 -0.4338 -0.5972
 4824SOL    HW226109   3.563   1.236   7.211 -0.4015 -2.4035 -0.6349
 4825SOL     OW26110   1.654   2.527   3.560  0.4521 -0.9292 -0.8655
 4825SOL    HW126111   1.648   2.442   3.517 -2.4901 -0.9161 -0.4932
 4825SOL    HW226112   1.617   2.581   3.490  0.6845  0.3093 -0.0258
 4826SOL     OW26113   1.418   2.391  14.490 -0.2845  0.1405 -0.0245
 4826SOL    HW126114   1.504   2.414  14.525 -0.5096  1.2653 -0.2033
 4826SOL    HW226115   1.421   2.429  14.402 -0.0333 -0.6535 -0.3666
 4827SOL     OW26116   0.956   1.996   2.614  0.1505 -0.2071 -0.3299
 4827SOL    HW126117   1.023   2.010   2.681 -2.4080 -3.5399  2.8869
 4827SOL    HW226118   0.951   1.901   2.605 -2.3026 -0.2727  1.7560
 4828SOL     OW26119   3.255   2.439   7.163  0.3511  0.0409  0.1097
 4828SOL    HW126120   3.334   2.436   7.108  0.4711  2.3876  0.1175
 4828SOL    HW226121   3.305   2.448   7.244  1.4527  0.6430 -0.6330
 4829SOL     OW26122   1.957   2.769  13.304  0.0418  0.0641  0.4969
 4829SOL    HW126123   2.005   2.721  13.237 -0.0706 -1.4645  1.5065
 4829SOL    HW226124   1.953   2.696  13.366  1.3889  0.4971  1.0932
 4830SOL     OW26125   1.314   2.194  12.847 -0.1824 -0.4283  0.1273
 4830SOL    HW126126   1.251   2.264  12.866  1.3777  1.1017 -0.3861
 4830SOL    HW226127   1.396   2.230  12.881 -0.0995 -1.9751  1.6085
 4831SOL     OW26128   0.937   2.949  13.447 -0.4225 -0.0921  0.4929
 4831SOL    HW126129   1.022   2.986  13.470 -0.7725  3.1583 -3.4660
 4831SOL    HW226130   0.919   2.914  13.535  1.2667 -3.1464 -0.3463
 4832SOL     OW26131   1.777   0.799   6.217  0.0021 -0.5436  0.5748
 4832SOL    HW126132   1.753   0.710   6.194 -2.0608 -0.0983  1.0018
 4832SOL    HW226133   1.809   0.834   6.134 -0.8933 -1.4117 -0.1289
 4833SOL     OW26134   2.401   1.963   0.681 -0.5807 -0.4998 -0.6634
 4833SOL    HW126135   2.344   1.887   0.689 -0.2348 -0.5899  1.0498
 4833SOL    HW226136   2.360   2.012   0.610 -0.2521  1.0679  0.2245
 4834SOL     OW26137   3.421   3.866   1.299 -0.1319 -0.0972  1.0228
 4834SOL    HW126138   3.462   3.816   1.370  0.0230  0.7118  1.5005
 4834SOL    HW226139   3.401   3.797   1.236 -0.4125 -0.7103  1.7826
 4835SOL     OW26140   3.824   4.733   4.018 -0.5156  0.0889 -0.2670
 4835SOL    HW126141   3.889   4.673   3.984 -1.6014  1.0434 -3.9523
 4835SOL    HW226142   3.782   0.002   3.933  1.2858 -0.8361 -1.2058
 4836SOL     OW26143   1.680   2.111   7.056 -0.1002  0.2007 -0.1489
 4836SOL    HW126144   1.640   2.037   7.011 -0.9691  1.4322 -1.3894
 4836SOL    HW226145   1.758   2.115   7.001 -0.8188  1.2734 -1.0801
 4837SOL     OW26146   3.350   3.251   7.159  0.4257 -0.1869 -0.2807
 4837SOL    HW126147   3.350   3.159   7.130  0.6151 -0.2137 -0.2005
 4837SOL    HW226148   3.386   3.281   7.076  0.1362 -0.1957 -0.4084
 4838SOL     OW26149   4.567   1.237   5.540  0.1130  0.1373 -0.0234
 4838SOL    HW126150   4.554   1.237   5.635 -1.2278 -0.3067 -0.2019
 4838SOL    HW226151   4.530   1.324   5.523  0.7670  0.4663  0.2387
 4839SOL     OW26152   3.783   4.305  13.272 -0.5578 -0.3617  0.4817
 4839SOL    HW126153   3.697   4.346  13.286 -0.5813 -0.8681  1.8225
 4839SOL    HW226154   3.792   4.249  13.349  1.9079 -0.0507  0.4342
 4840SOL     OW26155   2.482   2.514   6.326 -0.4651 -0.0048 -0.4533
 4840SOL    HW126156   2.515   2.575   6.391 -1.9056  0.7952 -0.4572
 4840SOL    HW226157   2.433   2.571   6.265 -0.1570 -0.3025 -0.9748
 4841SOL     OW26158   0.133   2.827   8.421 -0.0909  0.2640  0.7581
 4841SOL    HW126159   0.040   2.843   8.437  0.1933  3.0700 -0.4744
 4841SOL    HW226160   0.159   2.777   8.499 -1.2562  0.9801  1.6142
 4842SOL     OW26161   1.197   2.865   5.244  0.1832  0.9013  0.2574
 4842SOL    HW126162   1.117   2.900   5.282 -0.3833 -2.3442  2.0221
 4842SOL    HW226163   1.171   2.783   5.203  0.0918  1.1512 -0.1862
 4843SOL     OW26164   1.185   3.338  13.226  0.2285 -0.1045  0.0079
 4843SOL    HW126165   1.094   3.318  13.206 -0.3710  2.1923  0.4420
 4843SOL    HW226166   1.178   3.422  13.272 -0.3720  0.3263 -0.8788
 4844SOL     OW26167   1.958   4.300   2.649  0.3581  0.0684 -0.1526
 4844SOL    HW126168   1.896   4.264   2.712  0.0012 -3.8187 -2.7324
 4844SOL    HW226169   1.926   4.244   2.578  0.7285 -0.2170 -0.0923
 4845SOL     OW26170   2.764   3.110   0.280 -0.7367  0.2522 -0.7920
 4845SOL    HW126171   2.765   3.108   0.184  0.0258 -3.1031 -0.6961
 4845SOL    HW226172   2.838   3.166   0.304  0.4132 -0.8590 -1.7614
 4846SOL     OW26173   3.399   2.896   9.391 -0.2926 -0.1094 -0.0344
 4846SOL    HW126174   3.365   2.985   9.386 -1.4978 -0.7082 -2.5670
 4846SOL    HW226175   3.447   2.909   9.473  0.1920 -1.2674 -0.1350
 4847SOL     OW26176   2.280   4.224  15.082 -0.0390 -0.4184 -0.3110
 4847SOL    HW126177   2.343   4.295  15.086  0.0277 -0.5657  1.3346
 4847SOL    HW226178   2.220   4.240  15.009 -1.3534  0.5964  0.9874
 4848SOL     OW26179   0.779   2.080  10.690  0.0502  0.2944 -0.0703
 4848SOL    HW126180   0.750   1.998  10.729 -0.5661  0.2437 -0.6228
 4848SOL    HW226181   0.721   2.087  10.613  0.5357  0.1512 -0.4492
 4849SOL     OW26182   4.114   2.450   0.609  0.4125  0.1625 -0.2486
 4849SOL    HW126183   4.102   2.450   0.704  0.6744 -0.9794 -0.2171
 4849SOL    HW226184   4.091   2.539   0.583  2.5040  0.9272  0.5730
 4850SOL     OW26185   1.786   2.881   5.132 -0.4581 -0.6643 -0.5181
 4850SOL    HW126186   1.796   2.860   5.224 -4.4181  1.6020  0.4357
 4850SOL    HW226187   1.879   2.904   5.128 -0.1399 -1.8303  0.3975
 4851SOL     OW26188   3.644   3.082  15.421  0.5216 -0.2857 -0.1090
 4851SOL    HW126189   3.711   3.014  15.416  0.7143 -0.1176  0.2472
 4851SOL    HW226190   3.690   3.158  15.385 -1.9536  1.2651  0.0298
 4852SOL     OW26191   4.672   4.555   6.771  0.5527 -0.1835  0.4935
 4852SOL    HW126192   4.688   4.549   6.865 -0.3688 -2.3752  0.5053
 4852SOL    HW226193   4.642   4.643   6.749  0.7769  0.3080  2.1165
 4853SOL     OW26194   1.909   1.633  14.985 -0.0902  0.2157  0.0447
 4853SOL    HW126195   1.991   1.647  15.033 -0.3008 -0.1913  0.5232
 4853SOL    HW226196   1.886   1.725  14.974  0.0879  0.2440 -0.0853
 4854SOL     OW26197   1.254   1.253   9.587  0.2415  0.3115 -0.8371
 4854SOL    HW126198   1.331   1.248   9.645 -0.5340 -0.3631  0.1376
 4854SOL    HW226199   1.187   1.296   9.640 -0.5048  0.6685 -2.0858
 4855SOL     OW26200   4.627   1.911   2.634  0.9929  0.3735  0.0295
 4855SOL    HW126201   4.621   1.900   2.728 -0.6726 -1.0733 -0.2504
 4855SOL    HW226202   4.574   1.836   2.606 -2.2696  1.7313  2.5339
 4856SOL     OW26203   1.548   0.593   4.818  0.2687  0.2829 -0.0765
 4856SOL    HW126204   1.471   0.555   4.861 -0.0552  0.5770 -0.3971
 4856SOL    HW226205   1.564   0.668   4.875  2.1613  0.6146 -1.0313
 4857SOL     OW26206   2.476   2.343  11.692 -0.0310 -0.3629  0.1381
 4857SOL    HW126207   2.491   2.403  11.619 -3.4049 -1.3578 -1.4017
 4857SOL    HW226208   2.386   2.374  11.705 -0.3651 -1.2499 -0.1036
 4858SOL     OW26209   0.389   0.914  15.746 -0.0555  0.2529  0.0512
 4858SOL    HW126210   0.315   0.853  15.746  0.6354 -0.5949 -0.1742
 4858SOL    HW226211   0.421   0.880  15.662 -2.7362 -1.2859 -0.3625
 4859SOL     OW26212   0.714   1.554   7.404  0.1993 -0.4521 -0.3262
 4859SOL    HW126213   0.778   1.620   7.377  1.7638 -1.7804  0.1442
 4859SOL    HW226214   0.656   1.613   7.452  0.8323  0.5647 -0.8101
 4860SOL     OW26215   1.195   1.677   0.202 -0.2379  0.2577  0.2708
 4860SOL    HW126216   1.262   1.624   0.161 -0.6832  0.0823 -0.2287
 4860SOL    HW226217   1.225   1.764   0.179  1.3516 -0.3286  0.1633
 4861SOL     OW26218   3.780   4.131   9.023  0.0624  0.6196  1.0015
 4861SOL    HW126219   3.696   4.093   9.048 -1.1166  1.1467 -2.1009
 4861SOL    HW226220   3.750   4.203   8.967 -0.2764 -1.8137 -1.9595
 4862SOL     OW26221   0.511   0.176   7.812  0.0650  0.7262 -0.0889
 4862SOL    HW126222   0.548   0.181   7.724  0.8858 -0.6059  0.1715
 4862SOL    HW226223   0.437   0.116   7.804  0.6973 -0.0098 -0.3719
 4863SOL     OW26224   3.299   0.484   7.166  0.0712  0.0519 -1.1395
 4863SOL    HW126225   3.389   0.482   7.133  0.5003  3.6419 -0.2689
 4863SOL    HW226226   3.317   0.504   7.258  0.5246 -0.9565 -1.0149
 4864SOL     OW26227   3.236   0.064  14.855 -0.3195 -0.4076 -0.0456
 4864SOL    HW126228   3.324   0.068  14.817 -0.3896  0.6927 -0.0834
 4864SOL    HW226229   3.184   0.071  14.775 -0.7127 -2.5107  0.0061
 4865SOL     OW26230   3.155   1.076   1.108  0.3506  0.0318  0.5958
 4865SOL    HW126231   3.065   1.102   1.126  1.1616  1.3566  2.7524
 4865SOL    HW226232   3.181   1.053   1.197  4.3579 -1.9328 -1.0570
 4866SOL     OW26233   4.254   3.884   6.663  0.0214  0.3122  0.1674
 4866SOL    HW126234   4.266   3.789   6.655  0.4365  0.2848  1.1409
 4866SOL    HW226235   4.344   3.913   6.648  0.0291 -0.2216 -0.8315
 4867SOL     OW26236   3.329   2.139   8.168 -0.1944 -0.4901 -0.3397
 4867SOL    HW126237   3.351   2.222   8.210  0.7988 -0.3389 -1.1584
 4867SOL    HW226238   3.290   2.093   8.243  3.2323 -0.1669  1.6192
 4868SOL     OW26239   2.454   3.908   4.647 -0.1757 -0.5991  0.4297
 4868SOL    HW126240   2.371   3.871   4.615 -0.1646  1.4503 -1.8933
 4868SOL    HW226241   2.513   3.833   4.643 -0.3116 -0.7366  1.0034
 4869SOL     OW26242   3.575   1.734  17.472 -0.2556 -0.0595 -0.2808
 4869SOL    HW126243   3.610   1.675  17.539  0.9518  0.2525 -0.6543
 4869SOL    HW226244   3.519   1.676  17.421  0.4079  1.3048 -2.5266
 4870SOL     OW26245   1.745   4.601   7.757 -0.3084  0.1177  0.3417
 4870SOL    HW126246   1.692   4.675   7.727  0.8832  1.6353  2.0020
 4870SOL    HW226247   1.695   4.569   7.832 -1.4783  1.2616  0.0520
 4871SOL     OW26248   0.775   2.313   6.496 -0.0608  0.1865 -0.8561
 4871SOL    HW126249   0.762   2.262   6.416 -1.8260  1.5508 -1.4441
 4871SOL    HW226250   0.805   2.240   6.551 -3.1545 -1.7772 -1.8102
 4872SOL     OW26251   3.169   3.521   7.161 -0.2148 -0.2653  1.0710
 4872SOL    HW126252   3.114   3.447   7.139  1.3413 -0.5816 -1.7972
 4872SOL    HW226253   3.157   3.584   7.090 -0.3640  1.8650  2.9940
 4873SOL     OW26254   3.694   1.265   1.251 -0.1214 -0.3944  0.4288
 4873SOL    HW126255   3.610   1.305   1.229 -0.3063 -1.1111 -0.1576
 4873SOL    HW226256   3.667   1.200   1.316  2.4465  0.6152  2.5347
 4874SOL     OW26257   1.675   3.784  14.000 -0.4784  0.0269  0.2115
 4874SOL    HW126258   1.723   3.738  13.932 -0.2800  2.5301 -1.3462
 4874SOL    HW226259   1.596   3.795  13.947  1.7942 -0.5589 -3.2524
 4875SOL     OW26260   1.599   3.927   8.751  0.0944 -0.5311  0.2181
 4875SOL    HW126261   1.691   3.954   8.759 -0.9753  3.2163 -0.1229
 4875SOL    HW226262   1.562   3.951   8.836  2.0330 -1.6275  1.3746
 4876SOL     OW26263   4.519   4.052   5.267  0.4359 -0.9491  1.0681
 4876SOL    HW126264   4.539   3.964   5.301  1.5782 -0.9310  0.4622
 4876SOL    HW226265   4.492   4.031   5.178 -0.7482  0.1968  1.1547
 4877SOL     OW26266   3.472   1.786   7.833 -0.0802  0.1031 -0.0277
 4877SOL    HW126267   3.394   1.732   7.826 -0.7576  1.1261 -0.4385
 4877SOL    HW226268   3.453   1.869   7.877 -1.5852  0.5216 -1.4861
 4878SOL     OW26269   0.267   4.651  16.338  0.2402  0.1169 -0.2653
 4878SOL    HW126270   0.235   0.000  16.307 -1.0095  0.3500  1.7061
 4878SOL    HW226271   0.202   4.610  16.395 -0.0019  1.0065  0.0911
 4879SOL     OW26272   0.706   0.429   2.660 -0.1046 -0.5199 -0.3605
 4879SOL    HW126273   0.651   0.456   2.733  0.0558  0.8307 -0.7451
 4879SOL    HW226274   0.753   0.351   2.691 -0.1885  0.2121  1.5425
 4880SOL     OW26275   0.445   2.540   7.387 -0.6641  0.4830  0.2301
 4880SOL    HW126276   0.425   2.605   7.453 -2.9786 -0.8849  0.8536
 4880SOL    HW226277   0.369   2.549   7.330 -0.9088  0.1827  0.5150
 4881SOL     OW26278   1.228   4.426   7.617  0.1636 -0.3734  0.6102
 4881SOL    HW126279   1.276   4.378   7.550  0.7760 -0.2083  0.9265
 4881SOL    HW226280   1.206   4.503   7.565 -0.3303 -1.4993 -0.8535
 4882SOL     OW26281   0.231   1.413  17.445 -0.1355  0.1714  0.1137
 4882SOL    HW126282   0.195   1.368  17.368  1.1156 -1.6973  0.6430
 4882SOL    HW226283   0.287   1.483  17.411 -0.3105 -0.1949 -0.9295
 4883SOL     OW26284   0.234   0.423   6.586  0.0655  0.1865 -0.1766
 4883SOL    HW126285   0.149   0.414   6.628  0.5582 -0.1795  0.7352
 4883SOL    HW226286   0.288   0.364   6.639 -1.0239 -2.9869 -2.5515
 4884SOL     OW26287   1.667   0.752   2.692  0.0376  0.1621  0.2435
 4884SOL    HW126288   1.580   0.775   2.726 -0.9423  0.8406 -2.7015
 4884SOL    HW226289   1.721   0.743   2.771 -1.1620 -1.1637  0.9338
 4885SOL     OW26290   0.232   3.521  16.868 -0.5451  0.6058  0.1478
 4885SOL    HW126291   0.260   3.498  16.957 -0.9385 -1.3050 -0.2132
 4885SOL    HW226292   0.307   3.504  16.810 -1.6783  0.4374 -1.2782
 4886SOL     OW26293   1.328   4.112   3.093 -0.4110 -0.2115  0.4765
 4886SOL    HW126294   1.312   4.019   3.078 -0.7448  0.0623 -0.8521
 4886SOL    HW226295   1.251   4.135   3.144 -1.1416  0.7497 -1.0604
 4887SOL     OW26296   3.057   1.321  12.227 -0.3294  0.0756  0.5265
 4887SOL    HW126297   3.075   1.405  12.269 -0.2627 -0.3808  1.4322
 4887SOL    HW226298   2.971   1.310  12.269 -1.1611 -0.4589 -1.3389
 4888SOL     OW26299   1.364   1.430   6.950 -0.2159 -0.0024 -0.5084
 4888SOL    HW126300   1.414   1.446   7.031 -0.1438 -1.4213 -0.2699
 4888SOL    HW226301   1.431   1.447   6.883  0.3554  1.4465  0.3988
 4889SOL     OW26302   0.682   2.176   4.902  0.2075  0.3178 -0.7338
 4889SOL    HW126303   0.741   2.210   4.835  1.3857  0.2542  0.2540
 4889SOL    HW226304   0.692   2.081   4.893  0.4244  0.3376 -0.7101
 4890SOL     OW26305   0.478   2.637  15.927 -0.3426  0.5334  0.2256
 4890SOL    HW126306   0.564   2.615  15.891 -0.7316  0.0933 -0.4325
 4890SOL    HW226307   0.494   2.648  16.021  0.8640  1.8238 -0.1381
 4891SOL     OW26308   2.469   0.468   4.695 -0.4840  0.0049 -0.2110
 4891SOL    HW126309   2.392   0.503   4.650  0.1439  0.2095 -1.1357
 4891SOL    HW226310   2.427   0.400   4.747 -0.7046 -0.1948 -0.6485
 4892SOL     OW26311   3.942   0.618   9.632 -0.3497  0.0813 -0.3489
 4892SOL    HW126312   3.955   0.523   9.636  2.5998  0.4542 -1.1860
 4892SOL    HW226313   3.893   0.632   9.551  2.5684 -0.3100 -2.1897
 4893SOL     OW26314   1.091   4.617   0.724  0.6094 -1.2181  0.2064
 4893SOL    HW126315   1.013   4.673   0.722 -0.2846 -2.4278  1.5750
 4893SOL    HW226316   1.091   4.574   0.638 -2.2139 -0.5379 -0.1235
 4894SOL     OW26317   4.444   4.433  13.256 -0.0512 -0.7911 -0.0581
 4894SOL    HW126318   4.463   4.474  13.340 -1.6768 -0.5689  0.1919
 4894SOL    HW226319   4.409   4.355  13.299  1.5728 -0.7746  1.3363
 4895SOL     OW26320   0.075   2.905   7.225  0.2192  0.4342 -0.1728
 4895SOL    HW126321   0.069   2.926   7.132  3.3830  0.1736 -0.4548
 4895SOL    HW226322   0.030   2.983   7.254 -1.3159 -0.4856 -0.0993
 4896SOL     OW26323   2.237   2.537  16.674 -0.0177  0.0365  0.3479
 4896SOL    HW126324   2.174   2.487  16.622  1.4202 -3.6375  2.0891
 4896SOL    HW226325   2.293   2.571  16.605  1.3221  0.1818  1.4957
 4897SOL     OW26326   0.653   2.560   2.250  0.1220  0.1321 -0.1459
 4897SOL    HW126327   0.590   2.619   2.291 -0.4860  0.2667 -1.2809
 4897SOL    HW226328   0.725   2.586   2.308  0.0039  0.5493 -0.1941
 4898SOL     OW26329   0.172   1.536  13.921  0.2565  0.1301  1.0516
 4898SOL    HW126330   0.140   1.627  13.922  0.3711  0.1843  0.1052
 4898SOL    HW226331   0.092   1.483  13.928 -0.2970  1.0632  1.9681
 4899SOL     OW26332   1.370   2.577  15.995  0.1569 -0.4772  0.0616
 4899SOL    HW126333   1.282   2.568  16.030  0.1507 -1.3412 -0.1917
 4899SOL    HW226334   1.428   2.546  16.065 -1.9495 -1.3989  1.3836
 4900SOL     OW26335   2.386   4.332   4.395 -0.4417 -0.2521 -0.2982
 4900SOL    HW126336   2.475   4.303   4.417 -0.5548  0.2268  0.8094
 4900SOL    HW226337   2.338   4.306   4.473  0.4252  0.9735  0.6630
 4901SOL     OW26338   3.155   3.601  17.632 -0.3574 -0.0927 -0.0425
 4901SOL    HW126339   3.175   3.628  17.542  0.8353  2.0122  0.8480
 4901SOL    HW226340   3.166   3.683  17.680 -0.9535  0.3654 -0.6936
 4902SOL     OW26341   0.367   0.596  16.961 -0.1126  0.3514 -0.0532
 4902SOL    HW126342   0.367   0.506  16.991 -0.6595  0.1497 -0.6631
 4902SOL    HW226343   0.439   0.594  16.898 -0.9620 -0.4189 -0.9890
 4903SOL     OW26344   0.455   1.795   1.086  0.7233  0.6718  0.1212
 4903SOL    HW126345   0.501   1.822   1.165  2.5483 -1.3892 -0.2278
 4903SOL    HW226346   0.364   1.809   1.110  0.4191  0.0719 -0.6544
 4904SOL     OW26347   4.073   0.548   3.990  0.0333  0.8117 -0.3506
 4904SOL    HW126348   4.065   0.458   4.022 -2.3161  0.8636 -0.8248
 4904SOL    HW226349   4.047   0.533   3.899 -1.5147 -1.1925  0.4212
 4905SOL     OW26350   2.582   4.609  17.645 -0.1940 -0.1239 -0.0769
 4905SOL    HW126351   2.628   4.596  17.728  1.1763  0.4269 -0.7507
 4905SOL    HW226352   2.656   4.642  17.594 -1.7060  1.6355 -1.1063
 4906SOL     OW26353   2.332   0.317   8.049 -0.6057 -0.2738 -0.1868
 4906SOL    HW126354   2.332   0.222   8.062  0.0352 -0.3844 -0.9949
 4906SOL    HW226355   2.414   0.333   8.002 -0.3785 -1.3427 -0.1521
 4907SOL     OW26356   2.591   1.643   0.765 -0.3697  0.2982  0.3774
 4907SOL    HW126357   2.621   1.725   0.724  1.6095 -1.2429 -1.2316
 4907SOL    HW226358   2.639   1.578   0.714 -1.0407 -0.9740  1.3802
 4908SOL     OW26359   1.667   0.367  13.445 -0.5999 -0.2955  0.4901
 4908SOL    HW126360   1.598   0.433  13.445 -1.0591 -0.7698 -1.4582
 4908SOL    HW226361   1.678   0.357  13.540  0.9697 -2.1131  0.1136
 4909SOL     OW26362   3.521   3.205   2.494 -0.3669  0.5395 -0.0677
 4909SOL    HW126363   3.431   3.174   2.508  0.5096 -1.3297  1.3956
 4909SOL    HW226364   3.502   3.298   2.483  0.6777  0.5302 -1.9941
 4910SOL     OW26365   2.759   3.198   3.448 -0.1112 -0.1943  0.4202
 4910SOL    HW126366   2.844   3.209   3.491  1.3493  0.8920 -2.7818
 4910SOL    HW226367   2.725   3.126   3.502 -0.1489 -0.1478  0.4588
 4911SOL     OW26368   3.953   1.050   5.393  0.5329  0.6843 -0.0899
 4911SOL    HW126369   3.956   1.056   5.297  0.3407  2.1935 -0.0156
 4911SOL    HW226370   4.025   0.991   5.414  1.7061  2.1780  0.1299
 4912SOL     OW26371   4.358   4.396   2.831 -0.1013 -0.1441 -0.1193
 4912SOL    HW126372   4.314   4.315   2.803 -0.8483 -0.0518  0.7953
 4912SOL    HW226373   4.443   4.364   2.862 -1.5081 -2.7776  1.0817
 4913SOL     OW26374   2.157   1.595   5.920  0.3237 -0.6277  0.2933
 4913SOL    HW126375   2.109   1.555   5.848 -1.3485 -1.5912  1.9426
 4913SOL    HW226376   2.251   1.581   5.906 -0.0330 -0.2081 -2.4221
 4914SOL     OW26377   1.313   2.890   8.818  0.4404 -0.2293 -0.4311
 4914SOL    HW126378   1.322   2.955   8.888 -1.4825  0.7277 -1.0458
 4914SOL    HW226379   1.232   2.919   8.775  1.3466 -1.3959 -2.8966
 4915SOL     OW26380   1.864   1.265   7.487  0.3262 -0.1627  0.2990
 4915SOL    HW126381   1.939   1.213   7.517 -0.1061 -0.6894  0.4561
 4915SOL    HW226382   1.844   1.230   7.400 -2.7704  0.6500  0.7054
 4916SOL     OW26383   0.208   2.138   8.144  0.1455  0.1487  0.4151
 4916SOL    HW126384   0.112   2.138   8.151 -0.0540  0.2901 -2.4600
 4916SOL    HW226385   0.225   2.101   8.230 -1.7317 -0.1140  0.6899
 4917SOL     OW26386   2.547   2.975   6.682 -0.0372  0.6030  0.4131
 4917SOL    HW126387   2.614   2.914   6.651  0.5158  0.5298  1.7692
 4917SOL    HW226388   2.481   2.965   6.613  1.2113  0.9226 -0.8081
 4918SOL     OW26389   0.855   3.154  11.700  0.1246  0.1713  0.2155
 4918SOL    HW126390   0.937   3.193  11.671 -0.4866 -0.0387 -1.8236
 4918SOL    HW226391   0.807   3.234  11.722  0.3391  1.0239 -2.3383
 4919SOL     OW26392   1.641   0.092  10.326  0.3886  0.4962  0.5387
 4919SOL    HW126393   1.649   0.006  10.368  1.9978 -0.1219 -1.0028
 4919SOL    HW226394   1.718   0.084  10.270  0.6620  2.0230  0.6985
 4920SOL     OW26395   1.142   4.592   2.293 -0.1028  0.0230  0.2666
 4920SOL    HW126396   1.164   4.682   2.317 -0.8263  0.5605 -1.1235
 4920SOL    HW226397   1.072   4.606   2.230 -0.5855  0.4911  0.8950
 4921SOL     OW26398   2.028   1.444   4.234 -1.0719 -0.0060 -0.8502
 4921SOL    HW126399   1.965   1.431   4.305  0.5282 -0.3775  0.4741
 4921SOL    HW226400   1.998   1.399   4.155 -2.0462 -1.3388  0.2760
 4922SOL     OW26401   4.537   0.513   3.207  0.3737  0.2114 -0.2641
 4922SOL    HW126402   4.614   0.460   3.185  1.1521  0.8277  0.9777
 4922SOL    HW226403   4.568   0.599   3.177  2.2592 -0.5411 -0.4436
 4923SOL     OW26404   0.443   2.346   4.557 -0.5549  0.0501  0.0514
 4923SOL    HW126405   0.407   2.294   4.629  2.0044 -2.7485 -0.7163
 4923SOL    HW226406   0.415   2.294   4.482 -2.6444  0.5029  0.5086
 4924SOL     OW26407   2.314   4.621  14.669 -0.7380  0.5047  0.2676
 4924SOL    HW126408   2.321   4.532  14.703 -0.3044  0.6408  0.5323
 4924SOL    HW226409   2.335   4.675  14.746 -2.2678  0.2733  0.8480
 4925SOL     OW26410   4.179   3.641   8.395 -0.1218 -0.0227  0.9643
 4925SOL    HW126411   4.090   3.606   8.389  0.0512 -0.3900  0.5243
 4925SOL    HW226412   4.157   3.725   8.435  0.2969  0.4270  0.2336
 4926SOL     OW26413   1.973   2.467   8.985  0.7465 -0.1549  0.4411
 4926SOL    HW126414   1.921   2.460   9.065 -1.6591  2.3303 -0.9106
 4926SOL    HW226415   2.006   2.554   9.005 -0.7842  1.2905 -3.3127
 4927SOL     OW26416   3.367   3.217   1.907 -0.0060  0.3376  0.1106
 4927SOL    HW126417   3.330   3.273   1.838 -0.0526 -0.2903 -0.3769
 4927SOL    HW226418   3.325   3.250   1.986 -0.7204 -3.1101  1.1985
 4928SOL     OW26419   3.533   3.098   0.022  0.0870  0.3039  0.0561
 4928SOL    HW126420   3.445   3.134   0.027 -0.2234 -0.7246  1.6909
 4928SOL    HW226421   3.513   3.007  17.738  0.1744  0.1988  0.3801
 4929SOL     OW26422   0.931   4.435   5.955  0.1529 -0.7666  0.2672
 4929SOL    HW126423   0.987   4.494   6.006 -1.1328  0.7655 -0.0927
 4929SOL    HW226424   0.860   4.496   5.936  1.1921  0.3021 -0.1566
 4930SOL     OW26425   2.497   0.151   0.494 -0.1328 -0.4159 -0.7275
 4930SOL    HW126426   2.428   0.124   0.554  1.3917  0.0120  1.2030
 4930SOL    HW226427   2.481   0.093   0.419  0.3681 -1.3461 -0.1144
 4931SOL     OW26428   4.434   2.564   5.600  0.6554 -0.4994  0.1991
 4931SOL    HW126429   4.390   2.487   5.636 -0.0200  0.1188  0.6995
 4931SOL    HW226430   4.518   2.520   5.591  0.8465  0.1313 -1.0818
 4932SOL     OW26431   0.315   4.390   3.784 -0.3441  0.1597 -0.5741
 4932SOL    HW126432   0.368   4.311   3.795 -1.5959 -0.7290 -0.9010
 4932SOL    HW226433   0.372   4.463   3.806 -0.6844  0.7544 -1.6734
 4933SOL     OW26434   2.011   4.105   1.712 -0.3189  0.0988 -0.0129
 4933SOL    HW126435   2.036   4.086   1.802 -0.3389  1.0575  0.1980
 4933SOL    HW226436   1.918   4.127   1.719 -0.3597  0.2861 -1.1096
 4934SOL     OW26437   3.130   2.446   0.284 -0.0618 -0.1246 -0.7051
 4934SOL    HW126438   3.152   2.441   0.377 -3.2026 -0.4774  0.0391
 4934SOL    HW226439   3.125   2.354   0.258  0.3685 -0.9261  2.0267
 4935SOL     OW26440   3.377   2.491   7.416  0.0748 -0.0408 -0.2198
 4935SOL    HW126441   3.466   2.519   7.395 -1.4840  4.2972 -0.9855
 4935SOL    HW226442   3.387   2.400   7.445  1.2965  0.1055 -0.1875
 4936SOL     OW26443   3.402   0.138  14.326 -0.0571 -0.0459  0.1243
 4936SOL    HW126444   3.309   0.153  14.305 -0.5019 -1.0220  1.3910
 4936SOL    HW226445   3.425   0.228  14.302 -0.1779 -0.0089  0.1434
 4937SOL     OW26446   4.445   3.682   2.664 -0.4441  0.1349 -0.5051
 4937SOL    HW126447   4.500   3.709   2.590  1.2865 -1.0082  0.3474
 4937SOL    HW226448   4.519   3.642   2.711 -0.9211 -0.9808 -0.7097
 4938SOL     OW26449   3.323   3.682   1.119 -0.3253 -0.4717  0.1026
 4938SOL    HW126450   3.380   3.715   1.050  0.9588  0.3410  1.5599
 4938SOL    HW226451   3.314   3.593   1.085  1.2426 -0.9964  1.0442
 4939SOL     OW26452   2.941   0.774   4.771 -0.2223  0.0444 -0.8448
 4939SOL    HW126453   2.929   0.812   4.858 -1.4795  0.7757 -1.3453
 4939SOL    HW226454   2.854   0.738   4.754  1.0606 -2.9366 -1.1476
 4940SOL     OW26455   4.718   4.436  14.107 -0.0618 -0.1506 -0.1052
 4940SOL    HW126456   4.657   4.388  14.163  1.0161  0.8782  1.9499
 4940SOL    HW226457   0.068   4.393  14.113 -0.8895 -2.0713 -2.3070
 4941SOL     OW26458   0.411   2.500   8.533  0.2089 -0.7342  0.3640
 4941SOL    HW126459   0.402   2.551   8.614  0.4004 -0.4654  0.2134
 4941SOL    HW226460   0.322   2.510   8.500 -0.3622 -1.3960  1.6752
 4942SOL     OW26461   0.192   1.423   6.476  0.4093 -0.2506 -0.0515
 4942SOL    HW126462   0.235   1.509   6.479 -0.8705  0.3189  1.7559
 4942SOL    HW226463   0.239   1.393   6.398  1.6153  0.6708  0.3032
 4943SOL     OW26464   2.588   1.629  11.142  0.3210  0.2117 -0.1462
 4943SOL    HW126465   2.537   1.686  11.200  1.8263  0.6066  0.7835
 4943SOL    HW226466   2.649   1.601  11.210 -1.7525 -1.0633  1.2097
 4944SOL     OW26467   1.250   1.522  11.411 -0.1223  0.2858  0.0653
 4944SOL    HW126468   1.312   1.535  11.482  0.3446 -3.1451  0.2538
 4944SOL    HW226469   1.302   1.547  11.335  1.7522  0.8351  1.5325
 4945SOL     OW26470   0.072   0.434  10.789  0.0838 -0.3229 -0.1214
 4945SOL    HW126471   0.094   0.370  10.721  2.4982 -0.3196  0.6424
 4945SOL    HW226472   0.148   0.493  10.790  1.7747 -2.5071  0.6095
 4946SOL     OW26473   1.201   4.731  17.055  0.6043  0.0642 -0.4444
 4946SOL    HW126474   1.218   4.637  17.049 -1.0345 -0.2499 -0.2166
 4946SOL    HW226475   1.113   0.001  17.093  0.8888  2.8961 -0.1522
 4947SOL     OW26476   4.477   0.634  13.331 -0.1128  0.2329  0.0085
 4947SOL    HW126477   4.456   0.557  13.383 -0.6394  2.0237  2.4475
 4947SOL    HW226478   4.572   0.628  13.321 -0.1870  0.9028 -1.1160
 4948SOL     OW26479   0.225   3.466   4.380  0.2205  0.2120 -0.3176
 4948SOL    HW126480   0.205   3.377   4.410 -1.2908  1.5517  2.5721
 4948SOL    HW226481   0.200   3.445   4.290 -0.7400 -1.4435  0.3502
 4949SOL     OW26482   1.023   4.166  12.739 -0.3043  0.3537 -0.3622
 4949SOL    HW126483   0.985   4.253  12.751  0.3419  0.6970 -0.7411
 4949SOL    HW226484   1.081   4.154  12.814  0.9103  1.5480 -1.1126
 4950SOL     OW26485   2.695   2.678  14.245  0.0141  0.7448 -0.4532
 4950SOL    HW126486   2.785   2.657  14.271 -0.6047 -0.2061  0.9613
 4950SOL    HW226487   2.684   2.759  14.295 -3.6543 -0.6054  0.8884
 4951SOL     OW26488   0.919   0.698   2.667 -0.0879 -1.0029  0.0455
 4951SOL    HW126489   0.974   0.752   2.611 -1.0303  1.2021  1.2413
 4951SOL    HW226490   0.962   0.613   2.658  0.4396 -0.9428  1.9832
 4952SOL     OW26491   2.144   1.077   4.403 -0.2866 -0.1533 -0.5154
 4952SOL    HW126492   2.214   1.123   4.358 -0.8879  0.7010 -0.5804
 4952SOL    HW226493   2.104   1.026   4.332 -2.9711  0.2775  0.6643
 4953SOL     OW26494   4.610   1.580  11.441  0.2143  0.2337 -0.6159
 4953SOL    HW126495   4.654   1.594  11.525 -1.3340 -0.1169  0.2669
 4953SOL    HW226496   4.680   1.598  11.379  1.3144  0.3289  0.6506
 4954SOL     OW26497   2.754   0.622   3.021  0.3951  0.4716  0.2942
 4954SOL    HW126498   2.783   0.531   3.020 -0.1402  0.2949  2.6184
 4954SOL    HW226499   2.825   0.671   2.979  0.9513  0.1638  0.8874
 4955SOL     OW26500   3.184   1.953   3.301  1.0128  0.0764  0.4304
 4955SOL    HW126501   3.169   1.987   3.389 -0.4980 -1.0890  0.6219
 4955SOL    HW226502   3.263   1.902   3.317  1.9544  1.4901  0.3090
 4956SOL     OW26503   1.820   1.425   5.926 -0.1166 -0.0854  0.2472
 4956SOL    HW126504   1.774   1.403   5.845 -0.6936  0.4397  0.4312
 4956SOL    HW226505   1.853   1.513   5.909 -1.9014  0.7396  0.9621
 4957SOL     OW26506   1.128   2.122   1.202  0.1277  0.0459 -0.3376
 4957SOL    HW126507   1.153   2.198   1.255 -2.5529 -0.0783  1.1036
 4957SOL    HW226508   1.046   2.097   1.244  0.5029 -1.8839 -0.7651
 4958SOL     OW26509   4.293   0.380   1.968  0.2081 -0.3398 -0.2822
 4958SOL    HW126510   4.206   0.370   1.929  0.8161 -1.9884 -1.1805
 4958SOL    HW226511   4.292   0.335   2.052 -0.8086 -4.1602 -2.3371
 4959SOL     OW26512   3.314   2.120   0.313 -0.1236  0.0095  0.1587
 4959SOL    HW126513   3.319   2.137   0.407 -1.4438  1.0505  0.0340
 4959SOL    HW226514   3.220   2.133   0.296 -0.2237  0.3310  0.9738
 4960SOL     OW26515   3.104   0.312  10.928 -0.0850  0.7093  1.1387
 4960SOL    HW126516   3.142   0.333  11.013  0.4379  1.3289  0.7490
 4960SOL    HW226517   3.153   0.373  10.873 -1.7648  0.8194 -0.2325
 4961SOL     OW26518   2.312   3.172   8.646 -0.2355 -0.0986  0.1810
 4961SOL    HW126519   2.348   3.252   8.684 -0.7614  0.4916 -0.5564
 4961SOL    HW226520   2.242   3.205   8.590 -0.2566 -1.3433 -0.5424
 4962SOL     OW26521   1.136   1.353   2.587 -0.1408  0.0494 -0.0736
 4962SOL    HW126522   1.060   1.324   2.638 -0.4072  1.2692  0.2215
 4962SOL    HW226523   1.122   1.447   2.579  0.5870  0.4614  4.0014
 4963SOL     OW26524   1.985   0.543   4.531 -0.2843 -0.4142 -0.1003
 4963SOL    HW126525   2.044   0.481   4.490 -1.3032 -1.5646  0.1762
 4963SOL    HW226526   1.967   0.496   4.612 -1.0760 -0.1869 -0.1426
 4964SOL     OW26527   2.281   4.505  16.645 -0.6018 -0.1862  0.3738
 4964SOL    HW126528   2.211   4.521  16.581 -1.0471  0.3011  0.9802
 4964SOL    HW226529   2.358   4.469  16.601 -0.4574 -1.3796  1.6098
 4965SOL     OW26530   1.746   0.565   4.390 -0.7154 -0.1770  0.1296
 4965SOL    HW126531   1.815   0.512   4.430  1.0796  1.1362 -1.2041
 4965SOL    HW226532   1.705   0.596   4.470 -0.5902  0.6783 -0.1402
 4966SOL     OW26533   4.381   1.481  10.661  0.0220 -0.7393 -0.3132
 4966SOL    HW126534   4.354   1.440  10.578 -1.1325 -0.0308 -0.2890
 4966SOL    HW226535   4.392   1.574  10.642 -0.9281 -0.7228 -0.7854
 4967SOL     OW26536   3.104   3.741  15.290  0.3911 -0.1760 -0.6489
 4967SOL    HW126537   3.094   3.667  15.231 -1.0175 -0.1835 -0.4109
 4967SOL    HW226538   3.014   3.775  15.295  1.1077  1.6115  0.3979
 4968SOL     OW26539   1.194   2.987   0.687  0.3047 -0.1656  0.1608
 4968SOL    HW126540   1.120   2.944   0.644 -0.7356  1.2042  0.5776
 4968SOL    HW226541   1.270   2.946   0.646  0.7116  1.8617 -1.1015
 4969SOL     OW26542   3.215   1.966  15.739 -0.2107  0.0934 -0.3162
 4969SOL    HW126543   3.310   1.964  15.728 -0.4023 -1.0047 -1.8832
 4969SOL    HW226544   3.181   1.934  15.655 -0.3348 -0.1595 -0.1717
 4970SOL     OW26545   3.923   2.648  14.836  0.5018 -0.2996 -0.4371
 4970SOL    HW126546   3.884   2.579  14.890  1.8565 -1.8117 -1.3892
 4970SOL    HW226547   4.014   2.619  14.830  1.5628  2.9598 -0.2860
 4971SOL     OW26548   0.516   1.980   4.637  0.1572  0.0494  0.8232
 4971SOL    HW126549   0.441   1.997   4.580  1.3694  1.2467 -0.4360
 4971SOL    HW226550   0.582   1.957   4.572 -0.6997 -0.8897  0.2847
 4972SOL     OW26551   2.095   3.783   5.085  0.2977 -0.2594  0.1083
 4972SOL    HW126552   2.188   3.798   5.074  0.2148  0.9851  1.0170
 4972SOL    HW226553   2.097   3.777   5.181 -0.8142 -3.6603 -0.0616
 4973SOL     OW26554   4.171   2.033  17.213  0.2599 -0.3499  0.7789
 4973SOL    HW126555   4.181   2.087  17.291 -0.5011  2.5875 -1.1712
 4973SOL    HW226556   4.077   2.020  17.229 -0.2276 -2.9396 -4.2690
 4974SOL     OW26557   3.950   0.772   4.974  0.0280 -0.3847 -0.4191
 4974SOL    HW126558   4.019   0.778   4.908  0.0756 -1.9662 -0.5211
 4974SOL    HW226559   3.995   0.753   5.057 -0.5378 -0.1090 -0.0471
 4975SOL     OW26560   4.381   3.118   1.175 -0.1946  0.1553 -0.3636
 4975SOL    HW126561   4.400   3.046   1.234  1.1583 -1.1654 -2.3917
 4975SOL    HW226562   4.380   3.075   1.089  1.5118 -1.1850  0.2957
 4976SOL     OW26563   3.075   2.547   2.112  0.2626  0.1796 -0.1408
 4976SOL    HW126564   3.155   2.533   2.162  0.1025  2.3389  0.7153
 4976SOL    HW226565   3.022   2.595   2.175 -0.9605  1.3797 -2.0720
 4977SOL     OW26566   2.408   3.514   4.769 -0.2463  0.1053  0.2530
 4977SOL    HW126567   2.473   3.485   4.833 -1.3095  2.0214  2.1649
 4977SOL    HW226568   2.459   3.563   4.704 -1.8073 -0.8537 -1.7143
 4978SOL     OW26569   1.133   2.052   1.481 -0.4802 -0.4377 -0.1466
 4978SOL    HW126570   1.191   1.976   1.476  0.4829  0.1287  2.4882
 4978SOL    HW226571   1.180   2.118   1.532 -0.1808 -0.0693 -0.8915
 4979SOL     OW26572   3.041   3.332   9.520  0.5580  0.1064 -0.0760
 4979SOL    HW126573   3.023   3.311   9.611  0.5621 -2.2694 -0.6250
 4979SOL    HW226574   2.959   3.300   9.483  0.3406 -0.3318  0.8081
 4980SOL     OW26575   1.580   1.408   2.214 -0.0052 -0.0201  0.6464
 4980SOL    HW126576   1.560   1.315   2.221 -0.9849  0.1393 -0.1569
 4980SOL    HW226577   1.496   1.434   2.177  0.6008 -1.8710 -2.0290
 4981SOL     OW26578   0.646   0.175   1.937 -0.4933  0.3711  0.0376
 4981SOL    HW126579   0.628   0.269   1.931 -2.0566  0.0511 -0.0726
 4981SOL    HW226580   0.614   0.145   1.852  0.9790 -2.7085  0.5491
 4982SOL     OW26581   4.019   2.287   2.243  0.3834  0.1883 -0.0444
 4982SOL    HW126582   4.039   2.194   2.234  1.9914  0.2782  2.6573
 4982SOL    HW226583   3.930   2.285   2.208  0.2759 -0.8074  0.2842
 4983SOL     OW26584   1.421   4.071  17.673 -0.0995 -0.5276  0.2315
 4983SOL    HW126585   1.358   4.086  17.603 -1.9202  0.7090  2.1423
 4983SOL    HW226586   1.414   4.152  17.723  0.0232  1.4628 -3.0180
 4984SOL     OW26587   3.015   3.844  12.246  0.6421  0.6531  0.6024
 4984SOL    HW126588   2.995   3.846  12.153  0.6727 -0.2478  0.5699
 4984SOL    HW226589   3.090   3.784  12.253 -0.7238 -0.9652  1.4203
 4985SOL     OW26590   0.334   0.475   9.129  0.4912 -0.7871  0.0680
 4985SOL    HW126591   0.426   0.475   9.154  0.7845  1.0868 -0.9914
 4985SOL    HW226592   0.339   0.453   9.036 -0.0805  0.6044 -0.2971
 4986SOL     OW26593   0.072   3.241  10.961  0.1611 -0.3225  0.2575
 4986SOL    HW126594   4.718   3.262  10.988  1.0995  1.9352  1.6536
 4986SOL    HW226595   0.110   3.232  11.048  1.2743  3.7879  0.2225
 4987SOL     OW26596   1.538   0.912   8.219 -0.4028  1.2793  0.0749
 4987SOL    HW126597   1.634   0.905   8.223 -0.6333 -0.8325  2.0156
 4987SOL    HW226598   1.519   0.819   8.236  1.6650  1.2699  2.4012
 4988SOL     OW26599   1.912   1.330   4.463  0.0986  0.1934 -0.3449
 4988SOL    HW126600   1.985   1.288   4.508  0.5022 -0.0902 -1.2826
 4988SOL    HW226601   1.907   1.416   4.505  0.7307 -0.1224  0.3757
 4989SOL     OW26602   1.537   4.727   1.996 -0.3722  0.1610  0.1751
 4989SOL    HW126603   1.516   0.023   2.084 -2.9915  0.4910 -0.5714
 4989SOL    HW226604   1.466   4.664   1.980 -1.2690  1.7231 -1.9291
 4990SOL     OW26605   3.943   2.730  13.034  0.2684 -0.0005 -0.5928
 4990SOL    HW126606   3.921   2.816  12.998 -1.4445 -0.2841 -0.2091
 4990SOL    HW226607   3.859   2.698  13.067  0.6181 -0.6446 -0.3219
 4991SOL     OW26608   4.717   2.951   7.926  0.5891 -0.0088 -0.1548
 4991SOL    HW126609   4.653   3.020   7.943  0.3643 -0.3270  0.3096
 4991SOL    HW226610   0.005   2.922   8.015  2.3369  3.3578  0.4485
 4992SOL     OW26611   2.094   0.337   7.756  0.0254  0.3765 -0.3399
 4992SOL    HW126612   2.057   0.422   7.777 -0.9457 -0.0745 -0.2385
 4992SOL    HW226613   2.077   0.292   7.838 -0.9114  0.6828 -0.3673
 4993SOL     OW26614   2.966   1.842   4.786  0.0596 -0.5107  0.3480
 4993SOL    HW126615   2.937   1.801   4.867 -0.7439 -0.1069  0.2644
 4993SOL    HW226616   2.938   1.933   4.797  0.1058 -0.2274 -1.7720
 4994SOL     OW26617   1.733   1.093   8.600  0.2427 -0.3968  0.5276
 4994SOL    HW126618   1.675   1.161   8.633 -0.1934  0.3214 -1.6896
 4994SOL    HW226619   1.679   1.061   8.527  0.6828  1.1052 -0.4521
 4995SOL     OW26620   1.474   1.490   5.441  0.0525 -0.4699 -0.7926
 4995SOL    HW126621   1.515   1.517   5.359  0.1185  0.2926 -0.5080
 4995SOL    HW226622   1.410   1.555   5.468  0.6484  0.4781 -1.6463
 4996SOL     OW26623   3.849   4.535   4.226 -0.0348  0.0137  0.0096
 4996SOL    HW126624   3.937   4.507   4.202 -0.0695 -0.5561  0.5461
 4996SOL    HW226625   3.825   4.590   4.151 -4.4066 -0.7822  0.7896
 4997SOL     OW26626   4.459   2.046  13.302 -0.9739  0.1558  0.6778
 4997SOL    HW126627   4.422   2.129  13.271  0.6065  1.0180  1.0966
 4997SOL    HW226628   4.501   2.083  13.380  1.2764 -1.7246  0.3446
 4998SOL     OW26629   1.314   2.651   1.445 -0.2628 -0.1271 -0.3951
 4998SOL    HW126630   1.392   2.707   1.447  0.0740 -0.6530  0.9238
 4998SOL    HW226631   1.255   2.704   1.392 -0.3545  1.0502  0.8808
 4999SOL     OW26632   3.752   1.127  16.093  0.2011  0.0072 -0.3739
 4999SOL    HW126633   3.666   1.142  16.055 -0.1905  0.9142  0.8512
 4999SOL    HW226634   3.742   1.035  16.119 -1.1455  0.0792 -0.6488
 5000SOL     OW26635   1.351   3.722  16.922 -0.2209  0.3488  0.5241
 5000SOL    HW126636   1.361   3.810  16.883  1.6716 -0.1134 -0.0544
 5000SOL    HW226637   1.430   3.712  16.975  0.8219 -2.0773 -1.5062
 5001SOL     OW26638   2.388   1.059   5.834  0.4629  0.1260  0.7596
 5001SOL    HW126639   2.368   1.019   5.750  0.4151  0.3819  0.6486
 5001SOL    HW226640   2.370   1.152   5.818 -1.8632 -0.8550 -2.2092
 5002SOL     OW26641   0.951   3.999  14.424 -0.5308  0.1836  0.0380
 5002SOL    HW126642   0.859   3.979  14.443 -0.4348  0.4924  0.8191
 5002SOL    HW226643   0.985   3.911  14.436 -2.0724 -0.4176  0.0803
 5003SOL     OW26644   3.746   0.536   9.112  0.0457 -0.0405 -0.4254
 5003SOL    HW126645   3.674   0.484   9.078  0.0263 -1.2793  1.4980
 5003SOL    HW226646   3.744   0.609   9.051  0.5936 -0.0357 -0.4367
 5004SOL     OW26647   4.494   3.018   5.250  0.2869  0.2408  0.2208
 5004SOL    HW126648   4.514   3.105   5.284 -0.9261 -0.7246  3.3652
 5004SOL    HW226649   4.571   2.966   5.272  1.1666  0.9752 -1.1084
 5005SOL     OW26650   3.907   3.742  10.611 -0.1254 -0.2088  0.0941
 5005SOL    HW126651   3.919   3.827  10.653  1.4839 -0.9640  1.1841
 5005SOL    HW226652   3.844   3.768  10.544 -0.8199 -2.2219 -0.0304
 5006SOL     OW26653   3.790   1.618   4.219 -0.0408  0.3187 -0.1792
 5006SOL    HW126654   3.858   1.647   4.280 -1.5533  0.7726  1.2779
 5006SOL    HW226655   3.821   1.529   4.200 -0.1308  0.0252  1.0426
 5007SOL     OW26656   0.534   2.485   2.010 -0.1753  0.3091 -0.1143
 5007SOL    HW126657   0.575   2.492   2.096  0.7213  0.2883 -0.5452
 5007SOL    HW226658   0.493   2.569   1.990 -0.4559  0.0474 -0.6199
 5008SOL     OW26659   1.412   3.760  13.128  0.3280 -0.1590  0.2260
 5008SOL    HW126660   1.389   3.681  13.177  1.2497  0.6302  1.9427
 5008SOL    HW226661   1.378   3.740  13.041  0.9363 -1.3346  0.2610
 5009SOL     OW26662   0.170   3.355  17.560  0.9128 -0.4576 -0.0178
 5009SOL    HW126663   0.077   3.352  17.539  0.9065  0.4618 -0.0986
 5009SOL    HW226664   0.214   3.328  17.479 -0.3535  1.1270 -1.2131
 5010SOL     OW26665   0.129   3.972   5.132  0.0113  0.8258 -0.1094
 5010SOL    HW126666   0.205   3.938   5.084 -0.4625 -1.8199  0.9710
 5010SOL    HW226667   0.142   3.934   5.219  0.4437 -0.1783 -0.6032
 5011SOL     OW26668   2.750   0.594   8.647  0.3442  0.0346 -0.0459
 5011SOL    HW126669   2.728   0.510   8.686 -2.5483  1.1359  0.6859
 5011SOL    HW226670   2.828   0.611   8.701  0.2273 -0.0516  0.1473
 5012SOL     OW26671   3.334   2.641   7.757 -0.1072 -0.8120 -0.1618
 5012SOL    HW126672   3.391   2.570   7.788 -1.6633 -0.5167  3.3353
 5012SOL    HW226673   3.322   2.695   7.834  0.0372 -1.6286  0.4346
 5013SOL     OW26674   3.538   3.672   2.793 -0.4021  0.5792  0.1011
 5013SOL    HW126675   3.574   3.728   2.724  1.8441  0.9639  1.5699
 5013SOL    HW226676   3.613   3.664   2.853  0.8129 -1.5676 -1.7191
 5014SOL     OW26677   2.510   0.433  10.013 -1.0441 -0.0534  0.4383
 5014SOL    HW126678   2.606   0.437  10.003 -0.8125  0.0712  2.8354
 5014SOL    HW226679   2.503   0.435  10.108  0.1995 -0.5016  0.5381
 5015SOL     OW26680   3.671   0.428   4.718 -0.7217 -0.3210  0.1483
 5015SOL    HW126681   3.694   0.492   4.651  0.5852 -0.7892  0.1631
 5015SOL    HW226682   3.612   0.483   4.771 -1.0760 -0.7636  0.2141
 5016SOL     OW26683   4.082   1.275  15.956 -0.2584 -0.1953 -0.2955
 5016SOL    HW126684   4.168   1.292  15.917 -0.9355  2.2593 -0.7192
 5016SOL    HW226685   4.097   1.278  16.050  0.4637 -2.2363 -0.3424
 5017SOL     OW26686   1.327   0.934  14.557 -0.4636 -0.3953 -0.1289
 5017SOL    HW126687   1.280   0.851  14.540  0.0319 -0.5786 -0.6076
 5017SOL    HW226688   1.304   0.981  14.477 -0.2813  1.3026  0.8223
 5018SOL     OW26689   1.792   0.464   4.756  0.1704 -0.1733  0.2010
 5018SOL    HW126690   1.803   0.380   4.710  0.6730  0.9541 -1.7381
 5018SOL    HW226691   1.701   0.490   4.745  0.1114 -0.7635 -0.7334
 5019SOL     OW26692   1.631   4.322   4.985 -0.2350 -0.2751  0.2625
 5019SOL    HW126693   1.613   4.416   4.984 -0.6944 -0.3661  0.3147
 5019SOL    HW226694   1.672   4.317   5.072  2.2938 -3.3288 -1.1023
 5020SOL     OW26695   1.269   2.057   3.178 -0.0676  0.4232 -0.2743
 5020SOL    HW126696   1.326   2.098   3.243 -0.4529 -0.9423  0.9295
 5020SOL    HW226697   1.314   1.973   3.169  1.6985  1.4112 -0.7985
 5021SOL     OW26698   3.976   4.400   8.462 -0.2610 -0.7046  0.0292
 5021SOL    HW126699   3.992   4.360   8.376 -0.4301  1.0807 -0.8237
 5021SOL    HW226700   4.069   4.407   8.485 -0.5843 -1.1514  1.4492
 5022SOL     OW26701   2.950   1.174   7.282  0.1578 -0.5425  0.5375
 5022SOL    HW126702   2.961   1.267   7.263 -0.4595 -0.2729  1.5055
 5022SOL    HW226703   2.886   1.149   7.216  2.5210  0.7689 -2.2250
 5023SOL     OW26704   1.951   4.113   9.765  0.3448 -0.3167 -0.7357
 5023SOL    HW126705   2.022   4.107   9.702 -1.2596 -1.9472 -2.3594
 5023SOL    HW226706   1.954   4.023   9.797  1.2529 -0.0217  0.0150
 5024SOL     OW26707   1.564   4.208   4.124 -0.4892 -0.1922 -0.0295
 5024SOL    HW126708   1.625   4.135   4.137  1.3260  1.4751  0.6550
 5024SOL    HW226709   1.600   4.283   4.171 -0.1348  0.1446 -0.8571
 5025SOL     OW26710   2.774   0.652   3.584 -0.1252 -0.1591 -0.0631
 5025SOL    HW126711   2.857   0.659   3.536 -0.6550  2.8531 -0.5479
 5025SOL    HW226712   2.789   0.690   3.671  4.8537 -2.2454  0.0247
 5026SOL     OW26713   4.692   0.080   8.070  0.3796  0.3378 -0.6302
 5026SOL    HW126714   4.715   0.050   7.982 -2.2910  0.3278 -1.3411
 5026SOL    HW226715   4.609   0.036   8.090 -0.1798  1.5212 -0.3459
 5027SOL     OW26716   3.295   4.178   2.687 -0.7990 -0.4136  0.1072
 5027SOL    HW126717   3.255   4.194   2.772 -0.5484 -1.5094  0.4255
 5027SOL    HW226718   3.281   4.263   2.644 -0.1111 -0.5523 -0.3997
 5028SOL     OW26719   0.449   2.499  17.654 -0.3798 -0.5517 -0.5745
 5028SOL    HW126720   0.460   2.542  17.739  1.6693  0.7836 -1.4961
 5028SOL    HW226721   0.366   2.540  17.628  0.3241  2.0194  1.1882
 5029SOL     OW26722   2.362   1.657   8.623 -0.0545  0.3273  0.2381
 5029SOL    HW126723   2.407   1.655   8.707  1.1841 -1.2833 -0.4441
 5029SOL    HW226724   2.303   1.583   8.635 -0.3160  0.3061 -1.1574
 5030SOL     OW26725   1.049   3.749   3.569  0.5728  0.1992  0.3383
 5030SOL    HW126726   1.036   3.755   3.474  3.8054 -1.5994 -0.2065
 5030SOL    HW226727   1.084   3.663   3.591  0.2178 -0.3278 -1.1205
 5031SOL     OW26728   1.408   1.614   1.147  0.2225 -0.3425 -0.2007
 5031SOL    HW126729   1.463   1.539   1.171 -1.8982 -0.8385  3.2015
 5031SOL    HW226730   1.324   1.596   1.191 -0.0705  1.0240 -0.2025
 5032SOL     OW26731   0.546   0.897   6.917 -0.0805 -0.3375 -0.0495
 5032SOL    HW126732   0.637   0.926   6.929 -0.3073  1.4408 -2.7582
 5032SOL    HW226733   0.534   0.916   6.824  3.1135  1.4852 -0.1115
 5033SOL     OW26734   1.440   2.796  12.422  0.1202 -0.1966  0.2508
 5033SOL    HW126735   1.496   2.729  12.461  1.6415  1.3744  0.7385
 5033SOL    HW226736   1.385   2.740  12.367  0.0686  1.1429 -1.0564
 5034SOL     OW26737   2.088   2.337  15.994  0.4700  0.3315  0.1995
 5034SOL    HW126738   2.022   2.287  15.946  1.2505 -1.7001  1.2186
 5034SOL    HW226739   2.097   2.299  16.081  1.0032  1.1224  0.4863
 5035SOL     OW26740   2.049   3.929   4.865 -0.3062  0.7396 -0.4730
 5035SOL    HW126741   2.049   3.879   4.946 -2.1552  2.0261  0.3241
 5035SOL    HW226742   1.954   3.937   4.856 -0.1625  2.8973 -0.1708
 5036SOL     OW26743   2.983   0.611  13.148 -0.4760 -0.7865  0.2947
 5036SOL    HW126744   2.909   0.620  13.088 -1.2138 -3.2254  0.8270
 5036SOL    HW226745   2.978   0.517  13.163 -0.8999 -0.9432 -0.8007
 5037SOL     OW26746   2.443   4.016   3.810 -0.2205 -0.0289  0.1040
 5037SOL    HW126747   2.376   3.972   3.758 -0.4180  0.1356  0.2159
 5037SOL    HW226748   2.505   4.047   3.744  0.2043 -3.4705 -1.0811
 5038SOL     OW26749   2.236   2.168   4.737  0.1955 -0.0438  0.6065
 5038SOL    HW126750   2.210   2.077   4.724 -0.4197  0.3720 -1.0528
 5038SOL    HW226751   2.236   2.200   4.647  2.2900  0.4977  0.7831
 5039SOL     OW26752   1.497   0.279   4.767  0.0417 -0.2880 -1.1731
 5039SOL    HW126753   1.416   0.247   4.805 -0.1330  1.6431  0.1324
 5039SOL    HW226754   1.473   0.362   4.725 -0.5109  0.1413 -0.0183
 5040SOL     OW26755   4.706   0.505   1.728 -0.4734 -0.1619 -0.4637
 5040SOL    HW126756   0.036   0.437   1.710  2.8153  2.8090  0.1769
 5040SOL    HW226757   4.727   0.574   1.665  0.9849 -0.9298 -0.8228
 5041SOL     OW26758   2.005   3.667  10.525  0.8550 -0.2604 -0.6355
 5041SOL    HW126759   2.040   3.584  10.558  0.3284 -0.4548 -0.5759
 5041SOL    HW226760   2.085   3.699  10.484  1.0349 -1.0288 -0.8871
 5042SOL     OW26761   3.009   0.566   3.469  0.2461 -0.2963  0.7179
 5042SOL    HW126762   3.032   0.476   3.447  1.1795  0.1140  0.0010
 5042SOL    HW226763   3.090   0.583   3.517  0.6423  1.8925 -0.7058
 5043SOL     OW26764   4.279   4.230   8.898  0.1485  0.1489 -0.1192
 5043SOL    HW126765   4.201   4.268   8.939 -0.0516  1.5084 -1.7345
 5043SOL    HW226766   4.350   4.272   8.945 -0.1512 -0.7822  1.1718
 5044SOL     OW26767   0.504   4.518  14.709  0.1282 -0.1893 -0.0212
 5044SOL    HW126768   0.421   4.567  14.715 -0.0666 -0.2942 -1.6550
 5044SOL    HW226769   0.545   4.579  14.770 -0.2833  1.5980 -1.5255
 5045SOL     OW26770   1.204   4.508  16.005 -0.1615 -0.3825  0.2369
 5045SOL    HW126771   1.172   4.444  15.941 -1.1713 -0.0585  0.4219
 5045SOL    HW226772   1.247   4.456  16.073 -0.6841 -1.5324 -0.3216
 5046SOL     OW26773   3.530   3.986  16.010 -0.4777 -0.4578  0.2770
 5046SOL    HW126774   3.562   4.011  16.097 -0.5497 -0.4953  0.3151
 5046SOL    HW226775   3.496   4.072  15.984  1.0218 -0.2403 -0.8973
 5047SOL     OW26776   2.033   2.781   6.132 -0.1195 -0.5838  0.1733
 5047SOL    HW126777   1.984   2.779   6.051 -1.2526  1.2630  0.8003
 5047SOL    HW226778   2.011   2.696   6.169 -3.5964 -1.0570 -3.0438
 5048SOL     OW26779   0.164   0.187   4.008  0.0877  0.1847 -0.1608
 5048SOL    HW126780   0.129   0.099   3.993  2.0659 -0.6033 -0.0895
 5048SOL    HW226781   0.111   0.210   4.085 -1.7363  0.1729 -1.4009
 5049SOL     OW26782   2.549   1.689   3.437  0.1768 -0.5893  0.0541
 5049SOL    HW126783   2.537   1.727   3.524  1.8468 -0.4222  0.1969
 5049SOL    HW226784   2.491   1.736   3.376 -0.7882 -0.4089  1.1168
 5050SOL     OW26785   1.047   1.271   0.309 -0.5024  0.0883  0.6676
 5050SOL    HW126786   1.017   1.358   0.333 -2.1840 -0.4862  0.6653
 5050SOL    HW226787   1.015   1.236   0.392 -0.0587  0.3019  0.9325
 5051SOL     OW26788   3.635   0.689   2.314  0.5072 -0.1393  0.2909
 5051SOL    HW126789   3.604   0.771   2.275  0.0976 -0.4730 -0.0915
 5051SOL    HW226790   3.699   0.663   2.248 -1.0565 -2.4655 -0.2989
 5052SOL     OW26791   3.751   3.096   9.205 -0.5039  0.5310 -0.5757
 5052SOL    HW126792   3.711   3.173   9.244 -1.1737  0.6807 -1.5643
 5052SOL    HW226793   3.843   3.120   9.216 -0.7110  0.3718  1.4316
 5053SOL     OW26794   0.932   2.944   3.572  0.5865  0.7386  0.7713
 5053SOL    HW126795   0.953   3.020   3.518  1.6041  0.4939  0.8267
 5053SOL    HW226796   0.918   2.988   3.656 -0.2613 -1.1787  1.6426
 5054SOL     OW26797   2.005   4.445  11.842  0.5610  0.0134  0.3185
 5054SOL    HW126798   1.960   4.382  11.897 -0.8397 -0.2727 -1.1353
 5054SOL    HW226799   1.937   4.509  11.818  2.6501  2.6135  1.4209
 5055SOL     OW26800   1.766   2.322  10.438 -0.3989 -0.3798  0.0222
 5055SOL    HW126801   1.843   2.281  10.399  1.6669  0.8442  2.8123
 5055SOL    HW226802   1.798   2.412  10.434  0.3825 -0.6496  0.1578
 5056SOL     OW26803   0.750   0.706   5.887  0.5890 -0.2767 -0.4884
 5056SOL    HW126804   0.785   0.632   5.938 -0.3087  0.7893  1.6914
 5056SOL    HW226805   0.714   0.658   5.812  0.5181  1.5184 -1.5881
 5057SOL     OW26806   1.783   4.293  13.762  0.4996  0.3095 -0.7427
 5057SOL    HW126807   1.756   4.356  13.695  0.1007  1.7263  0.7576
 5057SOL    HW226808   1.716   4.225  13.766 -0.1814  1.1033  1.3052
 5058SOL     OW26809   1.754   4.526   6.033 -0.2439 -0.4193 -0.5887
 5058SOL    HW126810   1.713   4.521   5.947 -0.5074 -0.0231 -0.4834
 5058SOL    HW226811   1.826   4.463   6.027 -1.6835 -2.3414  1.8253
 5059SOL     OW26812   0.218   1.631   5.749 -0.3113  0.0551  0.2339
 5059SOL    HW126813   0.259   1.590   5.825  0.8130 -1.5385 -1.2212
 5059SOL    HW226814   0.262   1.584   5.678  1.4873  1.5253  0.3713
 5060SOL     OW26815   1.028   0.357   2.264 -0.4865  0.4319 -0.2072
 5060SOL    HW126816   0.952   0.368   2.321 -2.1801 -0.9448 -2.2212
 5060SOL    HW226817   1.046   0.448   2.242  0.1161  0.6940  1.3130
 5061SOL     OW26818   3.031   1.259  15.865  0.0035  0.2677 -0.3037
 5061SOL    HW126819   2.962   1.230  15.806 -0.1671 -1.4841  0.7769
 5061SOL    HW226820   2.989   1.338  15.899 -0.5836 -0.9837  1.8780
 5062SOL     OW26821   0.832   2.338  13.744  0.0696 -0.4495  0.3160
 5062SOL    HW126822   0.774   2.269  13.713 -0.2629  0.1995 -0.5301
 5062SOL    HW226823   0.829   2.403  13.674  1.3115 -0.4606  0.2404
 5063SOL     OW26824   4.623   3.879   2.801  0.9078 -0.2914 -0.0698
 5063SOL    HW126825   4.614   3.837   2.887 -1.0883 -0.3582 -0.3244
 5063SOL    HW226826   4.664   3.964   2.817  1.0361 -0.3978  0.1783
 5064SOL     OW26827   0.527   0.719   6.398  0.3490 -0.0677  0.0843
 5064SOL    HW126828   0.618   0.692   6.411  0.3260 -0.4082 -0.4239
 5064SOL    HW226829   0.480   0.699   6.479 -0.0379 -1.1611 -0.4086
 5065SOL     OW26830   3.375   3.264  15.677  0.1659 -0.2152 -0.2535
 5065SOL    HW126831   3.325   3.326  15.730 -0.9675 -1.3145 -0.0201
 5065SOL    HW226832   3.464   3.271  15.713 -0.1656 -1.3921  0.8139
 5066SOL     OW26833   1.631   4.453   6.678  0.1828  0.3498 -0.1683
 5066SOL    HW126834   1.592   4.450   6.590  0.0462  1.6689 -0.1431
 5066SOL    HW226835   1.566   4.417   6.739  0.9296 -1.2850 -0.3236
 5067SOL     OW26836   3.200   0.470  10.045 -0.7701  0.0320 -0.2544
 5067SOL    HW126837   3.142   0.394  10.038 -0.6094 -0.0448 -0.7674
 5067SOL    HW226838   3.156   0.529   9.984 -0.1308 -0.3086 -1.0517
 5068SOL     OW26839   0.773   0.149   6.649 -0.1353  0.3279  0.1763
 5068SOL    HW126840   0.761   0.224   6.591 -1.3289 -0.3272 -0.4160
 5068SOL    HW226841   0.859   0.117   6.620 -0.5489 -0.9019  0.3080
 5069SOL     OW26842   4.481   0.782   7.449  0.3026  0.1962  0.5667
 5069SOL    HW126843   4.504   0.692   7.427  0.1028 -0.0292  1.2657
 5069SOL    HW226844   4.538   0.831   7.390  2.5762 -1.9575  0.9892
 5070SOL     OW26845   2.908   0.284  15.929 -0.1702 -0.5388  0.4364
 5070SOL    HW126846   2.897   0.239  15.845 -0.2965 -0.0049  0.1633
 5070SOL    HW226847   2.816   0.277  15.957 -1.1049  1.1818 -2.1843
 5071SOL     OW26848   4.440   3.273  14.498  0.2366 -0.6067 -0.3720
 5071SOL    HW126849   4.389   3.331  14.442 -0.8961  0.8068  2.1439
 5071SOL    HW226850   4.401   3.270  14.585 -0.3853 -0.0999 -0.6344
 5072SOL     OW26851   4.336   0.175   4.513 -0.0248  0.3167 -0.4568
 5072SOL    HW126852   4.276   0.203   4.443 -0.9110  0.7767  0.4893
 5072SOL    HW226853   4.275   0.186   4.586  1.3387 -0.0174  0.7154
 5073SOL     OW26854   2.888   0.245   8.604  0.3496  0.2145 -0.3357
 5073SOL    HW126855   2.835   0.295   8.666 -1.7953 -0.2543 -1.7833
 5073SOL    HW226856   2.973   0.254   8.647 -1.0114  2.6202  1.8295
 5074SOL     OW26857   0.501   1.959   6.975  0.1760 -0.5712 -0.1606
 5074SOL    HW126858   0.546   1.877   6.955  0.7156 -0.3459  0.1602
 5074SOL    HW226859   0.417   1.939   6.933 -0.9894  1.4655  1.1789
 5075SOL     OW26860   0.646   1.962  17.050 -0.7874  0.2701  0.1834
 5075SOL    HW126861   0.605   2.022  16.989  2.4334  2.1749 -0.1313
 5075SOL    HW226862   0.583   1.891  17.051  0.4936 -0.8765 -0.5026
 5076SOL     OW26863   2.635   2.928   4.122  0.0796 -0.1611  0.2022
 5076SOL    HW126864   2.731   2.938   4.121  0.1708 -0.9273  2.0678
 5076SOL    HW226865   2.630   2.845   4.075  0.4720  0.0729 -0.2568
 5077SOL     OW26866   3.990   2.487   5.958  0.1547 -0.1416  0.4728
 5077SOL    HW126867   4.059   2.525   6.012  1.1801  0.0648 -0.9917
 5077SOL    HW226868   3.968   2.560   5.901 -2.1564 -2.0503 -1.0486
 5078SOL     OW26869   1.669   0.773   5.667  0.0878  0.7133 -0.0844
 5078SOL    HW126870   1.719   0.701   5.704 -1.2733 -1.5367 -2.6477
 5078SOL    HW226871   1.719   0.801   5.590  0.6016 -1.2513 -0.4553
 5079SOL     OW26872   2.703   3.824   6.703 -0.2372 -0.2576 -0.1967
 5079SOL    HW126873   2.667   3.890   6.644 -0.8064 -0.5945 -0.2227
 5079SOL    HW226874   2.725   3.752   6.645  2.3556  1.6737 -1.6199
 5080SOL     OW26875   2.209   0.505  16.854 -0.0177  0.0968  0.2807
 5080SOL    HW126876   2.197   0.599  16.864  1.0332  0.3850 -1.1927
 5080SOL    HW226877   2.285   0.502  16.796  0.8230 -0.4045  1.4090
 5081SOL     OW26878   3.123   3.455   5.932 -0.1722 -0.3183 -0.9826
 5081SOL    HW126879   3.202   3.487   5.890  0.4675  0.0284  0.4877
 5081SOL    HW226880   3.114   3.522   6.000 -0.0004 -2.3245  0.9984
 5082SOL     OW26881   1.615   0.255   4.008  0.0195  0.4357  0.6956
 5082SOL    HW126882   1.645   0.323   4.068  1.3635 -2.6938  3.5452
 5082SOL    HW226883   1.527   0.288   3.990  0.4088  1.8810  1.4574
 5083SOL     OW26884   4.397   3.615   4.600  0.2274  0.2562 -0.0664
 5083SOL    HW126885   4.399   3.674   4.675 -1.7276 -1.5518  1.4181
 5083SOL    HW226886   4.457   3.546   4.627  1.5510  1.1871 -0.6293
 5084SOL     OW26887   2.139   3.019   8.934  0.4276  0.0514  0.1142
 5084SOL    HW126888   2.113   2.928   8.930 -0.7810  0.5263 -2.4567
 5084SOL    HW226889   2.110   3.053   8.850 -2.4072  1.0409  1.4871
 5085SOL     OW26890   4.624   3.835   7.474  0.1320  0.4946  0.4634
 5085SOL    HW126891   4.577   3.901   7.423  0.4856  2.2870  2.4209
 5085SOL    HW226892   4.709   3.878   7.471  0.6773 -0.4979  1.7419
 5086SOL     OW26893   4.387   0.601   6.908 -0.1931 -0.0124  0.1561
 5086SOL    HW126894   4.389   0.583   7.001 -1.1986  3.3932  0.8603
 5086SOL    HW226895   4.311   0.655   6.886 -1.4729 -2.3729 -1.1616
 5087SOL     OW26896   1.216   0.364   6.798 -0.3530 -0.0952  0.3892
 5087SOL    HW126897   1.167   0.398   6.723  2.7609  1.8467 -0.7641
 5087SOL    HW226898   1.175   0.411   6.871 -0.4450 -1.4600  1.2189
 5088SOL     OW26899   0.660   3.786   7.206  0.5818 -0.4457 -0.0750
 5088SOL    HW126900   0.682   3.865   7.255 -0.0339 -1.6399  2.1418
 5088SOL    HW226901   0.599   3.811   7.137 -0.0495  3.3789  1.8965
 5089SOL     OW26902   2.465   3.816   8.465  0.5766 -0.1509  0.1660
 5089SOL    HW126903   2.433   3.869   8.392 -1.2938 -0.6994  0.5735
 5089SOL    HW226904   2.558   3.834   8.455  0.8170 -1.7573 -0.5135
 5090SOL     OW26905   4.084   0.752   4.348  0.1630 -0.2137  0.4587
 5090SOL    HW126906   4.033   0.791   4.420 -0.0646  0.7831 -0.2407
 5090SOL    HW226907   4.082   0.659   4.370  0.8066 -0.4239 -0.4015
 5091SOL     OW26908   4.690   2.645   9.196 -0.0657  0.1010  0.1601
 5091SOL    HW126909   0.041   2.609   9.215 -0.5356 -1.1839 -0.1756
 5091SOL    HW226910   4.639   2.565   9.209  0.9398 -0.8435 -1.5870
 5092SOL     OW26911   2.986   4.442  10.738 -0.0014  0.0621  0.3632
 5092SOL    HW126912   3.029   4.499  10.675  0.1410  1.1828  1.4564
 5092SOL    HW226913   2.944   4.383  10.676  0.2295  0.2390  0.0414
 5093SOL     OW26914   0.094   4.115   0.082  0.7784 -0.2399 -0.0344
 5093SOL    HW126915   0.136   4.166   0.151  2.1872  0.1096 -1.1498
 5093SOL    HW226916   0.156   4.141   0.015  2.1104 -0.0451  1.2769
 5094SOL     OW26917   2.317   0.929   4.179  0.5408 -0.1944  0.1965
 5094SOL    HW126918   2.351   0.880   4.104 -1.1231  0.7299 -1.1526
 5094SOL    HW226919   2.223   0.917   4.165  0.2879  0.3358  1.4273
 5095SOL     OW26920   3.632   3.360   5.325  0.3344  0.1352 -0.2988
 5095SOL    HW126921   3.673   3.423   5.266  2.1152 -0.5997  0.1590
 5095SOL    HW226922   3.604   3.294   5.261 -2.0878  2.3138 -1.4777
 5096SOL     OW26923   0.216   3.396   8.186  0.1477  0.4804 -0.2057
 5096SOL    HW126924   0.156   3.328   8.216 -1.7949  2.0538 -0.4488
 5096SOL    HW226925   0.152   3.468   8.186 -1.4727 -0.9604 -1.1813
 5097SOL     OW26926   0.199   1.416  17.160 -0.2394  0.6825 -0.3390
 5097SOL    HW126927   0.268   1.350  17.160 -0.5093  0.3949  0.6783
 5097SOL    HW226928   0.143   1.379  17.092 -1.2098 -0.5200  1.1112
 5098SOL     OW26929   2.519   4.674   3.281  0.1130 -0.6593 -0.1304
 5098SOL    HW126930   2.458   4.656   3.352 -0.6497  2.0535 -0.0861
 5098SOL    HW226931   2.556   0.022   3.311 -1.1520 -1.2068  2.9579
 5099SOL     OW26932   2.411   1.348   6.236  0.3931 -0.3444  0.2898
 5099SOL    HW126933   2.374   1.436   6.238 -0.5126 -0.7187  0.2030
 5099SOL    HW226934   2.492   1.370   6.190 -0.2272  0.2588 -0.5342
 5100SOL     OW26935   0.764   0.048   2.130 -0.4227  0.1075 -0.0090
 5100SOL    HW126936   0.730   0.112   2.068  1.2623  0.7268 -0.2820
 5100SOL    HW226937   0.680   0.014   2.161 -0.2464 -0.7197 -0.4507
 5101SOL     OW26938   1.161   0.838   4.351 -0.3312 -0.0323  0.9710
 5101SOL    HW126939   1.228   0.887   4.399  1.1288 -0.9067 -0.1938
 5101SOL    HW226940   1.174   0.866   4.261 -0.9053 -1.7794  0.3606
 5102SOL     OW26941   1.174   0.375   7.498 -0.5951  0.5710  0.9799
 5102SOL    HW126942   1.095   0.341   7.458 -0.0897  1.5066 -0.7856
 5102SOL    HW226943   1.222   0.414   7.425  0.6920 -0.1096  1.4658
 5103SOL     OW26944   0.525   3.390   6.005 -0.1827  0.1455  0.2192
 5103SOL    HW126945   0.562   3.306   6.031 -0.5016 -0.9050 -2.6742
 5103SOL    HW226946   0.596   3.452   6.025 -0.0108  0.9723 -2.9825
 5104SOL     OW26947   0.049   2.790  17.026 -0.1867 -0.2201 -0.5877
 5104SOL    HW126948   0.065   2.882  17.046 -1.1347  0.1206 -1.4166
 5104SOL    HW226949   0.090   2.752  17.104 -2.5903 -0.1448  0.6969
 5105SOL     OW26950   0.696   0.081   8.509 -0.1483  0.4033  0.0097
 5105SOL    HW126951   0.678   0.170   8.477  1.1417  0.4369 -0.6191
 5105SOL    HW226952   0.773   0.059   8.457 -1.2906 -0.4796 -1.3001
 5106SOL     OW26953   1.887   4.493   0.542  0.6967 -0.0081  0.0708
 5106SOL    HW126954   1.911   4.578   0.504  0.9919 -0.5896 -1.0506
 5106SOL    HW226955   1.961   4.437   0.518  1.1220 -0.4633  2.4695
 5107SOL     OW26956   0.727   0.246  13.208  0.0315 -0.2152 -0.6203
 5107SOL    HW126957   0.646   0.285  13.241 -0.2462  0.1579 -1.7316
 5107SOL    HW226958   0.786   0.291  13.268 -0.0407  1.2765 -1.6655
 5108SOL     OW26959   1.609   2.275   0.162  0.1441 -0.4424 -0.4545
 5108SOL    HW126960   1.678   2.261   0.227  1.5067 -0.5009 -1.9124
 5108SOL    HW226961   1.558   2.194   0.170  0.4294 -0.5372  0.4471
 5109SOL     OW26962   1.433   4.561   6.168  0.1141 -0.0223 -0.0438
 5109SOL    HW126963   1.441   4.640   6.220  0.7727  0.9013 -1.5578
 5109SOL    HW226964   1.525   4.551   6.146  0.0408  1.0231 -0.7871
 5110SOL     OW26965   3.304   0.910  12.349 -0.3291 -0.5446  0.1632
 5110SOL    HW126966   3.373   0.943  12.406  0.2901  2.5380 -2.3399
 5110SOL    HW226967   3.345   0.834  12.309  1.6576  0.2819  0.6130
 5111SOL     OW26968   0.302   2.047   4.479  0.2413  0.1551  0.1782
 5111SOL    HW126969   0.209   2.049   4.502 -0.1370  1.9317 -1.5346
 5111SOL    HW226970   0.306   2.104   4.402 -0.4805  1.3467  1.0134
 5112SOL     OW26971   2.265   1.624   8.141  0.1245 -0.1639  0.1205
 5112SOL    HW126972   2.282   1.705   8.190  0.1013  0.6384 -1.2007
 5112SOL    HW226973   2.201   1.590   8.203  0.9660 -1.9161  0.0330
 5113SOL     OW26974   1.524   1.853   3.239 -0.4464  0.1449 -0.6145
 5113SOL    HW126975   1.604   1.832   3.287 -1.3056  0.9865  1.2080
 5113SOL    HW226976   1.535   1.946   3.260 -1.0416 -0.2292  1.3960
 5114SOL     OW26977   4.625   0.665   3.810 -0.1874 -0.7287  0.9161
 5114SOL    HW126978   4.602   0.608   3.883  0.7082 -1.4561  0.6206
 5114SOL    HW226979   4.688   0.608   3.766 -1.7417 -0.3347 -1.8593
 5115SOL     OW26980   1.002   1.295   4.912 -0.8754 -0.0294  0.3280
 5115SOL    HW126981   0.977   1.209   4.946 -0.9264 -0.0754  0.1702
 5115SOL    HW226982   0.972   1.347   4.987  1.6285  0.5144  0.9575
 5116SOL     OW26983   0.904   3.929   6.545 -0.1274 -0.3968 -0.2241
 5116SOL    HW126984   0.832   3.985   6.517 -1.3100 -0.6835  2.2109
 5116SOL    HW226985   0.848   3.887   6.610 -1.5356  2.7122  0.5807
 5117SOL     OW26986   4.735   0.613  11.219 -0.2496 -0.3632 -0.1999
 5117SOL    HW126987   0.033   0.670  11.149 -1.2748  0.6005  0.0864
 5117SOL    HW226988   0.001   0.526  11.180  1.6202  0.2360 -1.4558
 5118SOL     OW26989   1.097   0.601  11.930 -0.0859 -0.2322  0.6783
 5118SOL    HW126990   1.010   0.634  11.953  0.6269  1.2618  1.2010
 5118SOL    HW226991   1.119   0.671  11.869 -0.2658 -0.4630  0.3514
 5119SOL     OW26992   0.680   4.063   7.306  0.1468 -0.0159 -0.1352
 5119SOL    HW126993   0.686   4.145   7.258  0.5620  1.2491  2.1054
 5119SOL    HW226994   0.718   4.095   7.388 -0.9731  2.4011 -0.5797
 5120SOL     OW26995   1.104   2.116   2.788 -0.4143 -0.1478  0.1118
 5120SOL    HW126996   1.192   2.094   2.760 -1.5877 -3.1993 -1.1748
 5120SOL    HW226997   1.125   2.164   2.869 -0.3837  1.9233 -1.1369
 5121SOL     OW26998   1.920   4.711   3.669  0.9599  0.5562 -0.1183
 5121SOL    HW126999   2.015   4.703   3.683  0.8756 -0.6219 -0.2799
 5121SOL    HW227000   1.895   0.046   3.729 -2.3533 -1.0252  0.3448
 5122SOL     OW27001   3.023   0.318   2.851  0.2172  0.0363  0.0438
 5122SOL    HW127002   3.089   0.276   2.906 -0.7285 -2.1062 -0.4525
 5122SOL    HW227003   2.943   0.274   2.881  0.6615 -0.6999  0.1642
 5123SOL     OW27004   2.566   2.343  16.584  0.3100 -0.3861  0.6540
 5123SOL    HW127005   2.587   2.264  16.633  1.1081 -1.2596 -1.0676
 5123SOL    HW227006   2.569   2.315  16.492  1.8186 -1.7410  1.1124
 5124SOL     OW27007   0.629   1.729  16.126  0.3469 -0.2602  0.1539
 5124SOL    HW127008   0.597   1.819  16.132 -0.4955 -0.5197 -0.4301
 5124SOL    HW227009   0.713   1.733  16.171 -0.3917  0.7899  1.4390
 5125SOL     OW27010   2.292   2.482   2.136 -0.7546  0.0997  0.1073
 5125SOL    HW127011   2.385   2.506   2.133 -0.7634  0.1849  0.5617
 5125SOL    HW227012   2.296   2.403   2.190  2.5158 -0.5801 -1.1165
 5126SOL     OW27013   4.254   0.040  17.137 -0.5451 -0.4328 -0.5690
 5126SOL    HW127014   4.318   0.014  17.202  0.2447  2.0227 -0.3555
 5126SOL    HW227015   4.215   0.118  17.177  0.0051 -1.6162  2.1951
 5127SOL     OW27016   2.842   0.182   1.266 -0.3422  0.3440 -0.0471
 5127SOL    HW127017   2.865   0.092   1.291 -0.4463  0.1227 -0.7401
 5127SOL    HW227018   2.902   0.209   1.197 -1.5093 -0.0028 -1.1917
 5128SOL     OW27019   1.249   4.002   0.541 -0.1636  0.1705 -0.1499
 5128SOL    HW127020   1.328   4.057   0.538 -1.0030  1.2102 -2.8295
 5128SOL    HW227021   1.263   3.947   0.618 -0.2676  0.6216  0.1863
 5129SOL     OW27022   4.507   2.855   9.186  0.0706 -0.6277 -0.6881
 5129SOL    HW127023   4.546   2.772   9.213 -0.1200 -0.3317  0.4724
 5129SOL    HW227024   4.564   2.882   9.113 -0.7870  3.6712  0.1917
 5130SOL     OW27025   3.590   1.129   9.010  0.4341  0.1227  0.0420
 5130SOL    HW127026   3.669   1.108   8.960  0.2538  2.3592 -1.1787
 5130SOL    HW227027   3.553   1.190   8.947 -0.3250 -1.2623 -0.8612
 5131SOL     OW27028   2.101   3.671   5.605 -0.1446 -0.2271  0.0270
 5131SOL    HW127029   2.074   3.579   5.611 -0.2549 -0.0964  1.4209
 5131SOL    HW227030   2.062   3.705   5.685  1.8635  0.4617  0.7135
 5132SOL     OW27031   3.720   2.981  16.705  0.0092 -0.3842 -0.4212
 5132SOL    HW127032   3.728   2.887  16.722  1.2443 -0.1974  0.0289
 5132SOL    HW227033   3.731   3.008  16.796  0.6583  2.0037 -1.2174
 5133SOL     OW27034   1.296   4.330  10.796  0.0755 -0.0113  0.2593
 5133SOL    HW127035   1.308   4.424  10.783  1.4070 -0.2763 -0.3727
 5133SOL    HW227036   1.285   4.322  10.891  6.5026  1.3346  1.1012
 5134SOL     OW27037   1.319   2.849   6.081  0.1684 -1.0399  0.9043
 5134SOL    HW127038   1.260   2.904   6.132  0.6208 -0.4345  0.7660
 5134SOL    HW227039   1.367   2.813   6.155 -1.0396 -1.6297  1.4072
 5135SOL     OW27040   1.118   2.619   7.839  0.0440  0.8126  0.4246
 5135SOL    HW127041   1.055   2.606   7.767  1.9562 -2.5456 -0.6086
 5135SOL    HW227042   1.069   2.574   7.908  0.0598  2.6652  1.6402
 5136SOL     OW27043   3.315   4.402   8.539  0.5921 -0.0330  0.1788
 5136SOL    HW127044   3.259   4.479   8.550  0.3310 -0.2777  0.5787
 5136SOL    HW227045   3.253   4.330   8.554  1.5203 -1.3937 -2.6567
 5137SOL     OW27046   0.592   0.620  12.372  0.2939  0.4423  0.1224
 5137SOL    HW127047   0.536   0.623  12.295 -0.2353  0.6937  0.5158
 5137SOL    HW227048   0.593   0.526  12.390  0.7577  0.7431  1.6628
 5138SOL     OW27049   0.759   2.127  16.022  0.2674 -0.4171 -0.3425
 5138SOL    HW127050   0.677   2.080  16.032  1.0307 -1.2620  1.8416
 5138SOL    HW227051   0.826   2.081  16.073  1.1500 -1.5784 -2.5176
 5139SOL     OW27052   0.819   4.169   7.892 -0.2721  0.1241 -0.7379
 5139SOL    HW127053   0.801   4.076   7.878  0.8549 -0.3524  1.0257
 5139SOL    HW227054   0.771   4.214   7.823  0.1241  1.6519 -0.0241
 5140SOL     OW27055   2.220   1.395   4.979  0.6007  0.5059  0.5251
 5140SOL    HW127056   2.198   1.445   5.058  1.4644 -0.9371  1.6702
 5140SOL    HW227057   2.256   1.462   4.922 -0.1354  0.4311 -0.0249
 5141SOL     OW27058   3.040   2.804   7.201  0.2061  0.3815 -0.8279
 5141SOL    HW127059   2.977   2.873   7.181  0.2390  0.3141 -1.1647
 5141SOL    HW227060   3.082   2.838   7.280  0.0921  0.7133 -0.9078
 5142SOL     OW27061   3.000   2.647   8.423  0.4326 -0.4331  0.2325
 5142SOL    HW127062   2.960   2.596   8.353  0.0369 -0.6532  0.6118
 5142SOL    HW227063   2.950   2.597   8.488  0.0262 -2.8192 -1.9563
 5143SOL     OW27064   3.571   1.244   2.044 -0.2303  0.9090 -0.2091
 5143SOL    HW127065   3.608   1.327   2.015  0.0728  1.1449  0.8425
 5143SOL    HW227066   3.626   1.225   2.120  0.3968 -0.9002 -1.1212
 5144SOL     OW27067   4.630   3.768   2.478 -0.3294 -0.4404 -0.1124
 5144SOL    HW127068   4.655   3.696   2.421  3.8423  0.1389  0.9021
 5144SOL    HW227069   4.623   3.838   2.413  0.2743 -2.1580 -2.0192
 5145SOL     OW27070   3.989   0.475   5.275  0.2836  0.0920  0.0318
 5145SOL    HW127071   3.905   0.470   5.320 -0.3435 -0.7453 -1.2230
 5145SOL    HW227072   3.959   0.498   5.187  0.0190  0.4992  0.2319
 5146SOL     OW27073   0.833   2.300  14.055 -0.2071  0.2200  0.0765
 5146SOL    HW127074   0.833   2.319  13.961 -0.7114 -0.8822 -0.1421
 5146SOL    HW227075   0.909   2.355  14.075  0.5185 -1.3660  1.6253
 5147SOL     OW27076   2.365   0.464   3.903  0.1789 -0.7244 -0.4864
 5147SOL    HW127077   2.387   0.493   3.991 -2.7855  2.6265 -0.8725
 5147SOL    HW227078   2.345   0.539   3.848  1.5104 -0.2177 -0.2741
 5148SOL     OW27079   2.960   1.220   2.269 -0.5965 -0.4139  0.1056
 5148SOL    HW127080   2.890   1.263   2.220  1.2441  2.0556 -0.3555
 5148SOL    HW227081   2.933   1.136   2.232 -0.8693 -0.6974  0.9272
 5149SOL     OW27082   4.432   3.565   3.404  0.3548 -0.0774 -0.2647
 5149SOL    HW127083   4.434   3.541   3.497 -0.5743  0.1617 -0.1850
 5149SOL    HW227084   4.345   3.604   3.401  0.5498  0.4477  0.8616
 5150SOL     OW27085   4.324   1.072   2.881 -0.4561  0.0635  0.9069
 5150SOL    HW127086   4.371   1.154   2.867  1.8330 -1.4745 -0.2497
 5150SOL    HW227087   4.233   1.084   2.853 -0.4255  0.0294  0.7934
 5151SOL     OW27088   3.602   3.839   3.688  0.1591 -0.2349 -0.1067
 5151SOL    HW127089   3.615   3.933   3.678  0.6985 -0.2506  0.5110
 5151SOL    HW227090   3.673   3.813   3.630  0.8850  0.0979  0.6414
 5152SOL     OW27091   3.818   3.290   3.298  0.3867  0.4360  0.1761
 5152SOL    HW127092   3.903   3.262   3.264  0.7872  2.1994 -0.2469
 5152SOL    HW227093   3.770   3.282   3.216 -1.4494 -1.6113  1.4538
 5153SOL     OW27094   1.475   3.086   6.343  0.0645  0.2304  0.4963
 5153SOL    HW127095   1.522   3.005   6.361  0.1589 -0.0121 -0.8363
 5153SOL    HW227096   1.450   3.110   6.432  0.7212  0.6325  0.5698
 5154SOL     OW27097   0.979   0.002   6.549 -0.3198  0.2379  0.1409
 5154SOL    HW127098   0.965   4.645   6.570 -0.1181 -0.0560 -1.0311
 5154SOL    HW227099   1.039   4.726   6.476 -0.2511  0.1997  0.2027
 5155SOL     OW27100   2.224   3.394  10.370  0.3120 -0.1813  0.0313
 5155SOL    HW127101   2.186   3.432  10.449 -2.0109 -0.2632 -1.0293
 5155SOL    HW227102   2.232   3.470  10.312 -1.1873  0.7070  1.0035
 5156SOL     OW27103   2.786   0.458   9.896  0.3490 -0.2683  0.1813
 5156SOL    HW127104   2.834   0.399   9.837  0.5538 -0.2726  0.3537
 5156SOL    HW227105   2.779   0.403   9.974 -0.2813 -0.5565 -0.0738
 5157SOL     OW27106   3.181   2.156  12.075 -0.7587  0.9395 -0.2488
 5157SOL    HW127107   3.193   2.106  11.994 -2.3816 -1.0282  0.7162
 5157SOL    HW227108   3.248   2.224  12.073 -0.2772  0.5833  2.8448
 5158SOL     OW27109   1.686   3.465  12.147 -0.5054  0.0615 -0.4107
 5158SOL    HW127110   1.757   3.402  12.130  0.0197  0.4368  0.3803
 5158SOL    HW227111   1.624   3.412  12.197 -1.0293 -0.3302 -1.4782
 5159SOL     OW27112   0.982   1.105   3.074 -0.1304 -0.4168 -0.0344
 5159SOL    HW127113   0.921   1.031   3.066  2.2421 -2.7194  2.8904
 5159SOL    HW227114   0.959   1.124   3.165  2.4247  1.2255  0.2573
 5160SOL     OW27115   2.001   0.270   8.267  0.2787  0.4615 -0.0801
 5160SOL    HW127116   2.041   0.312   8.343 -0.7784 -0.1642  0.8304
 5160SOL    HW227117   1.913   0.309   8.270 -0.2515 -0.7713  0.6815
 5161SOL     OW27118   3.031   4.170   0.042 -0.5976  0.1213 -0.2813
 5161SOL    HW127119   2.979   4.160  17.703  0.5036  0.0136 -0.9793
 5161SOL    HW227120   2.971   4.129   0.105  2.9919 -1.3927  2.1273
 5162SOL     OW27121   0.629   0.954  12.118  0.2492 -0.5397 -0.3706
 5162SOL    HW127122   0.634   0.878  12.060 -0.4758 -0.2912 -0.7536
 5162SOL    HW227123   0.683   1.025  12.082 -1.4712 -0.0385 -1.9959
 5163SOL     OW27124   2.393   2.886   7.295  0.0857 -0.6301  0.0387
 5163SOL    HW127125   2.433   2.825   7.233 -1.4057 -0.1682 -1.3622
 5163SOL    HW227126   2.301   2.861   7.289 -0.1760  1.1074 -3.3559
 5164SOL     OW27127   0.332   2.930   7.303 -0.3156  0.7863  0.4263
 5164SOL    HW127128   0.305   2.998   7.364  0.9621  0.9750  0.7875
 5164SOL    HW227129   0.246   2.907   7.266 -0.0995  2.4589 -1.1357
 5165SOL     OW27130   2.028   2.601  13.093 -0.0885  0.9232 -0.2804
 5165SOL    HW127131   2.120   2.592  13.069  0.5683  0.6177  2.3648
 5165SOL    HW227132   1.990   2.611  13.005 -0.8724  0.7362  0.0377
 5166SOL     OW27133   4.159   2.179   0.934  0.4884 -0.1361 -0.1227
 5166SOL    HW127134   4.150   2.104   0.992  0.5388  0.6881  0.9491
 5166SOL    HW227135   4.252   2.179   0.912  0.8685 -0.3456  1.5021
 5167SOL     OW27136   4.637   2.952   8.983 -0.1736 -0.1109 -0.0797
 5167SOL    HW127137   4.714   3.010   8.981  1.2338 -2.0302 -1.7408
 5167SOL    HW227138   4.565   3.007   8.954 -0.2746  0.3139  0.9962
 5168SOL     OW27139   3.099   2.294   8.844  0.4130  0.7272 -0.3983
 5168SOL    HW127140   3.046   2.214   8.852  3.4258 -1.2589 -0.3675
 5168SOL    HW227141   3.087   2.311   8.751  1.0908  0.7330 -0.4823
 5169SOL     OW27142   2.088   3.354  13.558  0.0277  0.2263  0.8010
 5169SOL    HW127143   2.178   3.386  13.560  0.8115 -1.8333 -1.3931
 5169SOL    HW227144   2.098   3.302  13.478 -0.2225 -1.7055  2.0156
 5170SOL     OW27145   2.536   4.313   8.705 -0.3618 -0.2655  0.6401
 5170SOL    HW127146   2.492   4.398   8.695 -0.8229 -0.3718  1.7599
 5170SOL    HW227147   2.535   4.286   8.614  1.0905 -2.5995  1.3235
 5171SOL     OW27148   2.657   1.729   6.740 -0.2840  0.4685 -0.6998
 5171SOL    HW127149   2.652   1.782   6.819  2.7677 -1.1951  0.6063
 5171SOL    HW227150   2.564   1.723   6.718 -0.5716  1.5112  0.1901
 5172SOL     OW27151   1.304   3.149   7.534 -0.1021 -0.2497 -0.0157
 5172SOL    HW127152   1.314   3.141   7.439 -1.6910 -0.4023 -0.1708
 5172SOL    HW227153   1.212   3.174   7.545  0.5100  1.8435  0.3717
 5173SOL     OW27154   0.010   0.741  14.783 -0.1936 -0.4776  0.2937
 5173SOL    HW127155   4.671   0.732  14.724  0.5160 -0.1647 -0.6413
 5173SOL    HW227156   0.074   0.790  14.731 -2.0623  1.0714 -0.5482
 5174SOL     OW27157   0.326   2.981   3.639  0.1843 -0.2847  0.3139
 5174SOL    HW127158   0.330   3.002   3.546 -0.4189 -2.3566 -0.1663
 5174SOL    HW227159   0.416   2.979   3.671 -0.0171  0.2112  0.9189
 5175SOL     OW27160   4.124   1.613   3.614 -0.3952  0.0346  0.5890
 5175SOL    HW127161   4.196   1.675   3.603 -1.6163  1.2830 -0.3838
 5175SOL    HW227162   4.064   1.660   3.556 -0.7532 -1.8074 -0.5657
 5176SOL     OW27163   2.575   4.055   1.696 -0.5384 -0.0441 -0.2092
 5176SOL    HW127164   2.534   3.978   1.735 -1.2258  0.4120 -0.0380
 5176SOL    HW227165   2.641   4.072   1.763  0.0011 -2.8249 -0.0345
 5177SOL     OW27166   0.594   0.372   1.665 -0.0601 -0.1565 -0.2084
 5177SOL    HW127167   0.639   0.288   1.655 -0.4187 -0.6510  2.3235
 5177SOL    HW227168   0.651   0.443   1.636 -1.9242  1.0261 -0.9867
 5178SOL     OW27169   2.803   1.741   3.574  0.5011 -0.0047  0.4848
 5178SOL    HW127170   2.733   1.683   3.542  0.7400  1.2870 -2.3298
 5178SOL    HW227171   2.763   1.764   3.658  3.2003 -0.1642  1.7920
 5179SOL     OW27172   2.281   1.430   7.937 -0.1072  0.0050 -0.5938
 5179SOL    HW127173   2.263   1.496   8.003  1.2284 -1.8538  1.6381
 5179SOL    HW227174   2.349   1.373   7.973 -2.8300 -2.3279  0.8723
 5180SOL     OW27175   2.740   1.457   2.833 -0.2012 -0.2243  0.2335
 5180SOL    HW127176   2.777   1.478   2.747  0.2382 -1.9977 -0.0182
 5180SOL    HW227177   2.678   1.387   2.812  1.4163 -1.9270  1.0564
 5181SOL     OW27178   3.667   2.054   0.055 -0.9525 -0.3206 -0.0509
 5181SOL    HW127179   3.626   2.022  17.716  0.4976 -1.3621 -0.3617
 5181SOL    HW227180   3.743   1.999   0.075 -1.7580 -0.9581  1.2985
 5182SOL     OW27181   4.237   4.415   8.487 -0.6803  0.0780  0.3691
 5182SOL    HW127182   4.313   4.468   8.461 -0.2217 -0.2488  1.0272
 5182SOL    HW227183   4.276   4.331   8.511 -1.8591 -0.2968  0.9728
 5183SOL     OW27184   4.023   0.604  16.207  0.5638 -0.4634 -0.0136
 5183SOL    HW127185   3.950   0.651  16.166 -0.7614 -1.6900  0.9710
 5183SOL    HW227186   3.985   0.521  16.233 -0.2185  0.6199  2.2497
 5184SOL     OW27187   1.639   2.859   3.203  0.3674  0.2194  0.1671
 5184SOL    HW127188   1.627   2.954   3.201  1.9505  0.3836 -1.1324
 5184SOL    HW227189   1.582   2.831   3.131 -0.8941  0.2509  1.1459
 5185SOL     OW27190   0.107   2.371   7.141  0.1992  0.1212  0.0575
 5185SOL    HW127191   0.171   2.305   7.168 -1.9891 -2.8094 -2.0245
 5185SOL    HW227192   0.020   2.336   7.157  0.7303 -2.4084 -2.6309
 5186SOL     OW27193   0.291   1.899  15.131 -0.3745  0.8021  0.2999
 5186SOL    HW127194   0.202   1.918  15.161 -0.8119 -0.3039 -0.2854
 5186SOL    HW227195   0.300   1.808  15.161 -0.1503 -0.1400 -2.6793
 5187SOL     OW27196   3.213   1.026  16.264 -0.0601  0.0502 -0.0521
 5187SOL    HW127197   3.158   1.038  16.187 -1.0147  0.1205  0.6302
 5187SOL    HW227198   3.224   1.117  16.291  1.4849  0.8443 -3.3751
 5188SOL     OW27199   4.628   1.950   4.260 -0.3511 -0.5855 -0.1957
 5188SOL    HW127200   4.558   1.907   4.211  0.8312  0.2339 -2.5654
 5188SOL    HW227201   4.669   1.988   4.183  2.2103 -0.5454  1.1787
 5189SOL     OW27202   0.041   4.427  14.427  0.0245  0.1125 -0.1606
 5189SOL    HW127203   4.700   4.370  14.421  1.8487 -2.1277 -2.1315
 5189SOL    HW227204   0.028   4.461  14.516  1.9101  2.9624 -0.9778
 5190SOL     OW27205   3.885   3.434   5.011  0.3755  0.8575 -0.3766
 5190SOL    HW127206   3.897   3.486   5.091 -3.6912 -1.4543  1.7574
 5190SOL    HW227207   3.813   3.490   4.982  0.0208  0.1314 -0.8860
 5191SOL     OW27208   0.586   4.103  15.478  0.1106 -0.7883 -0.0059
 5191SOL    HW127209   0.510   4.107  15.420 -0.7944 -0.1452  1.2407
 5191SOL    HW227210   0.561   4.052  15.555  1.7899 -0.9408  0.4270
 5192SOL     OW27211   2.272   3.062  14.473 -0.0968 -0.1717 -0.0820
 5192SOL    HW127212   2.347   3.122  14.476 -0.8247  0.9067 -3.3324
 5192SOL    HW227213   2.217   3.110  14.411  1.0492  1.4213  0.1522
 5193SOL     OW27214   3.168   4.696  13.522  0.3708 -0.4313 -0.5848
 5193SOL    HW127215   3.090   4.645  13.499  0.1626 -0.7353  0.8042
 5193SOL    HW227216   3.228   4.675  13.450  0.2866 -0.2515 -0.7092
 5194SOL     OW27217   1.023   0.747   8.275 -0.3100  0.1253 -0.1415
 5194SOL    HW127218   0.985   0.779   8.357 -0.7835  0.4167 -0.4753
 5194SOL    HW227219   1.110   0.773   8.304  1.1839 -2.8700 -1.9344
 5195SOL     OW27220   1.650   1.825   3.610 -0.1492 -0.0888  0.2691
 5195SOL    HW127221   1.562   1.838   3.574  0.4942  0.6773 -1.0556
 5195SOL    HW227222   1.703   1.842   3.532 -0.0922  1.6009  0.6748
 5196SOL     OW27223   4.347   1.472   3.973  0.0077  0.5581  0.3881
 5196SOL    HW127224   4.427   1.513   3.939  0.1867 -1.3910 -1.5814
 5196SOL    HW227225   4.317   1.431   3.892  0.0381  1.1755  0.0676
 5197SOL     OW27226   1.679   0.113   2.668 -0.0072  0.7575 -0.2232
 5197SOL    HW127227   1.689   0.025   2.703 -0.1961  0.4310 -0.9939
 5197SOL    HW227228   1.624   0.156   2.734 -0.2876  0.7189 -0.4368
 5198SOL     OW27229   4.186   4.504   7.604 -1.2024  0.4095 -0.1991
 5198SOL    HW127230   4.172   4.532   7.695  1.8588  1.7420 -0.1520
 5198SOL    HW227231   4.166   4.585   7.558 -1.4531  1.3568  1.5877
 5199SOL     OW27232   0.893   0.286   0.031  0.1603 -0.5708  0.5214
 5199SOL    HW127233   0.970   0.307  17.719 -0.8783  0.1786 -0.6811
 5199SOL    HW227234   0.823   0.289  17.707  1.7703  0.4527 -1.1651
 5200SOL     OW27235   0.905   2.483  13.275  0.3917  0.9729 -0.2648
 5200SOL    HW127236   0.835   2.485  13.209  0.3942  1.3344 -0.2597
 5200SOL    HW227237   0.983   2.515  13.229 -0.2166  1.4379 -0.9813
 5201SOL     OW27238   0.004   3.076   4.061 -0.0588 -0.1872 -0.3970
 5201SOL    HW127239   0.028   3.028   4.141 -1.2744 -1.5961 -0.8781
 5201SOL    HW227240   4.677   3.024   4.012 -1.8636 -0.4103  2.1585
 5202SOL     OW27241   0.407   2.544   7.774  0.1730  0.4559 -0.0157
 5202SOL    HW127242   0.349   2.594   7.717 -1.7464  0.3125  1.8053
 5202SOL    HW227243   0.344   2.488   7.820  1.5795 -1.0509  0.0820
 5203SOL     OW27244   4.451   0.553   8.367  0.2414  0.2004 -1.0037
 5203SOL    HW127245   4.392   0.627   8.350 -0.3978 -0.1190 -0.1297
 5203SOL    HW227246   4.536   0.587   8.337 -0.7491  1.1903 -2.7263
 5204SOL     OW27247   1.260   1.806   4.970 -0.3311 -0.0494  0.2255
 5204SOL    HW127248   1.277   1.875   5.034 -1.4816  0.7334 -0.3194
 5204SOL    HW227249   1.176   1.840   4.939 -0.7467 -0.3204  1.0389
 5205SOL     OW27250   2.814   2.642   5.233  0.8973 -0.5103  0.4684
 5205SOL    HW127251   2.892   2.605   5.192  0.0407 -0.0301 -1.5638
 5205SOL    HW227252   2.800   2.716   5.175  1.1401 -1.5296 -0.8886
 5206SOL     OW27253   1.575   0.298  11.365 -0.1689 -0.3556  0.0133
 5206SOL    HW127254   1.493   0.326  11.405 -1.5665 -1.7434 -1.8562
 5206SOL    HW227255   1.627   0.363  11.411  0.5340 -1.9807  1.5235
 5207SOL     OW27256   1.199   1.047  10.426 -0.0077  0.7720 -0.0827
 5207SOL    HW127257   1.154   1.129  10.410  1.7158  1.3624 -2.0124
 5207SOL    HW227258   1.124   0.990  10.442  1.3581 -0.6898  1.1338
 5208SOL     OW27259   2.319   1.989   4.015  0.1561 -0.0580 -0.4434
 5208SOL    HW127260   2.390   1.925   4.022  0.8928  0.9558  1.4841
 5208SOL    HW227261   2.250   1.931   3.985 -0.8342 -0.4593  2.5470
 5209SOL     OW27262   4.289   1.130   2.286  0.0390  0.1770 -0.4939
 5209SOL    HW127263   4.313   1.039   2.267 -0.0134  0.0120  0.2254
 5209SOL    HW227264   4.213   1.117   2.343  0.2267 -1.1147 -0.5305
 5210SOL     OW27265   4.173   0.370  12.129 -0.0819 -0.0713 -0.1339
 5210SOL    HW127266   4.254   0.332  12.095  0.8915  0.1585  1.9311
 5210SOL    HW227267   4.109   0.303  12.105 -0.3093  0.3337 -0.6528
 5211SOL     OW27268   1.827   2.360   8.466  0.0138 -0.4482  0.1601
 5211SOL    HW127269   1.883   2.291   8.502  0.9196 -0.2486 -0.8673
 5211SOL    HW227270   1.751   2.341   8.521  1.0091  2.1499  2.4394
 5212SOL     OW27271   1.594   4.107  12.562 -0.1913 -0.9987  0.1433
 5212SOL    HW127272   1.687   4.129  12.554 -0.0700 -1.1413  1.0941
 5212SOL    HW227273   1.547   4.190  12.555 -0.0412 -0.7688  1.7396
 5213SOL     OW27274   2.570   2.703   8.876 -0.6559 -0.4934  0.0422
 5213SOL    HW127275   2.553   2.702   8.782  0.4886  2.2784 -0.1887
 5213SOL    HW227276   2.537   2.615   8.896 -1.6355 -0.7595 -2.7805
 5214SOL     OW27277   2.884   4.605   4.914  0.1783  0.0360  0.0449
 5214SOL    HW127278   2.939   4.555   4.974  1.4876 -0.5290 -1.6253
 5214SOL    HW227279   2.800   4.586   4.956 -0.0210 -1.2538 -0.9230
 5215SOL     OW27280   1.711   1.077   6.078  0.4116  0.0626 -0.0763
 5215SOL    HW127281   1.670   1.081   5.992  2.6066  0.1854 -1.1150
 5215SOL    HW227282   1.794   1.033   6.056 -0.4921 -0.8093 -1.7106
 5216SOL     OW27283   2.034   4.560   2.554  0.2035 -0.4106 -0.3662
 5216SOL    HW127284   2.023   4.533   2.462 -2.6623  1.2284 -0.5137
 5216SOL    HW227285   2.016   4.477   2.599  1.3157 -0.8057 -0.6466
 5217SOL     OW27286   4.442   3.044  16.010  1.3806  0.1518 -0.3892
 5217SOL    HW127287   4.448   3.000  15.926  0.2187 -3.5569  1.4301
 5217SOL    HW227288   4.460   2.979  16.079 -2.2622 -1.2389 -0.7031
 5218SOL     OW27289   3.091   0.838   1.007 -0.1751 -0.5365  0.0118
 5218SOL    HW127290   3.157   0.769   1.017 -0.3746 -1.1149 -2.7831
 5218SOL    HW227291   3.111   0.904   1.073  0.8635 -0.7102 -0.1284
 5219SOL     OW27292   1.254   1.817  13.549 -0.1663  0.1493  0.0383
 5219SOL    HW127293   1.161   1.827  13.530 -0.0312  0.7908 -0.2931
 5219SOL    HW227294   1.293   1.868  13.478 -2.0098  1.7443  0.1678
 5220SOL     OW27295   2.406   4.349   9.364  0.7887  0.2992 -0.0781
 5220SOL    HW127296   2.391   4.442   9.347  4.1328  0.6100 -1.2852
 5220SOL    HW227297   2.473   4.338   9.431  0.3805  1.5320  0.5523
 5221SOL     OW27298   2.014   3.992  12.216  0.3119  0.1646  0.1468
 5221SOL    HW127299   1.965   3.940  12.152 -3.4389 -0.6069  3.6150
 5221SOL    HW227300   2.102   3.954  12.221  0.8811  1.2964 -1.6204
 5222SOL     OW27301   4.598   0.914   4.400  0.5231 -0.0940  0.0191
 5222SOL    HW127302   4.509   0.918   4.435  0.7998  0.9732  0.6076
 5222SOL    HW227303   4.596   0.997   4.353 -2.1742  0.7107  1.5294
 5223SOL     OW27304   1.054   1.417  16.107 -0.4451  0.0452  0.1663
 5223SOL    HW127305   1.065   1.420  16.012 -3.2281  0.6389 -0.1411
 5223SOL    HW227306   0.985   1.352  16.117 -1.5925  1.6537  2.7126
 5224SOL     OW27307   3.332   0.290   1.709  0.3355 -0.6799  0.3314
 5224SOL    HW127308   3.255   0.287   1.766  1.0487 -3.3411  1.1131
 5224SOL    HW227309   3.327   0.376   1.667  0.6673 -0.7003  0.2493
 5225SOL     OW27310   2.568   2.264   4.268 -0.0066  0.3028  0.0748
 5225SOL    HW127311   2.573   2.348   4.222  1.6297 -0.4287 -1.1014
 5225SOL    HW227312   2.476   2.238   4.257 -0.8390  1.8538  3.4860
 5226SOL     OW27313   2.208   2.314   2.780 -0.5377  0.3302 -0.4286
 5226SOL    HW127314   2.144   2.295   2.712 -1.2621  2.3205 -0.2935
 5226SOL    HW227315   2.265   2.373   2.731 -0.2002 -0.9840 -1.5986
 5227SOL     OW27316   0.804   3.206   7.761 -0.2384  0.5640  0.5520
 5227SOL    HW127317   0.722   3.169   7.793  0.6936 -0.5860  1.6171
 5227SOL    HW227318   0.772   3.285   7.718  1.5749  1.5981  1.1102
 5228SOL     OW27319   0.616   1.676   1.991  0.1739 -0.3265  0.1433
 5228SOL    HW127320   0.705   1.702   1.966  0.6177 -2.1800 -0.1808
 5228SOL    HW227321   0.602   1.753   2.046  0.8034  1.5489 -2.3679
 5229SOL     OW27322   1.223   1.117  12.471  0.1826 -0.1301  0.7159
 5229SOL    HW127323   1.222   1.049  12.403  1.7541 -0.4116  0.9901
 5229SOL    HW227324   1.138   1.115  12.517 -0.9013 -0.9631 -1.3346
 5230SOL     OW27325   1.576   1.906   6.950  0.4116 -0.1028 -0.5196
 5230SOL    HW127326   1.597   1.889   6.859  5.6075 -2.0277  1.0451
 5230SOL    HW227327   1.494   1.861   6.970 -1.1073  3.0144  0.4460
 5231SOL     OW27328   1.292   2.281  17.488 -0.2415  0.4325 -0.4292
 5231SOL    HW127329   1.327   2.268  17.576 -0.4938 -1.5235 -0.6227
 5231SOL    HW227330   1.207   2.325  17.499  0.2221  1.6038 -1.4938
 5232SOL     OW27331   4.036   0.154  11.995 -0.2965  0.1531  0.1383
 5232SOL    HW127332   4.074   0.114  11.916  1.0940  0.1845  0.7965
 5232SOL    HW227333   3.993   0.076  12.031 -0.4629  0.1485 -0.0650
 5233SOL     OW27334   0.353   3.743   9.123  0.0095  0.1226  0.4710
 5233SOL    HW127335   0.390   3.786   9.046  1.1495  0.7188  1.3609
 5233SOL    HW227336   0.410   3.784   9.188 -0.8533  0.4394  1.0346
 5234SOL     OW27337   2.655   0.876   2.809 -0.6893  0.1396  0.8618
 5234SOL    HW127338   2.704   0.823   2.747 -3.3468 -0.1420 -0.9960
 5234SOL    HW227339   2.716   0.947   2.830 -1.4461  1.4705 -1.4690
 5235SOL     OW27340   3.528   1.167   7.684  0.1663 -0.9813  0.1396
 5235SOL    HW127341   3.611   1.119   7.683  1.4177  1.1714 -0.5585
 5235SOL    HW227342   3.532   1.224   7.607  1.6644 -1.8614 -0.4306
 5236SOL     OW27343   0.890   2.541   9.164 -0.2896  0.1239 -0.5106
 5236SOL    HW127344   0.832   2.470   9.139 -0.3992  0.4857 -1.2878
 5236SOL    HW227345   0.947   2.548   9.087  0.3771 -0.6284 -0.0897
 5237SOL     OW27346   2.368   3.342   4.019  0.1551 -0.1998  0.4772
 5237SOL    HW127347   2.402   3.298   3.941 -1.2959 -0.4797 -0.0009
 5237SOL    HW227348   2.451   3.366   4.061  0.6578 -0.0969 -0.5865
 5238SOL     OW27349   2.976   2.797   7.489 -0.1961 -0.5838  0.1274
 5238SOL    HW127350   3.069   2.777   7.504 -0.3967 -0.8819  0.9595
 5238SOL    HW227351   2.946   2.711   7.457  1.9635 -1.1417 -0.4127
 5239SOL     OW27352   4.342   3.245   3.584 -0.0719 -0.9208  0.1557
 5239SOL    HW127353   4.398   3.247   3.507 -1.6588 -0.0232 -0.9805
 5239SOL    HW227354   4.322   3.151   3.585 -4.1722 -0.0545  0.3944
 5240SOL     OW27355   2.637   1.349   3.234  0.2563 -0.6233  0.2460
 5240SOL    HW127356   2.610   1.305   3.154  1.4152  0.2732 -0.6382
 5240SOL    HW227357   2.679   1.424   3.192  1.3082  0.2485  2.8529
 5241SOL     OW27358   2.476   3.822   7.305 -0.6545  0.3053 -0.4094
 5241SOL    HW127359   2.395   3.842   7.257  0.3670  4.6162 -0.3598
 5241SOL    HW227360   2.524   3.897   7.270 -0.2690  0.4260  0.3837
 5242SOL     OW27361   3.848   4.358   1.222 -0.2066 -0.1934  0.0319
 5242SOL    HW127362   3.904   4.343   1.146  0.2993  0.6903  0.2319
 5242SOL    HW227363   3.773   4.396   1.176  0.8387  1.3456 -0.3877
 5243SOL     OW27364   0.753   4.029  12.100  0.6641 -0.4799  0.3090
 5243SOL    HW127365   0.785   4.037  12.190  4.2146  2.0305 -1.1643
 5243SOL    HW227366   0.823   4.064  12.046 -2.4048  0.6692 -2.8961
 5244SOL     OW27367   3.390   0.974   3.054  0.4861 -0.8737 -0.0354
 5244SOL    HW127368   3.439   1.056   3.055 -0.4600 -0.2603 -2.3901
 5244SOL    HW227369   3.375   0.956   2.961  0.2977 -0.6483 -0.0484
 5245SOL     OW27370   1.386   0.484   5.777 -0.1624 -0.5956 -0.6923
 5245SOL    HW127371   1.347   0.526   5.701 -1.7578  1.8249  1.4662
 5245SOL    HW227372   1.438   0.554   5.818 -2.2509 -0.0555  1.0658
 5246SOL     OW27373   4.617   3.811   3.090 -0.1623  0.0865 -0.7517
 5246SOL    HW127374   4.555   3.872   3.130 -0.3167  1.1300 -2.5462
 5246SOL    HW227375   4.705   3.843   3.107 -0.3224  0.0603  0.1001
 5247SOL     OW27376   3.107   2.147   2.797  0.5474 -0.1187  0.1447
 5247SOL    HW127377   3.125   2.054   2.785 -0.5543 -0.3181  0.1170
 5247SOL    HW227378   3.089   2.147   2.891 -0.7983 -0.6671 -0.1234
 5248SOL     OW27379   2.755   1.384   7.711 -0.5243  0.3892  0.2541
 5248SOL    HW127380   2.809   1.463   7.713  2.2061 -1.5612  1.9807
 5248SOL    HW227381   2.825   1.322   7.691  0.0506  1.2990 -0.5574
 5249SOL     OW27382   2.602   1.322  10.038 -0.0361 -0.3960  0.1212
 5249SOL    HW127383   2.526   1.271  10.008 -0.3283  0.2638 -0.2580
 5249SOL    HW227384   2.575   1.344  10.127  0.4998  1.3611 -0.1464
 5250SOL     OW27385   2.966   1.865   2.332  0.0322  0.1239 -0.4867
 5250SOL    HW127386   3.009   1.912   2.404 -1.8002 -0.1250  0.7806
 5250SOL    HW227387   3.040   1.829   2.284  1.0651  0.5478  0.7923
 5251SOL     OW27388   3.198   3.703   7.714 -0.5295  0.7181 -0.0121
 5251SOL    HW127389   3.158   3.787   7.691 -0.0409  0.6953 -0.9387
 5251SOL    HW227390   3.189   3.674   7.624  1.8819  1.0245 -0.3522
 5252SOL     OW27391   3.689   0.778  10.256  0.3708 -0.1989  0.3104
 5252SOL    HW127392   3.765   0.737  10.298 -0.4717 -0.1231  1.9189
 5252SOL    HW227393   3.616   0.736  10.300  0.9816 -2.1710 -0.5538
 5253SOL     OW27394   2.909   3.230   3.860  0.1877  0.4654  0.4036
 5253SOL    HW127395   2.988   3.187   3.894  0.3710 -0.5060 -1.2427
 5253SOL    HW227396   2.936   3.263   3.774 -2.8982  0.2233 -0.6511
 5254SOL     OW27397   3.811   1.056   6.471 -0.1601  0.3005  0.0619
 5254SOL    HW127398   3.859   1.068   6.389 -4.2525 -1.4595 -2.5935
 5254SOL    HW227399   3.720   1.056   6.442  0.2995 -0.8694 -1.4077
 5255SOL     OW27400   0.279   3.927   3.649  0.0223 -0.2506 -0.6490
 5255SOL    HW127401   0.224   4.004   3.665 -0.6257 -0.5685 -1.3374
 5255SOL    HW227402   0.353   3.936   3.709 -1.3203  0.9523  0.8265
 5256SOL     OW27403   0.114   1.190   1.919 -0.8358  0.3411  0.6713
 5256SOL    HW127404   0.046   1.157   1.978 -0.5243 -0.8788  0.3515
 5256SOL    HW227405   0.188   1.187   1.980  0.2484  1.0781 -0.6122
 5257SOL     OW27406   2.371   3.917   9.084 -0.1300 -0.0312 -0.4482
 5257SOL    HW127407   2.459   3.935   9.116  0.7265 -0.3467 -2.6411
 5257SOL    HW227408   2.386   3.904   8.990 -2.4378  0.4743 -0.8964
 5258SOL     OW27409   2.890   1.004   9.266 -0.0559  0.5905 -0.6542
 5258SOL    HW127410   2.944   0.980   9.190  0.0751  2.2526 -1.0905
 5258SOL    HW227411   2.807   1.007   9.219 -0.0059  2.1886 -0.6254
 5259SOL     OW27412   3.681   4.504   6.375  0.1819  0.4163 -0.4191
 5259SOL    HW127413   3.629   4.577   6.409  0.3885  0.7224 -0.7553
 5259SOL    HW227414   3.723   4.538   6.296 -0.9073 -1.5046 -1.8586
 5260SOL     OW27415   3.100   4.175   8.480 -0.7066  0.5945  0.0770
 5260SOL    HW127416   3.019   4.226   8.484 -0.7370  0.6825 -1.9087
 5260SOL    HW227417   3.100   4.145   8.571 -2.5909  0.4907  0.0501
 5261SOL     OW27418   1.950   4.587   1.865  0.0058  0.6240  0.2894
 5261SOL    HW127419   1.863   4.548   1.877 -0.3059  1.3803  0.4584
 5261SOL    HW227420   1.971   4.556   1.777  0.0238  0.6808  0.2742
 5262SOL     OW27421   3.571   2.700   5.130  0.2253 -0.0409 -0.5315
 5262SOL    HW127422   3.611   2.613   5.134  1.6316  0.6754  0.6796
 5262SOL    HW227423   3.480   2.678   5.106 -0.6039  1.4528  1.2970
 5263SOL     OW27424   1.233   3.375   5.816  0.2034 -0.2345  0.1551
 5263SOL    HW127425   1.316   3.418   5.838  1.8754 -2.5067 -1.6560
 5263SOL    HW227426   1.258   3.282   5.811  2.5939  0.2641  3.0709
 5264SOL     OW27427   0.179   2.917   3.849 -0.2592  0.3589 -0.4188
 5264SOL    HW127428   0.231   2.950   3.776 -1.5249 -0.2859 -1.6114
 5264SOL    HW227429   0.101   2.972   3.850  1.1506  2.3965 -4.3031
 5265SOL     OW27430   0.056   3.503   0.872 -0.1279  0.1074 -0.1459
 5265SOL    HW127431   0.056   3.418   0.828 -1.0950 -0.0651  0.1966
 5265SOL    HW227432   0.072   3.477   0.962  1.8747  0.5763 -0.3506
 5266SOL     OW27433   1.788   2.633  17.037 -0.6865  0.7214  0.5195
 5266SOL    HW127434   1.842   2.707  17.009 -1.5656  1.0914 -0.2086
 5266SOL    HW227435   1.743   2.615  16.954 -0.2551  2.9385 -0.1842
 5267SOL     OW27436   2.351   0.188   8.735  0.2211  0.2195 -0.1947
 5267SOL    HW127437   2.322   0.108   8.692 -0.9073 -0.5396  1.9768
 5267SOL    HW227438   2.392   0.237   8.664  0.9971 -0.4567 -0.2142
 5268SOL     OW27439   2.727   3.781  10.466 -0.3586  0.1080  0.3138
 5268SOL    HW127440   2.734   3.844  10.395 -1.7100  1.2174  1.1609
 5268SOL    HW227441   2.708   3.698  10.421  3.2436 -0.6694  0.2173
 5269SOL     OW27442   1.420   2.958  13.330  0.0590  0.5268 -0.1381
 5269SOL    HW127443   1.374   2.945  13.247  0.3805  1.0147 -0.3891
 5269SOL    HW227444   1.377   3.034  13.368 -0.6960  0.0102  0.0457
 5270SOL     OW27445   2.857   2.931   3.017 -0.2271  0.5466 -0.2883
 5270SOL    HW127446   2.797   2.948   2.944 -0.8058  0.5807  0.1865
 5270SOL    HW227447   2.817   2.989   3.082  2.2724  1.6964  0.2285
 5271SOL     OW27448   2.379   3.279   5.174  0.2594  0.7535 -0.3288
 5271SOL    HW127449   2.421   3.297   5.258 -1.6101  0.5899  0.6426
 5271SOL    HW227450   2.298   3.328   5.186 -0.1826 -0.6157  2.1673
 5272SOL     OW27451   2.603   3.690   6.952 -0.2694  0.7613 -0.1312
 5272SOL    HW127452   2.627   3.716   6.863 -0.4515  0.2049 -0.3454
 5272SOL    HW227453   2.537   3.621   6.940  0.2671  0.4334 -1.1625
 5273SOL     OW27454   2.003   4.200   4.701 -0.1002  0.3730 -0.1040
 5273SOL    HW127455   1.980   4.129   4.762  1.2660 -0.2286 -0.2731
 5273SOL    HW227456   1.979   4.148   4.625 -1.0150 -0.0435  0.4686
 5274SOL     OW27457   0.322   3.479   6.993 -0.4667 -0.2160 -0.4670
 5274SOL    HW127458   0.345   3.521   7.076 -0.7041  1.1935 -1.1179
 5274SOL    HW227459   0.405   3.485   6.947  0.2282 -1.0618  0.6820
 5275SOL     OW27460   2.808   4.283   0.369  0.4723  0.1172 -0.1250
 5275SOL    HW127461   2.832   4.281   0.462 -0.9056 -5.4307  0.1072
 5275SOL    HW227462   2.882   4.331   0.334  0.0526 -0.4352 -1.7835
 5276SOL     OW27463   4.519   4.432   8.335 -0.4041 -0.5098 -0.5099
 5276SOL    HW127464   4.488   4.513   8.293  1.3595  2.0642  3.1194
 5276SOL    HW227465   4.559   4.387   8.261 -2.4182 -1.0160 -1.2817
 5277SOL     OW27466   0.601   0.605   7.651  0.0576 -0.4554 -0.0194
 5277SOL    HW127467   0.587   0.631   7.742 -1.6535  1.9007 -0.9592
 5277SOL    HW227468   0.606   0.691   7.609 -0.4259  0.2922  1.4535
 5278SOL     OW27469   3.231   2.124   6.655  0.6027 -0.0908  0.2375
 5278SOL    HW127470   3.155   2.068   6.640  2.2424 -1.9938 -0.9732
 5278SOL    HW227471   3.254   2.084   6.738  0.5874 -1.1371 -0.2621
 5279SOL     OW27472   4.661   3.221   8.827  0.0929  0.2876  0.3182
 5279SOL    HW127473   4.615   3.137   8.833 -2.2447  1.4330 -1.4204
 5279SOL    HW227474   4.597   3.291   8.834  1.1618  1.2033  0.9057
 5280SOL     OW27475   3.519   2.443   7.798 -0.0550 -0.1550 -0.0631
 5280SOL    HW127476   3.583   2.471   7.732  0.0527 -2.0255 -0.7376
 5280SOL    HW227477   3.561   2.373   7.846 -1.0886 -1.3421 -0.8831
 5281SOL     OW27478   1.688   2.738  16.807 -0.3737 -0.1543 -0.1032
 5281SOL    HW127479   1.609   2.708  16.762 -0.9425  0.0335  0.7817
 5281SOL    HW227480   1.755   2.751  16.739 -3.4235  0.5104 -2.9908
 5282SOL     OW27481   1.038   1.992   0.545  0.1198 -0.0553  0.2462
 5282SOL    HW127482   0.963   1.934   0.537  0.5480 -0.7538  1.3248
 5282SOL    HW227483   1.025   2.038   0.462  0.4039 -0.8103 -0.2159
 5283SOL     OW27484   2.967   1.065  15.512  0.2563 -0.7495  0.0289
 5283SOL    HW127485   3.060   1.088  15.513 -0.3425  1.7122 -0.7850
 5283SOL    HW227486   2.972   0.995  15.447  0.7207 -1.2873  0.6480
 5284SOL     OW27487   0.344   4.680   8.135  0.0332 -0.5340  0.0425
 5284SOL    HW127488   0.427   4.721   8.112 -0.8523  1.1991 -0.1382
 5284SOL    HW227489   0.315   4.725   8.215 -0.5074  2.2382 -1.7103
 5285SOL     OW27490   1.790   4.299  16.616  0.4706  0.2301  0.1141
 5285SOL    HW127491   1.724   4.365  16.595 -0.4665 -0.5249  0.7026
 5285SOL    HW227492   1.801   4.320  16.708 -2.2299 -2.3914  1.0292
 5286SOL     OW27493   1.496   3.211   7.701  0.1188 -0.1701  0.3209
 5286SOL    HW127494   1.405   3.238   7.683  0.6399  0.2424 -1.6459
 5286SOL    HW227495   1.518   3.161   7.623  1.6936  2.3988 -0.8674
 5287SOL     OW27496   0.833   2.143  10.119 -0.3109 -0.5480  0.2871
 5287SOL    HW127497   0.914   2.116  10.161 -0.4718 -1.9834 -0.3074
 5287SOL    HW227498   0.863   2.205  10.052  0.9560 -1.3132  0.1336
 5288SOL     OW27499   2.010   0.161  12.867 -0.3800  0.3809  0.2490
 5288SOL    HW127500   2.021   0.068  12.884 -0.6848  0.4380  0.7894
 5288SOL    HW227501   2.008   0.158  12.772  0.0128  0.1087  0.2514
 5289SOL     OW27502   0.069   3.646   2.654 -0.0094 -0.0504 -0.3668
 5289SOL    HW127503   0.007   3.698   2.602  2.2082  0.8134 -2.1212
 5289SOL    HW227504   0.124   3.710   2.700 -0.5834  0.1667  0.0246
 5290SOL     OW27505   0.956   2.998   8.083  0.4444 -0.0469  0.0496
 5290SOL    HW127506   1.019   2.960   8.022 -0.4075  0.2156 -0.9866
 5290SOL    HW227507   0.876   2.966   8.041 -1.0927  2.2269  1.2434
 5291SOL     OW27508   2.448   3.547   8.480  0.6090  0.4809  0.0237
 5291SOL    HW127509   2.449   3.641   8.497 -0.9404  0.1420  1.8973
 5291SOL    HW227510   2.377   3.536   8.416 -0.4739  1.7934  1.0041
 5292SOL     OW27511   1.253   1.660   3.344  0.0085 -0.1968  0.2105
 5292SOL    HW127512   1.235   1.591   3.408 -0.5696 -0.6147 -0.4065
 5292SOL    HW227513   1.328   1.625   3.296 -0.0363 -0.7521  0.5480
 5293SOL     OW27514   0.412   2.516   8.137  0.0138 -0.2373  0.0213
 5293SOL    HW127515   0.428   2.423   8.150  1.9549 -0.0670 -1.1406
 5293SOL    HW227516   0.317   2.512   8.131 -0.0413  1.5715 -0.4235
 5294SOL     OW27517   0.975   2.741   3.359  0.1703 -0.4929  0.0763
 5294SOL    HW127518   0.967   2.821   3.307  1.2437  0.0302  0.7305
 5294SOL    HW227519   0.951   2.770   3.448 -1.1330 -5.3640  1.2964
 5295SOL     OW27520   1.868   3.814   7.377  0.0505 -0.6436  0.7902
 5295SOL    HW127521   1.807   3.740   7.380  1.5362 -1.9205 -0.2431
 5295SOL    HW227522   1.821   3.883   7.425  0.1593 -0.8044  1.1288
 5296SOL     OW27523   3.506   0.244   5.491  0.0322 -0.1624  0.1464
 5296SOL    HW127524   3.473   0.245   5.581 -1.4184 -1.1046 -0.3829
 5296SOL    HW227525   3.598   0.221   5.506 -0.4286 -1.1472  1.5322
 5297SOL     OW27526   1.743   3.061   8.465  0.0317  0.1411  0.4335
 5297SOL    HW127527   1.746   2.982   8.411 -2.2514  0.0509  0.4511
 5297SOL    HW227528   1.681   3.040   8.534 -3.7194  2.6210 -2.1537
 5298SOL     OW27529   3.431   3.641  13.734 -0.0304  0.0599  0.3334
 5298SOL    HW127530   3.476   3.639  13.650  1.3783 -0.0571  1.0821
 5298SOL    HW227531   3.451   3.731  13.760 -0.2035 -0.3772  1.9979
 5299SOL     OW27532   3.021   3.970  14.395  0.0572 -0.2096 -0.4870
 5299SOL    HW127533   2.932   3.975  14.360  0.3901  1.3822 -1.1100
 5299SOL    HW227534   3.050   4.060  14.377  0.0843 -0.0241  0.4448
 5300SOL     OW27535   2.623   2.461  16.311  0.2878  0.6202  0.2023
 5300SOL    HW127536   2.711   2.443  16.280 -0.3896 -0.1540 -1.2620
 5300SOL    HW227537   2.587   2.522  16.245 -1.1037 -0.5140 -0.0912
 5301SOL     OW27538   4.176   3.467  16.376 -0.0435  0.1339 -0.1754
 5301SOL    HW127539   4.203   3.547  16.419  0.1748  0.0289 -0.1193
 5301SOL    HW227540   4.207   3.487  16.288 -1.2868  0.2992 -0.5755
 5302SOL     OW27541   1.201   0.927   8.398  0.8335  0.2185 -0.3278
 5302SOL    HW127542   1.257   0.987   8.447 -1.2244  0.7685  1.3533
 5302SOL    HW227543   1.117   0.973   8.393  1.0484  0.6123 -0.3225
 5303SOL     OW27544   4.654   3.559   0.616 -0.2398  0.1643  0.3936
 5303SOL    HW127545   4.726   3.582   0.558  0.5847 -0.0310  1.3554
 5303SOL    HW227546   4.701   3.526   0.692  1.1112  0.2063 -0.4298
 5304SOL     OW27547   1.812   1.445  10.112  0.7626 -0.2290 -0.0741
 5304SOL    HW127548   1.901   1.473  10.089 -0.1188  3.5207  0.9296
 5304SOL    HW227549   1.777   1.414  10.029 -1.7041 -3.0388  2.0341
 5305SOL     OW27550   2.728   1.320   3.758 -0.3816 -0.1304  0.0506
 5305SOL    HW127551   2.802   1.275   3.717  0.6242  0.6778  0.9495
 5305SOL    HW227552   2.682   1.334   3.676 -1.6081 -4.1621  0.0671
 5306SOL     OW27553   0.481   2.799   7.505  0.0247  0.4752  0.0249
 5306SOL    HW127554   0.462   2.865   7.571  1.0615 -0.8356  1.6512
 5306SOL    HW227555   0.445   2.840   7.427 -1.8516 -0.3769  0.4425
 5307SOL     OW27556   0.099   3.289   1.989  0.1631 -0.3412 -0.3868
 5307SOL    HW127557   0.182   3.270   2.035 -0.2923  0.9934  0.9977
 5307SOL    HW227558   0.091   3.384   1.989 -3.0484 -0.6246  0.1003
 5308SOL     OW27559   1.797   3.506   0.737  0.3142  0.0736  0.0055
 5308SOL    HW127560   1.884   3.492   0.699 -0.0108 -1.2492 -0.2203
 5308SOL    HW227561   1.772   3.591   0.699 -2.2171 -0.6452  0.1082
 5309SOL     OW27562   1.146   1.203   9.327 -0.1207 -0.6689  0.0961
 5309SOL    HW127563   1.217   1.234   9.271 -1.7224  0.7119 -1.1749
 5309SOL    HW227564   1.180   1.209   9.417  0.9411 -1.8751 -0.2269
 5310SOL     OW27565   0.159   0.048  10.231  0.1325  0.1906 -0.4783
 5310SOL    HW127566   0.168   0.048  10.326 -0.9362  1.6349 -0.3746
 5310SOL    HW227567   0.251   0.068  10.216  0.0666  0.9404  0.0920
 5311SOL     OW27568   4.713   2.723   8.856  0.0165 -0.2241 -0.1218
 5311SOL    HW127569   0.040   2.687   8.919  0.0181  0.4739  0.2819
 5311SOL    HW227570   4.679   2.792   8.914  1.6125  2.3227 -2.2229
 5312SOL     OW27571   3.722   3.340  15.305  0.4716  0.1847  0.1466
 5312SOL    HW127572   3.678   3.403  15.363 -1.0275 -0.5903 -0.1469
 5312SOL    HW227573   3.740   3.402  15.234 -0.5035  1.7490  1.2506
 5313SOL     OW27574   3.627   2.709   5.462  0.5925  0.3264  0.4896
 5313SOL    HW127575   3.564   2.756   5.407  0.7782  0.5288  0.4496
 5313SOL    HW227576   3.571   2.703   5.540  1.9686  0.6634  1.4884
 5314SOL     OW27577   1.887   2.788   7.739 -0.1520  0.8172 -0.2546
 5314SOL    HW127578   1.879   2.874   7.780  1.3155  0.8194  0.0133
 5314SOL    HW227579   1.911   2.802   7.647  0.4166  0.1922 -0.2040
 5315SOL     OW27580   1.163   1.468   1.239  0.6823 -0.1677  0.7382
 5315SOL    HW127581   1.074   1.443   1.213  0.5204  3.3095 -1.9451
 5315SOL    HW227582   1.210   1.390   1.208  2.2215  0.5029  1.4026
 5316SOL     OW27583   0.142   0.726  14.403  0.2987  0.2628  0.0228
 5316SOL    HW127584   0.164   0.756  14.315 -2.2957 -1.8088 -1.3506
 5316SOL    HW227585   0.061   0.682  14.377  0.4279  0.3765 -0.5774
 5317SOL     OW27586   3.276   1.455   3.973 -0.1810 -0.2903  0.4404
 5317SOL    HW127587   3.242   1.441   3.884 -1.1676 -0.2850  0.8149
 5317SOL    HW227588   3.195   1.495   4.005 -0.7000  0.9977 -2.4895
 5318SOL     OW27589   2.070   3.118   7.320  0.2003 -0.2479  0.2214
 5318SOL    HW127590   2.143   3.057   7.336  0.3733  0.0514  0.5748
 5318SOL    HW227591   2.025   3.079   7.245  0.6485 -2.5403  1.1299
 5319SOL     OW27592   2.646   4.083   7.952  0.1490 -0.3280  0.0643
 5319SOL    HW127593   2.696   4.042   7.881  2.1881  0.6614  0.9418
 5319SOL    HW227594   2.591   4.011   7.983 -0.2821 -0.8300 -1.8690
 5320SOL     OW27595   3.539   1.398   5.308 -0.1805 -0.1324  0.0810
 5320SOL    HW127596   3.584   1.468   5.260 -0.8873  1.0951  1.1980
 5320SOL    HW227597   3.611   1.337   5.326 -0.4326 -0.3116  0.4731
 5321SOL     OW27598   2.199   0.768   4.470 -0.2357  0.3823  0.5479
 5321SOL    HW127599   2.123   0.821   4.496 -0.1430 -0.1168  1.8135
 5321SOL    HW227600   2.241   0.839   4.421  0.5356 -0.9902 -0.7651
 5322SOL     OW27601   0.922   2.743   0.257 -0.4316 -0.1461  0.4826
 5322SOL    HW127602   0.827   2.754   0.262 -0.4334 -0.4363  0.9978
 5322SOL    HW227603   0.956   2.827   0.228  0.1507 -0.4234  0.3491
 5323SOL     OW27604   1.502   0.534  12.206 -0.2255 -0.0257 -0.0923
 5323SOL    HW127605   1.517   0.472  12.277 -0.2774 -0.0414 -0.0943
 5323SOL    HW227606   1.426   0.496  12.161  0.4724 -3.5301  1.7309
 5324SOL     OW27607   2.839   1.423   4.815 -0.6000 -0.2590  0.2276
 5324SOL    HW127608   2.856   1.336   4.852  0.0831 -1.0092 -1.7830
 5324SOL    HW227609   2.825   1.385   4.728 -0.7051 -1.2941  0.6943
 5325SOL     OW27610   0.726   2.658   7.510 -0.2270 -0.0438 -0.1377
 5325SOL    HW127611   0.717   2.630   7.601 -3.5224  0.3461 -0.3274
 5325SOL    HW227612   0.636   2.690   7.500  0.7899  1.9344 -2.7349
 5326SOL     OW27613   4.014   2.197   1.877 -0.0295 -0.0282  0.2030
 5326SOL    HW127614   4.045   2.285   1.899 -0.1332  0.0154  0.1731
 5326SOL    HW227615   4.011   2.151   1.960  2.3160 -1.2780 -0.3904
 5327SOL     OW27616   1.353   1.600   7.502  0.3622  0.0800  0.1150
 5327SOL    HW127617   1.411   1.652   7.558  0.1739 -0.9932  1.2999
 5327SOL    HW227618   1.304   1.545   7.563 -0.9358  0.3720 -0.6732
 5328SOL     OW27619   3.532   4.423  13.303  0.1567  0.0037  0.0604
 5328SOL    HW127620   3.482   4.446  13.224  1.7658 -0.0541 -0.9606
 5328SOL    HW227621   3.466   4.414  13.371 -1.8430 -1.3708 -2.0381
 5329SOL     OW27622   4.359   2.693  12.272 -0.2140  0.1005  0.3347
 5329SOL    HW127623   4.446   2.658  12.255 -0.1648  0.0393  0.7040
 5329SOL    HW227624   4.357   2.756  12.201  0.3302  1.1301  1.2339
 5330SOL     OW27625   2.691   2.212   6.006  0.8592  0.3688  0.1603
 5330SOL    HW127626   2.624   2.146   5.990  0.7567  0.5206 -0.0382
 5330SOL    HW227627   2.768   2.155   6.002  0.6589 -0.0194  2.0327
 5331SOL     OW27628   0.701   2.837  14.168  0.3150 -0.1435 -0.1556
 5331SOL    HW127629   0.691   2.897  14.094  3.3328 -0.9381 -1.2061
 5331SOL    HW227630   0.694   2.749  14.133 -2.4508  0.0636 -0.1219
 5332SOL     OW27631   4.562   3.601  16.566 -0.5456  0.8634  0.0458
 5332SOL    HW127632   4.621   3.663  16.610  2.1679 -0.3317 -1.8960
 5332SOL    HW227633   4.537   3.556  16.647  0.2963 -0.9272 -0.6756
 5333SOL     OW27634   4.101   2.949   5.833 -0.2033 -0.3768 -0.3382
 5333SOL    HW127635   4.177   2.939   5.891 -0.6417  2.7969  0.7598
 5333SOL    HW227636   4.028   2.958   5.895  1.2632  1.0983  1.1525
 5334SOL     OW27637   0.031   4.048  16.937 -0.5887  0.2316 -0.3379
 5334SOL    HW127638   0.088   4.002  16.876 -2.3643 -2.1417 -0.2055
 5334SOL    HW227639   0.058   4.138  16.922 -0.0856  0.4650  1.8959
 5335SOL     OW27640   2.793   3.478   3.218 -0.0783  0.1902  0.1486
 5335SOL    HW127641   2.873   3.528   3.204  0.9015 -1.1894  0.7577
 5335SOL    HW227642   2.768   3.469   3.126 -1.5856  0.7893  0.5020
 5336SOL     OW27643   0.528   4.032  11.125 -0.8452 -0.1256 -0.5223
 5336SOL    HW127644   0.535   4.048  11.219  0.7217 -1.9019 -0.3249
 5336SOL    HW227645   0.458   3.967  11.126 -1.3208  0.3784 -1.3338
 5337SOL     OW27646   3.876   1.290   3.632  0.1775  0.0805  0.3138
 5337SOL    HW127647   3.825   1.210   3.643  1.1039 -0.5916 -0.2196
 5337SOL    HW227648   3.901   1.315   3.721 -0.6320 -0.4010  0.6791
 5338SOL     OW27649   3.014   4.085   7.393 -0.6503 -0.5513  0.7920
 5338SOL    HW127650   2.940   4.137   7.361  0.0466  0.3660  0.6877
 5338SOL    HW227651   3.026   4.020   7.323 -1.1145 -0.6776  0.8262
 5339SOL     OW27652   2.644   2.126   9.682  0.6706  0.2429 -0.3934
 5339SOL    HW127653   2.706   2.133   9.609  0.4938  0.9660 -0.4658
 5339SOL    HW227654   2.575   2.190   9.667  1.9250  1.9301  1.0449
 5340SOL     OW27655   1.370   0.186   8.235 -0.3475 -0.4544  1.1369
 5340SOL    HW127656   1.324   0.267   8.257  0.3802 -0.7000  3.5238
 5340SOL    HW227657   1.446   0.204   8.290 -1.0803  1.4886  1.5047
 5341SOL     OW27658   4.181   3.959   8.698  0.5011 -0.5010 -0.7848
 5341SOL    HW127659   4.148   3.922   8.616 -3.0089 -0.5920  0.6318
 5341SOL    HW227660   4.126   4.037   8.705  1.9733  0.4902 -0.4604
 5342SOL     OW27661   0.110   2.391   5.210 -0.3075 -0.3693 -0.2363
 5342SOL    HW127662   0.154   2.343   5.280  0.4425 -0.7809 -0.9950
 5342SOL    HW227663   0.044   2.326   5.186 -1.2325 -0.0599  1.4940
 5343SOL     OW27664   0.421   4.149   3.840  0.8471  0.4742  0.0846
 5343SOL    HW127665   0.481   4.075   3.850  0.8044  0.5255  0.6883
 5343SOL    HW227666   0.378   4.147   3.925  0.4503 -0.6268 -0.1357
 5344SOL     OW27667   0.957   4.581   8.010 -0.2126  0.0914  0.3783
 5344SOL    HW127668   0.958   4.485   8.001 -0.2379  0.0682  0.6243
 5344SOL    HW227669   0.869   4.590   8.046 -1.2130  0.8700 -2.2657
 5345SOL     OW27670   0.987   1.732   7.165 -0.0456 -0.0298  0.0688
 5345SOL    HW127671   0.938   1.778   7.233 -0.9800 -1.0985  0.1018
 5345SOL    HW227672   1.073   1.721   7.206  0.8525  0.1724 -1.7780
 5346SOL     OW27673   0.118   0.465  14.206  0.1998 -0.3792 -0.4390
 5346SOL    HW127674   0.167   0.481  14.126 -0.0082 -0.0679 -0.5057
 5346SOL    HW227675   0.030   0.483  14.174  0.1471 -1.9021 -1.1079
 5347SOL     OW27676   1.555   0.634   5.303 -0.2794 -0.3526 -0.1769
 5347SOL    HW127677   1.594   0.679   5.228  1.5707 -0.5451  0.6653
 5347SOL    HW227678   1.525   0.715   5.344 -0.2878 -0.8975  0.8924
 5348SOL     OW27679   0.780   4.655   5.884  0.3891 -0.0446  0.5104
 5348SOL    HW127680   0.697   4.687   5.849  0.7522  0.0092 -0.2949
 5348SOL    HW227681   0.760   4.651   5.978 -1.3012  0.2584  0.1557
 5349SOL     OW27682   3.653   3.759   6.449  0.1673 -0.5266 -0.2771
 5349SOL    HW127683   3.604   3.836   6.477 -2.5641 -1.9856 -1.0289
 5349SOL    HW227684   3.691   3.784   6.365 -0.9615 -1.3782 -1.0432
 5350SOL     OW27685   2.964   4.129   5.194  0.3339 -0.6925  0.3340
 5350SOL    HW127686   3.010   4.119   5.111  0.8011  0.1346  0.4920
 5350SOL    HW227687   2.889   4.086   5.154 -0.8434  0.2705  1.5000
 5351SOL     OW27688   3.863   1.963  15.259  0.8961  0.0617  0.0588
 5351SOL    HW127689   3.873   1.967  15.354 -2.1709 -0.5575  0.4045
 5351SOL    HW227690   3.942   1.916  15.233 -0.2479 -1.1481 -1.1645
 5352SOL     OW27691   2.248   3.534   3.187 -0.0256  0.4989  0.3783
 5352SOL    HW127692   2.232   3.457   3.241 -1.9700  0.7060  0.0685
 5352SOL    HW227693   2.246   3.599   3.257  0.2424  0.2385  0.6317
 5353SOL     OW27694   0.722   3.126   4.965  0.0440 -0.3605  0.3453
 5353SOL    HW127695   0.800   3.179   4.947 -0.8987  1.3358  1.2984
 5353SOL    HW227696   0.745   3.075   5.043  1.4139 -0.9594 -0.4383
 5354SOL     OW27697   0.625   2.042  11.841 -0.1749 -0.6301 -0.5012
 5354SOL    HW127698   0.532   2.049  11.864  0.1123  1.6609 -0.0573
 5354SOL    HW227699   0.672   2.084  11.913 -0.3050 -0.8603 -0.2784
 5355SOL     OW27700   3.158   0.982   7.874 -0.0052 -0.6827 -0.4125
 5355SOL    HW127701   3.222   0.966   7.943  0.4496 -0.2435 -0.7345
 5355SOL    HW227702   3.211   1.026   7.808 -1.3432 -0.8140 -1.5661
 5356SOL     OW27703   0.382   4.555   5.650  0.2013  0.4787 -0.5937
 5356SOL    HW127704   0.379   4.530   5.558  2.4142 -0.3327 -0.4308
 5356SOL    HW227705   0.387   4.469   5.691  1.3668  0.9734  0.2908
 5357SOL     OW27706   3.536   0.200   4.649  0.6591 -0.0494 -0.2950
 5357SOL    HW127707   3.546   0.208   4.554  4.1818  2.0290  0.2619
 5357SOL    HW227708   3.585   0.276   4.680 -0.4802  0.6444 -0.2038
 5358SOL     OW27709   4.507   4.028  17.040 -0.0297 -0.0542  0.6502
 5358SOL    HW127710   4.450   4.004  16.968  0.4326 -0.1475  0.3165
 5358SOL    HW227711   4.594   4.041  17.001 -0.6561 -0.0830 -0.7409
 5359SOL     OW27712   0.590   2.416   1.648 -0.0348 -0.1640 -0.1509
 5359SOL    HW127713   0.554   2.335   1.684  0.0855 -0.8508 -1.5812
 5359SOL    HW227714   0.568   2.481   1.715  1.6353 -0.7625  1.0078
 5360SOL     OW27715   1.382   1.553   3.781 -0.4555 -0.3618 -0.2148
 5360SOL    HW127716   1.469   1.585   3.758 -0.9922  0.5284 -1.0636
 5360SOL    HW227717   1.395   1.528   3.872  1.3693  1.8766  0.1481
 5361SOL     OW27718   4.260   3.440   5.096  0.2523  0.0217  0.5491
 5361SOL    HW127719   4.243   3.365   5.153  0.7108 -2.0153 -1.9933
 5361SOL    HW227720   4.188   3.422   5.036 -0.5790  2.5489  0.8181
 5362SOL     OW27721   1.194   4.503   8.787 -0.0393  0.1804  0.8730
 5362SOL    HW127722   1.186   4.597   8.771  0.9743 -0.0802 -1.1491
 5362SOL    HW227723   1.102   4.486   8.805  0.2461 -2.1052  0.1796
 5363SOL     OW27724   4.713   1.501   3.398  0.3255  0.0871  0.2797
 5363SOL    HW127725   4.633   1.450   3.382 -0.9981  1.3730  2.7332
 5363SOL    HW227726   4.694   1.570   3.334  2.4329  1.5099  1.1915
 5364SOL     OW27727   1.357   2.820   5.463  0.8350  0.6136 -0.0109
 5364SOL    HW127728   1.307   2.895   5.497  0.0925  0.1510 -0.0791
 5364SOL    HW227729   1.331   2.814   5.371  2.4871  0.7606 -0.4773
 5365SOL     OW27730   3.569   1.365   4.709 -0.3113 -0.0332 -0.3550
 5365SOL    HW127731   3.539   1.437   4.765 -1.8170 -1.4626  0.6416
 5365SOL    HW227732   3.583   1.418   4.631  0.8120 -3.4338 -2.4566
 5366SOL     OW27733   3.496   3.569   8.479  0.1579  0.0902  0.4441
 5366SOL    HW127734   3.584   3.580   8.444  0.6564 -0.1058  1.6132
 5366SOL    HW227735   3.508   3.541   8.570  1.9944 -1.0830 -0.1611
 5367SOL     OW27736   1.293   1.464   2.983  0.3782  0.3181 -0.2233
 5367SOL    HW127737   1.337   1.548   2.993  1.8194 -0.6370  1.3037
 5367SOL    HW227738   1.207   1.478   3.024  1.2916  2.5595  0.9495
 5368SOL     OW27739   4.597   0.976   2.335  0.2222 -0.7736  0.3067
 5368SOL    HW127740   4.503   0.958   2.332  0.1770 -0.8265  2.3660
 5368SOL    HW227741   4.617   0.987   2.428  0.0333 -1.8793  0.4787
 5369SOL     OW27742   4.517   1.220   5.813 -0.2059  0.3080 -0.1043
 5369SOL    HW127743   4.463   1.237   5.890 -0.4800 -1.2512  0.0352
 5369SOL    HW227744   4.543   1.128   5.814 -0.4392  0.2462  0.2282
 5370SOL     OW27745   3.114   2.879   9.391 -0.5098 -0.6033 -0.0875
 5370SOL    HW127746   3.161   2.846   9.467  0.9101 -2.2800 -1.6826
 5370SOL    HW227747   3.149   2.967   9.388 -0.6581 -0.5178  0.6819
 5371SOL     OW27748   1.989   3.535  15.412  0.4328 -0.0637 -0.5697
 5371SOL    HW127749   1.930   3.575  15.347 -0.9340 -3.7266 -1.5596
 5371SOL    HW227750   1.931   3.517  15.486  3.5242 -0.4702  1.7176
 5372SOL     OW27751   3.626   0.800  15.950  1.0507 -0.2750 -0.8277
 5372SOL    HW127752   3.627   0.826  15.858 -0.8830  0.6065 -0.6105
 5372SOL    HW227753   3.549   0.849  15.978  1.1476 -0.1334 -0.8114
 5373SOL     OW27754   1.579   2.639  12.617  0.6133  0.0359  0.2185
 5373SOL    HW127755   1.663   2.598  12.594  0.4667  0.9806 -1.9865
 5373SOL    HW227756   1.600   2.691  12.694 -0.9140  1.1342 -0.1032
 5374SOL     OW27757   3.863   3.740   9.581 -0.6646 -0.4581  0.6875
 5374SOL    HW127758   3.794   3.798   9.615 -1.2459 -0.8999  0.2727
 5374SOL    HW227759   3.910   3.722   9.662  0.0964  0.7707  0.5152
 5375SOL     OW27760   1.398   4.625   3.686 -0.1378  0.0878 -0.2033
 5375SOL    HW127761   1.309   4.637   3.720  0.0169  1.7437 -0.3765
 5375SOL    HW227762   1.392   4.693   3.619 -0.4208 -1.3382 -1.6206
 5376SOL     OW27763   2.923   0.487   2.647  0.1352  0.2828  0.0699
 5376SOL    HW127764   2.982   0.439   2.704 -2.8217 -0.1302  2.8030
 5376SOL    HW227765   2.883   0.416   2.597  0.4837  0.1603 -0.0289
 5377SOL     OW27766   2.850   4.017   3.427 -0.3440 -0.1001  0.5397
 5377SOL    HW127767   2.868   3.926   3.448  2.5686  0.8446  2.0309
 5377SOL    HW227768   2.847   4.011   3.331 -1.4222 -0.3787  0.5935
 5378SOL     OW27769   4.033   1.379  10.312 -0.3877  0.3297  0.0112
 5378SOL    HW127770   4.023   1.438  10.387 -0.2070  1.3152 -0.7367
 5378SOL    HW227771   4.082   1.443  10.261 -0.0112 -0.6611 -0.8572
 5379SOL     OW27772   1.554   0.629  11.950  0.5637 -0.0454 -0.6324
 5379SOL    HW127773   1.533   0.597  12.038  0.2701 -0.2107 -0.7635
 5379SOL    HW227774   1.535   0.720  11.971  1.9367  0.0888  0.0005
 5380SOL     OW27775   4.730   4.106   4.694 -0.5498  0.3732  0.2506
 5380SOL    HW127776   4.668   4.171   4.660 -0.3785  1.0474  1.2375
 5380SOL    HW227777   4.725   4.035   4.630 -1.3929  0.4648  0.2131
 5381SOL     OW27778   2.532   3.491   0.683 -0.0806  0.3574 -0.2252
 5381SOL    HW127779   2.561   3.543   0.758 -2.6317  1.5083 -0.0268
 5381SOL    HW227780   2.605   3.432   0.667 -0.6927 -0.1455 -1.1627
 5382SOL     OW27781   4.435   0.912  16.357 -0.4959  0.1291  0.3935
 5382SOL    HW127782   4.425   1.005  16.380 -1.5587 -0.0989  0.8569
 5382SOL    HW227783   4.358   0.867  16.390 -1.0538  0.1327 -0.8760
 5383SOL     OW27784   0.147   0.735   6.403 -0.1041  0.1354 -0.7476
 5383SOL    HW127785   0.070   0.691   6.439  0.6654  1.2587  2.2208
 5383SOL    HW227786   0.107   0.802   6.347 -0.9898  0.4049  0.2183
 5384SOL     OW27787   2.379   1.275  13.825 -0.4070 -0.3705 -0.9502
 5384SOL    HW127788   2.289   1.278  13.790 -0.9117 -0.2075  0.3636
 5384SOL    HW227789   2.369   1.330  13.903 -0.1187 -1.0711 -0.4241
 5385SOL     OW27790   4.274   2.694  10.241 -0.7116  0.1590 -0.8005
 5385SOL    HW127791   4.261   2.600  10.245 -1.3459  0.2877  0.1445
 5385SOL    HW227792   4.191   2.724  10.205 -1.9226 -2.2114  0.0502
 5386SOL     OW27793   2.714   0.325   4.554 -0.1870  0.3356 -0.3033
 5386SOL    HW127794   2.662   0.377   4.615 -0.3920  0.6925 -0.7909
 5386SOL    HW227795   2.801   0.336   4.593  0.4291 -1.0178 -1.3127
 5387SOL     OW27796   4.580   0.824   8.805 -0.2045  0.7442  0.2983
 5387SOL    HW127797   4.614   0.887   8.868 -0.0129 -2.1455  3.0495
 5387SOL    HW227798   4.641   0.751   8.798 -0.9799  0.1998 -0.8309
 5388SOL     OW27799   3.099   2.398   3.637  0.0932  0.6864 -0.2445
 5388SOL    HW127800   3.007   2.375   3.651  0.7426 -2.5437 -1.1941
 5388SOL    HW227801   3.105   2.486   3.673 -1.7753  0.4078  0.7419
 5389SOL     OW27802   3.998   3.701   9.341 -0.0110  0.4619 -0.8849
 5389SOL    HW127803   3.960   3.711   9.429  2.5137 -2.3561  0.5434
 5389SOL    HW227804   3.947   3.768   9.297  0.0449 -0.1450 -1.8747
 5390SOL     OW27805   0.447   2.522   0.196 -0.6734  0.3771 -0.4620
 5390SOL    HW127806   0.454   2.427   0.186 -1.5073 -0.0568  2.7747
 5390SOL    HW227807   0.384   2.527   0.268  1.0510  1.0474  1.0031
 5391SOL     OW27808   0.676   1.094  14.758 -0.0949 -0.2361  0.1442
 5391SOL    HW127809   0.710   1.072  14.672  1.1964 -0.2999  0.6690
 5391SOL    HW227810   0.617   1.020  14.761 -0.5690  0.2018  1.8731
 5392SOL     OW27811   1.415   0.864   5.411  0.2992  0.0951  0.2761
 5392SOL    HW127812   1.378   0.919   5.342  1.3036  0.4028 -0.0250
 5392SOL    HW227813   1.355   0.901   5.476  1.4926  2.6319 -0.0226
 5393SOL     OW27814   1.205   2.496   6.873  0.5833 -0.0611 -0.1751
 5393SOL    HW127815   1.120   2.453   6.860 -0.1088  0.9080  1.2086
 5393SOL    HW227816   1.182   2.585   6.900  3.6379  1.0106 -1.1447
 5394SOL     OW27817   1.890   1.346   8.186  0.5097  0.2813 -0.3321
 5394SOL    HW127818   1.837   1.408   8.237 -1.0863 -0.6012 -0.9307
 5394SOL    HW227819   1.830   1.272   8.180  0.2033  0.3911  1.2433
 5395SOL     OW27820   1.086   0.603   9.498  0.8808 -0.1949 -0.3476
 5395SOL    HW127821   1.061   0.614   9.590  0.6527  0.3154 -0.4768
 5395SOL    HW227822   1.181   0.608   9.511  0.9438  1.4379 -1.4388
 5396SOL     OW27823   1.508   0.983   7.654  0.2166 -0.1478  0.1360
 5396SOL    HW127824   1.416   0.957   7.644  0.0882  0.0992  0.6895
 5396SOL    HW227825   1.519   1.014   7.744  3.1878  0.0537 -0.3097
 5397SOL     OW27826   4.701   1.059   2.622  0.2235 -0.2311  0.2341
 5397SOL    HW127827   4.638   1.131   2.626 -0.2453 -0.5956 -0.4368
 5397SOL    HW227828   4.661   0.998   2.683  0.7351  0.6236  1.4096
 5398SOL     OW27829   3.013   1.175   5.211  0.2853 -0.5011 -0.1903
 5398SOL    HW127830   3.032   1.105   5.273  0.7989  1.0857  1.4632
 5398SOL    HW227831   3.097   1.221   5.216  1.4033 -2.7753  1.8297
 5399SOL     OW27832   0.016   3.125   2.567  0.1407  0.8691  0.4817
 5399SOL    HW127833   0.035   3.204   2.617 -0.4252  0.4642  1.3402
 5399SOL    HW227834   0.045   3.163   2.484 -1.9767  1.0491 -0.1695
 5400SOL     OW27835   1.328   0.987  13.853  0.1191  0.0599  0.0806
 5400SOL    HW127836   1.306   1.065  13.905 -0.3553 -0.7507  1.0902
 5400SOL    HW227837   1.410   1.009  13.809  0.1391 -2.3117 -1.0572
 5401SOL     OW27838   2.514   2.874   3.632  0.6659 -0.0040 -0.1869
 5401SOL    HW127839   2.608   2.853   3.630  0.6217 -0.3235  1.0912
 5401SOL    HW227840   2.504   2.966   3.607  0.9201  0.0976  0.0932
 5402SOL     OW27841   2.257   2.097   7.231  0.4259 -0.2804  0.2946
 5402SOL    HW127842   2.262   2.098   7.327 -2.2493 -2.4754  0.4565
 5402SOL    HW227843   2.336   2.148   7.210 -0.0644 -0.1667 -1.2434
 5403SOL     OW27844   3.478   1.825   2.449  0.0425 -0.1472 -0.3589
 5403SOL    HW127845   3.480   1.735   2.418  1.3288  0.8221 -3.0728
 5403SOL    HW227846   3.485   1.809   2.544  0.0926  1.4635 -0.0957
 5404SOL     OW27847   3.981   1.766   3.401  0.1285  0.0433 -0.3158
 5404SOL    HW127848   4.028   1.844   3.431  0.5073 -0.3110  0.0030
 5404SOL    HW227849   4.016   1.763   3.312 -0.1012  0.3450 -0.4194
 5405SOL     OW27850   3.226   1.253  10.179 -0.7201  0.2184  0.1605
 5405SOL    HW127851   3.156   1.209  10.131 -1.2568 -0.5594  1.6843
 5405SOL    HW227852   3.223   1.340  10.138 -4.1984 -0.7984 -1.6915
 5406SOL     OW27853   2.114   4.099  16.251 -0.4118  0.7021  0.2933
 5406SOL    HW127854   2.165   4.118  16.173  0.1792 -0.2143  0.4546
 5406SOL    HW227855   2.025   4.118  16.221 -1.1765 -1.8849  0.8468
 5407SOL     OW27856   1.984   3.020   4.671  0.2154 -0.3358 -0.2754
 5407SOL    HW127857   1.976   2.997   4.579  3.0498  0.0902 -0.6296
 5407SOL    HW227858   2.078   3.036   4.682  0.0208  1.1566 -0.7720
 5408SOL     OW27859   4.303   4.150   2.715 -0.2123 -0.2720  0.4830
 5408SOL    HW127860   4.218   4.147   2.672  0.1841  1.9078 -0.4429
 5408SOL    HW227861   4.360   4.113   2.648 -1.9342 -2.9365  0.5158
 5409SOL     OW27862   1.348   2.304  14.018 -0.3718  0.1394  0.4642
 5409SOL    HW127863   1.432   2.298  13.973 -0.8717  0.7851 -0.5619
 5409SOL    HW227864   1.295   2.329  13.942  0.6316 -0.7576 -0.5346
 5410SOL     OW27865   3.801   0.149   6.277  0.5371 -0.9216  0.0736
 5410SOL    HW127866   3.872   0.088   6.257  1.0219  0.1570 -1.5039
 5410SOL    HW227867   3.768   0.175   6.191 -0.2375 -1.8427  0.0852
 5411SOL     OW27868   1.549   2.140   3.192 -0.3782 -0.2169  0.0954
 5411SOL    HW127869   1.571   2.216   3.245 -2.0424  1.2792 -1.3810
 5411SOL    HW227870   1.543   2.173   3.102  0.6785  2.7085  1.1041
 5412SOL     OW27871   0.749   0.195  17.550 -0.6222  0.1655 -0.2351
 5412SOL    HW127872   0.695   0.180  17.472 -0.9913 -0.6852  0.1890
 5412SOL    HW227873   0.736   0.113  17.597 -1.3950  0.6266  0.3557
 5413SOL     OW27874   2.507   3.693   1.293 -0.4018  0.1435  0.2057
 5413SOL    HW127875   2.473   3.770   1.338 -1.7344  0.2301 -0.9222
 5413SOL    HW227876   2.428   3.662   1.248  1.3912 -0.6727 -2.4038
 5414SOL     OW27877   0.601   2.262   0.361  0.1253 -0.4442  0.3905
 5414SOL    HW127878   0.573   2.238   0.273 -1.2948 -2.4477  1.3871
 5414SOL    HW227879   0.696   2.248   0.353  0.1451 -0.7763  1.1782
 5415SOL     OW27880   1.245   1.915  11.968  0.3213 -0.6755 -0.2641
 5415SOL    HW127881   1.187   1.982  12.004 -2.0601 -3.2279  0.7516
 5415SOL    HW227882   1.176   1.855  11.939  0.3491 -0.8723  0.0712
 5416SOL     OW27883   3.221   3.216   3.701  0.0294  0.0734 -0.2871
 5416SOL    HW127884   3.286   3.279   3.671 -0.5040  0.8047  0.0938
 5416SOL    HW227885   3.243   3.148   3.638 -0.8970 -1.3767  0.9351
 5417SOL     OW27886   1.319   1.750   6.998 -0.2027  0.6472 -0.6932
 5417SOL    HW127887   1.259   1.701   6.942  0.3707  0.2314 -0.9468
 5417SOL    HW227888   1.267   1.830   6.998  0.2275  0.9005  2.2970
 5418SOL     OW27889   3.056   1.907  10.707  0.0879 -0.5266 -0.8299
 5418SOL    HW127890   3.078   1.852  10.782 -1.9655 -0.6407 -0.3102
 5418SOL    HW227891   3.104   1.989  10.722 -0.3459 -0.2113 -1.1644
 5419SOL     OW27892   3.685   3.547  11.623  0.7433 -0.2285  0.8578
 5419SOL    HW127893   3.719   3.634  11.644 -0.5133  0.2145  1.0607
 5419SOL    HW227894   3.685   3.549  11.528 -2.0174 -0.0825  0.8504
 5420SOL     OW27895   1.648   1.292   4.565  0.1293  0.3176 -0.5787
 5420SOL    HW127896   1.604   1.302   4.480  0.7950 -1.8088 -1.1772
 5420SOL    HW227897   1.736   1.317   4.539 -0.0141  1.1776 -0.2189
 5421SOL     OW27898   1.989   2.055   8.875  0.0750 -0.4738 -0.2153
 5421SOL    HW127899   2.084   2.044   8.884  0.1287  0.0381 -0.1646
 5421SOL    HW227900   1.965   2.003   8.952  2.3446 -1.6811 -0.3241
 5422SOL     OW27901   3.935   1.681  17.734  0.0028 -0.4734  0.1657
 5422SOL    HW127902   3.984   1.621  17.678  2.0567  0.4071  1.0397
 5422SOL    HW227903   3.993   1.756  17.720  0.1192 -1.2510 -3.5478
 5423SOL     OW27904   0.634   4.325  13.075  0.3440  0.0805 -0.2950
 5423SOL    HW127905   0.573   4.378  13.024  1.2436  1.0020 -0.4300
 5423SOL    HW227906   0.697   4.389  13.109  1.0517 -0.9333  0.3167
 5424SOL     OW27907   3.364   3.115   3.473 -0.1002 -0.1033  0.2722
 5424SOL    HW127908   3.310   3.036   3.466  0.2802 -0.1732 -1.7894
 5424SOL    HW227909   3.445   3.085   3.431 -1.0266 -2.5882  0.2181
 5425SOL     OW27910   4.112   0.594   3.662  0.2099 -0.3256  0.5911
 5425SOL    HW127911   4.163   0.522   3.697 -0.5421 -0.6183  1.0964
 5425SOL    HW227912   4.178   0.650   3.622 -1.1729  1.7607  1.1856
 5426SOL     OW27913   3.135   2.071   3.547  0.0498 -0.2621  0.0629
 5426SOL    HW127914   3.127   2.165   3.530  0.7530 -0.3216 -0.6227
 5426SOL    HW227915   3.161   2.070   3.639  0.3262  1.1166  0.0047
 5427SOL     OW27916   2.225   2.518   8.323 -0.0126  0.2736 -0.5923
 5427SOL    HW127917   2.307   2.557   8.354 -0.9146  1.2372  0.5418
 5427SOL    HW227918   2.173   2.551   8.395 -0.0187 -1.9561  0.4262
 5428SOL     OW27919   1.090   1.930   0.979  0.2824  0.4381 -0.4109
 5428SOL    HW127920   1.128   1.983   1.049 -1.2118  1.3570 -0.3168
 5428SOL    HW227921   1.026   1.987   0.938  0.3334 -0.3830 -1.6270
 5429SOL     OW27922   4.100   2.799   6.658  0.2042  0.1726  0.1045
 5429SOL    HW127923   4.153   2.787   6.736  1.3893  0.2293 -0.6975
 5429SOL    HW227924   4.156   2.746   6.602  1.3740  0.8308  0.6642
 5430SOL     OW27925   3.999   1.847   5.856 -0.2534 -0.2967  0.1198
 5430SOL    HW127926   4.031   1.937   5.850  1.7312 -0.8693  2.0892
 5430SOL    HW227927   3.933   1.863   5.923 -0.6327 -1.2423 -0.0207
 5431SOL     OW27928   2.991   4.421  11.496 -1.3477  0.1355 -1.1360
 5431SOL    HW127929   3.064   4.382  11.448  0.1906  1.4003  0.1745
 5431SOL    HW227930   2.986   4.506  11.454  1.8570  0.0509 -1.6487
 5432SOL     OW27931   0.719   1.060   8.672  0.7092  0.0467 -0.4479
 5432SOL    HW127932   0.771   1.055   8.752 -0.2794 -1.6261  0.1030
 5432SOL    HW227933   0.686   1.150   8.679 -0.8801 -0.7719  2.7339
 5433SOL     OW27934   2.866   0.615   8.377 -0.1099  0.5085  0.1305
 5433SOL    HW127935   2.826   0.643   8.296  1.7216 -2.9729 -1.9901
 5433SOL    HW227936   2.795   0.635   8.438 -1.2265 -2.3637 -0.2204
 5434SOL     OW27937   2.659   0.509  12.747  0.2639  0.0356 -0.2123
 5434SOL    HW127938   2.599   0.583  12.761  1.9750  1.5302 -0.6805
 5434SOL    HW227939   2.590   0.443  12.740  1.5684 -1.3699  0.3695
 5435SOL     OW27940   0.680   4.248   2.207 -0.2373 -0.1486  0.0118
 5435SOL    HW127941   0.585   4.261   2.213 -0.0865  0.4097  1.1975
 5435SOL    HW227942   0.711   4.299   2.282 -0.1854  0.8603 -0.6873
 5436SOL     OW27943   0.949   2.311   5.821 -0.1676 -0.0111  0.1548
 5436SOL    HW127944   0.950   2.269   5.735  2.3759 -1.3405  0.8338
 5436SOL    HW227945   0.860   2.331   5.851 -0.5172 -1.2887 -0.0355
 5437SOL     OW27946   0.219   4.681   2.554  0.0172  0.0928  0.0538
 5437SOL    HW127947   0.145   4.729   2.592  1.2628  0.8435  1.5331
 5437SOL    HW227948   0.178   4.669   2.468 -0.3132 -0.6998  0.3204
 5438SOL     OW27949   2.920   3.690   7.565 -0.2591 -0.0495  0.0296
 5438SOL    HW127950   2.965   3.773   7.547  0.8501 -0.1654  2.2578
 5438SOL    HW227951   2.831   3.708   7.536 -0.7365 -3.2868 -0.4678
 5439SOL     OW27952   1.468   0.553  10.389  0.2519  0.0893 -0.1882
 5439SOL    HW127953   1.547   0.605  10.371  1.5338 -1.9307 -0.3311
 5439SOL    HW227954   1.504   0.466  10.404  1.1652  0.3666 -0.7640
 5440SOL     OW27955   4.352   0.416  15.853 -0.2370 -0.4449 -0.3856
 5440SOL    HW127956   4.271   0.459  15.879 -0.4097 -1.2585  0.4208
 5440SOL    HW227957   4.349   0.325  15.884  2.2593 -0.9822 -1.6247
 5441SOL     OW27958   0.478   3.251   4.992 -0.7076  0.0119 -0.2778
 5441SOL    HW127959   0.568   3.235   4.963  0.2921  1.7018  1.8890
 5441SOL    HW227960   0.459   3.173   5.045  0.3724 -2.7255 -3.9403
 5442SOL     OW27961   3.992   0.012   8.866  0.2693  0.2449 -0.0816
 5442SOL    HW127962   4.069   4.735   8.922 -0.0888  1.5670  0.6991
 5442SOL    HW227963   3.924   4.702   8.915 -0.5964 -0.2653 -1.7644
 5443SOL     OW27964   2.500   4.324   1.744 -0.5301 -0.0697  0.0821
 5443SOL    HW127965   2.522   4.239   1.708  1.7081  1.4138 -2.0593
 5443SOL    HW227966   2.532   4.379   1.673  3.6109 -0.0963  1.9262
 5444SOL     OW27967   4.092   3.556   0.100 -0.6508 -0.4791  0.1107
 5444SOL    HW127968   4.120   3.519   0.016 -0.8166 -0.3426 -0.0053
 5444SOL    HW227969   3.997   3.544   0.097 -0.7593  0.3744  0.2004
 5445SOL     OW27970   2.924   3.309   1.703  0.2221  0.1668  0.2219
 5445SOL    HW127971   2.869   3.252   1.650 -2.2280  0.7860  2.0859
 5445SOL    HW227972   3.006   3.272   1.671  0.6926  0.5150  1.0410
 5446SOL     OW27973   2.047   4.654   7.088 -0.2800  0.5458 -0.6758
 5446SOL    HW127974   2.073   4.586   7.026 -2.5257  0.4646 -1.5610
 5446SOL    HW227975   1.983   4.615   7.149 -0.7064 -2.3320 -2.9415
 5447SOL     OW27976   2.828   2.883   3.913 -0.3229  0.2207  0.2057
 5447SOL    HW127977   2.854   2.798   3.877 -0.1441 -0.1148  1.1273
 5447SOL    HW227978   2.863   2.873   4.002 -0.5665 -1.6154  0.0929
 5448SOL     OW27979   0.915   1.460   7.112 -0.2630  0.3980 -0.0280
 5448SOL    HW127980   0.951   1.546   7.134 -0.1825  0.2958  0.2356
 5448SOL    HW227981   0.914   1.453   7.017 -1.8830 -0.0198  0.0162
 5449SOL     OW27982   0.263   1.687   3.934 -0.1053 -0.2401  0.4379
 5449SOL    HW127983   0.302   1.615   3.885 -1.0456  0.0245 -0.7031
 5449SOL    HW227984   0.330   1.755   3.934  0.3062 -0.6520  5.0129
 5450SOL     OW27985   3.378   2.852   1.013 -0.0558  0.3049  0.1652
 5450SOL    HW127986   3.321   2.924   0.989  2.1490  2.4243  1.2919
 5450SOL    HW227987   3.444   2.891   1.071  0.1809 -1.4980  1.1134
 5451SOL     OW27988   1.328   2.132  17.252 -0.1227 -0.1237  0.4895
 5451SOL    HW127989   1.317   2.174  17.337 -0.6211 -1.6295  1.1688
 5451SOL    HW227990   1.411   2.093  17.278  0.0084 -0.1439  0.0476
 5452SOL     OW27991   0.898   2.120   5.137 -0.4230  0.7153  0.3601
 5452SOL    HW127992   0.869   2.162   5.217  1.3691  1.8959  0.3865
 5452SOL    HW227993   0.920   2.201   5.090  1.2946  0.3593  0.5425
 5453SOL     OW27994   0.453   3.066   4.395 -0.3665  0.2272  0.1969
 5453SOL    HW127995   0.461   3.127   4.322  0.8803  0.4461  0.5067
 5453SOL    HW227996   0.382   3.110   4.441  0.5348 -0.4655  2.2440
 5454SOL     OW27997   4.705   2.232  10.666  0.1736 -0.4638  0.2113
 5454SOL    HW127998   4.707   2.326  10.649 -0.5735  0.1259  3.2498
 5454SOL    HW227999   4.623   2.233  10.715  0.1410 -0.2702  0.1542
 5455SOL     OW28000   0.975   0.456   6.733 -0.0711  0.0262 -0.0119
 5455SOL    HW128001   1.019   0.508   6.665  0.8781  0.6670  1.1131
 5455SOL    HW228002   0.918   0.521   6.775 -0.5702  0.4748 -1.3688
 5456SOL     OW28003   3.135   3.238   3.271 -0.3079  0.4157 -0.4292
 5456SOL    HW128004   3.140   3.260   3.178  1.1807  0.8169 -0.2561
 5456SOL    HW228005   3.152   3.324   3.309  1.6177 -0.3939  0.5150
 5457SOL     OW28006   3.848   3.242   2.031 -0.0220  0.4439  0.2574
 5457SOL    HW128007   3.854   3.149   2.051 -0.2058 -0.1593 -2.5220
 5457SOL    HW228008   3.784   3.273   2.095 -0.8540 -2.3083  0.7562
 5458SOL     OW28009   2.752   2.890   8.903  0.1638  0.2564 -0.1723
 5458SOL    HW128010   2.705   2.807   8.892 -0.9197  0.8407  0.0708
 5458SOL    HW228011   2.716   2.940   8.829  2.7464  2.4444  0.0301
 5459SOL     OW28012   2.292   3.890   1.055  0.0849  0.4534 -0.1028
 5459SOL    HW128013   2.365   3.865   1.111  0.0466 -1.1649 -0.7799
 5459SOL    HW228014   2.297   3.985   1.067  0.0990  0.5376 -0.7331
 5460SOL     OW28015   0.143   2.056   6.304 -0.0432 -0.2860  0.0130
 5460SOL    HW128016   0.203   2.082   6.234 -1.3047  0.1446 -0.8920
 5460SOL    HW228017   0.111   2.142   6.333  0.1864 -0.3228  0.3840
 5461SOL     OW28018   3.533   3.639   8.112  0.2158  0.1524  0.8114
 5461SOL    HW128019   3.482   3.670   8.038  1.3014 -0.3841 -0.1687
 5461SOL    HW228020   3.460   3.591   8.151  0.7264 -0.5733  0.8861
 5462SOL     OW28021   3.398   1.529   7.440 -0.2136 -0.2997  0.6249
 5462SOL    HW128022   3.464   1.461   7.428  0.9426  1.0185 -0.5627
 5462SOL    HW228023   3.315   1.484   7.425 -0.4803 -0.1680  1.6846
 5463SOL     OW28024   4.034   4.097   2.986  0.1076 -0.2821  0.3023
 5463SOL    HW128025   4.080   4.172   2.948 -1.0197 -0.7871 -2.0994
 5463SOL    HW228026   4.048   4.114   3.079  0.8406  0.0469  0.1327
 5464SOL     OW28027   3.777   4.688   7.756 -0.0090 -0.5234 -0.2164
 5464SOL    HW128028   3.696   4.699   7.806  1.1283 -0.5913  1.6483
 5464SOL    HW228029   3.804   4.600   7.782  0.3958 -0.6100 -0.9375
 5465SOL     OW28030   3.599   2.480  11.905 -0.1959 -0.0983 -0.0223
 5465SOL    HW128031   3.663   2.501  11.837  0.2107 -0.7224  0.1724
 5465SOL    HW228032   3.625   2.556  11.958 -1.9402  1.0758 -0.8156
 5466SOL     OW28033   3.896   0.538  10.025  0.1891  0.2538  0.1385
 5466SOL    HW128034   3.901   0.567  10.117 -0.2650  0.5814  0.0625
 5466SOL    HW228035   3.804   0.513  10.019 -0.3971  1.6824  2.7749
 5467SOL     OW28036   2.612   1.447   4.395  0.2434  0.6939 -0.5202
 5467SOL    HW128037   2.626   1.520   4.456 -2.3593  1.8269 -1.2892
 5467SOL    HW228038   2.614   1.498   4.314 -0.6176 -0.6936 -1.4211
 5468SOL     OW28039   0.175   3.164   5.515  0.0411  0.2289 -0.3500
 5468SOL    HW128040   0.149   3.088   5.462 -1.3845 -0.5644  1.4756
 5468SOL    HW228041   0.089   3.206   5.512  0.4399  0.9972 -1.0049
 5469SOL     OW28042   3.634   4.388   0.925 -0.4561  0.0512 -0.1141
 5469SOL    HW128043   3.660   4.296   0.922 -0.8393 -0.0992  1.2459
 5469SOL    HW228044   3.599   4.384   1.014  0.5300  0.8179  0.3111
 5470SOL     OW28045   3.142   1.365  13.231  0.1360  0.1149 -0.5381
 5470SOL    HW128046   3.057   1.370  13.187  0.2769 -0.7282 -0.9234
 5470SOL    HW228047   3.198   1.392  13.159  1.1525 -1.1080 -0.2085
 5471SOL     OW28048   4.666   2.252   8.154 -0.0702 -0.3410  0.3238
 5471SOL    HW128049   4.644   2.262   8.061 -0.7548 -0.4157  0.4740
 5471SOL    HW228050   4.709   2.335   8.172  0.8340 -0.8000  0.2695
 5472SOL     OW28051   2.217   3.008   2.029 -0.1280 -0.5039  0.6525
 5472SOL    HW128052   2.175   3.022   1.944  1.0104 -1.0593 -0.0099
 5472SOL    HW228053   2.252   2.921   2.006  0.8707  0.1692 -0.3660
 5473SOL     OW28054   3.303   4.340  13.506 -0.3250  0.0330  0.2570
 5473SOL    HW128055   3.226   4.357  13.561 -1.1525 -2.4623 -0.1102
 5473SOL    HW228056   3.284   4.394  13.430 -0.1108  2.3822  1.8605
 5474SOL     OW28057   2.375   0.266   9.660 -0.4545  0.2473  0.1362
 5474SOL    HW128058   2.443   0.332   9.676 -0.0682  0.0100 -0.5248
 5474SOL    HW228059   2.361   0.237   9.750 -0.7089  2.0403  0.6825
 5475SOL     OW28060   0.847   2.744   2.366  0.0403  0.7003  0.2724
 5475SOL    HW128061   0.871   2.810   2.301 -1.0980  0.6990 -0.1400
 5475SOL    HW228062   0.933   2.727   2.405  0.6313  1.6867 -0.5764
 5476SOL     OW28063   0.422   0.566   2.187  0.0129 -0.2076 -0.0124
 5476SOL    HW128064   0.394   0.487   2.140  0.7834  0.8453 -2.2429
 5476SOL    HW228065   0.517   0.563   2.188  0.0131  0.2330  2.5707
 5477SOL     OW28066   1.725   3.552   2.867 -0.3353 -0.0019  0.1281
 5477SOL    HW128067   1.815   3.521   2.856 -1.2133 -1.7014 -2.2649
 5477SOL    HW228068   1.741   3.644   2.847 -0.3941  0.1029  0.5696
 5478SOL     OW28069   1.766   2.099   5.689  0.0724  0.2171  0.1436
 5478SOL    HW128070   1.738   2.095   5.780  0.7413  0.0738  0.3468
 5478SOL    HW228071   1.753   2.193   5.676  0.7110  0.4303  1.0636
 5479SOL     OW28072   4.045   0.844   7.704  0.2593  0.0875 -0.0184
 5479SOL    HW128073   4.087   0.840   7.618  1.9887 -1.8634  0.9177
 5479SOL    HW228074   4.102   0.907   7.749 -0.1428 -1.9336  3.2487
 5480SOL     OW28075   0.851   3.932   2.407 -0.0196 -0.2247  0.3161
 5480SOL    HW128076   0.932   3.971   2.440  0.5145  1.0075 -2.4497
 5480SOL    HW228077   0.800   3.916   2.486 -0.2565 -2.0345 -0.1969
 5481SOL     OW28078   0.621   4.294   7.703  0.1031 -0.6306 -0.7783
 5481SOL    HW128079   0.697   4.285   7.646  0.1761 -0.5739 -0.6894
 5481SOL    HW228080   0.546   4.279   7.645 -0.7502 -0.6430  0.3275
 5482SOL     OW28081   2.850   4.253   7.248  1.0821  0.5457 -0.1059
 5482SOL    HW128082   2.773   4.306   7.230  0.0632 -0.6538  0.7764
 5482SOL    HW228083   2.887   4.229   7.163  0.4381  0.4438 -0.3566
 5483SOL     OW28084   3.251   0.014   5.025  0.3105 -0.0002 -0.6681
 5483SOL    HW128085   3.252   4.657   5.000  0.9892 -0.5147  1.2341
 5483SOL    HW228086   3.338   0.045   5.002  0.5752 -0.2928 -0.0545
 5484SOL     OW28087   4.143   1.819   5.299 -0.1165  0.6522 -0.1179
 5484SOL    HW128088   4.164   1.902   5.342  0.6791 -0.5285  1.7751
 5484SOL    HW228089   4.049   1.825   5.282 -0.0288  1.3603 -0.3666
 5485SOL     OW28090   2.192   4.003   9.422 -0.1595 -0.1995  0.5570
 5485SOL    HW128091   2.179   4.098   9.415 -0.7833 -0.2606  0.9880
 5485SOL    HW228092   2.156   3.969   9.340 -0.6905  1.5877  0.0448
 5486SOL     OW28093   2.604   0.819   3.127 -0.2387  0.0650  0.6177
 5486SOL    HW128094   2.641   0.736   3.096  0.2242  0.5249 -0.0532
 5486SOL    HW228095   2.680   0.875   3.138 -1.4897  1.8469  0.1615
 5487SOL     OW28096   3.068   0.383   4.994 -1.0578 -0.3044  0.9472
 5487SOL    HW128097   3.079   0.323   4.920  0.4011  1.9174 -0.6111
 5487SOL    HW228098   3.118   0.327   5.054 -0.2809 -0.4995  0.1204
 5488SOL     OW28099   4.291   3.643   5.838  0.0744 -0.2373 -0.0649
 5488SOL    HW128100   4.292   3.700   5.914 -0.7026 -2.3083  1.4947
 5488SOL    HW228101   4.218   3.671   5.783 -1.5023 -2.0957  1.0949
 5489SOL     OW28102   2.826   2.486   8.561 -0.6350  0.2574  0.0120
 5489SOL    HW128103   2.771   2.467   8.485 -0.1763  2.4166 -0.8533
 5489SOL    HW228104   2.764   2.473   8.634 -1.3873 -0.6059 -0.7777
 5490SOL     OW28105   3.448   0.215   5.742 -0.2787  0.0804 -0.3271
 5490SOL    HW128106   3.485   0.132   5.773  0.9139  0.9553  0.6138
 5490SOL    HW228107   3.366   0.217   5.792  0.0589  0.3220  0.2167
 5491SOL     OW28108   3.394   4.098   5.944 -0.0218 -0.1693 -0.1157
 5491SOL    HW128109   3.442   4.036   5.999  0.4788  0.1326 -0.2122
 5491SOL    HW228110   3.311   4.054   5.925  0.2627 -0.1229 -1.3998
 5492SOL     OW28111   4.307   3.789   7.944 -0.1813 -0.4801  0.4299
 5492SOL    HW128112   4.277   3.700   7.959 -1.0247  0.4563  4.4494
 5492SOL    HW228113   4.233   3.850   7.944 -0.5743 -0.9597  1.6278
 5493SOL     OW28114   3.626   2.685   9.557 -0.6165 -0.1723  0.1128
 5493SOL    HW128115   3.659   2.773   9.542 -0.4632 -0.2606 -0.0684
 5493SOL    HW228116   3.618   2.653   9.467  1.7018  1.1432 -0.5626
 5494SOL     OW28117   2.368   1.972   9.235  0.4410  0.1562 -0.2134
 5494SOL    HW128118   2.320   1.890   9.245 -1.7268  1.3341 -0.9244
 5494SOL    HW228119   2.451   1.952   9.278  0.3265 -0.2200 -0.1729
 5495SOL     OW28120   3.849   3.095  11.549  0.0210 -0.0966  0.9302
 5495SOL    HW128121   3.804   3.144  11.618 -1.4764 -0.7735  0.4417
 5495SOL    HW228122   3.780   3.043  11.508  0.1756 -2.3373  3.5590
 5496SOL     OW28123   2.099   1.159   3.189 -0.1593  0.3146  0.0155
 5496SOL    HW128124   2.075   1.221   3.120 -1.1225 -0.9213 -0.7662
 5496SOL    HW228125   2.141   1.088   3.140 -1.2448 -0.0325 -0.4250
 5497SOL     OW28126   3.130   1.573   3.109 -0.1695 -0.2443  0.2036
 5497SOL    HW128127   3.099   1.598   3.197 -1.3941  1.2935 -0.6623
 5497SOL    HW228128   3.220   1.604   3.109 -0.6572  1.1595 -2.9629
 5498SOL     OW28129   4.281   0.454   1.516 -0.3455 -0.2006  0.1381
 5498SOL    HW128130   4.324   0.474   1.600  0.4509 -1.4677  0.0276
 5498SOL    HW228131   4.261   0.540   1.478  1.2317  0.4073  0.6834
 5499SOL     OW28132   2.288   4.548   5.123  0.5591  0.1506  0.1271
 5499SOL    HW128133   2.278   4.639   5.150  1.1968 -0.0854  1.1299
 5499SOL    HW228134   2.257   4.552   5.032 -0.9866 -1.4522  0.5806
 5500SOL     OW28135   0.592   1.698   0.873 -0.0522  0.1505 -0.2082
 5500SOL    HW128136   0.549   1.752   0.807 -2.0556  0.9019  1.7127
 5500SOL    HW228137   0.534   1.710   0.948  1.9850  2.2813  1.0030
 5501SOL     OW28138   4.204   1.078   4.008 -0.2406 -0.0106 -0.2577
 5501SOL    HW128139   4.179   0.992   4.043 -0.9161 -0.4427 -1.8182
 5501SOL    HW228140   4.114   1.109   4.006 -0.7288 -1.5215 -2.2224
 5502SOL     OW28141   1.123   1.644  12.209  0.0418 -0.1972 -0.0180
 5502SOL    HW128142   1.097   1.704  12.279  0.5224  1.4355 -1.2557
 5502SOL    HW228143   1.170   1.581  12.264  0.5562 -0.1488 -0.4084
 5503SOL     OW28144   2.655   1.935   1.969  0.8791  0.1179  0.3016
 5503SOL    HW128145   2.692   1.976   2.047  1.1326 -1.3461  0.9542
 5503SOL    HW228146   2.678   2.003   1.906 -1.4513  0.9871  0.3933
 5504SOL     OW28147   3.260   1.796  17.475  0.0229 -0.0843 -0.3050
 5504SOL    HW128148   3.324   1.786  17.545 -1.3937 -1.6925  0.7607
 5504SOL    HW228149   3.310   1.766  17.399  0.1911 -0.3159 -0.1019
 5505SOL     OW28150   4.072   2.202   0.515  0.0538 -0.0646 -0.2446
 5505SOL    HW128151   4.095   2.285   0.556  0.0459 -1.3933  2.4214
 5505SOL    HW228152   4.099   2.236   0.429  0.3237  2.0044  0.6606
 5506SOL     OW28153   3.067   0.037  10.958 -0.2404  0.1913 -0.1049
 5506SOL    HW128154   3.075   0.132  10.961 -0.9054  0.2128  1.0279
 5506SOL    HW228155   3.046   0.026  10.865 -1.2461  6.1726 -0.5406
 5507SOL     OW28156   0.325   2.693   3.783  0.0266  0.2662 -0.8525
 5507SOL    HW128157   0.306   2.658   3.870  0.7407  2.1816  0.0684
 5507SOL    HW228158   0.260   2.763   3.787 -2.3843 -2.2907  3.6943
 5508SOL     OW28159   0.038   3.447  11.813  0.0014 -0.1501 -0.2389
 5508SOL    HW128160   0.072   3.371  11.766 -0.6737 -0.1098 -0.7948
 5508SOL    HW228161   0.111   3.507  11.803  0.1408 -0.2091  0.4118
 5509SOL     OW28162   0.777   3.683   8.747 -0.0349 -0.2626  0.1218
 5509SOL    HW128163   0.781   3.746   8.819  1.0919 -1.2413  0.9304
 5509SOL    HW228164   0.686   3.692   8.719  0.9192  4.6829 -1.2600
 5510SOL     OW28165   2.732   0.174   0.850 -0.0394  0.1198  0.0659
 5510SOL    HW128166   2.754   0.247   0.908 -0.2521  0.0413  0.2441
 5510SOL    HW228167   2.692   0.113   0.912 -1.3742 -0.3220 -1.2153
 5511SOL     OW28168   1.603   1.613  10.160  0.5758  0.3103 -0.5619
 5511SOL    HW128169   1.605   1.629  10.254 -0.3871 -1.2698 -0.2680
 5511SOL    HW228170   1.679   1.556  10.149  1.9667  1.9198  0.8067
 5512SOL     OW28171   1.357   2.750  14.240  0.0676 -0.2624  0.3859
 5512SOL    HW128172   1.277   2.751  14.188 -0.0187  0.2901  0.5362
 5512SOL    HW228173   1.420   2.798  14.186 -1.4413 -0.0690 -1.2169
 5513SOL     OW28174   3.881   0.071   3.602 -0.1537  0.1293 -0.0517
 5513SOL    HW128175   3.823   0.094   3.675 -0.5570  0.2506 -0.4164
 5513SOL    HW228176   3.831   0.106   3.529 -0.9221  0.7023  0.7413
 5514SOL     OW28177   4.198   2.429  10.238  0.2236 -0.8515  0.3375
 5514SOL    HW128178   4.157   2.416  10.152 -1.8267 -1.8917  1.4649
 5514SOL    HW228179   4.131   2.409  10.304 -1.6630 -1.1324 -1.6481
 5515SOL     OW28180   2.811   4.656   1.325 -0.0008  0.5050 -0.3995
 5515SOL    HW128181   2.823   4.577   1.378 -0.8837  0.5666 -0.1203
 5515SOL    HW228182   2.826   4.628   1.235 -0.0489 -0.8174  0.0024
 5516SOL     OW28183   3.646   4.491   8.340 -0.9651  0.0095  0.0498
 5516SOL    HW128184   3.615   4.469   8.253  1.1610  0.7929 -0.8998
 5516SOL    HW228185   3.671   4.403   8.366  0.4123 -0.7523 -3.8784
 5517SOL     OW28186   1.381   0.548  11.300 -0.0619  0.3248 -0.7661
 5517SOL    HW128187   1.456   0.606  11.288 -0.5429  0.9469 -0.7337
 5517SOL    HW228188   1.384   0.523  11.392  0.8401 -1.4158 -1.2578
 5518SOL     OW28189   1.515   2.635   5.586 -0.1696 -0.4297 -0.2973
 5518SOL    HW128190   1.575   2.691   5.537  0.7130 -2.3331 -1.3877
 5518SOL    HW228191   1.435   2.683   5.563 -0.7593 -0.5118  1.5456
 5519SOL     OW28192   1.714   4.557   5.753 -0.0419 -0.0409 -0.6854
 5519SOL    HW128193   1.787   4.496   5.743  0.0941 -0.0962  0.6449
 5519SOL    HW228194   1.743   4.621   5.688  2.2388  0.9363  1.2911
 5520SOL     OW28195   0.457   2.209   1.829 -0.0740  0.3189  0.1067
 5520SOL    HW128196   0.380   2.204   1.773  1.6338 -1.0662 -2.1005
 5520SOL    HW228197   0.411   2.228   1.912  0.2561 -0.7014  0.5307
 5521SOL     OW28198   2.427   2.388   5.795 -0.3686  0.1244  0.1749
 5521SOL    HW128199   2.490   2.445   5.840  1.0743 -1.2831 -0.0697
 5521SOL    HW228200   2.383   2.357   5.874 -0.8501  0.4718  0.0369
 5522SOL     OW28201   2.194   0.394   6.049 -0.1316  0.2501 -0.4046
 5522SOL    HW128202   2.129   0.425   6.112  2.0538  1.1913  1.3661
 5522SOL    HW228203   2.155   0.307   6.040 -0.9360  0.4139  1.6155
 5523SOL     OW28204   1.745   1.175   6.647 -0.1367  0.1971 -0.2559
 5523SOL    HW128205   1.755   1.160   6.741 -0.0588 -1.6536 -0.5538
 5523SOL    HW228206   1.744   1.082   6.621 -0.0822  0.6128 -1.7375
 5524SOL     OW28207   1.925   4.593   1.581  0.1918 -0.3476 -0.3961
 5524SOL    HW128208   2.015   4.574   1.554  0.0289 -0.1986 -1.0422
 5524SOL    HW228209   1.880   4.526   1.530 -0.5835 -1.0135  1.1610
 5525SOL     OW28210   3.277   2.695  12.171 -0.4489 -0.2177 -1.1392
 5525SOL    HW128211   3.348   2.757  12.186 -1.9688  0.1099  4.7604
 5525SOL    HW228212   3.308   2.607  12.195  1.2355  0.5681 -0.4217
 5526SOL     OW28213   3.024   2.090   8.179  0.4128 -0.0626 -0.4527
 5526SOL    HW128214   2.971   2.017   8.212  1.6541 -0.0381  1.5875
 5526SOL    HW228215   3.002   2.074   8.087 -0.8463 -0.7614 -0.0383
 5527SOL     OW28216   3.692   3.346   6.448  0.1914 -0.2159 -0.5552
 5527SOL    HW128217   3.606   3.373   6.416  0.1005 -0.1669 -0.2695
 5527SOL    HW228218   3.735   3.381   6.369  1.2624  0.6142  0.4013
 5528SOL     OW28219   0.755   2.699   6.974 -0.2584 -0.6424 -0.2959
 5528SOL    HW128220   0.721   2.619   6.934  1.5345 -2.2722  1.5219
 5528SOL    HW228221   0.752   2.672   7.065  1.3994  1.0800  0.2884
 5529SOL     OW28222   1.912   3.063   0.298 -0.1396  0.2012  0.3559
 5529SOL    HW128223   1.877   3.152   0.287  0.2450  0.3703  0.5251
 5529SOL    HW228224   1.922   3.045   0.204  2.4498  2.1270  0.2563
 5530SOL     OW28225   3.869   4.393  16.759  0.0459 -0.7186 -1.1172
 5530SOL    HW128226   3.923   4.368  16.834  1.1861  0.3476 -1.5907
 5530SOL    HW228227   3.788   4.402  16.810 -0.6855 -1.3080 -2.1818
 5531SOL     OW28228   4.671   2.729  12.314  0.5218  0.3221  0.3067
 5531SOL    HW128229   4.645   2.811  12.271 -3.0890  0.1269  2.1270
 5531SOL    HW228230   0.017   2.707  12.268  0.0395 -1.1457  0.1449
 5532SOL     OW28231   4.719   4.582   5.632 -0.4799  0.1161 -0.2479
 5532SOL    HW128232   4.707   4.596   5.538  1.2980  1.1016 -0.3210
 5532SOL    HW228233   4.634   4.606   5.669 -0.2658 -1.0191  0.9849
 5533SOL     OW28234   3.855   3.319   5.562  0.9061  0.0235  0.4378
 5533SOL    HW128235   3.774   3.308   5.513 -0.4806  0.4872  2.5917
 5533SOL    HW228236   3.895   3.233   5.573  0.0223 -0.4206  0.1481
 5534SOL     OW28237   4.552   0.870  11.190  0.1860  0.3009  0.0960
 5534SOL    HW128238   4.539   0.952  11.143 -0.1681  0.5065  0.5512
 5534SOL    HW228239   4.640   0.860  11.156 -0.3669  1.3098 -1.6376
 5535SOL     OW28240   4.573   2.514  11.163  0.3773 -0.2894 -0.0005
 5535SOL    HW128241   4.560   2.464  11.083 -2.5144 -0.8043  0.8137
 5535SOL    HW228242   4.487   2.527  11.202  0.8330  1.4246  0.4307
 5536SOL     OW28243   2.652   1.011   9.087  1.0381  0.2519  0.0335
 5536SOL    HW128244   2.627   0.935   9.140 -0.8432 -1.3478 -3.1168
 5536SOL    HW228245   2.674   0.962   9.007 -2.1931 -0.0564 -0.6963
 5537SOL     OW28246   0.184   4.577   2.070  0.5019  0.2594 -0.2729
 5537SOL    HW128247   0.267   4.546   2.033 -0.0418 -1.5753  0.0840
 5537SOL    HW228248   0.126   4.506   2.043  1.1609 -1.0868  1.8528
 5538SOL     OW28249   0.018   2.381   8.813  0.2081 -0.0064 -0.2079
 5538SOL    HW128250   0.057   2.442   8.876  0.7501  1.0150 -1.5168
 5538SOL    HW228251   0.086   2.363   8.748  1.7735  0.5399  1.3098
 5539SOL     OW28252   0.511   1.272   6.147  0.5550  0.6323  0.2316
 5539SOL    HW128253   0.585   1.323   6.114  0.3458 -0.3666 -1.7329
 5539SOL    HW228254   0.563   1.210   6.199  0.1561  1.9578  2.1944
 5540SOL     OW28255   2.489   3.102  13.025 -0.1972 -0.6342  0.2051
 5540SOL    HW128256   2.565   3.066  13.071 -0.0424  0.7218  1.0062
 5540SOL    HW228257   2.421   3.080  13.088 -1.1503 -0.0092 -0.6027
 5541SOL     OW28258   3.083   2.408   7.600 -0.4730 -0.6881  0.1895
 5541SOL    HW128259   3.179   2.409   7.609 -0.5402  0.2718  0.8051
 5541SOL    HW228260   3.064   2.435   7.689 -0.7760  1.9712 -0.6633
 5542SOL     OW28261   4.548   4.016   6.118  0.2500  0.5242  0.1490
 5542SOL    HW128262   4.594   3.933   6.131 -1.8562 -1.0388 -2.1877
 5542SOL    HW228263   4.609   4.072   6.071 -2.3694  0.7443 -3.0216
 5543SOL     OW28264   0.425   0.207  10.770  0.4182  0.0709  0.2896
 5543SOL    HW128265   0.408   0.249  10.685  1.2162  2.1656  1.1832
 5543SOL    HW228266   0.427   0.289  10.819 -2.4362  0.4061 -0.1397
 5544SOL     OW28267   3.859   1.935  10.003  0.3437 -0.0945 -0.3259
 5544SOL    HW128268   3.860   1.962  10.095 -1.3638 -0.1918 -0.2619
 5544SOL    HW228269   3.878   2.016   9.955  2.2808 -0.0212  0.5835
 5545SOL     OW28270   4.602   2.572   3.236 -0.7282 -0.5716  0.7275
 5545SOL    HW128271   4.612   2.655   3.189 -0.3526 -1.3332 -0.5370
 5545SOL    HW228272   4.683   2.526   3.212 -0.0235  1.1149 -0.0960
 5546SOL     OW28273   1.644   3.142   7.926  0.2787  0.3677  0.4490
 5546SOL    HW128274   1.726   3.186   7.903 -0.8305  3.0834  1.7245
 5546SOL    HW228275   1.590   3.161   7.850 -0.5096  0.7858  1.1208
 5547SOL     OW28276   2.935   4.013   2.985 -0.2886 -0.0559 -0.1198
 5547SOL    HW128277   2.866   3.946   2.992  0.1600 -0.4413  0.6358
 5547SOL    HW228278   2.983   3.979   2.910 -1.5092 -0.9732 -0.4924
 5548SOL     OW28279   0.536   2.774   9.099  0.4484  0.1835  0.5713
 5548SOL    HW128280   0.574   2.804   9.181 -1.7009 -0.3689  1.7657
 5548SOL    HW228281   0.456   2.827   9.096  0.2945 -0.0554  0.4206
 5549SOL     OW28282   1.213   3.070  12.865  0.7049  0.3984 -0.0747
 5549SOL    HW128283   1.241   3.161  12.861  0.9474  0.3673  0.9641
 5549SOL    HW228284   1.242   3.033  12.781 -0.1797 -0.8150  0.1574
 5550SOL     OW28285   3.537   3.152  14.287 -0.5542 -0.0959 -0.4196
 5550SOL    HW128286   3.472   3.180  14.223 -1.2496 -0.7903 -0.0194
 5550SOL    HW228287   3.493   3.179  14.368 -0.4458 -0.1307 -0.3489
 5551SOL     OW28288   1.046   0.984  14.626  0.2279  0.2704 -0.5084
 5551SOL    HW128289   1.108   0.950  14.562  2.0523  0.4513  1.1441
 5551SOL    HW228290   0.973   1.012  14.571 -0.7600 -0.1323  0.6027
 5552SOL     OW28291   1.371   2.354   6.079  0.6909  0.3811  0.0408
 5552SOL    HW128292   1.384   2.350   6.174  0.8859 -2.7580 -0.1227
 5552SOL    HW228293   1.432   2.424   6.057 -0.7743  1.0798 -1.7370
 5553SOL     OW28294   4.252   2.555  11.223  0.4700  0.3867 -0.4915
 5553SOL    HW128295   4.210   2.641  11.226  0.0426  0.0381  2.7277
 5553SOL    HW228296   4.206   2.513  11.295 -2.4339  3.2637 -0.6533
 5554SOL     OW28297   2.410   1.062   7.076 -0.3961 -0.6984 -0.1149
 5554SOL    HW128298   2.423   0.973   7.045  1.8770 -1.5028  3.0943
 5554SOL    HW228299   2.389   1.107   6.995 -0.2225 -0.5834 -0.0960
 5555SOL     OW28300   2.858   1.127   4.039 -0.4494 -0.6972  0.0065
 5555SOL    HW128301   2.906   1.188   4.095 -2.0117  1.9984 -1.5721
 5555SOL    HW228302   2.829   1.071   4.112  0.0093 -0.3021  0.4945
 5556SOL     OW28303   1.562   1.896   4.895 -0.7325 -0.1255  0.5814
 5556SOL    HW128304   1.603   1.981   4.908  0.1045 -0.0130 -2.9142
 5556SOL    HW228305   1.515   1.893   4.979  2.4678  1.0925  2.4085
 5557SOL     OW28306   2.404   2.905  10.814  0.3173 -0.4931 -0.1308
 5557SOL    HW128307   2.468   2.951  10.868 -0.4654  0.5908 -0.1421
 5557SOL    HW228308   2.443   2.927  10.730  0.0894 -2.4588 -0.7544
 5558SOL     OW28309   3.945   0.185   7.271  0.2310 -0.0922  0.1680
 5558SOL    HW128310   3.999   0.259   7.245 -0.3977 -0.2782 -1.6376
 5558SOL    HW228311   3.942   0.223   7.359 -0.8592  0.1099  0.0415
 5559SOL     OW28312   4.440   2.616   5.912 -0.1167 -0.2578 -0.5127
 5559SOL    HW128313   4.513   2.556   5.925  0.1062 -0.6041 -3.2890
 5559SOL    HW228314   4.437   2.615   5.816 -0.4274  0.8569 -0.5168
 5560SOL     OW28315   3.838   2.232   5.747 -0.1866  0.2618  0.0041
 5560SOL    HW128316   3.778   2.243   5.821 -0.4756  0.4904 -0.2630
 5560SOL    HW228317   3.879   2.318   5.733  1.4507 -0.5369 -0.0914
 5561SOL     OW28318   0.397   2.116   0.511  0.2464 -0.2684 -0.2050
 5561SOL    HW128319   0.388   2.046   0.446  3.8486  0.0639 -1.0747
 5561SOL    HW228320   0.462   2.174   0.470 -0.4430 -0.0027 -0.9166
 5562SOL     OW28321   0.085   2.811   5.743  0.0439 -0.4963 -0.2350
 5562SOL    HW128322   0.053   2.746   5.805 -2.6057  0.4404 -0.6540
 5562SOL    HW228323   0.157   2.851   5.793 -0.3900  1.1063 -0.9073
 5563SOL     OW28324   0.531   4.009   3.146  0.4932 -0.1970  0.1019
 5563SOL    HW128325   0.497   3.971   3.227  3.5272 -1.5713  0.7239
 5563SOL    HW228326   0.448   4.008   3.098 -1.0965 -0.3367  2.8294
 5564SOL     OW28327   0.655   1.234  15.448  0.4239  0.1253  0.3213
 5564SOL    HW128328   0.679   1.293  15.519 -1.2868 -0.0610  1.0497
 5564SOL    HW228329   0.579   1.194  15.489  1.8554 -1.4595  1.4169
 5565SOL     OW28330   3.508   0.940  12.536 -0.1386  0.7003 -0.0563
 5565SOL    HW128331   3.580   0.881  12.558  0.9923  1.3300 -2.1177
 5565SOL    HW228332   3.534   1.022  12.579  3.6597  0.1203 -1.3306
 5566SOL     OW28333   0.602   3.680   7.998  0.0146 -0.1150 -0.0544
 5566SOL    HW128334   0.618   3.766   7.959  1.3204 -0.1569  0.3585
 5566SOL    HW228335   0.552   3.637   7.930 -0.1312 -0.4801  0.2831
 5567SOL     OW28336   3.918   2.554   4.453 -0.0325  0.3096 -0.0396
 5567SOL    HW128337   3.979   2.493   4.493  1.3365  1.9413  0.3711
 5567SOL    HW228338   3.950   2.567   4.364  0.7884 -1.2085  0.0442
 5568SOL     OW28339   3.465   0.044   2.244 -0.1104 -0.1786  0.2448
 5568SOL    HW128340   3.480   0.069   2.153 -0.3992  3.0790  1.0909
 5568SOL    HW228341   3.549   0.013   2.279 -1.0515 -1.3669  1.4315
 5569SOL     OW28342   3.399   3.398   3.610 -0.3140 -0.5051  0.0007
 5569SOL    HW128343   3.464   3.449   3.657  1.3497 -1.0944 -1.6882
 5569SOL    HW228344   3.436   3.410   3.523  0.4199  1.2394  0.5593
 5570SOL     OW28345   1.667   2.046   1.889 -0.0598 -0.2883 -0.9469
 5570SOL    HW128346   1.692   1.954   1.896  1.2449  0.0684 -0.9002
 5570SOL    HW228347   1.690   2.072   1.800  0.6199 -1.1952 -1.0310
 5571SOL     OW28348   2.792   1.117   9.500 -0.2188 -0.6933 -0.0117
 5571SOL    HW128349   2.831   1.041   9.542  1.2464 -0.6808 -1.3739
 5571SOL    HW228350   2.830   1.104   9.413  0.8310 -0.2449  0.3816
 5572SOL     OW28351   4.208   0.613  17.342 -0.3622 -0.3742 -0.5672
 5572SOL    HW128352   4.210   0.705  17.315  2.0150 -0.0248  0.8215
 5572SOL    HW228353   4.212   0.564  17.260 -1.4134 -1.3537 -0.0272
 5573SOL     OW28354   1.123   2.358  14.982  0.1443 -0.0778  0.2626
 5573SOL    HW128355   1.189   2.344  14.914 -0.0398 -1.1546  0.3016
 5573SOL    HW228356   1.066   2.425  14.943 -0.7242 -2.2102 -2.0889
 5574SOL     OW28357   1.383   1.296   9.229  0.4143 -0.6076 -0.3285
 5574SOL    HW128358   1.364   1.386   9.255 -1.0975 -0.4855 -1.8029
 5574SOL    HW228359   1.470   1.276   9.262 -0.1675 -0.3047  1.4055
 5575SOL     OW28360   4.143   4.197   3.584  0.3158  0.1176 -0.1435
 5575SOL    HW128361   4.064   4.143   3.577 -0.5381  1.2809  0.4061
 5575SOL    HW228362   4.150   4.200   3.679  0.3575 -0.5624 -0.1274
 5576SOL     OW28363   0.726   2.272   5.317  0.5068 -0.6157  0.2675
 5576SOL    HW128364   0.742   2.194   5.369 -1.7214 -1.5272 -0.4242
 5576SOL    HW228365   0.649   2.240   5.270 -0.5472 -1.5963  2.6819
 5577SOL     OW28366   4.027   3.167   8.352  0.5414  0.3876  0.0756
 5577SOL    HW128367   3.972   3.092   8.329 -0.4468  1.3065 -0.5678
 5577SOL    HW228368   3.957   3.228   8.330  1.1357  0.4527 -1.6179
 5578SOL     OW28369   2.687   4.083   1.372 -0.2516  0.3074 -0.5189
 5578SOL    HW128370   2.641   4.094   1.454  0.8195 -0.1048  0.1471
 5578SOL    HW228371   2.756   4.149   1.381  2.1124 -2.2707  0.3107
 5579SOL     OW28372   1.129   3.168   7.909  0.2614  0.1092 -0.1599
 5579SOL    HW128373   1.050   3.126   7.944  0.4497  1.1501  1.5123
 5579SOL    HW228374   1.174   3.192   7.990 -0.0898 -0.2127  0.1326
 5580SOL     OW28375   3.677   0.641   2.603 -0.5935 -0.0456 -0.1803
 5580SOL    HW128376   3.699   0.549   2.593 -2.4041 -0.5186  0.2047
 5580SOL    HW228377   3.671   0.660   2.509  1.3544  1.3763 -0.0369
 5581SOL     OW28378   2.050   3.847  16.795  0.2762 -0.6957  0.1450
 5581SOL    HW128379   1.996   3.791  16.850  1.1656 -0.1642  1.5870
 5581SOL    HW228380   1.989   3.919  16.779 -0.5586 -1.6273 -0.8245
 5582SOL     OW28381   2.328   0.321   1.355  0.2127 -0.0594 -0.0597
 5582SOL    HW128382   2.354   0.405   1.393  0.6265 -0.9808  1.7223
 5582SOL    HW228383   2.399   0.264   1.384  0.4556  0.8081  1.0501
 5583SOL     OW28384   0.892   3.100   6.164 -0.2186  0.3647 -0.0935
 5583SOL    HW128385   0.913   3.113   6.257  1.7299 -1.4762 -0.2795
 5583SOL    HW228386   0.952   3.028   6.144 -0.6648 -0.3129  0.9855
 5584SOL     OW28387   0.625   0.308   3.651 -0.0464 -0.7329  0.1779
 5584SOL    HW128388   0.574   0.331   3.573  0.9701 -0.7093 -0.4764
 5584SOL    HW228389   0.570   0.237   3.682 -0.6496 -0.8334 -1.1154
 5585SOL     OW28390   3.589   3.548   3.706  0.1229  0.0812  0.4487
 5585SOL    HW128391   3.584   3.643   3.697 -0.8910  0.1108  1.3335
 5585SOL    HW228392   3.673   3.534   3.662 -0.1471  2.8768 -0.9608
 5586SOL     OW28393   1.873   2.987   3.668  0.5808  0.5889  0.2718
 5586SOL    HW128394   1.864   3.076   3.634 -1.4290 -0.1563 -1.1530
 5586SOL    HW228395   1.887   2.940   3.585 -1.1416 -0.3978  0.5413
 5587SOL     OW28396   4.065   3.395   4.369 -0.0159  0.0111 -0.0830
 5587SOL    HW128397   4.134   3.329   4.359 -0.2687 -0.0869 -1.2219
 5587SOL    HW228398   3.997   3.341   4.409  0.7374 -1.8319 -1.2680
 5588SOL     OW28399   4.367   4.729  17.645 -0.8663 -0.2131 -0.3796
 5588SOL    HW128400   4.373   0.014  17.738  2.3738 -0.5564 -0.5325
 5588SOL    HW228401   4.365   4.634  17.655 -0.8050 -0.1340  0.3796
 5589SOL     OW28402   0.090   1.404   1.763 -0.4079  0.3438  0.0478
 5589SOL    HW128403   0.080   1.327   1.820 -1.4101  0.8438  0.5450
 5589SOL    HW228404   0.141   1.367   1.691 -0.3756 -0.4010  0.4504
 5590SOL     OW28405   0.147   4.655   3.923 -0.2157 -0.2865  0.1188
 5590SOL    HW128406   0.105   4.659   3.837 -1.3564  1.0044  0.7295
 5590SOL    HW228407   0.192   4.571   3.919  0.1744 -0.1223  0.9376
 5591SOL     OW28408   3.821   3.620   7.819  0.0819 -1.0299 -0.4027
 5591SOL    HW128409   3.844   3.541   7.769  0.4277 -1.6337  0.7038
 5591SOL    HW228410   3.888   3.623   7.888 -1.5290 -0.0209  1.1193
 5592SOL     OW28411   2.989   4.338   4.458 -0.3244  0.7218 -0.2674
 5592SOL    HW128412   2.969   4.256   4.412  0.6136  0.5970 -0.4488
 5592SOL    HW228413   3.073   4.368   4.422 -0.5129 -0.7164 -1.8743
 5593SOL     OW28414   1.152   4.094   5.747 -0.1261 -0.4176 -0.1184
 5593SOL    HW128415   1.064   4.055   5.748  0.4455 -1.7100 -1.1110
 5593SOL    HW228416   1.126   4.186   5.751  0.4040 -0.2357 -0.9412
 5594SOL     OW28417   3.685   2.469   6.100  0.0914 -0.1904 -0.3654
 5594SOL    HW128418   3.769   2.460   6.145  1.4607 -1.0205 -3.0620
 5594SOL    HW228419   3.700   2.544   6.042  2.9057 -2.2232 -2.2661
 5595SOL     OW28420   1.092   3.822  13.241 -0.5485  0.0091  0.0113
 5595SOL    HW128421   1.005   3.806  13.203 -0.2772  0.9620 -1.0230
 5595SOL    HW228422   1.087   3.915  13.218 -0.4205  0.0938  0.3404
 5596SOL     OW28423   4.717   1.642  12.776 -0.0845  0.2493  0.2379
 5596SOL    HW128424   0.046   1.648  12.846  0.2319 -0.1119 -0.0179
 5596SOL    HW228425   4.673   1.558  12.786  1.7067 -0.8012 -0.6273
 5597SOL     OW28426   2.300   0.921   7.556  0.2147 -0.5736  0.4951
 5597SOL    HW128427   2.374   0.900   7.612  1.5530  0.3903 -0.9274
 5597SOL    HW228428   2.270   0.831   7.539 -2.2727  0.6795 -1.7544
 5598SOL     OW28429   1.074   4.261   4.072 -0.8329  0.3426 -0.0550
 5598SOL    HW128430   1.017   4.290   4.001 -2.3020 -0.8698  0.6561
 5598SOL    HW228431   1.132   4.338   4.066  1.8370 -1.6183  0.5889
 5599SOL     OW28432   4.525   3.515   9.730 -0.0964  0.3946 -0.0511
 5599SOL    HW128433   4.540   3.430   9.691  0.9422  0.9485 -0.8606
 5599SOL    HW228434   4.602   3.510   9.788  0.8034  0.4257 -1.2466
 5600SOL     OW28435   2.459   2.295   7.241 -0.1512 -0.5079  0.1850
 5600SOL    HW128436   2.517   2.347   7.296 -0.1626  1.4816 -1.6773
 5600SOL    HW228437   2.521   2.276   7.171 -3.2354 -0.7322 -2.5371
 5601SOL     OW28438   1.444   0.081   4.423 -0.1208 -0.4379 -0.0462
 5601SOL    HW128439   1.512   0.075   4.357 -0.0387  1.2626 -0.1185
 5601SOL    HW228440   1.487   0.059   4.506  0.6841 -1.1798 -0.6695
 5602SOL     OW28441   0.100   1.690  17.498 -0.6847  0.3588 -0.3048
 5602SOL    HW128442   0.035   1.630  17.535 -1.6766  2.5084  1.4292
 5602SOL    HW228443   0.142   1.715  17.580  0.6974  1.2240 -1.2696
 5603SOL     OW28444   0.852   2.768   3.966  0.4902  0.2874  0.4236
 5603SOL    HW128445   0.788   2.725   4.023  0.5238 -0.4792 -0.1248
 5603SOL    HW228446   0.797   2.756   3.889 -1.4973 -0.0439  1.9001
 5604SOL     OW28447   0.856   4.559   5.304 -0.2750 -0.1184  0.1976
 5604SOL    HW128448   0.785   4.494   5.297 -1.3992  1.4117 -2.8561
 5604SOL    HW228449   0.873   4.553   5.397  1.6271 -0.6920 -0.1908
 5605SOL     OW28450   4.359   2.248  15.896  0.6669  0.2899 -0.0561
 5605SOL    HW128451   4.325   2.313  15.957  3.7282  0.9886  0.9113
 5605SOL    HW228452   4.445   2.231  15.933  0.2322 -1.7846 -0.0331
 5606SOL     OW28453   0.873   3.113  15.811  0.3582  0.3230 -0.6916
 5606SOL    HW128454   0.849   3.203  15.789  2.7801  1.1649  0.1026
 5606SOL    HW228455   0.787   3.079  15.835  0.2900 -0.0218 -1.4279
 5607SOL     OW28456   2.876   0.768   2.598 -0.5495  0.0803 -0.5020
 5607SOL    HW128457   2.918   0.683   2.612 -1.1738 -0.4085 -1.6168
 5607SOL    HW228458   2.930   0.800   2.525  0.0154 -0.1365 -0.1805
 5608SOL     OW28459   1.218   1.098   4.910 -0.2679 -0.5000  0.2216
 5608SOL    HW128460   1.134   1.114   4.953 -1.1698  0.5982 -1.9274
 5608SOL    HW228461   1.182   1.074   4.824  0.0748 -0.3062  0.0235
 5609SOL     OW28462   0.692   3.358   6.578 -0.1806 -0.6568 -0.1989
 5609SOL    HW128463   0.673   3.444   6.540  0.0378 -0.3989  0.2807
 5609SOL    HW228464   0.650   3.305   6.509  0.3788 -2.2289  0.6873
 5610SOL     OW28465   1.031   4.117   0.488 -0.2381  0.0903  0.0182
 5610SOL    HW128466   1.001   4.065   0.413 -1.1559 -0.3794  0.7060
 5610SOL    HW228467   1.112   4.072   0.512  0.0077  0.3914 -0.2473
 5611SOL     OW28468   3.745   2.909  17.615  0.2634  0.0198  0.0326
 5611SOL    HW128469   3.815   2.848  17.639 -1.1773 -2.1843 -1.3041
 5611SOL    HW228470   3.674   2.881  17.674  0.4675 -0.7318 -0.0791
 5612SOL     OW28471   1.553   3.153   6.807  0.2107 -0.2212  0.0989
 5612SOL    HW128472   1.518   3.065   6.821  2.5159 -0.6313  3.3663
 5612SOL    HW228473   1.577   3.148   6.714  0.9371 -3.0575  0.4395
 5613SOL     OW28474   0.460   1.885  14.440 -0.3451  0.0112 -0.0039
 5613SOL    HW128475   0.459   1.966  14.492 -0.7842  0.7604 -1.1834
 5613SOL    HW228476   0.452   1.914  14.349  0.7203  0.5802  0.0772
 5614SOL     OW28477   3.299   3.027   7.646 -0.4953 -0.4653 -0.1813
 5614SOL    HW128478   3.265   3.097   7.591 -0.3404 -1.2723 -1.2927
 5614SOL    HW228479   3.213   2.999   7.678  0.6343 -1.6819  1.7944
 5615SOL     OW28480   4.160   2.200  17.426 -0.2329  0.6850 -0.3354
 5615SOL    HW128481   4.068   2.213  17.445 -0.4554 -1.0958 -0.1635
 5615SOL    HW228482   4.184   2.292  17.415 -1.0189  1.3667  3.4816
 5616SOL     OW28483   2.258   2.699  15.921  0.2216 -0.4676 -0.0712
 5616SOL    HW128484   2.197   2.773  15.919 -0.6774 -1.2393 -1.6144
 5616SOL    HW228485   2.334   2.747  15.888 -0.6324 -2.0252 -4.3070
 5617SOL     OW28486   0.355   0.438   2.737 -0.0486  0.3932 -0.1574
 5617SOL    HW128487   0.443   0.450   2.773 -0.6173  1.8539  0.7119
 5617SOL    HW228488   0.363   0.474   2.648  3.5358  1.1386  0.4516
 5618SOL     OW28489   2.898   1.591   2.334  0.3102 -0.0543  0.0120
 5618SOL    HW128490   2.917   1.683   2.350 -0.9406  0.5805 -2.1012
 5618SOL    HW228491   2.871   1.590   2.242 -2.4868  1.3498  0.8232
 5619SOL     OW28492   1.274   2.506   5.730 -0.0078  0.5358 -0.5537
 5619SOL    HW128493   1.351   2.481   5.781  0.1183 -0.8174 -1.3869
 5619SOL    HW228494   1.220   2.536   5.802  0.0356  1.2811 -0.8376
 5620SOL     OW28495   4.405   1.792  13.689 -0.1325  0.5066  0.2066
 5620SOL    HW128496   4.447   1.846  13.622 -0.5769 -0.2305 -0.6631
 5620SOL    HW228497   4.479   1.762  13.742  0.0422 -3.2932 -2.1386
 5621SOL     OW28498   2.733   4.374  16.870  0.4715  0.0938 -0.1132
 5621SOL    HW128499   2.814   4.412  16.836 -0.1342  2.3606  0.9203
 5621SOL    HW228500   2.715   4.309  16.803  1.8454 -1.3048  0.8770
 5622SOL     OW28501   0.771   0.169   7.287  0.5348 -0.3215  0.0650
 5622SOL    HW128502   0.722   0.227   7.229  1.8265  0.7178 -0.0128
 5622SOL    HW228503   0.705   0.101   7.290 -0.3272  0.4729 -0.9545
 5623SOL     OW28504   3.944   0.585   7.146  0.0265  0.3352 -0.7821
 5623SOL    HW128505   4.019   0.527   7.127 -0.9009 -0.4078 -2.2102
 5623SOL    HW228506   3.881   0.514   7.156  0.1515  0.6016  1.6747
 5624SOL     OW28507   0.144   1.511  15.452  0.3617  0.0973  0.2471
 5624SOL    HW128508   0.188   1.519  15.367 -0.3505 -0.9994 -0.2247
 5624SOL    HW228509   0.120   1.420  15.440  1.1532  0.1189 -1.6630
 5625SOL     OW28510   0.148   3.075  12.370 -0.5631  0.4924  0.2266
 5625SOL    HW128511   0.240   3.101  12.371 -0.6380  0.7400  1.3461
 5625SOL    HW228512   0.141   3.024  12.451  0.6180 -0.9315 -0.5622
 5626SOL     OW28513   3.944   3.640   5.193 -0.6891  0.0957 -0.1602
 5626SOL    HW128514   3.882   3.711   5.206 -1.5022 -0.7573  0.6475
 5626SOL    HW228515   4.018   3.691   5.161  0.3310 -0.9138  0.6000
 5627SOL     OW28516   1.497   0.368   4.429 -0.4159 -0.0039  0.1316
 5627SOL    HW128517   1.453   0.284   4.445  1.4137 -0.8037  1.0037
 5627SOL    HW228518   1.583   0.329   4.411 -0.1422  1.4600 -1.6865
 5628SOL     OW28519   1.961   1.004   3.406  0.5354 -0.3001  0.3214
 5628SOL    HW128520   2.028   1.031   3.469  1.3338 -0.7424 -0.3280
 5628SOL    HW228521   2.000   1.041   3.326 -0.4806 -0.8851 -0.4402
 5629SOL     OW28522   0.286   4.641   7.859 -0.0672  0.1648  0.3976
 5629SOL    HW128523   0.293   4.645   7.955 -1.9333  3.0666  0.3768
 5629SOL    HW228524   0.363   4.590   7.832 -0.8151  0.9492 -3.1754
 5630SOL     OW28525   2.673   3.816   5.218  0.2095  0.0614 -0.2307
 5630SOL    HW128526   2.767   3.831   5.211  0.2828  0.1503  0.9216
 5630SOL    HW228527   2.653   3.881   5.286  3.1729  0.4148  0.2896
 5631SOL     OW28528   4.726   4.124   8.416  0.0308 -0.0834  0.4482
 5631SOL    HW128529   4.668   4.197   8.397  0.2939 -0.0272 -0.1380
 5631SOL    HW228530   0.040   4.168   8.485 -0.3230  0.1662  0.5391
 5632SOL     OW28531   2.925   1.009  12.928 -0.5003  0.0887 -0.1872
 5632SOL    HW128532   2.877   0.962  12.995  0.9532 -0.0930  0.7095
 5632SOL    HW228533   3.001   1.033  12.981  1.0908  0.9618 -2.8618
 5633SOL     OW28534   1.579   1.026  11.831  0.0896  0.5678 -0.3896
 5633SOL    HW128535   1.558   0.938  11.800  1.2843  0.8900 -2.0656
 5633SOL    HW228536   1.544   1.009  11.919 -1.8958 -1.3304 -1.5329
 5634SOL     OW28537   1.450   2.249   8.231 -0.5544 -0.5334 -0.1049
 5634SOL    HW128538   1.513   2.258   8.160 -0.3785  0.6915  0.2090
 5634SOL    HW228539   1.371   2.280   8.189  0.3939  1.6846 -0.2476
 5635SOL     OW28540   0.527   2.761  10.637 -0.0811  0.3182  0.5239
 5635SOL    HW128541   0.468   2.813  10.691 -0.7647 -0.9548  1.0187
 5635SOL    HW228542   0.615   2.783  10.666  0.3799 -0.7877 -0.0398
 5636SOL     OW28543   3.417   0.782   1.811 -0.7242  0.3801 -1.0028
 5636SOL    HW128544   3.363   0.855   1.783 -2.9477 -1.2210 -0.9351
 5636SOL    HW228545   3.506   0.814   1.823 -1.1201 -0.3441  4.0986
 5637SOL     OW28546   3.026   4.036   5.740 -0.7942  0.1365 -0.5020
 5637SOL    HW128547   3.103   4.033   5.683 -3.4203  1.0926 -4.1078
 5637SOL    HW228548   3.059   3.968   5.799  1.1784  1.4976 -0.0120
 5638SOL     OW28549   2.054   1.033   2.800 -0.8633 -0.0934 -0.2938
 5638SOL    HW128550   2.098   0.949   2.787 -2.2911 -0.9317  0.4102
 5638SOL    HW228551   2.028   1.014   2.890  1.5926 -0.6769  0.2989
 5639SOL     OW28552   0.429   1.134  15.588 -0.1924 -0.4316  0.5176
 5639SOL    HW128553   0.362   1.110  15.524 -1.0244  3.2872  0.0048
 5639SOL    HW228554   0.415   1.072  15.659  1.1275 -1.6303 -0.2718
 5640SOL     OW28555   3.475   3.627  14.737 -0.3436 -0.3613  0.2169
 5640SOL    HW128556   3.487   3.608  14.644 -1.7256  0.2533 -0.0899
 5640SOL    HW228557   3.381   3.617  14.756 -0.2932 -0.1956  0.5576
 5641SOL     OW28558   4.596   1.472   5.839  0.4913 -0.2625  0.2422
 5641SOL    HW128559   4.526   1.520   5.884  0.2186  0.2522 -0.7298
 5641SOL    HW228560   4.559   1.383   5.838 -1.3113  0.4778  0.1999
 5642SOL     OW28561   0.748   3.326   2.200  0.2455 -0.5974  0.4852
 5642SOL    HW128562   0.833   3.370   2.201 -0.9546  1.8043 -1.2010
 5642SOL    HW228563   0.755   3.285   2.286 -0.3396 -0.6312  0.5168
 5643SOL     OW28564   2.881   1.217   2.547 -0.1393 -0.2451 -0.1014
 5643SOL    HW128565   2.918   1.229   2.460 -0.8912  2.1083 -0.0922
 5643SOL    HW228566   2.961   1.179   2.584  0.1875 -0.8539 -1.4390
 5644SOL     OW28567   4.139   2.156   3.724 -0.3995 -0.0553 -0.1087
 5644SOL    HW128568   4.064   2.200   3.764 -0.9136 -0.4398 -0.6377
 5644SOL    HW228569   4.196   2.117   3.789 -0.0326  0.3517 -0.1889
 5645SOL     OW28570   0.172   0.175   6.131 -0.1712 -0.3769  0.1118
 5645SOL    HW128571   0.165   0.198   6.223 -0.8386  0.2989 -0.1007
 5645SOL    HW228572   0.241   0.236   6.106 -0.1731 -0.2289  0.4685
 5646SOL     OW28573   4.275   0.680   6.140 -0.2305  0.4888  0.2482
 5646SOL    HW128574   4.239   0.754   6.188 -0.5841 -0.1168  0.9168
 5646SOL    HW228575   4.367   0.704   6.130  0.1955 -1.0454  0.4374
 5647SOL     OW28576   2.353   2.935  12.316  0.4611 -0.2060  0.5462
 5647SOL    HW128577   2.432   2.906  12.362  1.1036 -1.5456 -1.4221
 5647SOL    HW228578   2.327   3.018  12.355 -0.2057  0.8476 -2.1401
 5648SOL     OW28579   2.551   2.599   2.220  0.1850  0.4992  0.3527
 5648SOL    HW128580   2.619   2.653   2.181  0.7290 -0.0747  0.5117
 5648SOL    HW228581   2.595   2.515   2.232  0.5907  0.5121 -0.9918
 5649SOL     OW28582   1.598   1.683   8.380 -0.0206 -0.5156 -0.0033
 5649SOL    HW128583   1.608   1.674   8.474  0.3520 -2.0074 -0.1861
 5649SOL    HW228584   1.624   1.774   8.368 -3.6375  0.5202  0.0628
 5650SOL     OW28585   2.192   3.072   7.988 -0.0328  0.0985 -0.0771
 5650SOL    HW128586   2.282   3.039   7.985 -1.0966 -2.7619 -0.4745
 5650SOL    HW228587   2.213   3.160   7.957  1.8013  0.5612  2.4819
 5651SOL     OW28588   1.618   0.106  11.154 -0.2375  0.1833 -0.4947
 5651SOL    HW128589   1.629   0.165  11.229  1.7906  0.7348 -1.2218
 5651SOL    HW228590   1.523   0.103  11.165  0.0991  1.9483  2.8908
 5652SOL     OW28591   1.169   2.288   9.307 -0.1172 -0.5162 -0.0604
 5652SOL    HW128592   1.260   2.318   9.301  0.2369 -1.5588  0.1550
 5652SOL    HW228593   1.166   2.233   9.385 -1.5757  0.4693  0.5653
 5653SOL     OW28594   0.544   1.881   1.437  0.0151  0.1863  0.1563
 5653SOL    HW128595   0.620   1.929   1.404  0.7344 -0.7671  0.4422
 5653SOL    HW228596   0.571   1.858   1.525  2.1419  0.9151 -0.3149
 5654SOL     OW28597   1.980   3.262   2.937 -0.5499 -0.3337  0.0776
 5654SOL    HW128598   2.055   3.320   2.943  0.4070 -1.6071  0.6088
 5654SOL    HW228599   1.998   3.195   3.004 -1.7199 -0.9938 -0.2646
 5655SOL     OW28600   1.234   3.620  13.551  0.1288  0.5436 -0.0011
 5655SOL    HW128601   1.242   3.714  13.538  0.8729  0.1254 -2.5468
 5655SOL    HW228602   1.145   3.626  13.586 -0.3035  1.0512 -1.1788
 5656SOL     OW28603   1.294   3.437   1.093 -0.0664  0.1353 -0.4705
 5656SOL    HW128604   1.226   3.369   1.093 -0.4721  0.5456 -0.6183
 5656SOL    HW228605   1.287   3.468   1.003  0.2332  1.4234 -0.0459
 5657SOL     OW28606   4.099   2.466   1.897  0.3898 -0.5782  0.5339
 5657SOL    HW128607   4.106   2.526   1.823  1.7686  0.1032  1.1984
 5657SOL    HW228608   4.098   2.521   1.976  0.9450 -0.3247  0.3636
 5658SOL     OW28609   2.550   1.164  15.207 -0.2103  0.3011  0.0090
 5658SOL    HW128610   2.532   1.258  15.205 -2.7177 -0.1972 -0.8399
 5658SOL    HW228611   2.627   1.165  15.264  0.5404 -0.9214 -0.9879
 5659SOL     OW28612   4.273   2.876   6.852  0.0976 -0.2021 -0.4517
 5659SOL    HW128613   4.286   2.968   6.876 -1.9712  0.5903 -2.3732
 5659SOL    HW228614   4.365   2.847   6.857  0.0415 -0.3012  0.0483
 5660SOL     OW28615   3.315   3.660   4.030  0.2538 -0.1870  0.0386
 5660SOL    HW128616   3.277   3.724   4.090  0.3713  0.4848 -0.6090
 5660SOL    HW228617   3.238   3.613   3.998 -1.8154  1.9097  1.9261
 5661SOL     OW28618   3.032   3.297  15.723 -0.5442 -0.1385  0.4473
 5661SOL    HW128619   3.089   3.366  15.755 -2.3412  1.4272  0.2561
 5661SOL    HW228620   3.027   3.233  15.794  2.8068  0.3120  1.0948
 5662SOL     OW28621   1.536   0.176  11.683 -0.2798  0.4675  0.3492
 5662SOL    HW128622   1.545   0.173  11.779 -1.3754 -0.6344  0.4067
 5662SOL    HW228623   1.553   0.092  11.642 -1.9014 -1.0135  2.7290
 5663SOL     OW28624   1.817   0.805   1.060 -0.2142 -0.3369  0.0894
 5663SOL    HW128625   1.739   0.759   1.092 -0.7197 -0.9136 -2.0175
 5663SOL    HW228626   1.856   0.838   1.141  1.0230 -0.5950 -0.4079
 5664SOL     OW28627   2.784   0.270   2.534 -0.0272  0.1655  0.3466
 5664SOL    HW128628   2.693   0.289   2.559 -0.9345 -0.1311 -2.7737
 5664SOL    HW228629   2.761   0.248   2.444  1.1241  0.7542 -0.0840
 5665SOL     OW28630   4.674   1.356   6.364  1.0200 -0.0602 -0.2978
 5665SOL    HW128631   0.022   1.372   6.410  2.3765 -0.9355 -2.4733
 5665SOL    HW228632   4.644   1.442   6.335  0.7977  0.3293  1.0537
 5666SOL     OW28633   4.244   0.957   5.787  0.4505 -0.4653 -0.8157
 5666SOL    HW128634   4.261   0.977   5.879  2.8686  1.1787 -1.6254
 5666SOL    HW228635   4.306   0.886   5.768  2.1115  0.9566 -0.6682
 5667SOL     OW28636   3.532   0.082  10.253 -0.1431 -0.1538 -0.0959
 5667SOL    HW128637   3.514   0.148  10.320  0.3697 -1.0970  0.9625
 5667SOL    HW228638   3.625   0.065  10.266 -0.4846 -1.2755  0.8694
 5668SOL     OW28639   2.508   4.500   7.392 -0.2823 -0.1361  0.0707
 5668SOL    HW128640   2.585   4.545   7.426 -0.9804  0.9288  0.2572
 5668SOL    HW228641   2.448   4.570   7.368 -1.8924 -0.6742  2.4876
 5669SOL     OW28642   2.342   0.421  12.660 -0.1817 -0.1625 -0.6719
 5669SOL    HW128643   2.250   0.403  12.682 -0.1978  0.3567 -0.3270
 5669SOL    HW228644   2.328   0.511  12.632  0.1854  0.4263  1.0469
 5670SOL     OW28645   4.722   1.180   7.376  0.1589  0.7399  0.0177
 5670SOL    HW128646   0.004   1.180   7.282  1.2571 -1.3857  0.2178
 5670SOL    HW228647   0.077   1.194   7.405 -0.2783 -0.3190  1.8869
 5671SOL     OW28648   0.068   3.726   1.061 -0.0116 -0.0793 -0.3036
 5671SOL    HW128649   0.006   3.673   1.111 -1.9660 -0.1756 -2.7935
 5671SOL    HW228650   0.136   3.667   1.028 -1.1229 -1.1846 -0.6031
 5672SOL     OW28651   2.623   2.664  16.978 -0.2982 -0.3198  0.7567
 5672SOL    HW128652   2.700   2.661  16.921 -1.4048 -3.8105 -0.5458
 5672SOL    HW228653   2.566   2.608  16.926  0.8524  0.8712 -1.7955
 5673SOL     OW28654   3.621   1.618   3.763 -0.5636  0.2527 -0.3188
 5673SOL    HW128655   3.675   1.687   3.801 -1.9829  0.4719  1.2876
 5673SOL    HW228656   3.647   1.625   3.671  1.5310 -0.1079  0.2448
 5674SOL     OW28657   2.179   1.302   2.944 -0.0055  0.4047  0.4308
 5674SOL    HW128658   2.182   1.379   3.000  1.7191  1.1548 -0.7028
 5674SOL    HW228659   2.271   1.287   2.923 -0.4009 -0.6397 -0.5424
 5675SOL     OW28660   2.028   0.962   4.197  0.1005 -0.0917 -0.6811
 5675SOL    HW128661   2.005   0.879   4.238  0.0476  0.0841 -0.3556
 5675SOL    HW228662   1.973   0.964   4.118  1.9598  2.1790 -1.9268
 5676SOL     OW28663   0.552   1.715   6.486  0.1476  0.1941  0.0520
 5676SOL    HW128664   0.553   1.659   6.409  0.9802  0.6957 -0.2895
 5676SOL    HW228665   0.508   1.787   6.442 -1.6550  0.2391  1.9140
 5677SOL     OW28666   0.069   2.568   4.386  0.4355  0.2047 -0.1984
 5677SOL    HW128667   0.072   2.473   4.391 -1.1288  0.1870  0.2637
 5677SOL    HW228668   4.712   2.576   4.366  0.3421  0.1689  0.2179
 5678SOL     OW28669   2.867   0.196   0.497  0.1415 -0.4614  0.0633
 5678SOL    HW128670   2.872   0.181   0.403 -1.7323 -0.9858  0.0488
 5678SOL    HW228671   2.834   0.285   0.486 -0.1917 -0.5261  0.5135
 5679SOL     OW28672   2.350   2.353  11.135  0.4608  0.1058  0.2784
 5679SOL    HW128673   2.293   2.359  11.212 -0.6550 -0.2418 -0.5268
 5679SOL    HW228674   2.422   2.298  11.167 -0.5331  0.1462  2.6485
 5680SOL     OW28675   1.143   3.650   5.376 -0.1548 -0.0695  0.1858
 5680SOL    HW128676   1.061   3.646   5.326  1.9777 -0.8942 -3.2566
 5680SOL    HW228677   1.210   3.676   5.313 -1.1886 -1.1926 -1.3905
 5681SOL     OW28678   0.671   1.965  15.563 -0.6696  0.3308  0.6439
 5681SOL    HW128679   0.667   1.890  15.622  3.0464  0.3453  0.9307
 5681SOL    HW228680   0.707   2.027  15.626  0.9950 -0.8443  0.8358
 5682SOL     OW28681   3.750   0.172   6.865 -0.0646 -0.0101  0.0960
 5682SOL    HW128682   3.781   0.104   6.805 -1.0462 -0.3871  0.0102
 5682SOL    HW228683   3.778   0.135   6.948 -0.1056  1.8839  0.9627
 5683SOL     OW28684   3.533   4.077   2.608  0.3397  0.3277 -0.5754
 5683SOL    HW128685   3.448   4.116   2.629  0.3763  0.4049 -0.5688
 5683SOL    HW228686   3.587   4.105   2.682 -2.3687  2.5774  0.5763
 5684SOL     OW28687   1.000   0.011   3.030 -0.2197 -0.5646  0.4462
 5684SOL    HW128688   1.088   4.714   3.049 -1.1676 -2.7406  1.0989
 5684SOL    HW228689   0.995   4.727   2.937  2.3336 -0.7816  0.3388
 5685SOL     OW28690   0.865   3.796   7.432 -0.4568  0.6709  0.7055
 5685SOL    HW128691   0.835   3.714   7.393  0.6919  0.8352 -0.5407
 5685SOL    HW228692   0.929   3.815   7.363 -0.2825  0.3783  0.7861
 5686SOL     OW28693   4.602   2.650  10.918 -0.3755  0.1183  0.6616
 5686SOL    HW128694   4.586   2.680  11.008 -2.2266 -1.5651  0.8806
 5686SOL    HW228695   4.559   2.565  10.929  0.2946 -0.3552 -0.3772
 5687SOL     OW28696   3.978   0.426  11.588  0.0038 -0.2443  0.3489
 5687SOL    HW128697   3.965   0.433  11.493  2.2670  0.3634  0.0851
 5687SOL    HW228698   3.889   0.396  11.608  1.4625 -2.6135  3.2430
 5688SOL     OW28699   4.026   0.169   2.812  0.0165 -0.0284  0.1573
 5688SOL    HW128700   4.013   0.255   2.772  0.1330  0.0663  0.3266
 5688SOL    HW228701   4.057   0.179   2.902  0.0414  0.3795  0.1016
 5689SOL     OW28702   3.918   3.724  17.259  0.1711  0.2769  0.2459
 5689SOL    HW128703   3.995   3.721  17.316 -0.0071 -2.2538  0.3626
 5689SOL    HW228704   3.847   3.752  17.316  0.8969  2.4954  0.0511
 5690SOL     OW28705   4.149   1.473   7.804  0.4296  0.4262 -0.3336
 5690SOL    HW128706   4.150   1.452   7.897 -0.7238  1.6968 -0.0423
 5690SOL    HW228707   4.205   1.404   7.767  0.7574  0.2770  0.4535
 5691SOL     OW28708   2.674   4.719  11.877  0.5070 -0.3708  0.6236
 5691SOL    HW128709   2.633   4.715  11.790  1.5343 -1.1746  0.1890
 5691SOL    HW228710   2.606   0.033  11.922 -0.1046 -0.6545  0.0122
 5692SOL     OW28711   0.081   3.998   6.558 -0.1681  0.3640  0.2594
 5692SOL    HW128712   0.116   4.049   6.631  0.9997  0.9788 -0.7290
 5692SOL    HW228713   0.050   4.066   6.499  1.4178  2.6951  2.1468
 5693SOL     OW28714   2.374   1.499   9.695 -0.5633 -0.5656  0.3033
 5693SOL    HW128715   2.341   1.420   9.737 -0.4798  0.8948  3.1025
 5693SOL    HW228716   2.449   1.524   9.749 -0.1001 -0.2276 -0.4980
 5694SOL     OW28717   2.866   3.971   3.841 -0.0457 -0.1348 -0.2785
 5694SOL    HW128718   2.897   3.956   3.931  0.2079  1.4859 -0.0838
 5694SOL    HW228719   2.887   3.887   3.802 -2.8381 -1.4633  1.0800
 5695SOL     OW28720   0.115   2.710   7.963  0.0284 -0.1752 -0.4637
 5695SOL    HW128721   0.091   2.786   7.911  0.5612  1.7401  2.0582
 5695SOL    HW228722   0.029   2.679   7.991 -0.3072 -0.3305 -1.7006
 5696SOL     OW28723   0.481   1.033   7.747  0.0308  0.1161 -0.2614
 5696SOL    HW128724   0.500   1.015   7.839  1.3944  1.9860 -0.1670
 5696SOL    HW228725   0.407   0.975   7.733 -0.8267  1.2282 -0.3689
 5697SOL     OW28726   0.555   1.514   7.153  0.4212 -0.2217 -0.2549
 5697SOL    HW128727   0.629   1.522   7.213  0.8298 -0.7659 -0.6840
 5697SOL    HW228728   0.595   1.457   7.087  1.9014 -2.3314  2.4711
 5698SOL     OW28729   0.931   4.554  13.043 -0.1376  0.5446  0.2155
 5698SOL    HW128730   0.846   4.595  13.025 -0.3072 -0.0417 -0.3315
 5698SOL    HW228731   0.965   4.601  13.118  2.5508  0.1333 -0.7701
 5699SOL     OW28732   1.214   3.292   4.991 -0.1436  0.3522 -0.5024
 5699SOL    HW128733   1.123   3.284   5.019 -0.5936  3.5833 -1.0415
 5699SOL    HW228734   1.251   3.217   5.036  0.3816 -0.1007 -1.6658
 5700SOL     OW28735   1.825   3.462   7.348  0.4370 -0.0672  0.2825
 5700SOL    HW128736   1.895   3.399   7.366 -0.3825 -0.8098  0.8861
 5700SOL    HW228737   1.756   3.428   7.405 -0.6688 -1.2011 -1.7472
 5701SOL     OW28738   4.591   0.807   8.322  1.0887  0.5809  0.2243
 5701SOL    HW128739   4.674   0.854   8.313  0.7859  1.0234 -0.2872
 5701SOL    HW228740   4.547   0.851   8.394  1.4264 -0.7141  1.2177
 5702SOL     OW28741   1.553   4.153   8.207  0.6389 -0.1788 -0.5437
 5702SOL    HW128742   1.470   4.165   8.161  0.0064  1.2402  0.9653
 5702SOL    HW228743   1.551   4.058   8.212  3.1095 -0.2009  0.2135
 5703SOL     OW28744   2.062   0.037   8.383 -0.0528 -0.2107 -0.0788
 5703SOL    HW128745   1.968   0.056   8.382 -0.0024 -0.0466 -1.8729
 5703SOL    HW228746   2.089   0.118   8.340 -0.4274  0.2638  0.5914
 5704SOL     OW28747   1.185   0.170   5.198 -0.0925  0.0573 -0.3904
 5704SOL    HW128748   1.158   0.262   5.205 -0.6993  0.0010 -2.0319
 5704SOL    HW228749   1.107   0.122   5.226 -0.7144 -0.8690 -3.7219
 5705SOL     OW28750   1.746   0.878   4.743  0.4444 -0.5999 -0.2438
 5705SOL    HW128751   1.816   0.869   4.807 -0.7092 -1.2843  0.9085
 5705SOL    HW228752   1.700   0.953   4.780  0.8673 -0.0946 -0.7337
 5706SOL     OW28753   2.993   1.027   4.489 -0.0498  0.4531 -0.8553
 5706SOL    HW128754   3.066   1.066   4.537 -0.5791 -1.5660  1.5867
 5706SOL    HW228755   2.931   1.002   4.556  2.9222 -2.7401  0.6807
 5707SOL     OW28756   3.820   1.158   4.553  0.3008  0.5906 -0.5233
 5707SOL    HW128757   3.866   1.092   4.604  0.3496 -0.6188 -2.1447
 5707SOL    HW228758   3.739   1.107   4.559 -0.6244  2.1283  0.1165
 5708SOL     OW28759   4.068   0.895  13.553 -0.3461 -0.4479  0.0176
 5708SOL    HW128760   4.018   0.970  13.523 -1.9480 -0.7363  1.9805
 5708SOL    HW228761   4.056   0.902  13.648  1.1165  0.7991  0.1150
 5709SOL     OW28762   1.024   0.281   2.685 -0.0761  0.2178  0.2726
 5709SOL    HW128763   1.045   0.367   2.647 -0.1899 -0.9623 -2.4525
 5709SOL    HW228764   1.088   0.292   2.756 -0.2107  1.0611  0.2584
 5710SOL     OW28765   3.927   0.977   3.114  0.4713 -0.2903  0.1320
 5710SOL    HW128766   3.973   0.921   3.051 -1.5083  1.0942 -2.5220
 5710SOL    HW228767   3.839   0.943   3.099  0.6918 -0.9331  0.2665
 5711SOL     OW28768   2.441   1.902   1.233  0.1736  0.2463  0.1035
 5711SOL    HW128769   2.445   1.859   1.147  2.5192 -0.3526  0.5297
 5711SOL    HW228770   2.410   1.829   1.287 -1.0365 -0.4177 -1.4660
 5712SOL     OW28771   2.790   3.671   2.305 -0.2589 -0.4571  0.1531
 5712SOL    HW128772   2.721   3.735   2.284  0.3946  0.4285  0.7085
 5712SOL    HW228773   2.808   3.698   2.395 -1.3049 -1.6391  0.7180
 5713SOL     OW28774   0.437   0.713   1.049 -0.2555  0.3651 -0.0274
 5713SOL    HW128775   0.352   0.731   1.089 -0.6344  0.2215 -0.7742
 5713SOL    HW228776   0.502   0.712   1.119 -0.7852 -0.0377  0.4580
 5714SOL     OW28777   0.318   2.604   6.974 -0.1838 -0.2804  0.4913
 5714SOL    HW128778   0.363   2.688   6.984 -0.6017  0.2827 -2.3875
 5714SOL    HW228779   0.267   2.617   7.055 -0.3628  0.3507  0.2799
 5715SOL     OW28780   0.892   2.220  11.830  0.4181 -0.2643 -0.5087
 5715SOL    HW128781   0.897   2.157  11.902 -0.4730  0.4033  0.1342
 5715SOL    HW228782   0.970   2.204  11.776 -0.8102 -2.0317 -1.8000
 5716SOL     OW28783   2.549   1.645   7.038 -0.5033 -0.5958 -0.4053
 5716SOL    HW128784   2.461   1.674   7.061 -0.9403 -1.7336 -0.6621
 5716SOL    HW228785   2.591   1.730   7.026  0.3701 -1.2262 -1.8002
 5717SOL     OW28786   0.102   0.818   6.806  0.0708  0.5924 -0.9449
 5717SOL    HW128787   0.074   0.727   6.820 -1.2779  1.0723 -0.4785
 5717SOL    HW228788   0.168   0.828   6.874  1.6554 -0.8433 -2.2716
 5718SOL     OW28789   3.569   3.680   9.304 -0.2065  0.9034  0.7430
 5718SOL    HW128790   3.616   3.626   9.368  0.4050 -1.8312 -2.0272
 5718SOL    HW228791   3.479   3.682   9.337  0.3702  0.1051  2.3221
 5719SOL     OW28792   2.706   4.187  16.655 -0.1364  0.4295  0.5133
 5719SOL    HW128793   2.662   4.103  16.638  1.9778  0.2327 -3.8710
 5719SOL    HW228794   2.791   4.153  16.683 -0.3870  0.5691  1.4405
 5720SOL     OW28795   3.298   2.206   9.060  0.1923 -0.0220  0.0629
 5720SOL    HW128796   3.299   2.264   8.984 -1.5603 -0.8888 -0.6360
 5720SOL    HW228797   3.309   2.276   9.124 -0.1382 -0.9175  1.1031
 5721SOL     OW28798   4.390   3.599   4.245  0.5179  0.1062 -0.0073
 5721SOL    HW128799   4.351   3.619   4.330 -1.1372  0.0018 -0.7478
 5721SOL    HW228800   4.421   3.687   4.224 -2.5812  1.0284 -0.7232
 5722SOL     OW28801   4.429   0.743   5.717 -0.4059  0.2694 -0.1718
 5722SOL    HW128802   4.472   0.678   5.772 -1.2319 -0.1029  0.0301
 5722SOL    HW228803   4.505   0.794   5.687  0.2294 -0.9796 -0.6959
 5723SOL     OW28804   2.327   0.773  16.799 -0.5554 -0.5808 -0.6234
 5723SOL    HW128805   2.311   0.825  16.878 -1.7043 -0.5291 -0.8789
 5723SOL    HW228806   2.397   0.826  16.761  1.0095  0.1624  3.3372
 5724SOL     OW28807   1.562   3.690   7.993 -0.0408  0.2151  0.2640
 5724SOL    HW128808   1.565   3.597   8.014  0.3486 -0.5634 -3.3614
 5724SOL    HW228809   1.498   3.722   8.057 -0.4753 -0.3363  0.1078
 5725SOL     OW28810   4.689   1.829   2.922 -0.8633 -0.8187 -0.0811
 5725SOL    HW128811   0.021   1.869   2.975  0.2037 -0.5106 -1.6855
 5725SOL    HW228812   4.614   1.829   2.982 -1.0191 -0.5512 -0.2759
 5726SOL     OW28813   1.824   0.906   1.329 -0.2984  0.1391 -0.6652
 5726SOL    HW128814   1.890   0.974   1.343  0.5675 -0.7685 -0.3439
 5726SOL    HW228815   1.871   0.828   1.359 -1.5252 -0.1761  0.4197
 5727SOL     OW28816   0.715   3.211   3.506 -0.2648 -0.1432  0.5022
 5727SOL    HW128817   0.670   3.174   3.430 -2.1648  0.5447  1.3038
 5727SOL    HW228818   0.648   3.208   3.574 -1.0773  0.9830 -0.2559
 5728SOL     OW28819   3.757   2.372   2.267 -0.5847 -0.1329  0.3520
 5728SOL    HW128820   3.765   2.344   2.358  0.9044  2.5629  1.0349
 5728SOL    HW228821   3.678   2.324   2.241 -0.3731 -0.5438  0.4724
 5729SOL     OW28822   1.751   1.652   6.850 -0.0051  0.2862 -0.4058
 5729SOL    HW128823   1.775   1.728   6.797  1.0722  0.7146  0.7091
 5729SOL    HW228824   1.733   1.687   6.937  1.3433 -0.0769  0.0147
 5730SOL     OW28825   4.683   3.124   7.267 -0.0719  0.3992  0.1469
 5730SOL    HW128826   4.605   3.158   7.224  0.6585  0.4708 -1.1323
 5730SOL    HW228827   4.724   3.204   7.300  1.8874 -0.1844 -0.8867
 5731SOL     OW28828   0.022   3.702  10.059  0.2881 -0.0317 -0.1624
 5731SOL    HW128829   0.043   3.612  10.033  1.6605 -0.2881  1.8501
 5731SOL    HW228830   4.710   3.727   9.980 -0.8234 -0.2203  0.4589
 5732SOL     OW28831   4.341   2.953   8.136  0.6138 -0.1946  0.0465
 5732SOL    HW128832   4.339   2.877   8.194 -1.5670 -0.2562 -0.1049
 5732SOL    HW228833   4.392   3.014   8.190 -2.8845  2.2141  0.6862
 5733SOL     OW28834   4.250   0.510  14.400  0.0034 -0.4493 -0.0141
 5733SOL    HW128835   4.288   0.598  14.402 -1.5699  0.2166  0.1745
 5733SOL    HW228836   4.227   0.498  14.492  1.2070 -0.2751  0.3172
 5734SOL     OW28837   4.639   4.095   0.946  0.6411  0.3915  0.4518
 5734SOL    HW128838   4.687   4.130   0.870  3.7106  1.0794  2.6756
 5734SOL    HW228839   4.584   4.171   0.967 -0.0887 -0.9771  3.5077
 5735SOL     OW28840   3.511   4.288   9.229  0.0585 -0.8600 -0.4570
 5735SOL    HW128841   3.537   4.206   9.185  1.9324 -0.1370 -0.6738
 5735SOL    HW228842   3.438   4.318   9.174  0.9056  0.1586 -1.0146
 5736SOL     OW28843   1.853   3.137   2.559 -0.8048 -0.6778 -0.3224
 5736SOL    HW128844   1.855   3.063   2.498  0.8206  1.0917 -2.3799
 5736SOL    HW228845   1.760   3.146   2.580  0.2939  0.6854  4.0331
 5737SOL     OW28846   4.702   1.171   6.130 -0.4534 -0.0707 -0.0867
 5737SOL    HW128847   4.688   1.226   6.207  0.3925 -2.1309  1.5512
 5737SOL    HW228848   4.647   1.094   6.141  1.4419 -1.9155 -3.3704
 5738SOL     OW28849   1.319   3.493   3.067 -0.7860 -0.0311  0.4898
 5738SOL    HW128850   1.256   3.564   3.080  0.6748  0.9156  2.3949
 5738SOL    HW228851   1.371   3.535   2.999  2.5054  1.1871  3.7352
 5739SOL     OW28852   3.004   0.520  16.611 -0.0431  0.2257  0.3810
 5739SOL    HW128853   3.033   0.583  16.677 -0.4212  2.2399 -1.4007
 5739SOL    HW228854   2.997   0.443  16.668  0.4095 -1.0034 -1.2207
 5740SOL     OW28855   2.842   1.641   7.765  0.3670  0.4438 -0.0886
 5740SOL    HW128856   2.899   1.718   7.754 -1.5025  1.6833 -1.0060
 5740SOL    HW228857   2.778   1.663   7.833 -1.4053 -1.5168 -1.1453
 5741SOL     OW28858   0.489   0.852  15.055  0.4379 -0.0219 -0.4249
 5741SOL    HW128859   0.531   0.938  15.059  2.2516 -0.8737 -1.3086
 5741SOL    HW228860   0.550   0.801  15.109 -0.7578 -0.5975  0.3766
 5742SOL     OW28861   4.303   0.178   3.338 -0.4250 -0.3681 -0.3219
 5742SOL    HW128862   4.357   0.101   3.357  1.1041  0.4568 -1.3181
 5742SOL    HW228863   4.229   0.135   3.296  0.9307 -2.6633 -0.3618
 5743SOL     OW28864   3.241   3.092   2.485 -0.4348  0.5964  0.8414
 5743SOL    HW128865   3.224   3.047   2.567 -1.5880 -1.3223 -0.4432
 5743SOL    HW228866   3.157   3.088   2.438 -0.4341  0.6902  0.8310
 5744SOL     OW28867   0.775   2.913   9.290 -0.1126 -0.0597 -0.0570
 5744SOL    HW128868   0.846   2.881   9.233  1.1751  0.1663  1.4056
 5744SOL    HW228869   0.770   3.001   9.252  0.9655  0.0250 -0.0272
 5745SOL     OW28870   1.256   1.187   3.037  0.5273  0.3236 -0.5994
 5745SOL    HW128871   1.269   1.275   3.003  0.4820 -0.2802 -2.1551
 5745SOL    HW228872   1.162   1.175   3.024  0.7107 -1.3330 -0.4168
 5746SOL     OW28873   0.923   2.616   0.485 -0.1555 -0.2325  0.2060
 5746SOL    HW128874   0.918   2.644   0.394 -1.0485 -1.0256  0.0151
 5746SOL    HW228875   0.841   2.655   0.515  0.0654  0.4175 -0.0494
 5747SOL     OW28876   0.917   4.266   7.344 -0.3515  0.4842  0.6573
 5747SOL    HW128877   0.889   4.212   7.271 -0.4373 -0.1267  1.1413
 5747SOL    HW228878   1.013   4.271   7.338 -0.3500  0.2674  0.5187
 5748SOL     OW28879   4.161   2.887   1.497 -0.1990 -0.0342 -0.8634
 5748SOL    HW128880   4.114   2.862   1.418  0.8684 -3.6036 -0.3476
 5748SOL    HW228881   4.095   2.922   1.557  0.7424 -1.1570  0.8487
 5749SOL     OW28882   1.873   3.770   6.865 -0.1108 -0.3655  0.3928
 5749SOL    HW128883   1.836   3.691   6.904 -0.3773  0.2056  1.3024
 5749SOL    HW228884   1.879   3.828   6.941  3.1225 -3.2360  2.3215
 5750SOL     OW28885   3.634   0.325   9.321 -0.2326 -0.4009  0.0300
 5750SOL    HW128886   3.618   0.410   9.362  1.1653  0.8805 -2.0879
 5750SOL    HW228887   3.721   0.304   9.355  0.1525 -0.2438 -0.8834
 5751SOL     OW28888   4.645   4.376   8.065 -0.1997  0.0261  0.2032
 5751SOL    HW128889   4.734   4.348   8.042 -0.3351 -0.1685 -0.0867
 5751SOL    HW228890   4.610   4.416   7.986 -0.6935  1.2728  1.0589
 5752SOL     OW28891   4.124   0.416   5.582  0.5241  0.1122 -0.2530
 5752SOL    HW128892   4.032   0.395   5.599  0.0098  2.7874  0.3156
 5752SOL    HW228893   4.136   0.372   5.498  1.4284 -1.4170  0.6807
 5753SOL     OW28894   0.416   0.038  10.119  0.2813 -0.2301 -0.4193
 5753SOL    HW128895   0.373   4.698  10.077 -2.0341 -0.0711  1.6889
 5753SOL    HW228896   0.458   0.066  10.037 -0.2380 -0.9351 -0.9298
 5754SOL     OW28897   0.885   0.904  15.353 -0.0576 -0.4078  0.3221
 5754SOL    HW128898   0.796   0.935  15.338 -0.9612 -2.2878  1.7739
 5754SOL    HW228899   0.914   0.880  15.265  1.6349  0.9778  0.4966
 5755SOL     OW28900   3.586   0.051   2.010  0.5942 -0.5181  0.1567
 5755SOL    HW128901   3.515   0.058   1.946 -0.2827 -0.8434  1.0917
 5755SOL    HW228902   3.644   4.733   1.956 -2.2491 -1.1452 -2.2941
 5756SOL     OW28903   2.764   4.580   7.831 -0.1168 -0.1906  0.3604
 5756SOL    HW128904   2.796   4.534   7.909  1.9454 -0.0601 -0.4128
 5756SOL    HW228905   2.722   4.654   7.874  0.4376  0.2231  0.1913
 5757SOL     OW28906   2.202   0.231  11.220  0.5696  0.1603  0.2783
 5757SOL    HW128907   2.157   0.147  11.225  1.5069 -0.4833 -1.8886
 5757SOL    HW228908   2.129   0.287  11.194  1.5753  0.3138 -2.2138
 5758SOL     OW28909   0.801   2.517  12.411 -0.6812  0.0026 -0.3359
 5758SOL    HW128910   0.841   2.529  12.325  0.1618  3.6068  0.5577
 5758SOL    HW228911   0.878   2.540  12.463  0.3255 -3.8410 -0.1383
 5759SOL     OW28912   1.678   1.358   9.890 -0.4627  0.1362  0.0645
 5759SOL    HW128913   1.714   1.338   9.804  3.0974  2.1511  1.0931
 5759SOL    HW228914   1.672   1.275   9.938  1.4300  1.2315  2.2080
 5760SOL     OW28915   1.942   0.061  11.315  0.4664  0.4311 -0.4814
 5760SOL    HW128916   2.010   0.051  11.248 -0.0741  0.7945 -1.0812
 5760SOL    HW228917   1.984   0.041  11.399 -0.9161 -0.5308 -0.0278
 5761SOL     OW28918   2.981   0.823   2.349  0.4807 -0.4024 -0.4345
 5761SOL    HW128919   2.957   0.885   2.279  0.6696 -0.2806 -0.3934
 5761SOL    HW228920   3.020   0.755   2.294 -0.1583 -0.3595 -0.9371
 5762SOL     OW28921   3.126   3.506   3.358 -0.4142 -0.5374  0.4642
 5762SOL    HW128922   3.091   3.579   3.306  0.2448 -0.2040  0.4858
 5762SOL    HW228923   3.211   3.548   3.369 -0.4756  0.2419 -1.8899
 5763SOL     OW28924   4.284   4.469   5.928 -0.2250  0.0445 -0.0330
 5763SOL    HW128925   4.298   4.544   5.984  0.2369 -0.4386  0.4952
 5763SOL    HW228926   4.221   4.415   5.976 -1.1850  2.2426  1.1392
 5764SOL     OW28927   2.399   0.735   9.836 -0.6059  0.2834 -0.2564
 5764SOL    HW128928   2.419   0.656   9.787 -0.3553 -0.2557  0.7095
 5764SOL    HW228929   2.330   0.708   9.897  1.0507 -2.5519  0.3562
 5765SOL     OW28930   1.672   2.430  14.572 -0.3839 -0.0624 -0.5527
 5765SOL    HW128931   1.702   2.370  14.640 -0.9322  0.9218  0.5500
 5765SOL    HW228932   1.669   2.508  14.627  1.2089  0.6650 -1.4885
 5766SOL     OW28933   2.171   0.032   5.479  0.0668 -0.1327  0.1997
 5766SOL    HW128934   2.122   4.688   5.499 -0.3849  0.4583  1.3960
 5766SOL    HW228935   2.160   0.086   5.557 -0.4524 -0.7231  0.5387
 5767SOL     OW28936   0.390   3.352   7.961 -0.2223 -0.2274 -0.2142
 5767SOL    HW128937   0.351   3.396   8.036 -1.1997  0.7841 -1.3158
 5767SOL    HW228938   0.314   3.299   7.939 -2.0076  2.5868 -0.7323
 5768SOL     OW28939   0.696   1.150   7.633 -0.2852 -0.5473 -0.8420
 5768SOL    HW128940   0.761   1.160   7.702 -0.9169  0.8526 -0.4542
 5768SOL    HW228941   0.620   1.123   7.685  0.0586  0.2203  0.0431
 5769SOL     OW28942   3.871   4.337   2.518  0.6831  0.0255 -0.3143
 5769SOL    HW128943   3.889   4.395   2.444 -0.1088  1.8573  0.9157
 5769SOL    HW228944   3.795   4.375   2.562  1.1216 -0.6069  0.9990
 5770SOL     OW28945   1.978   1.584   2.793  0.4480 -0.5968  0.1698
 5770SOL    HW128946   1.997   1.672   2.760  1.1367 -1.4433 -1.6551
 5770SOL    HW228947   2.041   1.580   2.865  2.7087  0.7171 -1.7481
 5771SOL     OW28948   0.455   4.442  12.884 -0.2768  0.2695 -0.1747
 5771SOL    HW128949   0.426   4.525  12.847  0.7965  0.4571 -0.6027
 5771SOL    HW228950   0.437   4.384  12.810  1.5974 -3.3877  2.2031
 5772SOL     OW28951   1.028   0.578   4.839 -0.0353  0.0020 -0.0090
 5772SOL    HW128952   1.032   0.612   4.749 -0.1836  3.0492  1.1203
 5772SOL    HW228953   0.982   0.498   4.816 -0.1879 -0.0436  0.4672
 5773SOL     OW28954   3.681   0.133   3.403 -0.0623  0.0562  0.0292
 5773SOL    HW128955   3.585   0.135   3.409 -0.0923 -0.2316 -0.3786
 5773SOL    HW228956   3.686   0.220   3.442  0.2807  0.4359 -0.8900
 5774SOL     OW28957   4.015   0.571   2.444 -0.1247  0.0766 -0.6123
 5774SOL    HW128958   3.981   0.511   2.378 -1.9448 -0.4701  0.8124
 5774SOL    HW228959   4.071   0.515   2.497 -2.7756 -1.0638  0.9769
 5775SOL     OW28960   0.907   3.230   8.462 -0.1003 -0.1975  0.0449
 5775SOL    HW128961   0.951   3.267   8.386  1.5427 -2.1377  0.0491
 5775SOL    HW228962   0.884   3.304   8.518  0.4938  0.2733 -0.3311
 5776SOL     OW28963   2.394   2.904   7.802  0.1520  0.5749 -0.8711
 5776SOL    HW128964   2.464   2.844   7.780  0.6688  0.6770  0.5172
 5776SOL    HW228965   2.365   2.858   7.880  0.2877  0.4502 -0.8952
 5777SOL     OW28966   0.533   3.665   0.585 -0.2375  0.0175  0.0465
 5777SOL    HW128967   0.615   3.628   0.620 -0.4172  0.1038  0.5611
 5777SOL    HW228968   0.475   3.628   0.652  1.9468  1.2590  2.6319
 5778SOL     OW28969   2.926   0.011  10.725  0.6318  0.2573 -0.1296
 5778SOL    HW128970   2.881   0.086  10.685 -1.0569  0.1216  1.5055
 5778SOL    HW228971   2.973   4.708  10.652 -0.2077  1.3686 -1.2670
 5779SOL     OW28972   0.422   2.714   8.336  0.5159  0.5057  0.6094
 5779SOL    HW128973   0.444   2.655   8.408  0.5300 -0.9645 -0.6044
 5779SOL    HW228974   0.422   2.653   8.263  2.8991  2.0523 -0.6930
 5780SOL     OW28975   3.201   2.947   1.629  0.5133  0.5067  0.2763
 5780SOL    HW128976   3.156   2.879   1.679 -0.2742 -0.5100 -1.8217
 5780SOL    HW228977   3.177   2.923   1.539 -0.1587  2.7993 -0.1681
 5781SOL     OW28978   3.166   2.585   6.313  0.5846 -0.1459  0.3363
 5781SOL    HW128979   3.228   2.635   6.260  0.9952 -1.4719 -0.4129
 5781SOL    HW228980   3.190   2.499   6.281 -0.4658 -0.7079  1.0308
 5782SOL     OW28981   4.053   4.135   2.553 -0.5005 -0.9017 -0.2228
 5782SOL    HW128982   3.991   4.205   2.535  0.2179 -0.1435  0.3051
 5782SOL    HW228983   4.085   4.108   2.467  1.6497  1.8104 -0.2335
 5783SOL     OW28984   4.190   1.205  17.336 -0.8482 -0.2447 -0.3324
 5783SOL    HW128985   4.202   1.288  17.288 -0.2073  0.1805  0.5721
 5783SOL    HW228986   4.190   1.135  17.270 -0.6694  1.5537 -2.2661
 5784SOL     OW28987   0.237   4.189   6.303 -0.3345 -0.2588  0.1362
 5784SOL    HW128988   0.151   4.188   6.344  0.6339 -0.7349  2.1805
 5784SOL    HW228989   0.228   4.140   6.222 -2.9219  1.1908 -0.4250
 5785SOL     OW28990   1.328   3.750   4.175  0.5134 -0.2747  0.7089
 5785SOL    HW128991   1.416   3.758   4.211  0.9543 -1.9141 -0.0001
 5785SOL    HW228992   1.342   3.697   4.096 -0.5983  1.6022 -0.7645
 5786SOL     OW28993   3.257   2.544   8.477  0.0614 -0.9317 -0.1280
 5786SOL    HW128994   3.167   2.561   8.450 -0.5349  0.0542  2.4149
 5786SOL    HW228995   3.299   2.627   8.456  0.6893 -0.9418  1.0281
 5787SOL     OW28996   0.754   0.048  10.729  0.2132  0.2425  0.0041
 5787SOL    HW128997   0.792   0.135  10.715 -0.5944  0.6923  0.6019
 5787SOL    HW228998   0.704   0.068  10.809  0.9205 -1.3967  0.8518
 5788SOL     OW28999   4.522   2.301   3.464  0.8513  0.1113 -0.1406
 5788SOL    HW129000   4.513   2.359   3.388  0.5100  0.0852 -0.1189
 5788SOL    HW229001   4.445   2.325   3.515  0.2330 -2.1544 -0.0570
 5789SOL     OW29002   3.146   0.442   9.092  0.2916 -0.8969 -1.1773
 5789SOL    HW129003   3.234   0.436   9.128  0.1894 -0.0306 -0.7739
 5789SOL    HW229004   3.133   0.349   9.074 -0.0978 -1.0728 -0.0146
 5790SOL     OW29005   1.768   4.588   3.224  0.4075  0.6744  0.0211
 5790SOL    HW129006   1.858   4.556   3.233  0.5605  1.0000 -0.3599
 5790SOL    HW229007   1.760   4.588   3.320  0.8160 -0.5010  0.0527
 5791SOL     OW29008   0.225   0.562   2.974 -0.5627  0.1455  0.9832
 5791SOL    HW129009   0.199   0.652   2.995 -2.0995  0.1477 -1.0414
 5791SOL    HW229010   0.205   0.547   2.882  3.7956  1.1639 -0.1553
 5792SOL     OW29011   4.178   3.360   6.441 -0.2104 -0.1749 -0.4789
 5792SOL    HW129012   4.200   3.383   6.531 -1.3579  0.1917 -0.2861
 5792SOL    HW229013   4.097   3.315   6.465 -0.5155 -0.2056 -1.5450
 5793SOL     OW29014   2.610   1.427   3.504  0.3184 -0.5354 -0.0665
 5793SOL    HW129015   2.619   1.375   3.425 -2.4405 -0.6129 -0.3157
 5793SOL    HW229016   2.575   1.512   3.476  0.6890 -0.1608  0.5939
 5794SOL     OW29017   2.732   4.080   5.048 -0.2289  0.4679 -0.1396
 5794SOL    HW129018   2.747   4.115   4.961 -1.3052 -0.3587 -0.6562
 5794SOL    HW229019   2.653   4.027   5.039  0.0829 -0.2159  1.1327
 5795SOL     OW29020   2.835   2.423  15.943 -0.2513  0.0467 -0.2016
 5795SOL    HW129021   2.858   2.463  15.860 -2.7530  0.7987 -0.5512
 5795SOL    HW229022   2.739   2.419  15.932 -0.4530  4.7764  0.0456
 5796SOL     OW29023   2.397   1.782  13.895 -0.0845  0.4165 -0.0966
 5796SOL    HW129024   2.387   1.870  13.932  2.4084 -0.5033  2.8182
 5796SOL    HW229025   2.483   1.752  13.924 -0.5781  0.1457  1.1040
 5797SOL     OW29026   4.634   3.542   6.691  0.5540 -0.1530  0.3380
 5797SOL    HW129027   4.679   3.566   6.772  0.0787  2.7423 -0.2385
 5797SOL    HW229028   4.649   3.448   6.698  1.0876 -0.1492 -0.7084
 5798SOL     OW29029   0.157   0.514   7.433  0.1312 -0.0578 -0.1172
 5798SOL    HW129030   0.231   0.575   7.433  1.0642 -1.2158  2.6899
 5798SOL    HW229031   0.199   0.428   7.425 -1.6210 -1.1420  2.6661
 5799SOL     OW29032   0.979   2.337   4.459 -0.0804 -0.8741 -0.2667
 5799SOL    HW129033   0.927   2.393   4.400  0.5075  0.4748  0.5012
 5799SOL    HW229034   1.054   2.394   4.474 -0.2127  0.2976 -4.0598
 5800SOL     OW29035   1.866   3.700   0.956  0.0813  0.2541 -0.2589
 5800SOL    HW129036   1.961   3.694   0.969 -0.3139 -2.2673  1.5216
 5800SOL    HW229037   1.853   3.624   0.900 -0.7048  1.4293 -1.6591
 5801SOL     OW29038   3.673   4.593  14.089  0.3713 -0.2598  0.2080
 5801SOL    HW129039   3.717   4.511  14.112  0.0005 -0.2290  1.0170
 5801SOL    HW229040   3.630   4.608  14.173  2.5627 -0.1826  1.3280
 5802SOL     OW29041   0.321   3.766  17.531  0.0733  0.1352 -0.2293
 5802SOL    HW129042   0.238   3.728  17.500  0.9883 -0.8152 -1.4904
 5802SOL    HW229043   0.325   3.842  17.473  0.2219 -1.0066 -1.7244
 5803SOL     OW29044   2.344   2.968  17.586  0.1663 -0.2886  0.1926
 5803SOL    HW129045   2.375   3.056  17.565  2.8526 -0.9281  1.5079
 5803SOL    HW229046   2.346   2.934  17.497  0.7401 -0.3222  0.2151
 5804SOL     OW29047   0.699   0.838   1.957  0.3306  0.1535 -0.7214
 5804SOL    HW129048   0.628   0.837   1.893 -1.9443 -0.8081  1.8077
 5804SOL    HW229049   0.755   0.772   1.918 -1.2883 -0.6347 -1.7010
 5805SOL     OW29050   1.633   0.948   4.368  0.1824 -0.2402  0.0025
 5805SOL    HW129051   1.654   1.041   4.365  2.0986 -0.7454 -2.2865
 5805SOL    HW229052   1.722   0.913   4.377 -0.1431 -0.9455  0.4783
 5806SOL     OW29053   1.429   1.005  17.720 -0.1675 -0.2689  0.8562
 5806SOL    HW129054   1.464   1.088  17.687 -1.2261 -0.9256 -1.8858
 5806SOL    HW229055   1.367   1.043   0.042  1.3185  1.4539  1.3213
 5807SOL     OW29056   0.702   2.528   7.769  0.1686 -0.1892  0.4449
 5807SOL    HW129057   0.714   2.569   7.854 -1.9486  0.0621  0.6078
 5807SOL    HW229058   0.607   2.523   7.778 -0.0718  0.4423 -1.7310
 5808SOL     OW29059   2.170   2.641  17.435  0.1265  0.3374  0.4217
 5808SOL    HW129060   2.216   2.628  17.352  1.3801 -0.4892  1.2551
 5808SOL    HW229061   2.143   2.732  17.420 -0.3095  0.4674  1.9847
 5809SOL     OW29062   4.356   4.056   3.082  0.3722  0.1673  0.0744
 5809SOL    HW129063   4.408   4.034   3.160  0.6074  0.3834 -0.0207
 5809SOL    HW229064   4.305   4.120   3.131 -0.9436 -1.0582  0.2850
 5810SOL     OW29065   2.934   3.326   0.283  0.2124  0.2597 -0.2294
 5810SOL    HW129066   2.904   3.403   0.332  0.6067  0.4123 -0.2232
 5810SOL    HW229067   2.993   3.359   0.215  0.5700  1.6608  0.7492
 5811SOL     OW29068   2.286   3.014   4.749 -0.5006 -0.0297 -0.0731
 5811SOL    HW129069   2.250   2.942   4.801  1.9040 -1.0578  0.1556
 5811SOL    HW229070   2.279   3.076   4.822  1.4091 -1.3593  1.2287
 5812SOL     OW29071   0.652   1.914   8.891  0.1036 -0.1015  0.0134
 5812SOL    HW129072   0.726   1.894   8.834 -0.6694 -1.4064 -0.5287
 5812SOL    HW229073   0.648   1.841   8.952 -3.2611 -1.0402 -1.3116
 5813SOL     OW29074   0.993   2.545   1.334 -0.0193 -0.3035 -0.5426
 5813SOL    HW129075   0.983   2.639   1.350 -0.1646  0.4183 -4.6284
 5813SOL    HW229076   0.932   2.513   1.399  0.2751  1.0897  0.4267
 5814SOL     OW29077   1.675   2.095   2.166 -0.2527  0.1229 -0.1715
 5814SOL    HW129078   1.699   2.180   2.129  0.6438 -0.2594 -0.4914
 5814SOL    HW229079   1.719   2.038   2.102  0.3994 -0.0139  0.3944
 5815SOL     OW29080   0.627   0.693   3.338 -0.1193 -0.1752 -0.0604
 5815SOL    HW129081   0.555   0.750   3.367 -1.3605 -2.4435  1.2938
 5815SOL    HW229082   0.581   0.610   3.322 -2.6147  1.3207 -0.7369
 5816SOL     OW29083   1.142   2.676  11.984  0.4107  0.5488  0.2900
 5816SOL    HW129084   1.215   2.733  11.960  0.5964  0.4876  0.7067
 5816SOL    HW229085   1.074   2.707  11.925 -1.4622 -2.0078  1.1119
 5817SOL     OW29086   1.630   2.860   5.384  0.2056 -0.0086  0.0894
 5817SOL    HW129087   1.536   2.866   5.400  0.3981  0.1710  1.1601
 5817SOL    HW229088   1.671   2.899   5.462 -0.6915  0.2962  0.4021
 5818SOL     OW29089   1.643   3.654   7.205 -0.3218  0.2901  0.1034
 5818SOL    HW129090   1.590   3.608   7.270 -1.1783  1.7199  0.4168
 5818SOL    HW229091   1.713   3.591   7.188  1.2611  1.5491  2.0538
 5819SOL     OW29092   3.037   3.186   1.290 -0.3720 -0.2001  0.4610
 5819SOL    HW129093   3.001   3.269   1.321  1.8209  0.6559  0.6716
 5819SOL    HW229094   3.090   3.170   1.368 -0.0522 -2.2449 -0.1896
 5820SOL     OW29095   2.771   2.423   9.546 -0.5475 -0.8573 -0.0780
 5820SOL    HW129096   2.788   2.330   9.530 -1.7204 -0.9668 -0.6963
 5820SOL    HW229097   2.851   2.461   9.509 -1.0948 -0.2516 -0.6545
 5821SOL     OW29098   1.768   1.688  16.279  0.5384 -0.2970  0.3987
 5821SOL    HW129099   1.751   1.627  16.207  0.5522 -1.2229  1.1816
 5821SOL    HW229100   1.739   1.635  16.353 -0.5987  0.4698  0.5098
 5822SOL     OW29101   0.955   4.614  15.934 -0.2234 -0.2454  0.2158
 5822SOL    HW129102   1.037   4.587  15.977 -1.2558 -1.7500  1.2555
 5822SOL    HW229103   0.982   4.695  15.890  1.8072 -0.1897  1.5266
 5823SOL     OW29104   1.616   1.007   7.420  0.1231  0.4121 -0.1032
 5823SOL    HW129105   1.678   1.077   7.442 -1.6120  1.7810  0.3824
 5823SOL    HW229106   1.580   0.996   7.508  2.2928  0.7639  0.8454
 5824SOL     OW29107   1.792   0.237   6.070 -0.3123  0.4782  0.1535
 5824SOL    HW129108   1.721   0.293   6.101  0.8348  0.8458  2.0920
 5824SOL    HW229109   1.738   0.161   6.048 -0.1905  0.3871  0.1681
 5825SOL     OW29110   1.341   3.157   3.766  0.0626 -0.4857  1.1166
 5825SOL    HW129111   1.362   3.182   3.856 -0.0640  1.9455  0.4667
 5825SOL    HW229112   1.406   3.089   3.746  0.0728  0.2415 -1.3901
 5826SOL     OW29113   4.438   2.389  11.482  0.0505  0.1882  0.4835
 5826SOL    HW129114   4.501   2.346  11.424 -0.4754 -0.2444  0.2317
 5826SOL    HW229115   4.439   2.328  11.556  1.2505 -0.5511 -0.1369
 5827SOL     OW29116   4.331   3.619   6.665 -0.4318  0.0905 -0.1461
 5827SOL    HW129117   4.414   3.578   6.688 -0.3022 -0.5123 -1.7013
 5827SOL    HW229118   4.270   3.573   6.722  0.5045 -1.1217 -0.1355
 5828SOL     OW29119   3.741   0.208   9.087  0.1292  0.2158 -0.3102
 5828SOL    HW129120   3.669   0.256   9.127 -0.1275 -2.2948  2.2578
 5828SOL    HW229121   3.822   0.228   9.133  0.8956 -0.6967 -1.2382
 5829SOL     OW29122   3.067   2.233   7.168 -0.2239  0.1583  0.2031
 5829SOL    HW129123   3.099   2.179   7.240 -2.6042 -1.7471 -0.1805
 5829SOL    HW229124   3.097   2.320   7.196 -2.2266  1.2939 -1.2527
 5830SOL     OW29125   2.997   0.780   7.764  0.0610 -0.1953 -0.4368
 5830SOL    HW129126   2.962   0.830   7.690 -0.2625 -0.4449 -0.4509
 5830SOL    HW229127   3.047   0.847   7.810 -1.3202 -0.3648  1.3095
 5831SOL     OW29128   1.963   2.209   5.932 -0.0237 -0.5159 -0.9716
 5831SOL    HW129129   1.967   2.200   5.836 -2.6803  0.1551 -1.1395
 5831SOL    HW229130   1.869   2.222   5.937  0.2783  1.3786 -0.4168
 5832SOL     OW29131   1.504   0.117   8.938 -0.4236 -0.2776 -0.1045
 5832SOL    HW129132   1.503   0.090   8.846 -0.2885 -3.0590  0.7053
 5832SOL    HW229133   1.593   0.150   8.953 -0.0510 -1.2119 -0.2392
 5833SOL     OW29134   1.368   0.612   5.530  0.4662 -0.3496  0.4054
 5833SOL    HW129135   1.306   0.568   5.471  1.1945  0.0175 -0.6341
 5833SOL    HW229136   1.386   0.691   5.478  0.5975 -0.4613  0.2799
 5834SOL     OW29137   3.415   1.546   8.941  0.1192  0.2968 -0.2060
 5834SOL    HW129138   3.423   1.600   8.862  1.3354 -0.1597 -0.3901
 5834SOL    HW229139   3.371   1.602   9.005 -0.9473 -3.0835  2.0296
 5835SOL     OW29140   2.841   4.285   4.831 -0.0176  0.0459 -0.4269
 5835SOL    HW129141   2.799   4.253   4.752 -0.7713  0.6462 -0.2648
 5835SOL    HW229142   2.800   4.369   4.851  1.8330  0.9470 -0.3861
 5836SOL     OW29143   2.130   4.151   3.044  0.1872 -0.8107 -0.2754
 5836SOL    HW129144   2.150   4.181   3.133  2.9411  1.6353 -1.7326
 5836SOL    HW229145   2.154   4.223   2.985 -2.3192 -1.3898 -2.0084
 5837SOL     OW29146   0.860   3.916  16.420  0.2950  0.4695 -0.1868
 5837SOL    HW129147   0.887   3.827  16.398 -0.6433  0.8941 -2.9783
 5837SOL    HW229148   0.937   3.967  16.448 -0.2698  0.7157  0.9310
 5838SOL     OW29149   3.312   3.202  11.854 -0.3631  0.0588  0.3315
 5838SOL    HW129150   3.381   3.158  11.903  0.8858  1.7731  0.0978
 5838SOL    HW229151   3.251   3.129  11.857 -2.8872  2.1917  1.3311
 5839SOL     OW29152   4.578   1.556   2.903 -0.6339 -0.7285  0.0199
 5839SOL    HW129153   4.656   1.575   2.851  0.7834 -0.5346  2.2345
 5839SOL    HW229154   4.516   1.624   2.878 -1.6317 -1.0800  1.4990
 5840SOL     OW29155   3.381   4.443   0.757  0.4208  0.1948  0.2695
 5840SOL    HW129156   3.424   4.393   0.827 -0.7271 -0.5790  0.4134
 5840SOL    HW229157   3.376   4.529   0.798 -0.2805 -1.1443  3.0198
 5841SOL     OW29158   3.793   2.318   0.052 -0.5410  0.8847  0.5430
 5841SOL    HW129159   3.729   2.247   0.050 -1.6669  1.9020  0.5560
 5841SOL    HW229160   3.734   2.390   0.069 -1.3495  0.6898 -1.3556
 5842SOL     OW29161   0.362   4.534   4.215 -0.3210  0.8333  0.2714
 5842SOL    HW129162   0.435   4.540   4.278 -0.1878 -0.3058  0.2293
 5842SOL    HW229163   0.305   4.599   4.257 -0.8718 -1.1236  2.5650
 5843SOL     OW29164   3.280   3.143   9.373 -0.2002 -0.2964 -0.0489
 5843SOL    HW129165   3.259   3.225   9.417  1.6762  0.5709 -0.7449
 5843SOL    HW229166   3.233   3.153   9.290 -3.5927 -0.9098  1.8046
 5844SOL     OW29167   1.685   0.871   1.956 -0.3860  0.3119 -0.0034
 5844SOL    HW129168   1.607   0.925   1.943 -0.4756 -0.1784 -1.4577
 5844SOL    HW229169   1.746   0.929   2.001 -0.0493  0.1958 -0.3201
 5845SOL     OW29170   4.449   2.657   6.583 -0.1942 -0.3358 -0.6299
 5845SOL    HW129171   4.446   2.683   6.675  0.8340 -1.7714 -0.1952
 5845SOL    HW229172   4.544   2.656   6.568 -0.0599 -1.2605  0.2947
 5846SOL     OW29173   0.672   2.456   8.468 -0.3853  0.1056  0.0921
 5846SOL    HW129174   0.646   2.406   8.390 -0.2281  1.8881 -1.0959
 5846SOL    HW229175   0.597   2.440   8.525 -1.5818  1.5416 -1.0787
 5847SOL     OW29176   0.252   2.017   4.097  0.9567  0.2041  0.1395
 5847SOL    HW129177   0.191   2.090   4.085  0.6266  0.1026  1.1365
 5847SOL    HW229178   0.276   2.023   4.189  0.1797  0.0933  0.3557
 5848SOL     OW29179   3.659   4.244   6.447 -0.0048 -0.3945  0.2057
 5848SOL    HW129180   3.730   4.201   6.399 -0.5846 -0.7927 -0.2938
 5848SOL    HW229181   3.684   4.334   6.431 -1.0447  0.0649  1.1589
 5849SOL     OW29182   3.378   2.514   1.959  0.3174  0.4476  0.0149
 5849SOL    HW129183   3.296   2.498   1.913  0.2491 -0.9011  0.6172
 5849SOL    HW229184   3.354   2.479   2.045 -2.2849  1.7702 -0.1766
 5850SOL     OW29185   0.362   3.667   3.160  0.3135 -0.4544  0.2267
 5850SOL    HW129186   0.369   3.689   3.067 -2.2160 -0.1757  0.1036
 5850SOL    HW229187   0.418   3.590   3.166  0.2382 -0.2797  3.4724
 5851SOL     OW29188   0.429   4.201  12.726 -0.2692 -0.2323 -0.5198
 5851SOL    HW129189   0.448   4.127  12.783 -0.8012  0.0802  0.0569
 5851SOL    HW229190   0.335   4.216  12.733 -0.2633 -1.5397  2.1285
 5852SOL     OW29191   3.317   4.533  14.567  0.0950 -0.0902  0.2657
 5852SOL    HW129192   3.224   4.535  14.589  0.4411  0.2312  1.6707
 5852SOL    HW229193   3.319   4.537  14.472  0.2337 -4.1796  0.0615
 5853SOL     OW29194   0.366   2.876   4.848 -0.6591  0.6282 -0.1184
 5853SOL    HW129195   0.398   2.862   4.937 -0.7651  0.0289 -0.1742
 5853SOL    HW229196   0.374   2.793   4.800  0.2031 -0.2844  1.5896
 5854SOL     OW29197   1.863   3.695  13.803  0.2719 -0.2231 -0.3773
 5854SOL    HW129198   1.889   3.785  13.781  1.0765 -0.7437 -1.5490
 5854SOL    HW229199   1.946   3.648  13.808 -0.5271 -1.4399  1.5603
 5855SOL     OW29200   3.396   3.767   2.206  0.4310 -0.2148  0.1368
 5855SOL    HW129201   3.344   3.723   2.139  0.7131 -0.0719 -0.1729
 5855SOL    HW229202   3.325   3.819   2.243 -0.2294  0.1698 -1.6857
 5856SOL     OW29203   3.321   3.257   7.426 -0.1358  0.0998 -0.5091
 5856SOL    HW129204   3.228   3.280   7.429 -0.0623  0.3745 -0.3122
 5856SOL    HW229205   3.318   3.236   7.333 -1.9849 -0.2586 -0.3857
 5857SOL     OW29206   3.803   2.448   7.925 -0.1878  0.4275  0.1222
 5857SOL    HW129207   3.850   2.399   7.992 -0.5196 -2.9475 -2.1603
 5857SOL    HW229208   3.873   2.496   7.880  0.0305 -0.5661 -0.6048
 5858SOL     OW29209   1.649   1.642   8.646  0.2115 -0.0509 -0.7656
 5858SOL    HW129210   1.668   1.722   8.696 -2.3613 -1.9295  3.2146
 5858SOL    HW229211   1.659   1.572   8.711 -0.2600 -0.1993 -0.8550
 5859SOL     OW29212   1.550   1.982  12.510 -0.0184  0.2404 -0.0594
 5859SOL    HW129213   1.612   1.970  12.582 -1.4098 -0.4485  1.0372
 5859SOL    HW229214   1.527   2.072  12.531  0.9676  1.0722 -2.6183
 5860SOL     OW29215   1.614   4.177  12.181 -0.1267 -0.3186  0.0535
 5860SOL    HW129216   1.566   4.112  12.130 -1.4809  1.3067 -0.7083
 5860SOL    HW229217   1.663   4.118  12.240 -1.9625 -1.4690  0.4257
 5861SOL     OW29218   2.890   4.206  17.552 -0.2525  0.3779 -0.4177
 5861SOL    HW129219   2.861   4.123  17.517  0.5462 -1.0739  2.3474
 5861SOL    HW229220   2.820   4.261  17.517 -1.5953 -3.6032 -3.8468
 5862SOL     OW29221   4.011   1.632   1.325 -0.2026 -0.1472 -0.0083
 5862SOL    HW129222   3.976   1.544   1.337 -0.3181 -0.2478 -1.0456
 5862SOL    HW229223   3.942   1.695   1.345  0.6236  1.0221 -0.8526
 5863SOL     OW29224   2.375   0.783   7.028  0.3659 -0.1341  0.4180
 5863SOL    HW129225   2.302   0.741   7.073  1.4548  0.5103  2.7930
 5863SOL    HW229226   2.347   0.769   6.938  0.2200 -0.4300  0.5111
 5864SOL     OW29227   1.839   2.384  17.145  0.7487  0.6666 -0.1918
 5864SOL    HW129228   1.801   2.394  17.232  0.6509 -2.1948  0.0900
 5864SOL    HW229229   1.831   2.475  17.118 -0.3248 -0.0580 -2.3739
 5865SOL     OW29230   2.640   3.006   4.834  0.3394  0.4953 -0.2201
 5865SOL    HW129231   2.562   3.011   4.889  0.6835 -1.2237  0.4027
 5865SOL    HW229232   2.708   3.032   4.895 -0.3085 -1.3714  1.2870
 5866SOL     OW29233   4.456   0.457   3.633  0.3153 -0.9750 -0.1090
 5866SOL    HW129234   4.531   0.517   3.632 -1.1275  0.8456  1.7348
 5866SOL    HW229235   4.495   0.393   3.574 -1.2142 -1.4954 -0.5440
 5867SOL     OW29236   4.406   3.521   3.941  0.7334  0.0805  0.2437
 5867SOL    HW129237   4.415   3.519   4.036 -0.3298  0.0453  0.3476
 5867SOL    HW229238   4.499   3.539   3.928 -0.0435  1.0882 -3.9479
 5868SOL     OW29239   3.978   1.137  14.649 -0.1055 -0.2386  0.4556
 5868SOL    HW129240   4.047   1.175  14.703 -0.5057  1.4811 -0.2541
 5868SOL    HW229241   4.029   1.127  14.568 -0.1258  2.5341  0.0924
 5869SOL     OW29242   3.523   2.715  11.671 -0.3178  0.8048  0.3611
 5869SOL    HW129243   3.498   2.803  11.701 -0.5480  0.6700  0.5753
 5869SOL    HW229244   3.471   2.663  11.733  0.0053 -1.7336 -1.5128
 5870SOL     OW29245   1.929   2.104   8.036 -0.1229  0.3848  0.0831
 5870SOL    HW129246   1.876   2.060   7.970  0.3860  0.4101 -0.3460
 5870SOL    HW229247   1.894   2.193   8.029  0.5311  0.7980  1.9692
 5871SOL     OW29248   2.167   0.436   1.894 -0.4017 -0.2091 -0.7942
 5871SOL    HW129249   2.118   0.379   1.952 -0.9087  1.7925  0.7501
 5871SOL    HW229250   2.146   0.518   1.940  0.4556  0.5748 -1.7826
 5872SOL     OW29251   3.223   1.944  13.504 -0.4598 -0.9339 -0.0496
 5872SOL    HW129252   3.306   1.992  13.493  0.0785 -2.0240 -0.7424
 5872SOL    HW229253   3.236   1.895  13.585 -3.4617 -1.6690 -0.0166
 5873SOL     OW29254   0.843   0.860   7.656  0.5513 -0.4308 -0.5295
 5873SOL    HW129255   0.911   0.922   7.631  1.3809 -0.8858  0.6014
 5873SOL    HW229256   0.895   0.781   7.638 -0.9378 -1.3602 -0.7142
 5874SOL     OW29257   3.052   1.655   8.557  0.1802  0.2741  0.3923
 5874SOL    HW129258   3.068   1.581   8.498  0.5123 -0.6428  1.6378
 5874SOL    HW229259   3.097   1.626   8.636  1.2596  1.3477  0.1717
 5875SOL     OW29260   3.099   3.078   9.789  0.1681  0.3509 -0.4054
 5875SOL    HW129261   3.163   3.021   9.747 -0.1051 -1.3827  1.5212
 5875SOL    HW229262   3.088   3.041   9.877  0.8288 -1.3471 -1.0238
 5876SOL     OW29263   4.550   3.573   5.741 -0.3625  0.5075 -0.0301
 5876SOL    HW129264   4.474   3.531   5.782 -1.7735  0.9598 -2.2056
 5876SOL    HW229265   4.512   3.655   5.710 -0.2701  1.2477  1.8185
 5877SOL     OW29266   4.005   3.743   4.880 -0.4198 -0.9470  0.1254
 5877SOL    HW129267   4.019   3.649   4.885 -0.0658 -0.9829 -1.6082
 5877SOL    HW229268   4.072   3.785   4.935 -0.6934 -1.8608  1.1521
 5878SOL     OW29269   4.667   2.050   4.509  0.0370  0.4180  0.0046
 5878SOL    HW129270   4.640   2.047   4.418  0.3198  2.3066 -0.1425
 5878SOL    HW229271   4.587   2.034   4.560  0.0186 -0.6541 -0.3696
 5879SOL     OW29272   1.688   1.533  16.485 -0.0189  0.0518  0.3477
 5879SOL    HW129273   1.777   1.520  16.519  0.4762  2.1863 -0.1114
 5879SOL    HW229274   1.641   1.473  16.543 -2.7725  1.7551 -0.1154
 5880SOL     OW29275   1.842   3.754   9.538  0.2556  0.6640 -0.1902
 5880SOL    HW129276   1.823   3.819   9.471  0.5896  0.3494 -0.5937
 5880SOL    HW229277   1.798   3.674   9.510  0.7647  0.8924 -1.6470
 5881SOL     OW29278   3.219   0.395   4.674 -0.1900  0.0439  0.1458
 5881SOL    HW129279   3.214   0.306   4.709  0.9576 -0.7006 -1.5663
 5881SOL    HW229280   3.289   0.367   4.614  0.1166 -1.7274  1.3178
 5882SOL     OW29281   4.346   0.678  15.329 -0.1522 -0.0181  0.0353
 5882SOL    HW129282   4.348   0.773  15.317 -3.5016 -0.3277 -3.1048
 5882SOL    HW229283   4.314   0.665  15.418  0.9558  0.3812  0.4871
 5883SOL     OW29284   4.070   2.627  17.715 -0.4952  0.0933 -0.0660
 5883SOL    HW129285   3.980   2.637   0.003  0.4880  1.3235  2.6357
 5883SOL    HW229286   4.072   2.706  17.661 -0.4601  0.7399  0.8825
 5884SOL     OW29287   2.685   4.300   6.668  0.3901  0.9652 -0.3649
 5884SOL    HW129288   2.692   4.233   6.601 -0.0682  1.0247 -0.4693
 5884SOL    HW229289   2.710   4.384   6.628 -2.5828  1.9184 -0.2054
 5885SOL     OW29290   3.141   3.409  11.564 -0.2047 -0.2282 -0.3724
 5885SOL    HW129291   3.066   3.350  11.569 -1.1778  1.1583  1.3498
 5885SOL    HW229292   3.146   3.430  11.657 -0.7470 -1.3166 -0.0953
 5886SOL     OW29293   4.721   4.038   4.280  0.1207 -0.3100 -0.1232
 5886SOL    HW129294   0.016   4.118   4.323  3.4723 -2.2676  1.1240
 5886SOL    HW229295   4.667   4.003   4.351  0.4780 -0.2419  0.1818
 5887SOL     OW29296   2.231   2.125   5.763 -0.2530 -0.2496  0.1887
 5887SOL    HW129297   2.192   2.059   5.706 -1.0386  1.2419 -1.0230
 5887SOL    HW229298   2.200   2.205   5.721 -3.3723 -1.5152  0.1250
 5888SOL     OW29299   3.825   2.282  10.209 -0.9829 -0.0087  0.2927
 5888SOL    HW129300   3.809   2.196  10.248 -0.6999 -0.6428 -0.9650
 5888SOL    HW229301   3.855   2.261  10.120  3.1070  0.6419  1.4813
 5889SOL     OW29302   1.430   2.296   1.158  0.2872  0.3126  0.2511
 5889SOL    HW129303   1.349   2.271   1.203  0.0967 -1.0945 -0.8805
 5889SOL    HW229304   1.395   2.295   1.069  1.0193 -1.0619 -0.0155
 5890SOL     OW29305   3.564   1.084   4.586  0.4385  0.0337 -0.9677
 5890SOL    HW129306   3.495   1.051   4.529  0.6241 -0.4530 -0.9160
 5890SOL    HW229307   3.543   1.176   4.599 -0.6054 -0.4128  0.4166
 5891SOL     OW29308   3.703   2.539   7.608  0.1413 -0.1907  0.1463
 5891SOL    HW129309   3.750   2.607   7.656  0.2791 -0.8769  0.9996
 5891SOL    HW229310   3.775   2.477   7.593 -0.5272 -1.1462  0.8798
 5892SOL     OW29311   4.577   3.380   6.254  0.3481  0.0670 -0.1108
 5892SOL    HW129312   4.535   3.336   6.180 -3.7120 -0.5739  2.6024
 5892SOL    HW229313   4.500   3.418   6.296 -0.7436  1.1184 -3.0495
 5893SOL     OW29314   3.951   1.228   1.945 -0.2657  0.3831 -0.2694
 5893SOL    HW129315   4.023   1.253   2.004 -0.5504  1.7280 -0.4970
 5893SOL    HW229316   3.978   1.139   1.921 -0.1958  0.1026  0.8212
 5894SOL     OW29317   1.415   1.315   6.509  0.1247  0.2946  0.3020
 5894SOL    HW129318   1.424   1.325   6.414  1.4913  0.7789  0.4774
 5894SOL    HW229319   1.472   1.386   6.540  0.5745  0.0846 -0.0442
 5895SOL     OW29320   3.512   4.501   9.924 -0.0739 -0.0248 -0.2509
 5895SOL    HW129321   3.573   4.490   9.851 -0.9794 -2.0756 -0.6904
 5895SOL    HW229322   3.520   4.595   9.939  1.3004 -0.1477 -0.1798
 5896SOL     OW29323   2.231   1.662   4.605 -0.2117 -0.1781 -0.2084
 5896SOL    HW129324   2.252   1.643   4.514  0.7808 -3.1986  0.6579
 5896SOL    HW229325   2.250   1.581   4.653 -0.1686 -1.1297 -1.8494
 5897SOL     OW29326   1.556   1.885   7.385 -0.2970  0.0726 -0.0187
 5897SOL    HW129327   1.557   1.929   7.300  2.7617 -0.9501 -0.5185
 5897SOL    HW229328   1.497   1.936   7.441  1.4037  0.5930  1.3243
 5898SOL     OW29329   0.734   4.000   3.977 -0.3017  0.5542 -0.1298
 5898SOL    HW129330   0.723   3.988   3.882 -1.5855  0.4212  0.0374
 5898SOL    HW229331   0.782   3.920   3.997  0.2925  0.1941 -2.9217
 5899SOL     OW29332   2.779   4.558   6.560  0.0889  0.2613 -0.2424
 5899SOL    HW129333   2.835   4.596   6.492 -2.5600  1.9956 -1.4705
 5899SOL    HW229334   2.710   4.529   6.501 -0.1068 -0.9727  0.6142
 5900SOL     OW29335   2.293   2.664   8.658 -0.6016  0.0889 -0.0395
 5900SOL    HW129336   2.388   2.663   8.641 -0.4922 -1.6092  0.7010
 5900SOL    HW229337   2.272   2.756   8.641  0.6746  0.2904 -0.5982
 5901SOL     OW29338   0.491   3.709   5.244 -0.3317 -1.0083 -0.0997
 5901SOL    HW129339   0.533   3.779   5.193 -2.2460 -0.0065 -0.3070
 5901SOL    HW229340   0.465   3.641   5.182 -1.0148  0.8277 -1.8237
 5902SOL     OW29341   2.914   2.131  16.404  0.2572 -0.4969  0.7739
 5902SOL    HW129342   2.988   2.151  16.348 -0.6127 -0.4064 -0.3522
 5902SOL    HW229343   2.858   2.208  16.388  0.4513 -0.3162  0.9678
 5903SOL     OW29344   0.659   0.893  11.317 -0.1460 -0.0944  0.1498
 5903SOL    HW129345   0.709   0.972  11.336 -0.1485 -0.1582  0.4198
 5903SOL    HW229346   0.721   0.841  11.265  0.4965  0.5632  0.2581
 5904SOL     OW29347   3.233   2.993  10.823 -0.2226  0.2450 -0.1118
 5904SOL    HW129348   3.323   3.010  10.795 -0.8147  1.6364 -1.1829
 5904SOL    HW229349   3.247   2.911  10.870 -0.6180 -0.1617 -0.7069
 5905SOL     OW29350   3.328   2.228   0.591 -0.7601 -0.5826  0.1853
 5905SOL    HW129351   3.417   2.227   0.557 -0.4664  1.6747  0.8648
 5905SOL    HW229352   3.348   2.209   0.683  0.3413 -0.8887 -0.1284
 5906SOL     OW29353   4.582   2.425   9.309  0.5784 -0.1302  0.3190
 5906SOL    HW129354   4.610   2.348   9.361 -0.2930  0.5542  1.8004
 5906SOL    HW229355   4.487   2.418   9.305  0.6675  0.0191 -1.9755
 5907SOL     OW29356   2.374   0.515  15.635  0.1387  0.0867 -0.0834
 5907SOL    HW129357   2.351   0.499  15.544 -0.6479 -1.2193  0.3389
 5907SOL    HW229358   2.423   0.597  15.630  0.3921  0.1743  3.4059
 5908SOL     OW29359   4.115   3.630  13.651  0.2756 -0.1115  0.2334
 5908SOL    HW129360   4.057   3.694  13.693 -1.4044 -0.4437 -1.6123
 5908SOL    HW229361   4.180   3.688  13.613 -0.6120 -0.6457 -2.0827
 5909SOL     OW29362   0.116   4.245   7.248  0.1760  0.1597 -0.3996
 5909SOL    HW129363   0.130   4.171   7.308 -0.5696 -2.0052 -2.9099
 5909SOL    HW229364   0.026   4.273   7.264 -0.7660 -2.8103 -0.5131
 5910SOL     OW29365   0.048   0.323   2.001 -0.0865 -0.1166 -0.1267
 5910SOL    HW129366   0.073   0.394   2.059  0.3173  0.4186 -0.9566
 5910SOL    HW229367   4.720   0.270   2.049  0.2929 -0.1225  0.3632
 5911SOL     OW29368   0.252   0.262   2.458 -0.2810  0.2279 -0.1639
 5911SOL    HW129369   0.192   0.195   2.426 -1.5295  0.5306  1.6005
 5911SOL    HW229370   0.324   0.212   2.497 -0.0692 -0.0163 -0.8740
 5912SOL     OW29371   1.250   0.818   9.321  0.1773  0.3998 -0.0606
 5912SOL    HW129372   1.249   0.889   9.385 -4.5240  1.7468 -1.6008
 5912SOL    HW229373   1.240   0.745   9.382 -0.9276  0.5521 -0.0553
 5913SOL     OW29374   0.237   4.001   8.315 -0.2792  0.1132  0.2539
 5913SOL    HW129375   0.329   4.015   8.334 -0.6351  0.7933  1.4386
 5913SOL    HW229376   0.196   4.087   8.312 -0.0755  0.2024  0.0557
 5914SOL     OW29377   2.501   3.382  10.340 -0.6649  0.3473  0.3547
 5914SOL    HW129378   2.406   3.370  10.337 -0.6448  0.7019 -2.4824
 5914SOL    HW229379   2.508   3.354  10.431 -1.2920 -1.2714 -0.0833
 5915SOL     OW29380   2.048   2.709   8.497  0.1687 -0.0765 -0.3744
 5915SOL    HW129381   2.012   2.668   8.575 -0.4708  0.8116 -0.2076
 5915SOL    HW229382   2.098   2.778   8.541  0.4725 -0.5724  0.0709
 5916SOL     OW29383   3.841   1.937   6.087  0.5482  0.2414 -0.3432
 5916SOL    HW129384   3.747   1.952   6.082  0.4352 -0.6119 -0.7772
 5916SOL    HW229385   3.859   2.000   6.157  2.2403 -1.1317  0.4396
 5917SOL     OW29386   1.836   0.111  15.987 -0.5571  0.4692  0.0146
 5917SOL    HW129387   1.797   0.192  15.955  0.9435 -0.0113 -3.0096
 5917SOL    HW229388   1.763   0.070  16.033 -0.1278  1.2885  1.4178
 5918SOL     OW29389   2.468   3.243  14.372  0.2524  0.3922 -0.0322
 5918SOL    HW129390   2.467   3.245  14.276  2.6664  2.4313 -0.0085
 5918SOL    HW229391   2.560   3.221  14.390  0.1061 -0.2534 -0.0797
 5919SOL     OW29392   2.341   0.380   5.021  0.0780 -0.2822 -0.1678
 5919SOL    HW129393   2.369   0.289   5.010 -2.2198 -1.0764  0.4916
 5919SOL    HW229394   2.255   0.371   4.981  1.5123  0.4716 -3.3644
 5920SOL     OW29395   0.645   1.081   4.684 -0.6589 -0.5255 -0.3962
 5920SOL    HW129396   0.641   1.039   4.770 -1.7260 -0.4734 -0.4183
 5920SOL    HW229397   0.636   1.000   4.633  2.7554 -0.3417 -1.2775
 5921SOL     OW29398   4.080   1.507  11.134  0.0631 -0.4535  0.2773
 5921SOL    HW129399   4.107   1.578  11.191  0.0585 -1.8709  2.0515
 5921SOL    HW229400   4.148   1.515  11.066  2.0746 -0.4717  2.2645
 5922SOL     OW29401   1.219   1.775   2.865  0.3782 -0.1304 -0.1702
 5922SOL    HW129402   1.249   1.865   2.853  0.9586 -0.3812 -0.5889
 5922SOL    HW229403   1.296   1.741   2.910  0.6338  0.8595  0.1372
 5923SOL     OW29404   2.308   0.013   8.009  0.0304 -0.1713 -0.4120
 5923SOL    HW129405   2.227   0.055   7.982  0.1098 -0.8236 -1.6865
 5923SOL    HW229406   2.297   4.658   7.978  0.8248 -0.3625 -0.1294
 5924SOL     OW29407   3.593   0.688  15.455 -0.2298 -0.2260 -0.4366
 5924SOL    HW129408   3.608   0.647  15.540  1.8553  0.3542 -0.5153
 5924SOL    HW229409   3.646   0.632  15.398 -1.5881 -1.6663 -0.2598
 5925SOL     OW29410   0.225   1.066   5.173  0.5368  0.1099 -0.1378
 5925SOL    HW129411   0.284   1.002   5.132 -1.1156 -2.1730  1.0666
 5925SOL    HW229412   0.149   1.070   5.115  0.7662 -0.9449 -0.5139
 5926SOL     OW29413   3.789   1.182   2.807  0.7437 -0.0457  0.0076
 5926SOL    HW129414   3.744   1.265   2.794  1.5920  0.4928  0.5176
 5926SOL    HW229415   3.724   1.136   2.861  0.4263 -0.7042 -0.9294
 5927SOL     OW29416   4.024   4.048   4.655  0.1729  0.2658  0.3324
 5927SOL    HW129417   3.971   3.968   4.654  2.7743 -1.4303 -3.4022
 5927SOL    HW229418   3.991   4.097   4.730 -2.5856  0.1261 -0.8048
 5928SOL     OW29419   3.796   0.320  12.295 -0.6620  0.1788 -0.2970
 5928SOL    HW129420   3.873   0.267  12.312 -1.1914 -0.5726 -0.2294
 5928SOL    HW229421   3.814   0.345  12.204  0.7732 -2.6036 -0.7754
 5929SOL     OW29422   1.967   1.824   6.260  0.0124 -0.2028  0.0879
 5929SOL    HW129423   1.960   1.758   6.328 -0.7588 -0.1996  0.0120
 5929SOL    HW229424   1.960   1.904   6.313 -0.0094 -0.9589  1.2216
 5930SOL     OW29425   1.649   3.956   3.566  0.2396 -0.6685 -0.3959
 5930SOL    HW129426   1.715   4.025   3.565 -0.2808 -0.1699  0.1875
 5930SOL    HW229427   1.583   3.981   3.501 -0.6870 -0.8440  0.4788
 5931SOL     OW29428   1.005   3.809   8.174 -0.0330  0.5419  0.2404
 5931SOL    HW129429   1.012   3.844   8.085  1.4515  0.2804  0.2504
 5931SOL    HW229430   0.949   3.734   8.154  0.6868 -0.1466  0.8361
 5932SOL     OW29431   2.333   3.549   0.966 -0.2387 -0.1926 -0.3029
 5932SOL    HW129432   2.421   3.584   0.953 -0.0552 -0.4396  0.3010
 5932SOL    HW229433   2.355   3.489   1.038 -0.4632  0.0000 -0.0745
 5933SOL     OW29434   0.831   3.593   4.736 -0.0889  0.0676 -0.1399
 5933SOL    HW129435   0.752   3.607   4.788 -0.2798  1.9970 -0.9787
 5933SOL    HW229436   0.887   3.566   4.810 -1.8769 -2.0506  0.4330
 5934SOL     OW29437   4.580   4.071   1.407 -0.1319 -0.3789  0.2580
 5934SOL    HW129438   4.626   4.131   1.348 -0.1981  1.3240  1.9237
 5934SOL    HW229439   4.543   4.003   1.351 -1.8313  0.0491  0.8759
 5935SOL     OW29440   2.176   2.296   6.476 -0.7199 -0.4612  0.0023
 5935SOL    HW129441   2.261   2.252   6.472 -0.0623  0.9424 -1.3458
 5935SOL    HW229442   2.183   2.373   6.420  1.3092  0.4849  1.5689
 5936SOL     OW29443   4.501   4.426   3.670 -0.3081  0.0302 -0.3379
 5936SOL    HW129444   4.429   4.440   3.609 -0.4040  2.9493  0.4348
 5936SOL    HW229445   4.514   4.331   3.666  0.8371  0.2233 -1.3327
 5937SOL     OW29446   3.349   0.656   8.532  0.3768 -0.5181 -0.5085
 5937SOL    HW129447   3.419   0.622   8.477 -1.2675 -1.4355 -2.0194
 5937SOL    HW229448   3.276   0.650   8.471  1.6516  2.1691 -2.2681
 5938SOL     OW29449   3.734   3.885  10.444 -0.2805 -0.7056 -0.1052
 5938SOL    HW129450   3.677   3.958  10.469  0.0950 -0.5788  0.3685
 5938SOL    HW229451   3.775   3.937  10.375 -0.5344  0.9761  1.0121
 5939SOL     OW29452   0.639   0.778  16.105 -0.7537 -0.4347 -0.8248
 5939SOL    HW129453   0.661   0.694  16.066  1.0699  0.3827 -1.5363
 5939SOL    HW229454   0.552   0.755  16.139 -0.3724  0.4024  0.7522
 5940SOL     OW29455   1.766   4.241   2.852 -0.1276 -0.9040  0.3933
 5940SOL    HW129456   1.689   4.216   2.902 -1.7050  0.1314 -1.5224
 5940SOL    HW229457   1.797   4.308   2.914  1.0941 -0.5429 -0.6032
 5941SOL     OW29458   0.713   1.426   6.029 -0.0560  0.0021 -0.2463
 5941SOL    HW129459   0.701   1.463   5.942  0.2962 -0.0701 -0.3265
 5941SOL    HW229460   0.804   1.441   6.053  0.6897 -2.7307 -1.3603
 5942SOL     OW29461   0.413   1.956   1.987  0.3349 -0.0461  0.2246
 5942SOL    HW129462   0.484   1.954   2.051 -1.5706  2.1547  2.3950
 5942SOL    HW229463   0.451   1.945   1.899  0.5564 -1.8573  0.5452
 5943SOL     OW29464   0.186   4.049   5.576 -0.2927  0.3692 -0.0034
 5943SOL    HW129465   0.100   4.042   5.618  0.2151 -1.0682  0.8037
 5943SOL    HW229466   0.183   3.979   5.511  2.0513  1.3703 -1.2036
 5944SOL     OW29467   0.512   1.314   5.266 -0.6249 -0.2594 -0.2949
 5944SOL    HW129468   0.484   1.367   5.191  0.8312  0.3801 -0.3927
 5944SOL    HW229469   0.438   1.324   5.326 -0.7459 -1.0717 -0.3179
 5945SOL     OW29470   2.845   2.506   8.265  0.1398 -0.6826 -0.2173
 5945SOL    HW129471   2.916   2.442   8.270  2.4683  2.0892  2.4056
 5945SOL    HW229472   2.812   2.481   8.178 -0.2836  0.6053 -0.4316
 5946SOL     OW29473   2.695   2.818   5.055 -0.3107 -0.6781 -0.4976
 5946SOL    HW129474   2.698   2.766   4.975  2.1006  0.1946 -0.9750
 5946SOL    HW229475   2.724   2.905   5.030 -1.9929 -0.3732 -1.3378
 5947SOL     OW29476   3.818   4.554   9.032 -0.4324  0.0092 -0.0755
 5947SOL    HW129477   3.841   4.532   9.122  0.4783  1.5572  0.0706
 5947SOL    HW229478   3.781   4.468   9.010 -1.8768  0.2515  1.3199
 5948SOL     OW29479   1.209   3.913   4.885 -0.2036 -0.3258  0.2042
 5948SOL    HW129480   1.199   3.987   4.825  0.3729 -0.4937 -0.0968
 5948SOL    HW229481   1.304   3.903   4.878  0.1560  3.2141  0.0567
 5949SOL     OW29482   2.285   3.937   3.368 -0.2736 -0.4309  0.3302
 5949SOL    HW129483   2.360   3.881   3.388  0.3985  0.8453  1.4449
 5949SOL    HW229484   2.220   3.896   3.424 -0.9762 -0.3019 -0.3837
 5950SOL     OW29485   3.806   1.010   7.376 -0.1064 -0.0170 -0.8343
 5950SOL    HW129486   3.737   1.037   7.315  0.5046  0.3593 -1.3571
 5950SOL    HW229487   3.808   0.916   7.356 -0.8909 -0.2236  0.1067
 5951SOL     OW29488   1.036   3.349  13.881  0.1517  0.0620  0.0355
 5951SOL    HW129489   1.130   3.335  13.896  0.4402  0.9438 -0.9058
 5951SOL    HW229490   1.027   3.445  13.884  1.1136  0.1112  1.3437
 5952SOL     OW29491   3.560   1.832   5.444 -0.1247  0.6474  0.2232
 5952SOL    HW129492   3.475   1.846   5.402  0.7282 -0.0976 -1.7563
 5952SOL    HW229493   3.556   1.744   5.481  0.3626  0.8447  0.7343
 5953SOL     OW29494   0.950   4.732  11.006  0.2785  0.2109 -0.6675
 5953SOL    HW129495   0.964   4.648  10.961 -0.2801  0.2600 -0.9380
 5953SOL    HW229496   0.859   4.729  11.036  0.5226  1.7461  0.1907
 5954SOL     OW29497   3.303   2.784  11.868 -0.4641 -0.6195 -0.1373
 5954SOL    HW129498   3.340   2.803  11.954  0.9320 -0.8738 -0.6772
 5954SOL    HW229499   3.239   2.854  11.855  0.6378  0.4063 -0.0366
 5955SOL     OW29500   3.733   3.396   6.165  0.5813  0.1854  0.2130
 5955SOL    HW129501   3.735   3.457   6.091  1.3321 -0.6343 -0.4426
 5955SOL    HW229502   3.686   3.318   6.135 -0.0196  0.3117  0.8218
 5956SOL     OW29503   4.527   3.012   1.774 -0.3913 -0.0058 -0.5483
 5956SOL    HW129504   4.564   3.084   1.824  1.4505 -2.2153  1.2661
 5956SOL    HW229505   4.529   3.056   1.689 -2.0124 -1.9893 -1.6204
 5957SOL     OW29506   0.387   3.900   8.739 -0.1450 -0.4289 -0.0510
 5957SOL    HW129507   0.313   3.864   8.690  0.4041 -0.7569 -0.6470
 5957SOL    HW229508   0.393   3.983   8.691 -1.1879 -0.3554 -0.0588
 5958SOL     OW29509   0.554   0.036   8.729  0.2951  0.2570 -0.0618
 5958SOL    HW129510   0.589   0.041   8.640 -0.5581 -1.3875 -0.4964
 5958SOL    HW229511   0.619   0.085   8.780 -0.2222  0.3677  0.4941
 5959SOL     OW29512   3.534   1.500   4.449 -0.4797 -0.3427  0.2651
 5959SOL    HW129513   3.542   1.479   4.356  1.7896 -0.9760  0.6080
 5959SOL    HW229514   3.464   1.564   4.439  0.0975  0.1828 -0.4001
 5960SOL     OW29515   0.447   1.832   7.287 -0.7613  0.0767 -0.3212
 5960SOL    HW129516   0.474   1.914   7.244 -2.8946  2.4456  2.8535
 5960SOL    HW229517   0.421   1.775   7.215  0.3415 -3.0435  1.7712
 5961SOL     OW29518   3.498   2.483   0.365 -0.0793  0.4419 -0.2527
 5961SOL    HW129519   3.512   2.403   0.414 -1.4814 -0.5400 -1.4487
 5961SOL    HW229520   3.562   2.544   0.402  0.3572  0.3029 -0.7617
 5962SOL     OW29521   1.193   3.276   5.346 -0.1397  0.4883 -0.1565
 5962SOL    HW129522   1.228   3.340   5.408  1.3407  0.6089 -1.1282
 5962SOL    HW229523   1.251   3.278   5.270 -0.2002 -1.4473 -0.2648
 5963SOL     OW29524   0.810   2.082   2.105 -0.0372 -0.3172 -0.1434
 5963SOL    HW129525   0.896   2.042   2.094 -0.2652 -0.4455 -1.3842
 5963SOL    HW229526   0.790   2.080   2.012 -0.0151 -0.7286 -0.1390
 5964SOL     OW29527   0.920   4.140  14.746 -0.0326  0.1468  0.1494
 5964SOL    HW129528   0.933   4.090  14.827 -1.3515 -1.1311 -0.4193
 5964SOL    HW229529   0.826   4.134  14.729  0.2871 -0.9564 -1.2728
 5965SOL     OW29530   2.359   0.127   2.693  0.1567  0.2229  0.2478
 5965SOL    HW129531   2.373   0.165   2.780 -0.0720 -0.6770  0.6864
 5965SOL    HW229532   2.386   0.194   2.631  0.4159  0.5736  0.7383
 5966SOL     OW29533   3.141   3.303   4.991 -0.5792  0.1743 -0.1676
 5966SOL    HW129534   3.115   3.394   5.006 -1.3229  0.0516 -0.6983
 5966SOL    HW229535   3.082   3.264   5.055  0.1011 -1.3567 -0.4757
 5967SOL     OW29536   0.174   1.358  16.430 -0.1788  0.0671  0.1030
 5967SOL    HW129537   0.161   1.358  16.525  0.8203  1.7032  0.2473
 5967SOL    HW229538   0.268   1.339  16.426 -0.4413 -1.0912 -0.4027
 5968SOL     OW29539   4.021   1.662   0.518  0.1833 -0.0749  1.0252
 5968SOL    HW129540   3.984   1.668   0.430 -1.2657 -1.5683  1.5474
 5968SOL    HW229541   4.050   1.572   0.529  1.3353  0.0768 -0.6966
 5969SOL     OW29542   0.229   1.564  16.239  0.2283 -0.3603  0.0363
 5969SOL    HW129543   0.205   1.488  16.293 -1.6704  1.0037  1.1264
 5969SOL    HW229544   0.247   1.524  16.154 -2.0967  0.4246 -0.8274
 5970SOL     OW29545   2.274   2.539  17.662  0.0720  0.5707  0.1185
 5970SOL    HW129546   2.232   2.594  17.596  0.5774 -0.0327 -0.7139
 5970SOL    HW229547   2.247   2.578   0.004  0.7123  0.4108  0.4045
 5971SOL     OW29548   3.536   3.532   7.523  0.0301 -0.4142 -0.1691
 5971SOL    HW129549   3.462   3.535   7.462 -1.6749 -0.7359  1.8780
 5971SOL    HW229550   3.579   3.615   7.502  0.3800 -1.0887 -2.0444
 5972SOL     OW29551   2.491   3.544   2.550 -0.2806  0.3084  0.5926
 5972SOL    HW129552   2.477   3.539   2.455  0.4391 -0.2081  0.5162
 5972SOL    HW229553   2.444   3.626   2.569 -0.1058  0.7247 -0.7358
 5973SOL     OW29554   3.995   2.555   9.288 -0.0458 -0.2960 -0.1122
 5973SOL    HW129555   3.942   2.620   9.242  0.5448  1.1993  1.3414
 5973SOL    HW229556   4.055   2.519   9.223 -0.3079 -1.7717  0.4588
 5974SOL     OW29557   3.806   3.854   6.242 -0.1221 -0.1566 -0.0714
 5974SOL    HW129558   3.806   3.928   6.181  2.7697  0.3778  0.5277
 5974SOL    HW229559   3.895   3.823   6.225 -0.2437  0.1456 -1.2312
 5975SOL     OW29560   0.218   4.151   6.745 -0.6191 -0.6075  0.4279
 5975SOL    HW129561   0.202   4.154   6.839  0.1210 -1.7019  0.5817
 5975SOL    HW229562   0.168   4.228   6.717 -0.9249 -1.0856 -0.3167
 5976SOL     OW29563   1.317   1.751   2.062 -0.3169  0.9563  0.1827
 5976SOL    HW129564   1.393   1.722   2.112  0.3133 -0.6649 -1.6852
 5976SOL    HW229565   1.351   1.835   2.031  1.0337  0.4174  0.2008
 5977SOL     OW29566   0.853   3.366  13.536 -0.2640  0.3493  0.2366
 5977SOL    HW129567   0.855   3.282  13.582 -0.3935  1.2765  1.9549
 5977SOL    HW229568   0.850   3.429  13.608  1.8203 -1.5257  1.9702
 5978SOL     OW29569   4.058   2.407   9.516  0.4336 -0.0762  0.4888
 5978SOL    HW129570   4.026   2.452   9.437  2.6415  1.3465  0.4037
 5978SOL    HW229571   3.989   2.442   9.573  1.5552  2.7674  0.1131
 5979SOL     OW29572   4.556   1.871  11.637 -0.3217 -0.2318 -0.4815
 5979SOL    HW129573   4.487   1.842  11.697  0.4946 -0.3239  0.4170
 5979SOL    HW229574   4.636   1.822  11.655 -1.6217 -1.5305  1.7770
 5980SOL     OW29575   3.690   4.675   9.762 -0.2376  0.1727  0.3583
 5980SOL    HW129576   3.726   4.641   9.680 -0.8433 -0.0847  0.1978
 5980SOL    HW229577   3.771   4.713   9.796 -0.2551 -0.9733  1.6568
 5981SOL     OW29578   3.623   3.263  12.067 -0.3003 -0.6631  0.5877
 5981SOL    HW129579   3.695   3.226  12.018  1.2399  3.0241  0.0444
 5981SOL    HW229580   3.651   3.249  12.158  2.8132  1.6948 -0.0184
 5982SOL     OW29581   2.410   4.182  17.455 -0.2033 -0.6072  0.3619
 5982SOL    HW129582   2.330   4.132  17.470  0.1342 -0.3733  3.0350
 5982SOL    HW229583   2.455   4.113  17.407  1.0638  0.5839 -0.1438
 5983SOL     OW29584   2.055   3.720   2.568  0.4315  0.1697  0.4179
 5983SOL    HW129585   2.107   3.768   2.633  0.7812  1.9013 -1.1536
 5983SOL    HW229586   2.023   3.646   2.620  0.9644  0.6618  1.4536
 5984SOL     OW29587   3.243   4.152   7.172  0.4084 -0.3077  0.1841
 5984SOL    HW129588   3.325   4.170   7.125 -0.0092  0.3781 -0.2894
 5984SOL    HW229589   3.178   4.135   7.104  0.4784  0.9310 -0.1917
 5985SOL     OW29590   2.036   0.474   7.477 -0.5511  0.7886  0.0726
 5985SOL    HW129591   1.976   0.431   7.416 -1.4897  0.7630  1.0051
 5985SOL    HW229592   1.979   0.468   7.554  0.1563  0.0705  0.5406
 5986SOL     OW29593   2.356   2.916   5.971  0.3849 -0.0596  0.2082
 5986SOL    HW129594   2.406   2.968   5.907  0.8229  0.2740  0.8253
 5986SOL    HW229595   2.345   2.843   5.910  1.4892 -0.2893  0.2754
 5987SOL     OW29596   1.998   0.532   1.631 -0.1909 -0.3926  0.5180
 5987SOL    HW129597   2.045   0.564   1.708 -0.5860  2.5488 -0.4507
 5987SOL    HW229598   1.930   0.475   1.665  0.0886 -0.4212  1.0271
 5988SOL     OW29599   2.132   1.964   7.047 -0.0376  0.0070 -1.0010
 5988SOL    HW129600   2.176   2.026   7.104  1.2484 -2.4086  0.6242
 5988SOL    HW229601   2.108   1.900   7.114 -1.7036  0.5823 -1.0412
 5989SOL     OW29602   1.162   3.263   7.123  0.3807  0.0142  0.4759
 5989SOL    HW129603   1.176   3.329   7.056  1.0726 -1.3702 -0.7322
 5989SOL    HW229604   1.071   3.235   7.110  0.2910  0.7418 -0.4419
 5990SOL     OW29605   3.151   2.490  15.619 -0.6482 -0.4778 -0.4680
 5990SOL    HW129606   3.219   2.536  15.669 -0.9185 -0.9727  0.3570
 5990SOL    HW229607   3.213   2.430  15.578 -1.0682 -1.1949 -0.0593
 5991SOL     OW29608   2.111   3.954   7.684  0.1757 -0.2225 -0.4244
 5991SOL    HW129609   2.109   3.870   7.730  0.2653 -0.6990 -1.2926
 5991SOL    HW229610   2.181   3.999   7.731  0.5647 -0.3159 -0.9184
 5992SOL     OW29611   1.076   0.596   0.030  0.1395 -0.2196  0.0242
 5992SOL    HW129612   0.982   0.582   0.021 -0.1198  1.6822 -0.1340
 5992SOL    HW229613   1.100   0.678  17.728  0.5193 -1.2284 -1.7016
 5993SOL     OW29614   1.338   1.815   2.490  0.1790  0.3049 -0.3654
 5993SOL    HW129615   1.258   1.809   2.438  0.3601  0.3164 -0.6455
 5993SOL    HW229616   1.351   1.724   2.518  0.9732  1.3188  2.5346
 5994SOL     OW29617   1.976   3.174   9.093  0.0783 -0.6966 -0.4767
 5994SOL    HW129618   2.029   3.252   9.110  0.3674 -0.8065 -0.8557
 5994SOL    HW229619   2.039   3.126   9.038  0.0181  0.5661 -1.6406
 5995SOL     OW29620   3.484   0.588   8.983 -0.1614  0.2041 -0.4284
 5995SOL    HW129621   3.469   0.679   8.958  1.3655  0.1542 -1.4887
 5995SOL    HW229622   3.450   0.542   8.906  0.2521 -0.8311  0.0066
 5996SOL     OW29623   1.646   0.838  15.866 -0.5348  0.2194  0.6183
 5996SOL    HW129624   1.707   0.860  15.796 -0.7315 -0.2531  0.3013
 5996SOL    HW229625   1.566   0.820  15.817 -0.9921  0.7343  1.1808
 5997SOL     OW29626   1.808   1.153  11.203 -0.4026 -0.1527  0.4656
 5997SOL    HW129627   1.832   1.187  11.117  1.8953 -4.0664 -0.4070
 5997SOL    HW229628   1.880   1.186  11.256 -0.0844  0.0531 -0.0938
 5998SOL     OW29629   0.275   0.377   7.780 -0.3699 -0.1988  0.3156
 5998SOL    HW129630   0.196   0.431   7.786  0.3622  0.5396  3.2154
 5998SOL    HW229631   0.227   0.295   7.770 -0.9220 -0.0342  1.5569
 5999SOL     OW29632   4.715   3.161   3.500 -0.3516 -0.2606  0.6391
 5999SOL    HW129633   4.666   3.209   3.433  0.2244  1.7980  1.6947
 5999SOL    HW229634   0.071   3.188   3.492 -0.4965 -0.0148 -0.2720
 6000SOL     OW29635   3.781   3.577   8.441 -0.0838  0.1436  0.4488
 6000SOL    HW129636   3.803   3.578   8.534 -0.8853 -1.5383  0.6733
 6000SOL    HW229637   3.770   3.482   8.428 -1.6606  0.4687 -0.5846
 6001SOL     OW29638   2.970   2.867  13.098 -0.8790 -0.2096  0.2405
 6001SOL    HW129639   3.030   2.796  13.074 -0.1482 -0.0990  1.7366
 6001SOL    HW229640   2.901   2.819  13.143 -0.5427  0.5158  1.5353
 6002SOL     OW29641   3.107   1.350  11.912 -0.3507  0.4995  0.0175
 6002SOL    HW129642   3.020   1.314  11.898  0.4322 -1.2064 -0.4511
 6002SOL    HW229643   3.099   1.390  11.999  0.4464  0.4128  0.1362
 6003SOL     OW29644   1.459   2.307   4.145 -0.4022 -0.7463 -0.0587
 6003SOL    HW129645   1.386   2.299   4.084 -0.2018  1.8523 -0.6261
 6003SOL    HW229646   1.455   2.217   4.180 -2.2706 -0.3692  0.7276
 6004SOL     OW29647   1.591   0.165   5.562  0.9626  0.0378  0.1642
 6004SOL    HW129648   1.583   0.204   5.649  1.5323  0.7390 -0.0957
 6004SOL    HW229649   1.610   0.251   5.524  0.9987 -0.7621 -1.6422
 6005SOL     OW29650   0.320   2.746   2.623 -0.0938  0.2355  0.4931
 6005SOL    HW129651   0.332   2.658   2.658  1.9014 -0.2994 -1.4852
 6005SOL    HW229652   0.268   2.734   2.543 -1.3359  1.0205  1.1789
 6006SOL     OW29653   0.969   4.714   7.748 -0.4276 -0.4367  0.0011
 6006SOL    HW129654   0.911   4.684   7.678  0.2309 -0.1185 -0.6821
 6006SOL    HW229655   0.960   4.646   7.815 -0.2274 -0.6249 -0.1637
 6007SOL     OW29656   3.446   0.045  10.000 -0.5649 -0.4904 -0.4105
 6007SOL    HW129657   3.515   0.105   9.971 -1.7320  1.1878  0.2809
 6007SOL    HW229658   3.474   0.031  10.090 -1.5969  0.6488  0.0875
 6008SOL     OW29659   3.677   0.884   3.113 -0.1180 -0.6810 -0.2414
 6008SOL    HW129660   3.624   0.845   3.044 -0.7227 -0.9670  0.3818
 6008SOL    HW229661   3.640   0.972   3.115 -0.0884 -0.6854  0.4251
 6009SOL     OW29662   4.337   3.796   6.043 -0.4128 -0.1756  0.1295
 6009SOL    HW129663   4.300   3.852   6.112  2.9459 -1.3896  2.9148
 6009SOL    HW229664   4.428   3.786   6.071 -0.9930 -0.1668  2.0254
 6010SOL     OW29665   1.123   1.855   7.594  0.4031  0.5609  0.7098
 6010SOL    HW129666   1.087   1.943   7.583  1.1381  0.6958 -0.6755
 6010SOL    HW229667   1.074   1.816   7.666  2.4324  0.5497  2.0781
 6011SOL     OW29668   1.497   4.272   3.742 -0.0147  0.2532 -0.2163
 6011SOL    HW129669   1.458   4.193   3.779 -0.0311 -1.1598 -3.2605
 6011SOL    HW229670   1.586   4.282   3.776 -0.0889  0.3029 -0.0340
 6012SOL     OW29671   3.635   0.946   1.967  0.4943 -0.0179 -0.1900
 6012SOL    HW129672   3.637   1.042   1.966 -0.8642  0.0040 -1.5682
 6012SOL    HW229673   3.665   0.919   1.880 -1.4875  0.7945 -1.1129
 6013SOL     OW29674   2.556   1.788   4.012 -0.6014 -0.0105 -0.0585
 6013SOL    HW129675   2.562   1.821   4.101  1.7804  0.4480 -0.4025
 6013SOL    HW229676   2.562   1.693   4.016 -1.3048 -0.0781 -0.5147
 6014SOL     OW29677   3.532   4.353   6.928  0.5839  0.0959 -0.5466
 6014SOL    HW129678   3.444   4.393   6.928  1.2189  1.5094 -1.4430
 6014SOL    HW229679   3.542   4.331   6.835 -1.4826  0.0915 -0.7796
 6015SOL     OW29680   2.891   4.257  13.459 -0.2774  0.4001  0.4568
 6015SOL    HW129681   2.835   4.192  13.502  1.7968  0.0756  2.6755
 6015SOL    HW229682   2.910   4.228  13.369 -0.7890  1.7198 -0.0700
 6016SOL     OW29683   1.045   2.565   5.582  0.2676  0.3797  0.8366
 6016SOL    HW129684   1.129   2.593   5.619  0.9452 -2.0451  1.1456
 6016SOL    HW229685   1.039   2.473   5.608  2.7365  0.0437  0.2308
 6017SOL     OW29686   1.543   2.135   0.575  0.3989 -0.5132  0.5399
 6017SOL    HW129687   1.477   2.190   0.534  0.9357 -0.5810 -0.4105
 6017SOL    HW229688   1.618   2.151   0.518  1.0456 -0.3965  1.4215
 6018SOL     OW29689   2.075   2.513   2.010 -0.2374 -0.5714  0.0174
 6018SOL    HW129690   2.010   2.550   2.070 -0.5066 -1.0851  0.0347
 6018SOL    HW229691   2.146   2.506   2.075  0.4321  1.2956 -0.5100
 6019SOL     OW29692   2.754   1.879   5.074 -0.3067  0.5016  0.5874
 6019SOL    HW129693   2.771   1.938   5.000 -0.8567  0.3766  0.3545
 6019SOL    HW229694   2.813   1.807   5.055 -0.7057  0.6688 -1.3292
 6020SOL     OW29695   0.881   3.474   1.179 -0.6792  0.3623 -0.1396
 6020SOL    HW129696   0.955   3.465   1.239  0.1298  1.2642 -0.9980
 6020SOL    HW229697   0.825   3.538   1.224 -1.7859  0.3418 -1.4898
 6021SOL     OW29698   3.710   4.591  11.253  0.0268  0.1472 -0.1637
 6021SOL    HW129699   3.638   4.583  11.190 -0.6467  2.6300  0.2974
 6021SOL    HW229700   3.732   4.501  11.278  1.0714  0.6816  0.8468
 6022SOL     OW29701   3.139   3.428   8.448  0.2261 -0.0806  0.1907
 6022SOL    HW129702   3.126   3.412   8.354 -0.1467  0.8417  0.0852
 6022SOL    HW229703   3.128   3.523   8.453 -0.5436 -0.2725  2.0661
 6023SOL     OW29704   4.011   3.318   3.946  0.5023  0.0330  0.6160
 6023SOL    HW129705   4.037   3.410   3.957 -1.4203  0.5896  0.5281
 6023SOL    HW229706   3.917   3.315   3.967  0.4088  1.2374  0.3920
 6024SOL     OW29707   2.163   4.518   8.357 -0.3027 -0.1568 -0.3256
 6024SOL    HW129708   2.126   4.606   8.362  0.0795  0.0402 -0.9543
 6024SOL    HW229709   2.104   4.472   8.297 -2.1749  1.9966 -0.1358
 6025SOL     OW29710   3.644   0.797   9.951 -0.2175 -0.3962 -0.0760
 6025SOL    HW129711   3.654   0.854   9.874  1.0699 -2.3598 -1.3744
 6025SOL    HW229712   3.558   0.830   9.976  0.6882  1.1621  1.0308
 6026SOL     OW29713   4.445   0.505   0.689  0.0746  0.0625 -0.3247
 6026SOL    HW129714   4.486   0.537   0.769  0.0920  0.4495 -0.4880
 6026SOL    HW229715   4.378   0.453   0.732 -0.6949 -0.1895 -1.8439
 6027SOL     OW29716   1.869   2.905   7.467 -0.5596 -0.4732 -0.1386
 6027SOL    HW129717   1.787   2.956   7.463  0.7447  1.7998  2.0413
 6027SOL    HW229718   1.932   2.971   7.495 -0.1229 -1.6192  1.5350
 6028SOL     OW29719   2.315   0.044   2.143  0.1689  0.2775 -0.1464
 6028SOL    HW129720   2.381   0.095   2.096 -1.7427  2.0620 -0.8867
 6028SOL    HW229721   2.242   0.055   2.082  1.0401  2.1179 -0.8521
 6029SOL     OW29722   3.533   4.666   5.418 -0.4432  0.0792 -0.5605
 6029SOL    HW129723   3.615   4.683   5.373  0.2389  0.6669  0.9240
 6029SOL    HW229724   3.540   4.735   5.483  0.2394 -0.6704  0.1558
 6030SOL     OW29725   3.664   2.865   9.329 -0.4872 -0.5239 -0.2336
 6030SOL    HW129726   3.570   2.865   9.311 -0.6857  0.7315  0.8590
 6030SOL    HW229727   3.679   2.959   9.338 -0.8207 -0.2616 -2.4493
 6031SOL     OW29728   4.666   2.193   5.163  0.2823 -1.1882 -0.3518
 6031SOL    HW129729   4.596   2.149   5.114 -1.0833  0.7702 -0.1353
 6031SOL    HW229730   4.680   2.130   5.234  0.5850 -0.0904  0.5587
 6032SOL     OW29731   2.447   1.221   1.231  0.5568  0.4197 -0.2289
 6032SOL    HW129732   2.477   1.213   1.140 -0.9361  0.8981 -0.7605
 6032SOL    HW229733   2.389   1.296   1.223 -1.5649 -1.3341 -1.3919
 6033SOL     OW29734   0.845   0.266   3.798 -0.7234  0.2047  0.6206
 6033SOL    HW129735   0.875   0.348   3.759  0.1445  0.3453  1.5864
 6033SOL    HW229736   0.757   0.266   3.761 -1.5092 -1.0469  2.5538
 6034SOL     OW29737   0.592   1.676   8.472 -0.2036 -0.2560  0.5901
 6034SOL    HW129738   0.496   1.677   8.482 -0.0238 -1.0972  2.2492
 6034SOL    HW229739   0.616   1.633   8.554 -0.0656 -1.5753 -0.1434
 6035SOL     OW29740   3.446   1.115   5.588  0.6021 -0.2017  0.5885
 6035SOL    HW129741   3.529   1.080   5.555 -0.6678  0.5442 -3.3766
 6035SOL    HW229742   3.450   1.112   5.684  0.5891 -0.0870  0.5928
 6036SOL     OW29743   1.798   4.478  13.042  0.4558 -0.1955  0.1472
 6036SOL    HW129744   1.790   4.506  12.950 -0.2292 -3.0053 -0.6488
 6036SOL    HW229745   1.793   4.383  13.028 -1.6469  0.0780 -1.0002
 6037SOL     OW29746   1.610   2.714  13.472  0.1310  0.3516 -0.1449
 6037SOL    HW129747   1.551   2.639  13.473  1.2833 -0.5484  0.0376
 6037SOL    HW229748   1.550   2.776  13.431  0.7926  1.4995  0.5829
 6038SOL     OW29749   1.178   1.111  11.397  0.5174 -0.0473 -0.1239
 6038SOL    HW129750   1.243   1.166  11.354  2.4267 -1.1241  1.3695
 6038SOL    HW229751   1.168   1.040  11.333 -1.2571 -1.0461  1.2563
 6039SOL     OW29752   0.095   1.615   6.116  0.4756  0.3231 -0.1179
 6039SOL    HW129753   0.093   1.709   6.100 -0.2958  0.2950 -0.2242
 6039SOL    HW229754   0.085   1.584   6.026  1.9077  0.2799 -0.2523
 6040SOL     OW29755   3.110   0.810  13.281  0.1203 -0.1439  0.3648
 6040SOL    HW129756   3.088   0.744  13.215 -0.6663  0.6097 -0.1323
 6040SOL    HW229757   3.026   0.810  13.328 -1.2004  0.6272 -1.9391
 6041SOL     OW29758   3.328   3.211  12.298 -0.7620 -0.5983 -0.1781
 6041SOL    HW129759   3.279   3.291  12.321  0.6754  0.5159 -0.9830
 6041SOL    HW229760   3.416   3.239  12.325 -0.4883  0.7591 -2.4773
 6042SOL     OW29761   4.615   1.791   1.940 -0.3844  0.0635  0.3435
 6042SOL    HW129762   4.668   1.868   1.918 -1.1914  0.8181  1.0855
 6042SOL    HW229763   4.616   1.791   2.036 -1.9485 -0.6098  0.3660
 6043SOL     OW29764   1.039   4.621   2.767 -0.2326 -0.2651  0.1703
 6043SOL    HW129765   1.128   4.638   2.736 -0.7526  1.2804 -0.4728
 6043SOL    HW229766   0.992   4.639   2.685 -0.9669 -1.1878  0.3876
 6044SOL     OW29767   3.117   1.640   3.380  0.1334 -0.1957  0.5217
 6044SOL    HW129768   3.116   1.671   3.470 -2.7942 -0.3822  0.5359
 6044SOL    HW229769   3.048   1.698   3.348  2.1298  0.6823 -2.2807
 6045SOL     OW29770   1.820   1.368   9.093 -0.0531 -0.0759 -0.3377
 6045SOL    HW129771   1.880   1.419   9.149 -0.9721  2.1196 -1.3606
 6045SOL    HW229772   1.877   1.295   9.069  1.6644  1.6092 -1.3663
 6046SOL     OW29773   0.127   0.132   7.477 -0.0159 -0.4027 -0.0534
 6046SOL    HW129774   0.211   0.100   7.444  0.6971  1.9983 -0.5578
 6046SOL    HW229775   0.139   0.180   7.558 -0.8336  0.2738 -0.3305
 6047SOL     OW29776   3.692   3.725  16.776  0.2138  0.6635 -0.1254
 6047SOL    HW129777   3.759   3.745  16.842  0.5928  0.5455 -0.4749
 6047SOL    HW229778   3.738   3.728  16.692 -0.7739 -0.3914 -0.7161
 6048SOL     OW29779   0.002   0.374   5.774  0.0664  0.7178  0.6410
 6048SOL    HW129780   4.676   0.336   5.712 -0.7498  0.1312  1.8016
 6048SOL    HW229781   0.068   0.305   5.781 -1.4294 -0.9244 -1.3546
 6049SOL     OW29782   0.077   4.533   7.431  0.0287  0.1211  0.1149
 6049SOL    HW129783   0.013   4.464   7.450 -0.9471  0.6989 -1.1059
 6049SOL    HW229784   0.046   4.553   7.343  1.5822  2.1453  0.0459
 6050SOL     OW29785   2.567   1.448  15.227  0.0773  0.4427  0.6159
 6050SOL    HW129786   2.536   1.538  15.238  0.7747  0.6558  0.7865
 6050SOL    HW229787   2.633   1.475  15.164  0.9399  1.2851  1.8885
 6051SOL     OW29788   0.600   3.735   3.458  0.2931  0.5129  1.0064
 6051SOL    HW129789   0.643   3.661   3.415 -1.9527 -0.1308 -0.1013
 6051SOL    HW229790   0.600   3.701   3.547 -1.0305  1.0120  1.1951
 6052SOL     OW29791   4.504   3.176   2.658 -0.5862  0.2758  0.1808
 6052SOL    HW129792   4.509   3.263   2.618 -1.1892  0.6289  0.8677
 6052SOL    HW229793   4.571   3.138   2.601  0.7087  0.2925  1.7072
 6053SOL     OW29794   2.008   0.905   0.650 -0.2421 -0.2203 -0.0420
 6053SOL    HW129795   1.927   0.892   0.601 -0.1328 -2.2355  0.3104
 6053SOL    HW229796   1.997   0.831   0.710  1.0567  0.7538  1.4066
 6054SOL     OW29797   3.945   1.008   2.403 -0.1152  0.1198  0.0799
 6054SOL    HW129798   4.013   0.942   2.387 -0.4948 -0.4351  0.7295
 6054SOL    HW229799   3.982   1.078   2.456 -0.2841  1.2229 -1.2758
 6055SOL     OW29800   1.006   0.653   7.591 -0.9551 -0.8515  0.4712
 6055SOL    HW129801   1.063   0.609   7.654 -1.0071 -1.1663  0.3020
 6055SOL    HW229802   1.064   0.645   7.515 -0.9173  0.4836  0.3718
 6056SOL     OW29803   3.764   1.013  12.711 -0.6288 -0.2503 -0.0248
 6056SOL    HW129804   3.848   1.022  12.665 -0.0031  0.1612  1.2028
 6056SOL    HW229805   3.788   0.944  12.773  0.5559  0.1766 -0.0020
 6057SOL     OW29806   3.824   2.033   6.677 -0.7790 -0.2110  0.2574
 6057SOL    HW129807   3.744   2.056   6.631  0.9635  2.1645 -1.5786
 6057SOL    HW229808   3.799   2.058   6.766  2.9247  1.4609  0.8399
 6058SOL     OW29809   3.747   2.728   8.921  0.5766 -0.2295 -0.1517
 6058SOL    HW129810   3.690   2.694   8.852  0.5191  0.2627 -0.3472
 6058SOL    HW229811   3.708   2.815   8.927  0.3136 -0.3323 -0.4042
 6059SOL     OW29812   3.397   0.680  11.124 -0.2989  0.8682 -0.3995
 6059SOL    HW129813   3.315   0.706  11.166 -0.3257  0.5471 -0.2538
 6059SOL    HW229814   3.437   0.766  11.110  0.3891  0.4510 -1.0099
 6060SOL     OW29815   2.517   4.111   8.515 -0.1570 -0.4972  0.1824
 6060SOL    HW129816   2.438   4.064   8.544 -0.4868 -1.1354 -1.7616
 6060SOL    HW229817   2.502   4.096   8.422 -3.5605  0.1412  0.6246
 6061SOL     OW29818   1.154   1.431   8.831  0.1945 -0.2707  0.1038
 6061SOL    HW129819   1.076   1.382   8.802  1.3271 -1.4331 -0.9858
 6061SOL    HW229820   1.141   1.519   8.797  0.5091 -0.6588 -1.0170
 6062SOL     OW29821   1.086   3.803   4.640  0.4071  0.1705  0.0736
 6062SOL    HW129822   1.111   3.812   4.732  2.4261 -1.0276 -0.3609
 6062SOL    HW229823   1.025   3.729   4.642  1.0934 -0.3586  1.7392
 6063SOL     OW29824   4.419   4.546   9.115  0.4334 -0.0194 -0.4543
 6063SOL    HW129825   4.450   4.624   9.159 -0.9773 -0.0357  0.5803
 6063SOL    HW229826   4.376   4.581   9.037 -0.1637  2.5057  1.0018
 6064SOL     OW29827   0.684   4.532   8.091 -0.5765  0.4056 -0.7351
 6064SOL    HW129828   0.707   4.548   8.183  2.3750 -0.5417 -1.2993
 6064SOL    HW229829   0.635   4.612   8.073  0.2970  1.2047  0.3826
 6065SOL     OW29830   3.817   0.956   8.263 -0.4554  0.3424  0.3849
 6065SOL    HW129831   3.906   0.987   8.250 -0.4495  0.4475  0.6685
 6065SOL    HW229832   3.835   0.870   8.300 -1.5467  0.6682  1.7170
 6066SOL     OW29833   0.135   2.513   8.461 -0.6850 -0.4701  0.1481
 6066SOL    HW129834   0.060   2.565   8.491 -1.4607 -1.3737 -0.2155
 6066SOL    HW229835   0.152   2.454   8.534 -0.5012  1.1476  1.4198
 6067SOL     OW29836   4.411   1.883   7.713 -0.8767  0.1832  0.3053
 6067SOL    HW129837   4.321   1.882   7.680 -1.0841 -0.8014  0.8853
 6067SOL    HW229838   4.438   1.791   7.714 -0.5372  0.2707 -1.0819
 6068SOL     OW29839   4.397   4.412  14.137 -0.3798  0.1628  0.0272
 6068SOL    HW129840   4.431   4.369  14.059 -2.2721 -1.3378  0.0220
 6068SOL    HW229841   4.350   4.340  14.180  1.2552  0.2221  1.9178
 6069SOL     OW29842   2.936   0.257   9.362 -0.0734 -0.1055  0.4774
 6069SOL    HW129843   2.884   0.186   9.324 -0.2935  1.2947 -1.8154
 6069SOL    HW229844   3.017   0.206   9.366 -0.4726 -0.9215 -1.7612
 6070SOL     OW29845   1.281   1.100   5.990 -0.1144 -0.2483 -0.6667
 6070SOL    HW129846   1.236   1.052   5.919  0.3722  0.3028 -1.3430
 6070SOL    HW229847   1.349   1.142   5.938 -0.5538 -0.3615 -1.3363
 6071SOL     OW29848   0.944   2.835   5.574 -0.5682 -0.3165 -0.4419
 6071SOL    HW129849   0.943   2.873   5.661 -0.5572 -1.7394  0.1872
 6071SOL    HW229850   0.990   2.751   5.585 -1.2074 -0.5969  0.0535
 6072SOL     OW29851   3.112   1.193   8.767  0.0707  0.6240 -0.2699
 6072SOL    HW129852   3.194   1.233   8.796 -0.4049  0.8768  0.7120
 6072SOL    HW229853   3.144   1.103   8.763  0.0659  0.5890  0.5217
 6073SOL     OW29854   3.838   1.594  13.128  0.0575 -0.4889  0.3874
 6073SOL    HW129855   3.879   1.532  13.189  1.2367 -0.4317 -0.3502
 6073SOL    HW229856   3.885   1.556  13.054  2.4843  0.5053  1.3949
 6074SOL     OW29857   3.565   1.784   9.208  0.2999  0.4060 -0.2101
 6074SOL    HW129858   3.646   1.789   9.158  1.2031 -1.5077  1.0425
 6074SOL    HW229859   3.516   1.850   9.160 -0.4135 -0.3063 -0.4690
 6075SOL     OW29860   4.294   4.452   3.531  0.2888  0.1214 -0.3461
 6075SOL    HW129861   4.242   4.373   3.517 -0.9017  0.7255  0.5919
 6075SOL    HW229862   4.219   4.511   3.534 -0.7950 -1.0546 -4.5794
 6076SOL     OW29863   0.121   0.855   3.734  0.0383  0.0515  0.0902
 6076SOL    HW129864   0.154   0.830   3.821  1.1453  0.0222 -0.3311
 6076SOL    HW229865   0.140   0.780   3.677  2.8386 -1.2822  2.7536
 6077SOL     OW29866   3.860   1.689   6.214  0.3217  0.0161  0.0541
 6077SOL    HW129867   3.952   1.702   6.238  0.5933 -0.3910 -0.7747
 6077SOL    HW229868   3.845   1.779   6.185 -0.8224  0.0527  0.7815
 6078SOL     OW29869   2.122   3.912   9.173 -0.2016  0.2276 -0.3270
 6078SOL    HW129870   2.208   3.941   9.144 -0.1430  1.4922  1.1685
 6078SOL    HW229871   2.112   3.824   9.134 -3.3069  1.4893 -2.3916
 6079SOL     OW29872   2.698   2.425   6.202  0.0472  0.7765 -0.2485
 6079SOL    HW129873   2.675   2.350   6.148  3.0384  0.0894 -0.5548
 6079SOL    HW229874   2.615   2.456   6.239 -0.2636 -0.5809  0.1795
 6080SOL     OW29875   0.967   2.531  10.579  0.2143  0.5265 -0.2607
 6080SOL    HW129876   0.887   2.503  10.623  0.2364 -0.3219 -0.7675
 6080SOL    HW229877   1.038   2.521  10.643 -1.2654 -0.0079  1.2859
 6081SOL     OW29878   3.772   3.453   8.088  0.0329 -0.2906  0.8509
 6081SOL    HW129879   3.757   3.359   8.092 -0.9682 -0.1133  1.2584
 6081SOL    HW229880   3.687   3.496   8.100  0.0718 -0.0352  0.2061
 6082SOL     OW29881   2.623   3.175   2.071 -0.3315 -0.2285  0.8142
 6082SOL    HW129882   2.552   3.175   2.136  2.0297  1.2550  3.3714
 6082SOL    HW229883   2.674   3.248   2.105  0.2441 -0.9190  1.4513
 6083SOL     OW29884   3.688   3.464   0.488 -0.2161 -0.0258 -0.5482
 6083SOL    HW129885   3.692   3.387   0.430  1.4390 -0.8100  0.6114
 6083SOL    HW229886   3.617   3.431   0.543  1.9994  0.8039  2.8025
 6084SOL     OW29887   3.313   0.139   2.629  0.2455 -0.3433  0.0475
 6084SOL    HW129888   3.341   0.220   2.587 -0.0317 -1.1034 -1.6402
 6084SOL    HW229889   3.228   0.122   2.588  0.8075 -1.4085 -0.6807
 6085SOL     OW29890   1.506   1.425   7.368  0.2170  0.1461 -0.1690
 6085SOL    HW129891   1.577   1.480   7.402  0.7741 -1.3977  1.1500
 6085SOL    HW229892   1.429   1.470   7.404 -0.5457  0.8269 -2.6306
 6086SOL     OW29893   1.013   0.350  15.752 -0.0557  0.2192  0.0025
 6086SOL    HW129894   1.024   0.280  15.817  0.6774  0.8123  0.5211
 6086SOL    HW229895   1.099   0.363  15.712 -0.7237 -2.4273 -2.3361
 6087SOL     OW29896   1.375   3.409  13.589  0.0346 -0.0579 -0.3167
 6087SOL    HW129897   1.310   3.479  13.584  1.7885  1.5990 -0.2580
 6087SOL    HW229898   1.407   3.433  13.676 -0.6816 -3.8621  1.0088
 6088SOL     OW29899   2.775   1.966   6.075  0.4017  0.3139 -0.0450
 6088SOL    HW129900   2.831   1.972   6.152  0.0793  3.3789 -0.0617
 6088SOL    HW229901   2.710   1.899   6.101  0.5287  0.0884 -0.3124
 6089SOL     OW29902   1.841   4.269  15.196  0.1454  0.0722 -0.0594
 6089SOL    HW129903   1.934   4.276  15.172  0.5279  0.1823  1.4886
 6089SOL    HW229904   1.840   4.273  15.291  2.0007 -0.6950 -0.0047
 6090SOL     OW29905   3.955   2.019  14.294  0.2929 -0.0851  0.0739
 6090SOL    HW129906   4.048   2.003  14.280  0.3405  2.3301 -2.2226
 6090SOL    HW229907   3.953   2.075  14.372 -0.6297  0.5232 -0.3927
 6091SOL     OW29908   3.469   1.413   2.267  0.2834 -0.0823  0.3836
 6091SOL    HW129909   3.430   1.330   2.237 -1.2042  1.3004 -1.5021
 6091SOL    HW229910   3.396   1.439   2.324  0.1440 -1.2909  0.7654
 6092SOL     OW29911   1.473   3.848   7.053  0.0240 -0.7074  0.7551
 6092SOL    HW129912   1.514   3.790   7.117  3.3053 -0.4822 -1.1298
 6092SOL    HW229913   1.486   3.797   6.973  0.1947  0.4482  0.0395
 6093SOL     OW29914   2.884   0.715   7.087 -0.1224 -0.2876 -0.1002
 6093SOL    HW129915   2.813   0.731   7.025 -0.1404 -1.9378 -0.4992
 6093SOL    HW229916   2.943   0.660   7.035 -0.0930  0.8391 -1.2631
 6094SOL     OW29917   1.453   0.081   6.676 -0.1469 -0.0634  0.1556
 6094SOL    HW129918   1.359   0.068   6.673 -0.1357 -0.3763  1.6337
 6094SOL    HW229919   1.449   0.107   6.583 -2.4514 -1.9183 -0.2576
 6095SOL     OW29920   2.258   2.571   7.562 -0.4463 -0.3277  0.2877
 6095SOL    HW129921   2.260   2.477   7.581 -0.8111 -0.6835 -1.4627
 6095SOL    HW229922   2.242   2.602   7.651 -1.7978 -0.8283  0.2246
 6096SOL     OW29923   1.920   0.142   1.666  0.2344 -0.2241  0.2768
 6096SOL    HW129924   1.917   0.046   1.664 -0.9469 -0.2035  1.4262
 6096SOL    HW229925   1.863   0.167   1.739  0.2578  1.9221 -0.4612
 6097SOL     OW29926   3.651   4.366   7.826 -0.6219 -0.0686 -0.1617
 6097SOL    HW129927   3.622   4.365   7.735  2.3876  2.8199 -1.1290
 6097SOL    HW229928   3.711   4.292   7.814 -0.9654 -0.5248  0.8934
 6098SOL     OW29929   1.742   2.207   1.341  0.2458  0.0408 -0.2278
 6098SOL    HW129930   1.695   2.128   1.313 -0.4721  0.7836 -1.1399
 6098SOL    HW229931   1.823   2.162   1.365  0.6186  0.4455 -0.7255
 6099SOL     OW29932   3.590   3.787   7.789 -0.1411 -0.1461 -0.7757
 6099SOL    HW129933   3.674   3.741   7.797  0.1068  0.4506  0.0121
 6099SOL    HW229934   3.578   3.791   7.694 -1.1256 -0.3098 -0.6503
 6100SOL     OW29935   4.600   0.529   7.388 -0.6312 -0.2803  0.3590
 6100SOL    HW129936   4.693   0.539   7.409 -0.5531 -1.0472  0.3979
 6100SOL    HW229937   4.589   0.441   7.425  0.6851 -0.6184 -0.0489
 6101SOL     OW29938   1.551   0.755   3.402  1.0227  0.3496 -0.0687
 6101SOL    HW129939   1.516   0.806   3.475  0.7540 -0.2579  0.2281
 6101SOL    HW229940   1.630   0.719   3.441  0.5565 -2.1522 -1.4923
 6102SOL     OW29941   3.431   2.982   7.118 -0.2597 -0.4773 -0.3813
 6102SOL    HW129942   3.457   2.899   7.078  0.5452  0.1386 -1.1266
 6102SOL    HW229943   3.515   3.007   7.156 -1.8796 -1.0767  3.5913
 6103SOL     OW29944   4.489   2.530   7.722 -0.3297 -0.5606 -0.4215
 6103SOL    HW129945   4.501   2.460   7.657 -0.4868 -0.3529 -0.6711
 6103SOL    HW229946   4.522   2.605   7.673 -2.4734 -0.7280 -2.1126
 6104SOL     OW29947   4.342   0.874   2.215 -0.3189 -0.2584  0.0341
 6104SOL    HW129948   4.326   0.857   2.122  2.9937  0.8667 -0.7353
 6104SOL    HW229949   4.270   0.833   2.263  0.2154 -0.1555  0.9216
 6105SOL     OW29950   0.742   2.127   1.855 -0.3300  0.1180  0.3341
 6105SOL    HW129951   0.760   2.123   1.761  0.2718  0.7153  0.4221
 6105SOL    HW229952   0.647   2.133   1.853 -0.2594  1.2222  0.2883
 6106SOL     OW29953   3.056   2.474   6.979 -0.0973 -0.5577  0.0625
 6106SOL    HW129954   2.992   2.459   7.048  0.2304 -1.6140  0.1458
 6106SOL    HW229955   3.133   2.457   7.034 -0.0780  0.9317  0.4806
 6107SOL     OW29956   4.089   2.453   0.883  0.0275 -0.0014 -0.0134
 6107SOL    HW129957   4.154   2.507   0.927 -1.0331  0.9962  0.3396
 6107SOL    HW229958   4.102   2.362   0.909  1.0996 -0.2010 -1.2053
 6108SOL     OW29959   1.830   1.000   4.008 -0.4930  0.2265 -0.5459
 6108SOL    HW129960   1.772   1.057   3.958 -0.8604  1.2499  1.0287
 6108SOL    HW229961   1.777   0.921   4.023  1.0962 -1.0507 -1.6111
 6109SOL     OW29962   1.154   4.108   2.781  0.0158 -0.3290 -0.0370
 6109SOL    HW129963   1.061   4.086   2.769  0.5699 -2.2481 -0.7143
 6109SOL    HW229964   1.156   4.196   2.819  0.1726 -1.5120  2.6842
 6110SOL     OW29965   4.665   4.470   4.768 -0.0539  0.3749  0.2369
 6110SOL    HW129966   4.684   4.406   4.699 -1.4691  0.1242  0.0709
 6110SOL    HW229967   4.575   4.441   4.782 -0.4529  1.4256 -0.1764
 6111SOL     OW29968   2.679   3.570   6.530  0.1565  0.1294  0.6151
 6111SOL    HW129969   2.627   3.610   6.461 -1.1033 -0.2597  1.3437
 6111SOL    HW229970   2.655   3.478   6.513  0.0522  0.6407 -1.9697
 6112SOL     OW29971   2.716   4.478  13.281  0.4718  0.1227 -0.0502
 6112SOL    HW129972   2.742   4.391  13.251 -0.6179 -0.8736  1.8732
 6112SOL    HW229973   2.629   4.462  13.318  1.2872  0.7768  2.1663
 6113SOL     OW29974   0.515   3.902  15.666  0.4075 -0.0555 -0.6363
 6113SOL    HW129975   0.432   3.895  15.619 -1.1121 -0.5237  2.1204
 6113SOL    HW229976   0.563   3.826  15.634  0.6993  0.0810 -0.5258
 6114SOL     OW29977   1.939   0.794  14.568 -0.7053  0.4870  0.1552
 6114SOL    HW129978   1.911   0.834  14.485 -0.7434  0.4694  0.1595
 6114SOL    HW229979   2.033   0.800  14.553 -0.7472 -1.1142 -0.8346
 6115SOL     OW29980   2.646   0.899   1.222 -0.1988  0.4524 -0.6387
 6115SOL    HW129981   2.613   0.869   1.137  0.2459 -1.3738 -0.1741
 6115SOL    HW229982   2.733   0.919   1.188  0.2116  0.4428  0.4089
 6116SOL     OW29983   1.237   2.962  13.119 -0.1953  0.1532  0.0210
 6116SOL    HW129984   1.251   3.018  13.043  0.4818 -1.3214 -0.9176
 6116SOL    HW229985   1.146   2.985  13.138  0.9809  3.9551  1.1281
 6117SOL     OW29986   3.257   4.362  16.197 -0.2974 -0.2084 -0.0710
 6117SOL    HW129987   3.276   4.320  16.113  0.1828 -1.1283  0.4958
 6117SOL    HW229988   3.212   4.438  16.160 -0.1751  0.5545  1.3593
 6118SOL     OW29989   2.631   0.452   6.870  0.0091 -0.0680 -0.1387
 6118SOL    HW129990   2.558   0.419   6.922 -0.5498  1.0326 -0.2164
 6118SOL    HW229991   2.700   0.435   6.934  0.7009 -0.8051 -1.0847
 6119SOL     OW29992   1.106   4.093  13.261 -0.0539  0.1722 -0.4411
 6119SOL    HW129993   1.078   4.179  13.231 -0.0067  0.7553  1.2487
 6119SOL    HW229994   1.065   4.091  13.347 -2.1058  2.9408 -1.3677
 6120SOL     OW29995   2.813   4.015  17.054  0.2290 -0.3828  0.4141
 6120SOL    HW129996   2.874   4.011  16.980 -1.3166 -0.3636 -0.8521
 6120SOL    HW229997   2.737   4.055  17.012  1.2950  0.0350 -1.1330
 6121SOL     OW29998   3.365   3.169   1.142  0.7696 -0.5525 -0.7738
 6121SOL    HW129999   3.328   3.240   1.195  0.2835 -1.6839  0.4158
 6121SOL    HW230000   3.432   3.132   1.199 -1.1961  0.0396  1.9276
 6122SOL     OW30001   0.763   0.700   3.677  0.3718  0.5416  0.4298
 6122SOL    HW130002   0.782   0.770   3.614 -2.1849  0.8748  0.0275
 6122SOL    HW230003   0.754   0.741   3.763 -0.1109 -1.4209  1.3284
 6123SOL     OW30004   3.530   0.918  15.148  0.2988 -0.2150 -0.3701
 6123SOL    HW130005   3.569   0.976  15.082 -0.8092  2.0038  0.9259
 6123SOL    HW230006   3.590   0.843  15.152 -0.3931 -0.8357 -1.5148
 6124SOL     OW30007   2.536   0.124   7.362  0.0802  0.3440  0.2584
 6124SOL    HW130008   2.453   0.080   7.379 -0.2152  1.1587  0.9529
 6124SOL    HW230009   2.545   0.106   7.269  2.5661  2.9460 -0.0216
 6125SOL     OW30010   4.140   1.149   9.657  0.2528  0.5152 -0.1189
 6125SOL    HW130011   4.171   1.059   9.650 -2.1881 -0.2699 -0.9805
 6125SOL    HW230012   4.048   1.132   9.635  0.5441 -1.1266 -0.0451
 6126SOL     OW30013   3.257   3.055  11.590 -0.0564  0.5642 -0.3263
 6126SOL    HW130014   3.174   3.085  11.627  0.3194  0.6266  0.4565
 6126SOL    HW230015   3.242   2.960  11.593  0.3247  0.6112  2.7374
 6127SOL     OW30016   4.466   3.081   5.827  0.2090  0.2698  0.1774
 6127SOL    HW130017   4.488   3.013   5.764 -1.7791 -0.2614  0.0573
 6127SOL    HW230018   4.405   3.127   5.770  1.5702  1.1573 -0.5467
 6128SOL     OW30019   1.460   1.579   6.342  0.2494 -0.1117  0.2304
 6128SOL    HW130020   1.534   1.562   6.283 -0.3685 -0.5616 -0.4179
 6128SOL    HW230021   1.503   1.590   6.427  1.5527 -0.7056 -0.3331
 6129SOL     OW30022   2.803   0.268   1.955 -0.3698 -0.0758  0.2034
 6129SOL    HW130023   2.857   0.237   2.027 -0.4114 -0.1078  0.2208
 6129SOL    HW230024   2.791   0.190   1.900 -1.3170  1.7728 -2.2494
 6130SOL     OW30025   4.479   1.121   4.235 -0.6725 -0.1565  0.5376
 6130SOL    HW130026   4.404   1.100   4.178 -0.9289  1.5759  0.2382
 6130SOL    HW230027   4.531   1.170   4.171 -1.1281 -0.2016  0.1337
 6131SOL     OW30028   2.588   3.917   1.118  0.3399 -0.5416  0.1734
 6131SOL    HW130029   2.640   3.923   1.198 -0.0714  0.7305  0.3448
 6131SOL    HW230030   2.650   3.951   1.052  0.1886 -1.5554 -0.4925
 6132SOL     OW30031   0.984   3.096  15.058  0.4981 -0.3349  0.4834
 6132SOL    HW130032   0.922   3.034  15.097 -0.4322  1.3978  1.7606
 6132SOL    HW230033   0.967   3.075  14.966 -0.1797  0.6556  0.3779
 6133SOL     OW30034   3.711   3.456  12.727  0.0118 -0.1894  0.3971
 6133SOL    HW130035   3.747   3.526  12.782 -0.6247  0.7825 -0.4188
 6133SOL    HW230036   3.673   3.511  12.659  1.9596  1.0050  0.2741
 6134SOL     OW30037   4.399   3.980   8.473  0.4612 -0.0740  0.2354
 6134SOL    HW130038   4.412   3.939   8.559  1.5651  2.1582  1.1273
 6134SOL    HW230039   4.374   4.069   8.498 -0.0507  0.0294 -0.6323
 6135SOL     OW30040   0.332   0.640   4.485 -0.1444 -0.4127  0.5606
 6135SOL    HW130041   0.271   0.569   4.462 -0.6686  0.3419 -0.3553
 6135SOL    HW230042   0.420   0.611   4.458 -0.3625 -1.7687  1.2857
 6136SOL     OW30043   0.166   0.301   1.619  0.5722 -0.2112 -0.8341
 6136SOL    HW130044   0.112   0.249   1.559  1.8388 -0.9694 -1.3290
 6136SOL    HW230045   0.187   0.378   1.566  4.1040  0.2147  1.1761
 6137SOL     OW30046   2.789   4.122  10.044  0.0569 -0.5072  0.5875
 6137SOL    HW130047   2.832   4.109   9.959  0.3679  0.4371  0.5934
 6137SOL    HW230048   2.699   4.135  10.016  0.3777  0.2241 -0.1290
 6138SOL     OW30049   3.851   3.777   3.497  0.0051 -0.4221  0.4704
 6138SOL    HW130050   3.856   3.704   3.558 -0.9443  0.6588  1.8449
 6138SOL    HW230051   3.872   3.722   3.421 -0.7224 -1.0225  0.7152
 6139SOL     OW30052   3.959   3.169   7.350 -0.1781  0.2027  0.0614
 6139SOL    HW130053   4.021   3.191   7.420 -1.0088 -0.7987  1.1266
 6139SOL    HW230054   3.890   3.141   7.411 -0.9776  0.9251 -0.5179
 6140SOL     OW30055   0.752   4.437   3.412  0.3984 -0.8477 -0.0401
 6140SOL    HW130056   0.761   4.476   3.325 -1.5561 -1.6481 -0.5922
 6140SOL    HW230057   0.838   4.448   3.453  0.9334 -3.2162 -0.5363
 6141SOL     OW30058   4.300   2.235  17.687 -0.0997 -0.2326  0.4656
 6141SOL    HW130059   4.263   2.209  17.603  0.3802  1.2378 -0.2040
 6141SOL    HW230060   4.309   2.326  17.659  1.1682  0.0861  1.9455
 6142SOL     OW30061   4.378   1.844  14.364  0.6769  0.5708 -0.3632
 6142SOL    HW130062   4.322   1.893  14.303 -0.7428  0.6808  1.0374
 6142SOL    HW230063   4.391   1.768  14.307 -1.7438  0.2212 -0.4608
 6143SOL     OW30064   4.436   0.804   4.030 -0.4401 -0.5475  0.1385
 6143SOL    HW130065   4.457   0.802   3.937  2.1253 -2.6605  0.7674
 6143SOL    HW230066   4.341   0.801   4.045 -0.5444 -0.1803 -0.4527
 6144SOL     OW30067   0.482   1.531   3.441 -0.2701  0.9798  0.0061
 6144SOL    HW130068   0.485   1.569   3.353 -0.8464  1.3090  0.1297
 6144SOL    HW230069   0.569   1.565   3.462  0.7744 -1.0112 -1.1597
 6145SOL     OW30070   0.426   1.650  14.633  0.3480  0.1017  0.0936
 6145SOL    HW130071   0.441   1.733  14.588 -0.3461  0.4009  0.4067
 6145SOL    HW230072   0.350   1.681  14.683 -0.7901  0.9728 -2.1762
 6146SOL     OW30073   1.791   4.216   7.617  0.1715  0.1207 -0.6414
 6146SOL    HW130074   1.765   4.285   7.556 -0.5412  0.8149  0.4597
 6146SOL    HW230075   1.862   4.256   7.667  2.0766 -0.9925 -2.4305
 6147SOL     OW30076   0.014   3.863   3.922 -0.0395  0.0863  1.0757
 6147SOL    HW130077   4.672   3.862   3.866  0.2720  1.0375  0.6219
 6147SOL    HW230078   0.040   3.955   3.916 -1.1909  0.2473 -1.5905
 6148SOL     OW30079   2.819   2.364  17.189 -0.2700  0.5263 -0.0700
 6148SOL    HW130080   2.733   2.382  17.227 -0.2749 -0.6450  0.4807
 6148SOL    HW230081   2.880   2.426  17.231 -0.1133 -0.6536  1.4400
 6149SOL     OW30082   4.316   0.017   2.286  0.5308 -0.4428  0.2000
 6149SOL    HW130083   4.330   4.668   2.328  0.0063  0.3605  2.0065
 6149SOL    HW230084   4.339   4.725   2.197  0.4974 -0.1647  0.1054
 6150SOL     OW30085   1.483   4.378  12.311  0.5084 -1.1124  0.4600
 6150SOL    HW130086   1.494   4.343  12.399 -0.8269 -0.2104  0.9928
 6150SOL    HW230087   1.530   4.313  12.259 -0.5282 -0.9585 -0.6844
 6151SOL     OW30088   0.336   1.987   2.511 -0.1241 -0.2745 -0.8058
 6151SOL    HW130089   0.249   2.026   2.505  0.2067  0.6978  0.7932
 6151SOL    HW230090   0.296   1.901   2.496 -2.6918  0.5016  1.5204
 6152SOL     OW30091   3.693   0.348  12.552  0.4997  0.4665 -0.5807
 6152SOL    HW130092   3.727   0.343  12.463 -0.7870  0.0244 -1.0358
 6152SOL    HW230093   3.773   0.382  12.593 -0.5522 -0.0903  1.9636
 6153SOL     OW30094   2.127   3.826   6.101  0.1290  0.2756 -0.0998
 6153SOL    HW130095   2.115   3.732   6.119  0.0960  0.5191  1.1445
 6153SOL    HW230096   2.044   3.863   6.131 -0.2545  0.2660 -1.1452
 6154SOL     OW30097   0.380   3.248   3.526 -0.1201 -0.5920  0.2250
 6154SOL    HW130098   0.290   3.269   3.551 -0.8947 -1.8510 -1.4818
 6154SOL    HW230099   0.375   3.186   3.453 -1.4294 -0.3947  0.1592
 6155SOL     OW30100   0.123   2.842  16.587 -0.2262  0.7467 -0.2654
 6155SOL    HW130101   0.102   2.752  16.613  3.4080  0.1967  0.7872
 6155SOL    HW230102   0.083   2.897  16.655  1.4609  0.3298  1.0672
 6156SOL     OW30103   4.283   0.808   8.870  0.5592  0.1775 -0.8719
 6156SOL    HW130104   4.364   0.778   8.830  2.2410  2.7636  0.5228
 6156SOL    HW230105   4.294   0.795   8.964 -0.1108  0.8125 -0.7094
 6157SOL     OW30106   4.034   3.820  16.840 -0.0069  0.3859 -0.1392
 6157SOL    HW130107   3.940   3.824  16.859  0.5544 -0.2816  2.7562
 6157SOL    HW230108   4.069   3.829  16.929  1.9049  1.3324 -1.0012
 6158SOL     OW30109   3.743   3.829  17.444 -0.9160  0.2659 -0.0173
 6158SOL    HW130110   3.736   3.844  17.538 -1.3337  1.4062 -0.2253
 6158SOL    HW230111   3.652   3.815  17.417 -1.0357  0.7897  0.1114
 6159SOL     OW30112   3.324   2.064   7.707 -0.1728  0.5622 -0.6091
 6159SOL    HW130113   3.368   1.991   7.751 -0.1080  1.5501  0.9446
 6159SOL    HW230114   3.252   2.022   7.660 -1.6407 -0.1534  2.2874
 6160SOL     OW30115   4.051   1.888   9.594  0.4595  0.2586 -0.3028
 6160SOL    HW130116   4.049   1.823   9.524 -3.4319 -0.3662  0.4155
 6160SOL    HW230117   3.963   1.880   9.631 -0.0323 -0.4146 -1.6209
 6161SOL     OW30118   1.880   2.689   9.478 -0.4089 -0.0371  0.4301
 6161SOL    HW130119   1.913   2.642   9.554  1.8204 -2.5373 -2.0728
 6161SOL    HW230120   1.914   2.633   9.408  0.1384  0.6619  0.1278
 6162SOL     OW30121   1.979   4.245  13.545  0.0992  0.3708  0.8964
 6162SOL    HW130122   1.910   4.311  13.549  0.4396  0.8160 -0.3944
 6162SOL    HW230123   1.929   4.189  13.485  0.9813 -0.0445  0.5376
 6163SOL     OW30124   1.771   3.454   3.400  0.0981 -0.0821  0.2350
 6163SOL    HW130125   1.689   3.451   3.351 -0.1489  1.0385  0.5791
 6163SOL    HW230126   1.776   3.548   3.418  0.9627  0.3818 -2.4503
 6164SOL     OW30127   1.257   1.805   0.819 -0.6188  0.0670  0.5985
 6164SOL    HW130128   1.336   1.832   0.866  1.8355 -1.7488 -2.4841
 6164SOL    HW230129   1.203   1.863   0.873  1.1831  2.4701 -0.1627
 6165SOL     OW30130   2.511   3.246   9.297  0.0471  0.6471 -0.1701
 6165SOL    HW130131   2.550   3.333   9.296  0.1069  0.6188 -0.3787
 6165SOL    HW230132   2.420   3.269   9.278  0.2792 -0.8029 -3.0846
 6166SOL     OW30133   4.607   0.648  14.307 -0.3969 -0.3935 -0.6602
 6166SOL    HW130134   4.518   0.682  14.302 -0.4724  0.1100  3.7566
 6166SOL    HW230135   4.608   0.594  14.228 -3.0806 -0.3321 -0.7184
 6167SOL     OW30136   2.611   3.164   6.382  0.4707  0.8311 -0.7695
 6167SOL    HW130137   2.555   3.087   6.369  0.5503  0.2860  2.1302
 6167SOL    HW230138   2.699   3.128   6.389 -1.1448 -2.6734  2.0523
 6168SOL     OW30139   0.447   2.707  12.981 -0.1003  0.6811 -0.0953
 6168SOL    HW130140   0.444   2.677  12.891  1.4523  0.3634 -0.0367
 6168SOL    HW230141   0.397   2.789  12.973 -0.6131  0.3449 -0.3733
 6169SOL     OW30142   2.519   4.200   7.466 -0.5627  0.2835 -0.1679
 6169SOL    HW130143   2.550   4.145   7.394  0.4410 -0.9149  1.2000
 6169SOL    HW230144   2.500   4.278   7.413 -0.7086 -0.9735 -1.9860
 6170SOL     OW30145   4.459   0.850   3.726  0.0701 -0.3693  0.0291
 6170SOL    HW130146   4.525   0.783   3.744  2.0756  1.3376 -1.0222
 6170SOL    HW230147   4.411   0.814   3.651  0.3210  0.2453 -0.4200
 6171SOL     OW30148   0.261   1.085  11.738 -0.5957  0.2165  0.5957
 6171SOL    HW130149   0.194   1.039  11.688  1.3303 -3.3395  1.2762
 6171SOL    HW230150   0.211   1.102  11.818 -2.1056 -0.6893 -0.1682
 6172SOL     OW30151   3.089   3.723   3.748 -0.2811  0.1926 -0.3922
 6172SOL    HW130152   3.160   3.784   3.766 -1.8147  1.8387  0.0970
 6172SOL    HW230153   3.099   3.654   3.814 -0.8769 -0.0301 -0.5336
 6173SOL     OW30154   3.551   2.080   4.044 -0.3871  0.1572 -0.1704
 6173SOL    HW130155   3.468   2.044   4.075  1.6857 -2.8674  1.8046
 6173SOL    HW230156   3.526   2.172   4.040 -0.2005  0.0989 -2.8561
 6174SOL     OW30157   3.692   4.535  10.276  0.0663 -0.3546 -0.7611
 6174SOL    HW130158   3.751   4.581  10.336  0.2982 -1.1819 -0.3486
 6174SOL    HW230159   3.726   4.548  10.187 -0.8756 -0.3078 -1.1125
 6175SOL     OW30160   2.251   1.968   6.395 -0.2716 -0.3857  0.5266
 6175SOL    HW130161   2.210   2.024   6.329  2.0872 -0.0955 -0.7043
 6175SOL    HW230162   2.214   1.886   6.362  2.0108 -1.1177 -0.1979
 6176SOL     OW30163   2.823   2.425   5.928  0.0903  0.0841  0.0822
 6176SOL    HW130164   2.823   2.391   5.839  0.9446 -2.0964  0.9182
 6176SOL    HW230165   2.792   2.351   5.980  0.2962 -1.2878 -1.7815
 6177SOL     OW30166   1.935   2.518   2.263  0.0330 -0.3073 -0.0175
 6177SOL    HW130167   2.004   2.554   2.318  0.8058 -1.8113  0.0150
 6177SOL    HW230168   1.903   2.443   2.314 -0.4984 -0.3694 -0.4388
 6178SOL     OW30169   3.815   0.937   9.360  0.1584 -0.4997  0.0506
 6178SOL    HW130170   3.805   0.932   9.455  0.0713  0.0106  0.0688
 6178SOL    HW230171   3.737   0.884   9.342  0.8336 -0.0461 -4.2604
 6179SOL     OW30172   0.640   4.303   8.525  0.3610  0.6619 -0.3281
 6179SOL    HW130173   0.616   4.371   8.462  0.4124  1.6753  0.7463
 6179SOL    HW230174   0.733   4.286   8.511  0.0424 -1.6193  0.2118
 6180SOL     OW30175   2.334   1.637   5.080  0.7782 -0.2524 -0.2807
 6180SOL    HW130176   2.395   1.587   5.025 -0.0307 -1.6126  0.0432
 6180SOL    HW230177   2.395   1.672   5.144  1.7461  1.8322 -2.3372
 6181SOL     OW30178   3.055   2.683   8.122 -0.0849 -0.0608 -0.0218
 6181SOL    HW130179   3.060   2.589   8.137 -0.2756  0.1176  1.1508
 6181SOL    HW230180   3.141   2.712   8.154 -0.8950  2.1998  0.0978
 6182SOL     OW30181   4.226   3.474   7.914 -0.2233 -0.3895 -0.3566
 6182SOL    HW130182   4.151   3.440   7.865  0.1489 -0.0055 -1.1922
 6182SOL    HW230183   4.175   3.543   7.956 -1.1229  0.9151 -3.6215
 6183SOL     OW30184   3.204   1.808   3.836  0.1306 -0.9482 -0.6498
 6183SOL    HW130185   3.143   1.799   3.762 -0.5215  0.5876 -0.2908
 6183SOL    HW230186   3.280   1.764   3.799  0.4067 -0.3373 -0.8114
 6184SOL     OW30187   3.381   2.911  11.156 -0.0628  0.1630  0.4808
 6184SOL    HW130188   3.356   3.003  11.156 -1.4122 -0.2211  3.1096
 6184SOL    HW230189   3.467   2.927  11.194  0.0129  2.8504 -0.8607
 6185SOL     OW30190   3.938   0.076   9.863 -0.0539 -0.3479  0.6229
 6185SOL    HW130191   3.991   0.151   9.890 -0.0494  0.1007 -0.6151
 6185SOL    HW230192   4.005   0.017   9.828  0.2599  0.4694 -0.1680
 6186SOL     OW30193   4.129   0.805   2.378 -0.3491  0.1718  0.0982
 6186SOL    HW130194   4.200   0.800   2.442 -0.6707  1.6364  0.5522
 6186SOL    HW230195   4.083   0.725   2.403  1.3837 -0.8925 -0.1058
 6187SOL     OW30196   1.769   0.461   1.425 -0.2235  0.0428  0.3898
 6187SOL    HW130197   1.857   0.432   1.444  0.1064 -0.3201 -1.7021
 6187SOL    HW230198   1.739   0.378   1.389 -1.3199  0.6797 -0.1643
 6188SOL     OW30199   4.665   3.406  14.908  0.0813  0.6654 -0.2552
 6188SOL    HW130200   4.595   3.399  14.973 -1.1837 -0.4606 -1.7356
 6188SOL    HW230201   4.612   3.401  14.828  1.1022  0.2145 -0.9175
 6189SOL     OW30202   0.212   2.515  15.012 -0.0763 -0.2207  0.6982
 6189SOL    HW130203   0.209   2.547  14.921  0.1222  1.4239  1.2569
 6189SOL    HW230204   0.257   2.587  15.056 -0.4769  0.7353 -0.4292
 6190SOL     OW30205   3.512   1.343  15.394  0.8063 -0.6751 -0.0497
 6190SOL    HW130206   3.505   1.261  15.346  2.6897 -1.2120  0.5738
 6190SOL    HW230207   3.598   1.330  15.434 -0.2397 -1.4039  1.9895
 6191SOL     OW30208   3.625   2.363   6.827 -0.2254  0.5502 -1.0385
 6191SOL    HW130209   3.543   2.395   6.789 -1.3430 -0.2856  0.6859
 6191SOL    HW230210   3.642   2.303   6.755 -0.1830 -2.7384  1.6981
 6192SOL     OW30211   4.276   1.491  10.917 -0.5199 -0.0453 -0.3740
 6192SOL    HW130212   4.349   1.520  10.972 -0.6611  1.4526 -0.9757
 6192SOL    HW230213   4.325   1.476  10.836  1.5262 -0.4002  0.9160
 6193SOL     OW30214   3.418   1.651  16.579 -0.7916 -0.0631  0.1434
 6193SOL    HW130215   3.380   1.694  16.656  1.3758  0.1292  1.1274
 6193SOL    HW230216   3.504   1.630  16.617 -0.1132  0.1668 -1.2516
 6194SOL     OW30217   2.762   4.732  17.466 -0.2029  0.3747 -0.7904
 6194SOL    HW130218   2.697   4.700  17.403 -0.6376  0.4959 -0.4039
 6194SOL    HW230219   2.845   4.706  17.427 -0.0452 -1.5376  0.8375
 6195SOL     OW30220   0.765   0.492   8.272 -0.9119 -0.0681 -0.4358
 6195SOL    HW130221   0.831   0.559   8.251 -0.4909 -0.4390 -0.2961
 6195SOL    HW230222   0.690   0.548   8.291 -0.0442  1.3356 -1.1537
 6196SOL     OW30223   3.458   3.459   2.499 -0.5118  0.0485  0.1995
 6196SOL    HW130224   3.401   3.519   2.549  1.0886  3.3534 -1.9493
 6196SOL    HW230225   3.530   3.518   2.477 -0.1972 -0.0576  0.9279
 6197SOL     OW30226   0.137   4.372   5.952  0.8425  0.2997 -0.7370
 6197SOL    HW130227   0.076   4.443   5.969 -0.8438 -1.1833 -0.5966
 6197SOL    HW230228   0.084   4.293   5.939 -0.9129  1.2573  0.7533
 6198SOL     OW30229   3.780   2.527  12.245 -0.0231 -0.5373  0.1342
 6198SOL    HW130230   3.733   2.560  12.321  2.2779 -0.0442  1.3287
 6198SOL    HW230231   3.755   2.595  12.182 -1.0392  0.3669  1.5281
 6199SOL     OW30232   0.343   0.748   8.505 -0.3558 -0.3504 -0.0971
 6199SOL    HW130233   0.279   0.722   8.438 -0.3602 -3.9211  1.2885
 6199SOL    HW230234   0.309   0.837   8.511  0.7397  0.0841 -0.2922
 6200SOL     OW30235   4.226   2.586   0.239 -0.1274  0.4600 -0.3693
 6200SOL    HW130236   4.291   2.648   0.205  0.4894  0.7573  1.3540
 6200SOL    HW230237   4.180   2.571   0.157  0.1905 -0.8601 -0.3027
 6201SOL     OW30238   1.477   3.416   3.770  0.0576 -0.2317  0.0662
 6201SOL    HW130239   1.477   3.498   3.720  2.2833 -0.8205 -0.8624
 6201SOL    HW230240   1.406   3.368   3.726  0.1333  1.0004 -1.4244
 6202SOL     OW30241   0.704   3.224   8.763 -0.0259  0.0127 -0.0897
 6202SOL    HW130242   0.689   3.130   8.753  0.1082 -0.2608  2.1788
 6202SOL    HW230243   0.646   3.267   8.700 -0.0714 -0.9037 -0.6682
 6203SOL     OW30244   4.083   4.441   6.275 -0.0491  0.1707  0.0303
 6203SOL    HW130245   4.066   4.351   6.247  0.8436  0.2804 -0.8647
 6203SOL    HW230246   4.103   4.425   6.367 -0.9569 -0.6843  0.0828
 6204SOL     OW30247   2.504   2.089   0.916 -0.5425 -0.3339 -0.7467
 6204SOL    HW130248   2.511   2.000   0.952  0.9025  0.2149  0.3543
 6204SOL    HW230249   2.448   2.079   0.839  0.5947  2.6327 -1.9371
 6205SOL     OW30250   0.663   3.714  15.566 -0.3722  0.1688 -0.0921
 6205SOL    HW130251   0.610   3.682  15.493 -2.7912 -0.2894  1.8551
 6205SOL    HW230252   0.734   3.650  15.570 -0.3117  0.2519  0.1762
 6206SOL     OW30253   2.422   1.134   9.920 -0.2523 -0.2984  0.6901
 6206SOL    HW130254   2.348   1.171   9.872 -0.4202 -1.3232  0.1664
 6206SOL    HW230255   2.482   1.116   9.848  0.4703  2.5900  0.5820
 6207SOL     OW30256   4.698   1.593  10.853  0.5144 -0.8191  0.0993
 6207SOL    HW130257   4.727   1.671  10.900  1.0366 -1.0744  0.2041
 6207SOL    HW230258   4.716   1.616  10.761 -2.6485 -0.1834 -0.3484
 6208SOL     OW30259   3.305   1.936   4.118  0.1658  0.2335 -0.2968
 6208SOL    HW130260   3.293   1.935   4.023  1.8589  2.2165 -0.5248
 6208SOL    HW230261   3.224   1.892   4.144 -1.3479  3.2081 -0.0453
 6209SOL     OW30262   2.921   2.670   6.190  1.0054 -0.1479 -0.1242
 6209SOL    HW130263   2.857   2.627   6.247  0.4837  0.8690  0.0794
 6209SOL    HW230264   2.999   2.661   6.244  0.8189 -1.3818 -0.0763
 6210SOL     OW30265   3.602   3.086   6.531 -0.4326 -0.1529 -0.4586
 6210SOL    HW130266   3.610   3.111   6.623  1.4891 -0.8584 -0.4225
 6210SOL    HW230267   3.621   3.170   6.490 -1.8265 -0.1178 -1.0543
 6211SOL     OW30268   0.662   1.951   8.485 -0.6059  0.1835  0.7215
 6211SOL    HW130269   0.753   1.978   8.496 -0.7060  0.6406  0.4570
 6211SOL    HW230270   0.669   1.856   8.485  2.0663  0.4048 -0.2168
 6212SOL     OW30271   0.479   4.510   8.700 -0.2052  0.3160 -0.4583
 6212SOL    HW130272   0.496   4.604   8.699 -1.6708  0.5758 -1.0022
 6212SOL    HW230273   0.557   4.479   8.655  0.6224  1.4934  0.1868
 6213SOL     OW30274   0.288   0.815   7.671 -0.4386 -0.3136 -0.3336
 6213SOL    HW130275   0.197   0.837   7.650 -0.5490  1.1200  1.5749
 6213SOL    HW230276   0.283   0.786   7.762  2.6534 -1.1065 -0.4346
 6214SOL     OW30277   1.123   0.010   6.303 -0.0942 -0.0937 -0.2995
 6214SOL    HW130278   1.218   0.018   6.293 -0.1569  0.7867 -0.1339
 6214SOL    HW230279   1.108   4.664   6.254  2.9505 -1.2639  0.7094
 6215SOL     OW30280   3.495   4.600   4.877  0.0998 -0.3349  0.2243
 6215SOL    HW130281   3.518   4.596   4.784 -3.2329  0.4314 -0.6457
 6215SOL    HW230282   3.553   4.669   4.909  0.2439 -0.1721 -0.3912
 6216SOL     OW30283   2.804   3.845   8.977  0.4600 -0.3538 -0.5390
 6216SOL    HW130284   2.802   3.832   8.882 -0.7598  0.2194 -0.5970
 6216SOL    HW230285   2.899   3.851   8.990  0.3930  0.7978 -0.5386
 6217SOL     OW30286   1.774   4.269   1.715 -0.2920 -0.2225  0.2756
 6217SOL    HW130287   1.779   4.349   1.768  2.0767  0.6740 -1.2937
 6217SOL    HW230288   1.682   4.244   1.714 -0.6434  0.9272  3.1215
 6218SOL     OW30289   0.152   2.925  15.054  0.3032 -0.0817  0.4167
 6218SOL    HW130290   0.060   2.949  15.061  0.2276 -0.2334 -0.0523
 6218SOL    HW230291   0.183   2.968  14.974 -0.4326 -0.2808  0.0312
 6219SOL     OW30292   0.684   0.794  11.820 -0.0352 -0.2733  0.0082
 6219SOL    HW130293   0.591   0.770  11.816  0.4693 -2.2309 -0.2116
 6219SOL    HW230294   0.690   0.841  11.736 -1.5942  0.3454  0.2475
 6220SOL     OW30295   1.315   2.776  13.832 -0.1298  0.3706  0.2466
 6220SOL    HW130296   1.330   2.865  13.800 -0.7366  0.3881  0.0112
 6220SOL    HW230297   1.266   2.746  13.755  1.3512 -1.4044  0.0108
 6221SOL     OW30298   0.554   2.148   9.025  0.1647  0.0653  0.3354
 6221SOL    HW130299   0.579   2.072   8.973  0.9982  0.0307  0.7866
 6221SOL    HW230300   0.482   2.109   9.075  0.1014  1.6942  1.4941
 6222SOL     OW30301   0.199   0.608   5.074  0.1543 -0.3543 -0.5941
 6222SOL    HW130302   0.128   0.648   5.124  1.7837 -0.1285  1.5454
 6222SOL    HW230303   0.258   0.584   5.145  0.5958  1.0347 -0.4870
 6223SOL     OW30304   0.908   1.082  11.472 -0.3508  0.6708 -0.2807
 6223SOL    HW130305   1.000   1.100  11.450  0.4630 -2.2238  0.7436
 6223SOL    HW230306   0.872   1.170  11.461 -1.6764 -0.0273 -1.5937
 6224SOL     OW30307   0.143   3.273  13.829  0.3103 -0.1111  0.2823
 6224SOL    HW130308   0.085   3.324  13.773 -1.0285 -4.2237 -2.0524
 6224SOL    HW230309   0.157   3.195  13.776  0.7475  1.0470 -1.2936
 6225SOL     OW30310   2.822   0.989   3.182 -0.1893  0.5627  0.2973
 6225SOL    HW130311   2.916   0.997   3.169 -0.2684  1.8102  0.5136
 6225SOL    HW230312   2.809   0.974   3.276 -2.9600  0.0832 -0.1444
 6226SOL     OW30313   0.813   0.804   6.658 -0.3130  0.5461  0.4382
 6226SOL    HW130314   0.761   0.882   6.641  1.8171  1.9967  0.6377
 6226SOL    HW230315   0.782   0.774   6.743 -0.9689 -2.1576 -0.7602
 6227SOL     OW30316   2.705   1.763   6.326  0.7250  0.1005  0.1311
 6227SOL    HW130317   2.678   1.819   6.399  1.1777 -0.5873  0.8188
 6227SOL    HW230318   2.625   1.733   6.282  0.5123  1.4312 -0.3924
 6228SOL     OW30319   3.535   2.189   5.388 -0.1000 -0.2078 -0.3169
 6228SOL    HW130320   3.534   2.162   5.296  0.8518  1.0318 -0.6876
 6228SOL    HW230321   3.627   2.170   5.408 -0.3003  0.3441  1.1660
 6229SOL     OW30322   3.248   0.845  11.289 -0.4784  0.4544 -0.2132
 6229SOL    HW130323   3.291   0.929  11.301  0.6009 -0.4374  2.3739
 6229SOL    HW230324   3.167   0.855  11.339 -1.1226  0.4746 -1.2691
 6230SOL     OW30325   2.126   4.558   2.251 -0.0133 -0.0086  0.4370
 6230SOL    HW130326   2.161   4.510   2.176  0.6788 -0.1335  0.8374
 6230SOL    HW230327   2.039   4.520   2.262 -1.2053  2.2794 -1.1997
 6231SOL     OW30328   2.476   4.390  16.283  0.4868  0.1471 -0.3261
 6231SOL    HW130329   2.388   4.417  16.309  0.3206 -2.6217  1.8818
 6231SOL    HW230330   2.524   4.395  16.365 -1.3619  1.3284  0.6759
 6232SOL     OW30331   2.272   1.306   7.691 -0.7297  0.4656 -0.0040
 6232SOL    HW130332   2.276   1.360   7.770 -1.0101  0.5486 -0.0455
 6232SOL    HW230333   2.366   1.304   7.674 -0.5756  1.3726  0.7051
 6233SOL     OW30334   2.630   3.956   9.150  0.4787 -1.1639  0.4259
 6233SOL    HW130335   2.680   3.955   9.232  1.5733  1.5377 -0.2038
 6233SOL    HW230336   2.698   3.925   9.090  1.2724  1.6510 -0.1150
 6234SOL     OW30337   3.107   4.323   4.917  0.0606 -0.3048 -0.1646
 6234SOL    HW130338   3.115   4.230   4.934 -0.7839  0.0941  2.4643
 6234SOL    HW230339   3.021   4.331   4.876 -0.6253 -1.0372  1.1100
 6235SOL     OW30340   3.383   2.933  12.295 -0.4257  0.4393  0.1438
 6235SOL    HW130341   3.347   3.021  12.308  0.1243  0.5858  0.7215
 6235SOL    HW230342   3.347   2.890  12.373  0.5231 -0.0996  0.2878
 6236SOL     OW30343   0.902   4.274   0.691  0.2793 -0.0184 -0.1550
 6236SOL    HW130344   0.939   4.219   0.623 -0.9352 -0.4518 -0.4588
 6236SOL    HW230345   0.969   4.342   0.697 -0.6123  0.7627  1.1221
 6237SOL     OW30346   0.343   4.394   6.132 -0.1475 -0.0961 -0.3487
 6237SOL    HW130347   0.321   4.319   6.187  1.2986 -0.3684 -0.1561
 6237SOL    HW230348   0.290   4.377   6.054 -1.9029 -1.7441  1.1993
 6238SOL     OW30349   2.445   2.264   3.168  0.1341  0.1553 -0.3510
 6238SOL    HW130350   2.419   2.356   3.166 -1.2542 -0.2811 -2.1579
 6238SOL    HW230351   2.369   2.223   3.208 -0.7408  0.2196 -1.9669
 6239SOL     OW30352   2.925   1.106   5.715  0.0131  0.4182  0.8470
 6239SOL    HW130353   3.014   1.094   5.746 -0.6549 -2.5282  1.6910
 6239SOL    HW230354   2.885   1.030   5.759 -1.6626 -0.2693 -1.7987
 6240SOL     OW30355   0.962   3.349  12.918 -0.0099  0.0091  0.3551
 6240SOL    HW130356   0.928   3.438  12.929  1.2313  0.5319 -0.0419
 6240SOL    HW230357   0.951   3.338  12.824  2.5984 -1.6648  0.2478
 6241SOL     OW30358   2.836   2.349   3.678  0.2424  0.0733 -0.4576
 6241SOL    HW130359   2.753   2.375   3.639 -0.3888 -0.0918  0.7891
 6241SOL    HW230360   2.825   2.375   3.769 -2.3114  0.2816 -0.8165
 6242SOL     OW30361   1.846   4.566   8.514 -0.2336  0.1296  0.8341
 6242SOL    HW130362   1.847   4.489   8.457  0.1492  0.2213  0.7227
 6242SOL    HW230363   1.767   4.615   8.491  1.0322  2.8742  2.3776
 6243SOL     OW30364   4.679   2.250   2.330 -0.3401  0.4214  0.4687
 6243SOL    HW130365   4.602   2.287   2.373 -1.6670  1.3509 -2.6969
 6243SOL    HW230366   4.629   2.217   2.255  1.1447 -1.1478  0.1657
 6244SOL     OW30367   4.339   3.852  15.904 -0.2034  0.2794 -0.5161
 6244SOL    HW130368   4.424   3.827  15.867 -0.8673 -1.7626 -0.6712
 6244SOL    HW230369   4.349   3.921  15.969 -0.0589  1.0977 -1.4126
 6245SOL     OW30370   3.891   0.040   1.839  0.0891  0.4161 -0.1255
 6245SOL    HW130371   3.825   4.708   1.859 -0.1143  0.5517 -0.3368
 6245SOL    HW230372   3.947   4.723   1.782 -1.2792  0.6989 -1.7231
 6246SOL     OW30373   1.553   2.565   8.471  0.9180  0.2952 -0.1532
 6246SOL    HW130374   1.642   2.596   8.452  2.2470 -2.1613  1.9362
 6246SOL    HW230375   1.507   2.635   8.516  2.5972  0.2299  1.6741
 6247SOL     OW30376   3.819   0.764   4.084  0.5012  0.2592  0.9630
 6247SOL    HW130377   3.877   0.827   4.042 -1.9424  0.5994 -1.9435
 6247SOL    HW230378   3.746   0.768   4.021  0.6440 -1.9031  0.6537
 6248SOL     OW30379   1.827   4.720   5.144  0.6617 -0.1895  0.1890
 6248SOL    HW130380   1.753   4.678   5.101  0.4004 -0.7711  1.2028
 6248SOL    HW230381   1.840   4.669   5.224 -2.9944 -0.5545  0.5348
 6249SOL     OW30382   0.893   2.257   9.357  0.6068 -0.2695 -0.0178
 6249SOL    HW130383   0.841   2.259   9.276 -0.0722 -1.9114  0.3788
 6249SOL    HW230384   0.974   2.303   9.335  0.5314 -0.2078 -0.1691
 6250SOL     OW30385   3.626   0.805   3.925 -0.4379 -0.8453  0.0477
 6250SOL    HW130386   3.548   0.769   3.967 -0.4906 -1.8828 -0.9471
 6250SOL    HW230387   3.586   0.861   3.857  3.3088 -1.0324 -2.2903
 6251SOL     OW30388   3.477   3.555  11.832 -0.7361  0.0992 -0.2072
 6251SOL    HW130389   3.505   3.524  11.746  0.1192 -1.4543  0.6479
 6251SOL    HW230390   3.500   3.648  11.821 -0.3715 -0.0080 -0.3487
 6252SOL     OW30391   1.966   2.035   6.430 -0.3448  0.2220  0.1780
 6252SOL    HW130392   2.010   2.022   6.514  1.3551 -0.2595 -0.7936
 6252SOL    HW230393   1.998   2.124   6.419 -1.1184  0.5538  0.6519
 6253SOL     OW30394   1.630   0.450   5.497  0.4277  0.3510  0.6843
 6253SOL    HW130395   1.571   0.489   5.563  0.5728 -0.3676  1.2385
 6253SOL    HW230396   1.602   0.515   5.433  1.8388 -0.8730 -1.1653
 6254SOL     OW30397   3.654   2.763   0.587  0.4749  0.0571  0.1904
 6254SOL    HW130398   3.616   2.834   0.533 -2.2318 -0.5671  1.2569
 6254SOL    HW230399   3.585   2.755   0.653  0.4149  2.1929  0.4077
 6255SOL     OW30400   1.295   1.030   5.197 -0.4538 -0.0208 -0.0253
 6255SOL    HW130401   1.336   0.994   5.118 -0.7334  0.8915 -0.5868
 6255SOL    HW230402   1.295   1.125   5.182 -1.0164 -0.1159 -0.6258
 6256SOL     OW30403   1.253   0.748   6.123  0.6854  0.3965  0.2175
 6256SOL    HW130404   1.235   0.692   6.047 -0.4752  1.5299 -0.3344
 6256SOL    HW230405   1.335   0.788   6.094  1.7306 -1.7192  0.2211
 6257SOL     OW30406   4.497   1.575  11.050  0.5824 -0.7682  0.5895
 6257SOL    HW130407   4.567   1.552  10.989  0.0340  0.3741 -0.4492
 6257SOL    HW230408   4.524   1.662  11.078 -0.8325 -0.3420  0.6402
 6258SOL     OW30409   2.909   2.682  11.595  0.3579 -0.4595 -0.4251
 6258SOL    HW130410   2.824   2.648  11.568 -0.0348  0.1480  0.0429
 6258SOL    HW230411   2.882   2.760  11.644 -2.3461 -0.6739 -1.6097
 6259SOL     OW30412   2.221   0.113   9.125  0.0443 -0.3350 -0.5192
 6259SOL    HW130413   2.189   0.174   9.192 -2.3577 -3.1736  0.9331
 6259SOL    HW230414   2.188   0.169   9.055 -1.8585 -1.6776 -0.7127
 6260SOL     OW30415   2.828   4.050   1.894 -0.2416  0.3849  0.1016
 6260SOL    HW130416   2.830   4.095   1.979 -0.3933  0.9537 -0.1977
 6260SOL    HW230417   2.924   4.049   1.887 -0.1817  2.4114  0.7058
 6261SOL     OW30418   2.180   2.497   2.502 -0.1071  0.4965  0.5227
 6261SOL    HW130419   2.227   2.576   2.476 -1.3675  1.6665  1.7592
 6261SOL    HW230420   2.227   2.423   2.464  1.7717  1.5878  0.7333
 6262SOL     OW30421   3.316   3.745   7.959 -0.7878 -0.8081 -0.2021
 6262SOL    HW130422   3.296   3.739   7.866  0.7146 -1.1494 -0.5045
 6262SOL    HW230423   3.231   3.731   8.000 -0.7447  0.8470  0.4356
 6263SOL     OW30424   0.231   1.411   2.892 -1.2302  0.5336 -0.0916
 6263SOL    HW130425   0.229   1.506   2.875 -1.7163  0.8053  1.4840
 6263SOL    HW230426   0.154   1.381   2.845 -0.9813 -0.0585 -0.1193
 6264SOL     OW30427   0.287   3.851  15.196  0.2016  0.1140  0.2650
 6264SOL    HW130428   0.297   3.829  15.104 -0.2279  3.2011 -0.5304
 6264SOL    HW230429   0.353   3.921  15.195  0.8643 -0.4607  3.3017
 6265SOL     OW30430   0.993   4.462  11.006 -0.1358 -0.3849 -0.0389
 6265SOL    HW130431   0.952   4.488  10.923  0.0412  0.1097  0.0304
 6265SOL    HW230432   0.989   4.369  10.984  3.3208 -0.1180 -1.7839
 6266SOL     OW30433   4.397   4.445  17.739  0.4160 -0.0910 -0.2328
 6266SOL    HW130434   4.448   4.469   0.076  1.1600 -1.1845 -0.3709
 6266SOL    HW230435   4.318   4.406   0.035 -0.5632  0.2866 -1.9425
 6267SOL     OW30436   0.584   0.038   8.051 -0.7875  0.3632 -0.5871
 6267SOL    HW130437   0.569   0.083   7.968 -1.6732 -1.6831 -1.5424
 6267SOL    HW230438   0.637   0.106   8.092  1.8720 -0.9886 -1.7992
 6268SOL     OW30439   0.802   2.279   7.216  0.2083  0.5868  0.8101
 6268SOL    HW130440   0.765   2.235   7.293 -0.9336  1.8066  0.9535
 6268SOL    HW230441   0.786   2.370   7.240 -0.3577  0.4700  0.8808
 6269SOL     OW30442   3.366   3.289   6.022 -0.0244  0.3866 -0.3348
 6269SOL    HW130443   3.271   3.297   6.030  0.2832  3.3937  0.6961
 6269SOL    HW230444   3.380   3.366   5.967  0.9919 -0.1634 -0.8221
 6270SOL     OW30445   0.119   2.770   4.563  0.1460 -0.2430 -0.7605
 6270SOL    HW130446   0.028   2.801   4.568 -0.2537 -1.6243  0.4230
 6270SOL    HW230447   0.116   2.702   4.497 -0.2946 -0.3334 -0.6483
 6271SOL     OW30448   3.283   3.915  10.248 -0.4485 -0.2702 -0.0577
 6271SOL    HW130449   3.362   3.963  10.223 -0.1373  0.5900  2.6046
 6271SOL    HW230450   3.219   3.983  10.266  1.3005  1.5734 -0.8446
 6272SOL     OW30451   0.161   3.234  14.302  0.1838  0.0927 -0.6082
 6272SOL    HW130452   0.073   3.213  14.333 -0.0644  2.5678  0.3685
 6272SOL    HW230453   0.197   3.224  14.390 -1.2030 -0.2352 -0.0740
 6273SOL     OW30454   1.693   3.110   7.198 -0.4179 -0.1652 -0.0485
 6273SOL    HW130455   1.693   3.170   7.124 -2.0883  1.2663  1.0940
 6273SOL    HW230456   1.659   3.029   7.159 -0.3863  0.4289 -1.3119
 6274SOL     OW30457   3.131   4.421  10.286 -0.1745  1.0164 -0.7661
 6274SOL    HW130458   3.082   4.429  10.204 -0.8867  0.1751 -0.4216
 6274SOL    HW230459   3.220   4.446  10.260  0.2976  1.3873  1.2166
 6275SOL     OW30460   4.394   0.276   2.851 -0.5160 -0.6677 -0.1119
 6275SOL    HW130461   4.372   0.283   2.944 -1.2151 -0.0978 -0.3157
 6275SOL    HW230462   4.375   0.183   2.844 -0.3538 -0.7858  1.0628
 6276SOL     OW30463   0.802   0.337   9.082 -0.0755 -0.6559 -0.3743
 6276SOL    HW130464   0.839   0.342   9.170  2.0876 -1.6054 -1.2288
 6276SOL    HW230465   0.863   0.381   9.022  0.0515  0.3861  0.5297
 6277SOL     OW30466   3.111   2.153   4.211  0.1815  0.0678  0.0288
 6277SOL    HW130467   3.056   2.120   4.282 -1.7439  3.5046  0.1433
 6277SOL    HW230468   3.173   2.082   4.192 -1.4329 -0.5491 -2.8661
 6278SOL     OW30469   1.474   3.929   2.639 -0.2083  0.2784  0.0349
 6278SOL    HW130470   1.508   4.017   2.626 -1.2941  0.4702 -1.5264
 6278SOL    HW230471   1.414   3.920   2.565  0.4209 -1.5671 -0.2635
 6279SOL     OW30472   2.135   2.362   5.620  0.5780  0.3461 -0.0782
 6279SOL    HW130473   2.225   2.347   5.590  1.7135  1.3287  2.8524
 6279SOL    HW230474   2.093   2.349   5.535 -0.4647  3.0579  0.0261
 6280SOL     OW30475   2.283   1.015   5.576 -0.2820  0.1302  0.3287
 6280SOL    HW130476   2.264   0.933   5.531 -0.6063  1.7068 -2.4034
 6280SOL    HW230477   2.371   1.038   5.545 -1.0443  2.0801 -0.4090
 6281SOL     OW30478   3.940   4.141   4.933 -0.4620  0.3435 -0.5494
 6281SOL    HW130479   3.942   4.235   4.912  3.2028  0.4173  0.2024
 6281SOL    HW230480   4.024   4.133   4.977 -1.3375 -1.6383  0.7473
 6282SOL     OW30481   1.902   0.051   1.347  0.2302 -0.1854 -0.0772
 6282SOL    HW130482   1.835   0.001   1.393  0.0830 -0.4415 -0.5685
 6282SOL    HW230483   1.865   0.139   1.344 -1.6029 -0.9832 -1.1273
 6283SOL     OW30484   1.141   0.518   2.893  0.3814  0.0285  0.3588
 6283SOL    HW130485   1.194   0.557   2.823 -0.0294  2.1132  1.2009
 6283SOL    HW230486   1.201   0.445   2.906 -2.0357 -1.7897  1.3627
 6284SOL     OW30487   1.654   0.979  15.599  0.0579 -0.1907  0.1068
 6284SOL    HW130488   1.713   1.048  15.570 -0.6457  0.1096 -0.6281
 6284SOL    HW230489   1.568   1.015  15.577 -0.7296 -2.6379 -0.8274
 6285SOL     OW30490   1.232   2.482   4.490  0.4949 -0.6327  0.4183
 6285SOL    HW130491   1.194   2.516   4.572  3.9071 -1.0487  2.1925
 6285SOL    HW230492   1.298   2.549   4.473 -0.9204  1.1910  2.1228
 6286SOL     OW30493   1.225   3.689   7.600  0.6765  0.0504  0.2477
 6286SOL    HW130494   1.177   3.639   7.666  0.8028 -0.9017 -0.3778
 6286SOL    HW230495   1.173   3.669   7.522  0.8826 -0.4291  0.2388
 6287SOL     OW30496   4.048   0.613   7.853  0.1577 -0.8544  0.0473
 6287SOL    HW130497   4.043   0.701   7.816 -1.3084 -1.4557 -1.1866
 6287SOL    HW230498   4.008   0.626   7.939  0.8384  1.3680  0.0257
 6288SOL     OW30499   0.294   3.128   5.769  0.0454  0.3174  0.1493
 6288SOL    HW130500   0.243   3.143   5.690 -0.2808 -2.9517 -0.2724
 6288SOL    HW230501   0.256   3.174   5.844 -0.3185  1.1247 -0.5392
 6289SOL     OW30502   0.426   0.512  16.163 -0.9966  0.0206  0.2437
 6289SOL    HW130503   0.498   0.500  16.101 -0.6082 -2.0393  1.1086
 6289SOL    HW230504   0.463   0.474  16.242  2.3552 -1.1055 -1.8742
 6290SOL     OW30505   3.405   0.068   4.196  0.4373 -0.1625 -0.2690
 6290SOL    HW130506   3.315   0.037   4.206  0.4900 -0.4962 -0.8178
 6290SOL    HW230507   3.450   0.005   4.253  0.2225 -1.8313 -1.9615
 6291SOL     OW30508   1.048   3.101   3.928 -0.1298 -0.5180  0.4412
 6291SOL    HW130509   1.062   3.118   4.021  0.5649  2.4240 -0.1910
 6291SOL    HW230510   1.136   3.072   3.905 -1.2807 -4.0211  0.4413
 6292SOL     OW30511   3.012   3.048   5.599  0.2916  0.5342  0.2809
 6292SOL    HW130512   2.985   3.131   5.638  0.5838  1.3716 -1.3067
 6292SOL    HW230513   2.943   2.988   5.627  1.6380 -0.8058  0.7830
 6293SOL     OW30514   1.856   1.753  11.408  0.3995 -0.3207  0.0051
 6293SOL    HW130515   1.775   1.802  11.424  0.8335  0.4980 -0.3017
 6293SOL    HW230516   1.883   1.787  11.323  1.2448  0.9787  0.7883
 6294SOL     OW30517   1.053   1.657  12.674  0.2952  0.2153  0.0474
 6294SOL    HW130518   1.011   1.740  12.698 -0.3674 -0.1506  0.1414
 6294SOL    HW230519   1.085   1.668  12.584 -0.9393 -1.6954 -0.6244
 6295SOL     OW30520   1.754   0.628   3.561  0.2984  0.7319 -0.4543
 6295SOL    HW130521   1.785   0.554   3.509 -0.2970  0.8917 -1.0488
 6295SOL    HW230522   1.695   0.596   3.629  0.8711 -0.9887 -0.7781
 6296SOL     OW30523   4.274   3.549   1.339 -0.1391  0.2143 -0.3568
 6296SOL    HW130524   4.241   3.565   1.251  0.5210 -2.5876 -1.1170
 6296SOL    HW230525   4.268   3.454   1.342 -2.1080  0.3779  1.0947
 6297SOL     OW30526   3.929   0.544   0.666 -0.0831  0.1222  0.3308
 6297SOL    HW130527   3.847   0.572   0.705 -0.2538  0.1165 -0.0243
 6297SOL    HW230528   3.919   0.553   0.571 -0.0803 -3.0454  0.0334
 6298SOL     OW30529   0.885   4.027   5.717 -0.1785 -0.0285 -0.2543
 6298SOL    HW130530   0.812   4.068   5.671 -0.5922  0.0892  0.4943
 6298SOL    HW230531   0.918   3.976   5.644 -0.1177  0.1237 -0.3331
 6299SOL     OW30532   2.153   1.634   7.709 -0.2244 -0.2249 -0.6003
 6299SOL    HW130533   2.191   1.632   7.797  0.9147  3.1766 -0.9874
 6299SOL    HW230534   2.105   1.716   7.720 -0.4402 -0.7567  2.4190
 6300SOL     OW30535   0.590   2.164   3.265  0.2181  0.2818  0.0423
 6300SOL    HW130536   0.642   2.227   3.316  1.8938 -1.8898  1.0522
 6300SOL    HW230537   0.648   2.125   3.199  1.6124  0.3776  1.2117
 6301SOL     OW30538   1.322   0.329   2.480 -0.1064  0.1184  0.2603
 6301SOL    HW130539   1.415   0.340   2.466 -0.3391  0.9115 -0.6178
 6301SOL    HW230540   1.280   0.397   2.428  0.9320  0.4629 -0.1045
 6302SOL     OW30541   0.892   0.356   0.287 -0.0342 -0.2121 -0.0199
 6302SOL    HW130542   0.953   0.429   0.269  0.3090 -0.6789 -0.7417
 6302SOL    HW230543   0.869   0.324   0.200  0.2243 -0.0652 -0.1451
 6303SOL     OW30544   1.487   2.040  13.631 -0.0397  0.0028  0.9016
 6303SOL    HW130545   1.526   2.096  13.699  1.1474  0.3742 -0.0812
 6303SOL    HW230546   1.563   1.995  13.594 -0.2091 -0.4927  1.1497
 6304SOL     OW30547   2.876   3.080   7.432 -0.1143  0.0566 -0.3616
 6304SOL    HW130548   2.912   3.001   7.473 -0.2323 -0.4894 -1.3017
 6304SOL    HW230549   2.835   3.051   7.350  0.3833 -2.0445  0.1389
 6305SOL     OW30550   2.397   2.146   1.330  0.2738 -0.1451 -0.1965
 6305SOL    HW130551   2.427   2.070   1.280  2.1546  1.0793 -0.9578
 6305SOL    HW230552   2.388   2.114   1.420  1.2515  1.0262  0.3349
 6306SOL     OW30553   0.189   2.345   6.388  0.0999  0.2961  0.4954
 6306SOL    HW130554   0.163   2.359   6.479 -1.3448  0.1678  0.1086
 6306SOL    HW230555   0.284   2.354   6.382  0.2569 -1.4490  0.5395
 6307SOL     OW30556   1.925   4.223   8.631 -0.2409  0.0235  0.5478
 6307SOL    HW130557   1.885   4.223   8.544 -1.0301  2.2754  0.8946
 6307SOL    HW230558   1.847   4.209   8.685 -1.3703 -0.6032 -1.2119
 6308SOL     OW30559   4.507   0.522   5.891 -0.3903  0.0852  0.0844
 6308SOL    HW130560   4.589   0.497   5.850 -1.4084  0.1560 -2.0039
 6308SOL    HW230561   4.494   0.444   5.946 -1.5740 -0.5716 -1.1044
 6309SOL     OW30562   1.725   1.855   1.123 -0.6644 -0.2610 -0.1029
 6309SOL    HW130563   1.820   1.844   1.117 -1.0989 -1.1747 -5.0408
 6309SOL    HW230564   1.715   1.857   1.218 -2.0022  0.0455 -0.2571
 6310SOL     OW30565   2.858   0.556   4.425  0.5195  0.1159  0.2984
 6310SOL    HW130566   2.925   0.531   4.363  0.5655  1.2076 -0.1042
 6310SOL    HW230567   2.897   0.534   4.509 -0.8448 -0.6073  0.7451
 6311SOL     OW30568   4.114   3.643   7.678  0.3362  0.5563 -0.0842
 6311SOL    HW130569   4.088   3.721   7.630  0.2886  1.0495  0.7301
 6311SOL    HW230570   4.201   3.665   7.712  0.1493 -0.5896  1.1538
 6312SOL     OW30571   2.652   4.584  13.022  0.0879 -0.2860 -0.0706
 6312SOL    HW130572   2.592   4.652  13.052  1.1561  1.2644 -1.4733
 6312SOL    HW230573   2.693   4.564  13.107  1.6169  1.0384 -0.4795
 6313SOL     OW30574   3.087   1.930   8.733  0.0862 -0.4031 -0.8208
 6313SOL    HW130575   3.077   1.865   8.664  2.1570 -2.2034  0.5665
 6313SOL    HW230576   2.996   1.951   8.754  1.1496 -0.1395  3.5102
 6314SOL     OW30577   4.474   3.269  15.768 -0.4391  0.5932 -0.4302
 6314SOL    HW130578   4.474   3.207  15.841  2.1793  1.1441  0.0326
 6314SOL    HW230579   4.383   3.292  15.750 -0.4475 -0.4543 -1.7534
 6315SOL     OW30580   1.038   2.881   0.499 -0.6691 -0.0687 -0.1035
 6315SOL    HW130581   1.016   2.792   0.473 -1.1814 -0.3439  1.3025
 6315SOL    HW230582   0.996   2.933   0.430  1.2309 -1.7478 -2.5416
 6316SOL     OW30583   4.023   4.359   0.520  0.1657  0.1727  0.5178
 6316SOL    HW130584   4.075   4.318   0.451 -0.6107  0.0923 -0.0280
 6316SOL    HW230585   4.093   4.404   0.566 -0.3446  1.8771 -0.3746
 6317SOL     OW30586   2.535   1.846   4.316 -0.5671 -0.0751 -0.1847
 6317SOL    HW130587   2.622   1.881   4.300 -1.4120  2.4079  0.5274
 6317SOL    HW230588   2.520   1.879   4.405 -0.5382  0.3185 -0.3282
 6318SOL     OW30589   2.049   2.951  17.610 -0.3931  0.1678  0.1190
 6318SOL    HW130590   2.040   2.929  17.517  0.6090  0.9549 -0.1659
 6318SOL    HW230591   2.143   2.942  17.625 -0.5238 -1.1916  0.0757
 6319SOL     OW30592   2.570   3.652   7.872  0.4364  0.0734  0.7898
 6319SOL    HW130593   2.638   3.713   7.846  0.7441  0.1065  1.6860
 6319SOL    HW230594   2.587   3.583   7.807  0.8715  0.3044  0.6612
 6320SOL     OW30595   0.038   0.350   2.626  0.0411 -0.1585 -0.1819
 6320SOL    HW130596   0.013   0.259   2.614 -0.2146 -0.0550 -0.4263
 6320SOL    HW230597   0.111   0.363   2.565 -0.0811 -2.0930 -0.7265
 6321SOL     OW30598   4.129   2.780   5.425 -0.2285  0.6438 -0.3482
 6321SOL    HW130599   4.173   2.808   5.505 -0.9775  1.1047 -0.0950
 6321SOL    HW230600   4.037   2.786   5.453  0.1713  3.9261  0.2894
 6322SOL     OW30601   1.535   2.368   4.817  0.2849 -0.1868  0.1453
 6322SOL    HW130602   1.509   2.460   4.814  1.5155  0.1826  0.7314
 6322SOL    HW230603   1.530   2.343   4.725  0.2034 -0.6504  0.2722
 6323SOL     OW30604   0.740   2.634   4.636 -0.2279  0.0325  0.3104
 6323SOL    HW130605   0.701   2.716   4.605 -0.1253 -0.5280 -1.3174
 6323SOL    HW230606   0.727   2.574   4.562 -0.7271  2.2859 -1.4463
 6324SOL     OW30607   2.736   3.539   1.273  0.2868  0.3019  0.7896
 6324SOL    HW130608   2.643   3.537   1.250  0.7427  0.1535 -1.0291
 6324SOL    HW230609   2.743   3.624   1.317  1.0101  1.4189 -1.4707
 6325SOL     OW30610   3.190   3.071   4.288  0.0431  0.0535 -0.1511
 6325SOL    HW130611   3.268   3.023   4.261  1.6686  1.9050  1.2767
 6325SOL    HW230612   3.220   3.162   4.294 -0.7215  0.1476  2.4821
 6326SOL     OW30613   1.917   4.517   6.683 -0.2865  0.1408 -0.0075
 6326SOL    HW130614   1.934   4.456   6.611 -0.0627  0.3860 -0.1647
 6326SOL    HW230615   1.823   4.529   6.673  0.1824  2.5960 -1.5770
 6327SOL     OW30616   3.306   1.618  10.939  0.0982 -0.1394  0.1668
 6327SOL    HW130617   3.287   1.677  10.866 -1.6698  0.2880  0.9585
 6327SOL    HW230618   3.387   1.653  10.975  0.0798  0.7959 -0.6856
 6328SOL     OW30619   4.039   4.182   8.686  0.1184 -0.1387 -0.5932
 6328SOL    HW130620   3.962   4.189   8.630 -0.1372  0.1241 -0.2123
 6328SOL    HW230621   4.021   4.261   8.738 -1.2673  0.7435 -2.3937
 6329SOL     OW30622   0.642   0.166   4.965 -0.5005 -0.1743 -0.8015
 6329SOL    HW130623   0.604   0.250   4.939 -0.5729  0.6025  1.7399
 6329SOL    HW230624   0.731   0.172   5.000 -0.1379  0.8204 -1.9150
 6330SOL     OW30625   0.085   2.353   1.926 -0.5545 -0.5708  0.2923
 6330SOL    HW130626   0.172   2.321   1.947  0.0919 -0.0865 -1.5754
 6330SOL    HW230627   0.077   2.328   1.833  1.9308  1.9488 -0.5973
 6331SOL     OW30628   3.933   4.016  16.634 -0.2043 -0.3002  0.1514
 6331SOL    HW130629   4.021   4.019  16.673  0.5725  0.3113 -1.6484
 6331SOL    HW230630   3.883   4.025  16.715 -0.0420 -0.8592  0.3155
 6332SOL     OW30631   1.724   1.512   3.154  0.1446 -0.0053  0.3116
 6332SOL    HW130632   1.798   1.573   3.150  1.2798 -1.2890  1.6717
 6332SOL    HW230633   1.686   1.521   3.066 -2.0973  0.0803  1.2903
 6333SOL     OW30634   4.194   1.553   5.374  0.5180 -0.2025  0.1441
 6333SOL    HW130635   4.190   1.509   5.289 -1.6032 -0.3713  0.3288
 6333SOL    HW230636   4.181   1.644   5.347  1.3584 -0.4210 -0.9921
 6334SOL     OW30637   1.925   1.943   4.245  0.0290 -0.2361  0.3484
 6334SOL    HW130638   1.938   1.966   4.337  0.1568  1.1202 -0.0129
 6334SOL    HW230639   1.996   1.880   4.234 -0.8939 -1.4392  1.2562
 6335SOL     OW30640   2.524   3.018   8.201  0.2501 -0.3793 -0.2146
 6335SOL    HW130641   2.538   3.088   8.138 -1.6954  0.5770  0.4266
 6335SOL    HW230642   2.446   2.969   8.174 -0.0683 -0.6679  1.2314
 6336SOL     OW30643   0.485   2.768   2.392  0.3446  0.6717  0.8461
 6336SOL    HW130644   0.449   2.776   2.480  0.3046 -0.0380  0.8998
 6336SOL    HW230645   0.406   2.740   2.346  1.2452  2.0255 -1.5262
 6337SOL     OW30646   2.801   4.486   2.209 -0.1256  0.1701  0.0801
 6337SOL    HW130647   2.762   4.400   2.222 -0.8332  0.1426 -2.2291
 6337SOL    HW230648   2.736   4.542   2.251  0.7680  0.5125  1.0119
 6338SOL     OW30649   4.721   2.923   6.156 -0.9013  0.2084  0.2150
 6338SOL    HW130650   4.728   2.854   6.222 -0.9748  1.7778  1.8401
 6338SOL    HW230651   4.717   3.001   6.210 -3.4146  0.5534 -0.4561
 6339SOL     OW30652   2.314   4.056   4.803  0.0297 -0.3913  0.2718
 6339SOL    HW130653   2.376   4.005   4.751  0.2664 -0.0567  0.2261
 6339SOL    HW230654   2.235   4.003   4.802 -0.1439 -0.1293  0.0727
 6340SOL     OW30655   2.329   0.292   1.714  0.3083 -0.8137  0.5813
 6340SOL    HW130656   2.272   0.337   1.776 -1.7748 -2.9710  0.2171
 6340SOL    HW230657   2.341   0.368   1.657  0.5215 -1.1102  0.2243
 6341SOL     OW30658   2.825   4.103   5.595  0.4125 -0.5596 -0.2411
 6341SOL    HW130659   2.858   4.171   5.537 -1.2299  0.0152 -0.4990
 6341SOL    HW230660   2.904   4.076   5.641  0.2513 -1.7493 -0.6693
 6342SOL     OW30661   0.769   0.724   8.512 -0.2331 -0.1760  0.0017
 6342SOL    HW130662   0.678   0.694   8.504 -0.0254 -0.9952  0.7375
 6342SOL    HW230663   0.762   0.820   8.506 -1.4498 -0.1479  2.0872
 6343SOL     OW30664   0.828   1.025   4.346  0.0372 -0.2355  0.2012
 6343SOL    HW130665   0.743   1.066   4.331 -1.0024 -1.9588  1.3132
 6343SOL    HW230666   0.880   1.100   4.375  0.7616 -0.0432 -1.5731
 6344SOL     OW30667   4.686   1.826   6.322  1.0074  0.8449  0.0277
 6344SOL    HW130668   0.007   1.880   6.267  2.0477 -1.2773 -1.0095
 6344SOL    HW230669   4.714   1.856   6.408  3.2530  1.7271 -1.0044
 6345SOL     OW30670   3.267   2.307   2.143  0.3885 -0.0393  0.6451
 6345SOL    HW130671   3.202   2.237   2.130  0.9257 -0.2044 -1.2803
 6345SOL    HW230672   3.239   2.331   2.231 -0.7861  2.5026 -0.4193
 6346SOL     OW30673   4.399   0.254  16.172  0.3962  0.1284 -0.4053
 6346SOL    HW130674   4.355   0.231  16.090  1.3608 -1.4481 -0.4812
 6346SOL    HW230675   4.325   0.272  16.230 -0.1129 -1.2998 -0.6271
 6347SOL     OW30676   2.883   4.136   9.008 -0.1580  0.2897  0.2525
 6347SOL    HW130677   2.818   4.076   8.971 -1.2033  0.6924  1.4272
 6347SOL    HW230678   2.865   4.115   9.100  2.0935 -0.6393  0.4742
 6348SOL     OW30679   2.251   2.258   8.248  0.0369 -0.1101  0.1700
 6348SOL    HW130680   2.246   2.350   8.273  0.2688  0.1552 -0.7461
 6348SOL    HW230681   2.262   2.216   8.333  3.7982  1.4725  0.4818
 6349SOL     OW30682   2.446   1.616   3.155 -0.2610 -0.4663 -0.7810
 6349SOL    HW130683   2.459   1.624   3.061  1.5868  2.8865 -0.2149
 6349SOL    HW230684   2.535   1.598   3.186 -0.1350 -1.2344 -1.6142
 6350SOL     OW30685   3.015   1.869   6.228  0.4641  0.3486  0.1122
 6350SOL    HW130686   3.070   1.821   6.166  0.3761  1.2507 -0.6690
 6350SOL    HW230687   3.070   1.849   6.304 -1.9041 -1.9601  1.2117
 6351SOL     OW30688   0.772   3.798   5.441 -0.6023 -0.4476 -0.1984
 6351SOL    HW130689   0.683   3.764   5.438 -0.6343 -0.5198  1.8747
 6351SOL    HW230690   0.759   3.886   5.477  1.5642  0.8191 -2.5152
 6352SOL     OW30691   0.474   2.294  15.261 -0.1486  0.1569  0.1125
 6352SOL    HW130692   0.430   2.323  15.341 -1.2821  2.2439 -1.2498
 6352SOL    HW230693   0.537   2.366  15.257 -1.0451  0.8233 -2.4079
 6353SOL     OW30694   1.444   2.002   5.479 -0.2676  0.1192  0.0371
 6353SOL    HW130695   1.376   2.061   5.512 -1.6198 -0.7853 -1.1477
 6353SOL    HW230696   1.515   2.021   5.540 -1.1124 -1.5761  1.5332
 6354SOL     OW30697   2.653   3.597   8.948 -0.4671 -0.0166  0.4704
 6354SOL    HW130698   2.667   3.566   8.858  0.0911  0.4258  0.4069
 6354SOL    HW230699   2.623   3.686   8.930 -2.3995 -0.2822  2.3080
 6355SOL     OW30700   4.125   1.769   6.299 -0.2066  0.1974  0.1717
 6355SOL    HW130701   4.195   1.828   6.325 -1.3716  1.1025  1.2878
 6355SOL    HW230702   4.079   1.765   6.382  1.6023  1.0731  1.1961
 6356SOL     OW30703   1.410   4.405   2.495 -0.0263  0.0461  0.1999
 6356SOL    HW130704   1.426   4.465   2.423  0.1213 -1.5843 -1.1208
 6356SOL    HW230705   1.377   4.324   2.457  0.6571 -0.9784  1.7545
 6357SOL     OW30706   2.538   1.071   5.502  0.1063  0.3434  0.2016
 6357SOL    HW130707   2.619   1.121   5.510  0.7413 -0.7108  0.3392
 6357SOL    HW230708   2.564   0.990   5.457  0.0536 -0.6364  1.9404
 6358SOL     OW30709   4.233   0.367   3.769 -0.8313 -0.0607 -0.3264
 6358SOL    HW130710   4.263   0.288   3.815 -1.6533 -0.2877 -0.1814
 6358SOL    HW230711   4.318   0.398   3.738 -0.8531  0.3573  0.0257
 6359SOL     OW30712   4.212   4.117   9.420  0.2738 -0.2339 -0.3052
 6359SOL    HW130713   4.170   4.160   9.345 -1.9216 -0.7105  0.6473
 6359SOL    HW230714   4.254   4.189   9.466 -1.1312  0.8334 -0.6915
 6360SOL     OW30715   2.876   1.481   2.593 -0.2647  0.2665  0.1100
 6360SOL    HW130716   2.855   1.388   2.588  0.1380  0.1357  0.8348
 6360SOL    HW230717   2.883   1.505   2.501  0.8234  0.2250  0.1881
 6361SOL     OW30718   0.274   4.488   8.536  0.3016 -0.0046 -0.1008
 6361SOL    HW130719   0.343   4.506   8.472  2.3022  3.0284  2.9315
 6361SOL    HW230720   0.330   4.474   8.612 -1.0365  0.6197  1.0068
 6362SOL     OW30721   2.940   1.852   6.888  0.4194  0.7816  0.0567
 6362SOL    HW130722   2.971   1.943   6.892 -0.9795  1.3187 -1.0788
 6362SOL    HW230723   2.845   1.863   6.879  0.2660 -1.3013 -0.7884
 6363SOL     OW30724   1.735   3.640   4.757 -0.1673 -0.5265 -0.0495
 6363SOL    HW130725   1.761   3.624   4.847  0.2481  1.5744  0.1968
 6363SOL    HW230726   1.639   3.648   4.763  0.0267  1.8868 -0.3334
 6364SOL     OW30727   4.682   3.255   6.712  0.4215 -0.3351 -0.5807
 6364SOL    HW130728   0.034   3.224   6.690  0.7471  0.9095 -1.0023
 6364SOL    HW230729   4.670   3.253   6.807 -0.1015  0.1850 -0.6343
 6365SOL     OW30730   3.180   1.122   3.363  0.0274  0.3579 -0.2358
 6365SOL    HW130731   3.110   1.145   3.425  0.2958  2.4360 -0.7189
 6365SOL    HW230732   3.150   1.172   3.287  0.5198  0.4459 -0.3689
 6366SOL     OW30733   4.731   2.972  11.946 -0.2876  0.4845 -0.3483
 6366SOL    HW130734   4.655   3.010  11.903  1.0931  3.5072 -0.1853
 6366SOL    HW230735   0.000   2.895  11.890 -0.4241  1.5856 -1.8843
 6367SOL     OW30736   0.591   2.674   3.362  0.4367 -0.0883  0.3592
 6367SOL    HW130737   0.663   2.724   3.401 -1.5272  0.6113  3.0475
 6367SOL    HW230738   0.640   2.591   3.372  1.7165  0.3949 -1.8317
 6368SOL     OW30739   0.394   2.710   2.916  0.4138  0.0104 -0.0772
 6368SOL    HW130740   0.308   2.723   2.877  0.0645 -1.5512  0.1950
 6368SOL    HW230741   0.389   2.616   2.903 -3.5424  0.1463  0.4828
 6369SOL     OW30742   1.736   3.892   3.061  0.3826  0.3113 -0.0094
 6369SOL    HW130743   1.746   3.861   2.971 -0.0930  2.2732 -0.7321
 6369SOL    HW230744   1.708   3.982   3.044  3.2833  0.4272 -4.2158
 6370SOL     OW30745   4.583   0.444   6.273  0.2582 -0.2076 -0.3633
 6370SOL    HW130746   4.513   0.507   6.257  0.5802  0.1994 -0.1757
 6370SOL    HW230747   4.650   0.471   6.210  1.5770 -3.2479 -0.2567
 6371SOL     OW30748   2.546   3.418   5.001 -0.2648  0.2074 -0.4435
 6371SOL    HW130749   2.590   3.474   5.065 -2.0644  2.7065 -1.3961
 6371SOL    HW230750   2.474   3.385   5.055  0.6269  1.5295  1.5295
 6372SOL     OW30751   4.329   1.840   5.072  0.1730 -0.1730 -0.2614
 6372SOL    HW130752   4.234   1.839   5.060  0.1597 -1.2617 -0.1182
 6372SOL    HW230753   4.330   1.870   5.163  0.6701 -0.6808 -0.1007
 6373SOL     OW30754   2.126   0.733   7.438 -0.0879  0.1205  0.0431
 6373SOL    HW130755   2.092   0.653   7.479  3.3733 -1.4164 -0.0966
 6373SOL    HW230756   2.151   0.702   7.350 -2.3517  0.6512 -0.7964
 6374SOL     OW30757   1.711   4.190   9.635  0.3826  0.0502 -0.8474
 6374SOL    HW130758   1.792   4.167   9.680  1.1823  0.1168 -2.2486
 6374SOL    HW230759   1.652   4.116   9.650  2.0323 -1.1600 -0.3443
 6375SOL     OW30760   3.660   3.697   4.740 -0.3058 -0.3599  0.0402
 6375SOL    HW130761   3.578   3.711   4.692  0.3542  1.6985 -0.4955
 6375SOL    HW230762   3.714   3.766   4.702  0.3820  0.0999  1.8245
 6376SOL     OW30763   0.214   3.407   5.727  0.3998 -0.1593 -0.2518
 6376SOL    HW130764   0.310   3.404   5.731  0.5113  3.4397 -0.7442
 6376SOL    HW230765   0.197   3.491   5.685  1.0638 -0.1979 -0.5976
 6377SOL     OW30766   2.268   4.347   7.070 -0.1942 -0.0638 -0.5160
 6377SOL    HW130767   2.212   4.391   7.007 -0.7675  0.2935  0.2398
 6377SOL    HW230768   2.227   4.372   7.153  0.6068  1.8132 -0.6726
 6378SOL     OW30769   4.634   4.606   5.376  0.2329 -0.2873  0.0658
 6378SOL    HW130770   4.540   4.592   5.364  0.2819  0.2465 -0.9110
 6378SOL    HW230771   4.678   4.569   5.299 -0.7057 -1.1213 -0.0682
 6379SOL     OW30772   4.238   4.380   4.378  0.3676  0.7130 -0.0459
 6379SOL    HW130773   4.331   4.357   4.370  0.2501  0.3078 -0.2797
 6379SOL    HW230774   4.209   4.291   4.399  1.2476  0.3182 -0.4843
 6380SOL     OW30775   1.293   0.023  15.677  0.3428 -0.3210 -0.0525
 6380SOL    HW130776   1.365   0.027  15.740  1.5152  2.0055 -1.5240
 6380SOL    HW230777   1.330   4.697  15.615 -0.8304 -0.2975 -0.7629
 6381SOL     OW30778   2.622   1.247   9.776  0.7216  0.3675 -0.2601
 6381SOL    HW130779   2.702   1.217   9.732  0.1709 -1.4334 -0.0549
 6381SOL    HW230780   2.660   1.281   9.857 -1.4479 -1.4986  1.5566
 6382SOL     OW30781   3.866   1.635   1.750  0.0826 -0.0647  0.1732
 6382SOL    HW130782   3.879   1.557   1.696  1.8554 -1.2132  2.2514
 6382SOL    HW230783   3.955   1.669   1.757 -1.0579  2.8607  0.4318
 6383SOL     OW30784   1.769   3.447   5.199  0.1442 -0.3474 -0.3285
 6383SOL    HW130785   1.821   3.486   5.128  0.6697  0.7076  0.6354
 6383SOL    HW230786   1.682   3.426   5.165  0.4321  1.4271 -2.1131
 6384SOL     OW30787   1.362   4.104   9.097 -0.2589  0.6758  0.1208
 6384SOL    HW130788   1.379   4.081   9.189  3.3061 -1.0926 -0.9707
 6384SOL    HW230789   1.444   4.148   9.072  0.6319  0.7018  3.0525
 6385SOL     OW30790   1.585   0.366   8.825 -0.4849  0.4396  0.6170
 6385SOL    HW130791   1.607   0.456   8.803 -0.5742  0.0123 -1.1922
 6385SOL    HW230792   1.663   0.343   8.877 -0.2834  1.6238  0.8375
 6386SOL     OW30793   3.216   2.462   5.923  0.6660  0.2088  0.1776
 6386SOL    HW130794   3.238   2.464   6.016  1.0774  1.4051  0.0503
 6386SOL    HW230795   3.180   2.549   5.910  1.5236  0.6814  0.9499
 6387SOL     OW30796   0.568   1.807   2.482  0.1014 -0.1125 -0.1685
 6387SOL    HW130797   0.506   1.739   2.457  1.7624 -1.6246 -0.1267
 6387SOL    HW230798   0.513   1.869   2.531  2.1724  0.3192  1.6172
 6388SOL     OW30799   3.349   2.308   7.615  0.1406 -0.0787 -0.3443
 6388SOL    HW130800   3.354   2.224   7.659  1.7208 -1.3860 -3.0137
 6388SOL    HW230801   3.408   2.361   7.668  0.5887 -2.3891  1.4311
 6389SOL     OW30802   0.087   2.507   6.868 -0.4001  0.5801  0.8980
 6389SOL    HW130803   0.158   2.567   6.891  0.9289 -1.7075  2.7097
 6389SOL    HW230804   0.062   2.469   6.952 -0.8034  0.5618  0.7722
 6390SOL     OW30805   4.063   2.107   5.850 -0.0330 -0.1091  0.3329
 6390SOL    HW130806   4.107   2.113   5.765  1.7217 -1.3451  1.1385
 6390SOL    HW230807   3.982   2.155   5.834 -0.0112 -0.4051 -0.6442
 6391SOL     OW30808   0.115   1.894   3.344 -0.1444 -0.0977 -0.4053
 6391SOL    HW130809   0.127   1.847   3.426 -2.5848  0.5533  0.3246
 6391SOL    HW230810   0.029   1.936   3.352  0.1943  0.3590  0.8727
 6392SOL     OW30811   3.098   0.099   1.804 -0.4873 -0.2360  0.1046
 6392SOL    HW130812   3.078   0.150   1.725 -1.0347  1.0544  1.0846
 6392SOL    HW230813   3.010   0.067   1.825 -1.5591  1.5651 -1.5701
 6393SOL     OW30814   0.972   1.122   8.171  0.4051 -0.0306 -0.0867
 6393SOL    HW130815   0.965   1.217   8.175 -0.6062 -0.1390  0.9411
 6393SOL    HW230816   1.046   1.107   8.112  0.7006 -1.4531  0.6438
 6394SOL     OW30817   1.672   3.834   2.299  0.1020  0.0665 -0.0243
 6394SOL    HW130818   1.589   3.793   2.322  0.1752 -1.4107 -2.4818
 6394SOL    HW230819   1.643   3.923   2.278 -0.0253  0.0460  0.0658
 6395SOL     OW30820   1.041   1.665   4.751  0.2646  0.0739 -0.3086
 6395SOL    HW130821   1.132   1.636   4.765 -0.0817 -0.8497  0.0033
 6395SOL    HW230822   1.012   1.702   4.835 -0.2009  1.9698 -1.2955
 6396SOL     OW30823   2.127   2.114   6.138  0.1979 -0.6450 -0.7500
 6396SOL    HW130824   2.072   2.100   6.061 -0.1829 -0.3108 -0.5423
 6396SOL    HW230825   2.113   2.209   6.144  0.7628 -0.4956 -1.7759
 6397SOL     OW30826   1.533   1.643   9.296 -0.1435 -0.8098 -0.0073
 6397SOL    HW130827   1.556   1.729   9.330 -3.9509 -0.1652  0.9448
 6397SOL    HW230828   1.471   1.616   9.364  0.6492 -1.5366  0.4145
 6398SOL     OW30829   3.074   3.985   5.386 -0.3295 -0.5910 -0.1235
 6398SOL    HW130830   3.042   4.048   5.322  1.6090 -1.0472 -1.5568
 6398SOL    HW230831   3.032   3.905   5.354 -3.1584  1.0763 -0.5622
 6399SOL     OW30832   1.340   1.603   9.484 -0.0120 -0.8461 -0.1944
 6399SOL    HW130833   1.348   1.553   9.566 -0.3943  0.1472  0.4465
 6399SOL    HW230834   1.249   1.582   9.460 -0.7002  0.5329  1.2043
 6400SOL     OW30835   0.421   3.072   5.210  0.4446  0.7167 -0.2000
 6400SOL    HW130836   0.327   3.077   5.197  0.5851  1.5592 -0.9110
 6400SOL    HW230837   0.445   3.162   5.230 -1.6574  1.2212 -0.0479
 6401SOL     OW30838   4.603   0.248   4.527  0.2724  0.5055  0.3444
 6401SOL    HW130839   4.629   0.300   4.603 -0.3333  1.0444  0.1787
 6401SOL    HW230840   4.510   0.232   4.544  0.6167  0.8276  2.6096
 6402SOL     OW30841   2.591   0.897   5.961  0.8508 -0.7717  0.1119
 6402SOL    HW130842   2.529   0.938   5.901  0.4576  1.1133  1.8011
 6402SOL    HW230843   2.619   0.976   6.008  1.1334 -1.1994  0.6710
 6403SOL     OW30844   1.209   4.265   7.386 -0.0707 -0.3644 -0.5870
 6403SOL    HW130845   1.273   4.204   7.422 -0.1338 -1.0849 -1.6963
 6403SOL    HW230846   1.242   4.274   7.297 -0.1377 -0.6895 -0.6464
 6404SOL     OW30847   0.376   4.478   5.391  0.3043  0.0346 -0.4635
 6404SOL    HW130848   0.288   4.468   5.355  0.0027  2.7493 -0.5095
 6404SOL    HW230849   0.399   4.391   5.422  2.2411 -0.1386 -2.4733
 6405SOL     OW30850   0.293   4.666  14.729  0.4823 -0.3081  0.0307
 6405SOL    HW130851   0.318   4.723  14.656  1.9181 -0.8532  0.0922
 6405SOL    HW230852   0.214   4.716  14.745  0.5798  0.9440 -3.3634
 6406SOL     OW30853   4.099   2.319  13.128  0.7053 -0.3493 -0.0720
 6406SOL    HW130854   4.169   2.272  13.083 -0.7937 -1.3400 -1.3968
 6406SOL    HW230855   4.030   2.256  13.106 -0.2031  0.9642 -0.9594
 6407SOL     OW30856   1.042   3.279  12.632  0.4724  0.3389 -0.8879
 6407SOL    HW130857   1.116   3.340  12.628  0.5360  0.3569  0.6263
 6407SOL    HW230858   1.065   3.212  12.568  0.6923  1.6920 -2.2300
 6408SOL     OW30859   1.444   1.991   8.332  0.3887  0.2499 -0.5516
 6408SOL    HW130860   1.441   2.085   8.313  0.0143  0.5447  0.9889
 6408SOL    HW230861   1.536   1.985   8.305  1.1158  1.1070  1.7443
 6409SOL     OW30862   0.030   0.343  13.304  0.2431  0.0444  0.1816
 6409SOL    HW130863   4.671   0.349  13.289  0.3751  0.8383 -0.3053
 6409SOL    HW230864   0.060   0.319  13.216 -2.3830  1.2264 -1.0603
 6410SOL     OW30865   0.093   1.420   5.121 -0.0256  0.0687  0.6903
 6410SOL    HW130866   0.029   1.407   5.050 -0.1779  0.8590  0.6909
 6410SOL    HW230867   0.057   1.357   5.183 -0.8577  0.8800  1.0284
 6411SOL     OW30868   4.039   4.543   3.404  0.2206  0.2234  0.0235
 6411SOL    HW130869   3.973   4.515   3.341  1.6892 -0.0753 -1.3928
 6411SOL    HW230870   4.004   4.492   3.477  0.5746 -1.3773 -0.9347
 6412SOL     OW30871   0.504   1.553   2.662  0.4372  0.0761 -0.0785
 6412SOL    HW130872   0.548   1.515   2.738 -1.7733  0.4830  1.4063
 6412SOL    HW230873   0.453   1.629   2.690  0.6830  0.0698  0.3832
 6413SOL     OW30874   4.165   4.649   2.070  0.0652  0.0373 -0.2888
 6413SOL    HW130875   4.232   4.704   2.029 -0.3546 -0.0624 -1.1027
 6413SOL    HW230876   4.150   4.688   2.156 -0.6917  0.8945 -0.8107
 6414SOL     OW30877   2.915   3.510  15.325  0.2705 -0.7414  0.0027
 6414SOL    HW130878   2.960   3.533  15.406 -0.1484  0.2268 -0.0417
 6414SOL    HW230879   2.892   3.417  15.337 -1.4264 -0.0618  1.9494
 6415SOL     OW30880   2.250   4.681   1.793  0.1963  0.3445 -0.1349
 6415SOL    HW130881   2.195   4.654   1.720  1.4898 -2.6230  0.0224
 6415SOL    HW230882   2.340   4.684   1.761  0.0198 -0.3315 -0.6714
 6416SOL     OW30883   3.599   3.733  14.008 -0.1335 -0.1311 -0.1980
 6416SOL    HW130884   3.534   3.803  14.003 -0.7237 -0.5712  1.4845
 6416SOL    HW230885   3.641   3.745  13.922 -0.5348 -1.4580 -0.5737
 6417SOL     OW30886   3.394   4.101   6.932 -0.0431  0.2749 -0.0128
 6417SOL    HW130887   3.326   4.119   6.867  0.3845  0.1940 -0.4836
 6417SOL    HW230888   3.463   4.166   6.916  0.9536 -0.9154 -0.6225
 6418SOL     OW30889   3.806   4.123   5.802 -0.0952  0.1038 -0.2188
 6418SOL    HW130890   3.851   4.195   5.758 -0.2136 -0.3332 -1.0592
 6418SOL    HW230891   3.737   4.176   5.842  0.8117  1.9667 -1.1205
 6419SOL     OW30892   2.378   2.236   3.605  0.0491  0.2704 -0.0856
 6419SOL    HW130893   2.324   2.253   3.682 -1.1160 -1.2269 -0.5660
 6419SOL    HW230894   2.423   2.321   3.601  0.9099 -0.1268  1.0738
 6420SOL     OW30895   0.451   4.597   1.088 -0.1839 -0.1988 -0.2705
 6420SOL    HW130896   0.545   4.585   1.073 -0.0014  0.8339  0.0931
 6420SOL    HW230897   0.412   4.534   1.027  0.4373 -1.3328  0.5137
 6421SOL     OW30898   3.078   1.096   3.829 -0.2407  0.2933 -0.1589
 6421SOL    HW130899   3.021   1.075   3.903 -0.4603  0.4500 -0.2864
 6421SOL    HW230900   3.143   1.154   3.869 -1.5496  2.0192 -0.5742
 6422SOL     OW30901   0.679   4.306   8.957 -1.0078 -0.1725  0.1681
 6422SOL    HW130902   0.599   4.281   8.912  0.5397 -2.2533 -1.3558
 6422SOL    HW230903   0.676   4.402   8.964  0.7457 -0.1383  0.5443
 6423SOL     OW30904   0.913   0.812  11.949 -0.0179 -0.1936 -0.0028
 6423SOL    HW130905   0.928   0.896  11.906 -1.8487  1.3490  2.4010
 6423SOL    HW230906   0.838   0.794  11.893 -0.1120 -0.9421  0.3626
 6424SOL     OW30907   3.405   0.909   3.732 -0.6066  0.1125 -0.2980
 6424SOL    HW130908   3.416   0.897   3.638 -1.1792  1.0392 -0.4832
 6424SOL    HW230909   3.365   0.996   3.745 -1.3434 -0.3672  0.6389
 6425SOL     OW30910   3.358   3.329   9.572 -0.4170 -0.2133 -0.3269
 6425SOL    HW130911   3.309   3.286   9.642 -0.7043  0.6991  0.0344
 6425SOL    HW230912   3.446   3.316   9.607 -0.3744  0.8029 -0.0582
 6426SOL     OW30913   1.460   2.815  11.500 -0.1237 -0.5890  0.1171
 6426SOL    HW130914   1.485   2.873  11.428  1.2276  0.6866  1.6249
 6426SOL    HW230915   1.505   2.853  11.575 -0.8962  3.1922 -1.3523
 6427SOL     OW30916   1.212   4.286   4.788  0.0785 -0.4748 -0.2531
 6427SOL    HW130917   1.228   4.246   4.873  0.3640  0.1207 -0.0220
 6427SOL    HW230918   1.166   4.366   4.813  2.1664  0.5203  0.3857
 6428SOL     OW30919   2.640   2.394   1.994 -0.3975 -0.1763 -0.4486
 6428SOL    HW130920   2.731   2.379   2.022 -1.2050  0.9844  2.7999
 6428SOL    HW230921   2.608   2.408   2.083  1.1742 -1.3550  0.3197
 6429SOL     OW30922   3.080   4.347   2.269 -0.6116 -0.3528  0.3090
 6429SOL    HW130923   3.048   4.284   2.205 -0.8965 -0.5599  0.6559
 6429SOL    HW230924   3.001   4.393   2.299  0.0637  1.8688 -1.3522
 6430SOL     OW30925   2.435   1.089   3.548 -0.1046 -0.1836  0.1385
 6430SOL    HW130926   2.448   1.173   3.503 -2.6614  0.0824 -0.1257
 6430SOL    HW230927   2.520   1.055   3.575  0.6342 -1.4445 -3.8626
 6431SOL     OW30928   0.772   2.285   2.857  0.5765 -0.2158 -0.4772
 6431SOL    HW130929   0.785   2.368   2.810  0.6981 -1.7237 -3.1463
 6431SOL    HW230930   0.736   2.226   2.790  2.9033  0.4746 -2.3109
 6432SOL     OW30931   3.622   3.036   0.710  0.3052 -0.1764 -0.1498
 6432SOL    HW130932   3.651   2.986   0.786  0.0489 -0.1001 -0.0049
 6432SOL    HW230933   3.705   3.077   0.686 -1.4701  1.8903 -2.7313
 6433SOL     OW30934   3.436   3.414   4.904  0.6229  0.1521  0.3568
 6433SOL    HW130935   3.354   3.382   4.866  0.2795 -1.3692  2.4195
 6433SOL    HW230936   3.453   3.354   4.977 -1.2197 -2.6315 -1.4596
 6434SOL     OW30937   4.187   0.671   1.354 -0.7094 -0.1564 -0.0081
 6434SOL    HW130938   4.204   0.761   1.382  2.1412 -1.1504  1.4403
 6434SOL    HW230939   4.096   0.659   1.329 -0.4788  1.4808 -1.6317
 6435SOL     OW30940   2.199   3.264   9.693 -0.2768 -0.3475 -0.3742
 6435SOL    HW130941   2.159   3.268   9.780 -1.7040  2.1074 -1.1504
 6435SOL    HW230942   2.125   3.258   9.633 -0.8606 -0.1986  0.3293
 6436SOL     OW30943   4.564   4.549  17.418  0.4614  0.3248 -0.2686
 6436SOL    HW130944   4.599   4.612  17.354  0.6398  0.1248 -0.3692
 6436SOL    HW230945   4.569   4.604  17.496 -1.0352 -0.4459  0.3640
 6437SOL     OW30946   3.552   4.658   4.360  0.7733 -0.2268 -0.0270
 6437SOL    HW130947   3.564   4.580   4.414 -0.4666 -1.0163 -0.8857
 6437SOL    HW230948   3.593   4.721   4.419 -3.2898  1.5337  0.9589
 6438SOL     OW30949   3.679   2.601   9.270 -0.0233  0.1453 -0.2461
 6438SOL    HW130950   3.698   2.690   9.299 -0.3161  0.2213 -0.2882
 6438SOL    HW230951   3.618   2.607   9.196  1.9496 -4.3590 -2.2878
 6439SOL     OW30952   1.817   4.148  13.343 -0.3272 -0.5318 -0.3102
 6439SOL    HW130953   1.739   4.198  13.323 -1.1420 -1.9860 -0.8018
 6439SOL    HW230954   1.765   4.070  13.364 -1.7208  0.1787 -1.2156
 6440SOL     OW30955   3.654   2.484   4.446 -0.2664 -0.3114 -0.3162
 6440SOL    HW130956   3.621   2.528   4.367 -3.2653  1.4398  1.8937
 6440SOL    HW230957   3.744   2.514   4.456 -0.2450 -0.0029 -1.4664
 6441SOL     OW30958   4.538   0.928   2.784 -0.1051 -0.1464 -0.3218
 6441SOL    HW130959   4.471   0.975   2.833  0.9679 -1.7646  2.6609
 6441SOL    HW230960   4.537   0.845   2.831  0.0812 -0.7296 -1.3283
 6442SOL     OW30961   1.854   0.770   5.451  0.0463 -0.2290  0.0578
 6442SOL    HW130962   1.841   0.779   5.357  2.1465  2.1472 -0.0096
 6442SOL    HW230963   1.950   0.765   5.449  0.2012  1.1394  3.2381
 6443SOL     OW30964   0.739   2.523  10.744  0.3156  0.1801 -0.5004
 6443SOL    HW130965   0.739   2.618  10.757  3.8585  0.1683 -0.6206
 6443SOL    HW230966   0.781   2.504  10.828  0.6954 -0.7965 -0.9225
 6444SOL     OW30967   2.483   0.278   8.960 -0.2713  0.1947 -0.7412
 6444SOL    HW130968   2.490   0.191   8.999 -0.5281  1.3961  2.0197
 6444SOL    HW230969   2.423   0.264   8.887 -3.2358  2.1890  1.3239
 6445SOL     OW30970   4.249   1.792   1.285  0.4109  0.0676 -0.5997
 6445SOL    HW130971   4.233   1.865   1.346 -0.2409 -0.4389 -0.1624
 6445SOL    HW230972   4.177   1.735   1.314 -0.3677  2.3158  1.9066
 6446SOL     OW30973   2.840   2.896  11.761  0.0988 -0.2897  0.0231
 6446SOL    HW130974   2.817   2.888  11.853 -1.4450  1.8935 -0.1624
 6446SOL    HW230975   2.795   2.977  11.736  1.9029  0.6072 -0.3346
 6447SOL     OW30976   0.720   4.533   0.222 -0.1935 -0.0883  0.0600
 6447SOL    HW130977   0.724   4.444   0.258 -1.6798 -0.6298 -1.1154
 6447SOL    HW230978   0.722   4.518   0.127  0.3770  2.4252 -0.3187
 6448SOL     OW30979   1.385   2.480  14.223  0.1627 -0.1196 -0.3433
 6448SOL    HW130980   1.385   2.576  14.226  1.4402 -0.0632 -2.7993
 6448SOL    HW230981   1.347   2.452  14.140  0.0795  0.7048 -0.5853
 6449SOL     OW30982   3.482   3.777   7.252 -1.0528  0.1976 -0.3138
 6449SOL    HW130983   3.391   3.807   7.253 -1.2116 -0.4045  1.6267
 6449SOL    HW230984   3.475   3.685   7.227 -0.4363  0.1652 -0.3818
 6450SOL     OW30985   2.152   1.841  14.147  0.1349  0.0260  0.5634
 6450SOL    HW130986   2.153   1.826  14.241 -0.4295  0.3189  0.6156
 6450SOL    HW230987   2.241   1.868  14.123  0.5707 -0.0300  2.1020
 6451SOL     OW30988   4.398   0.645   5.330 -0.0398 -0.0010 -0.2928
 6451SOL    HW130989   4.453   0.709   5.374 -1.1184 -0.6035  1.8990
 6451SOL    HW230990   4.323   0.660   5.387  1.1344 -0.8594  1.4785
 6452SOL     OW30991   2.344   0.555  17.554 -0.8823 -0.6987  0.0757
 6452SOL    HW130992   2.287   0.537  17.629  1.1118  1.4482  2.1263
 6452SOL    HW230993   2.373   0.646  17.565  2.5401 -1.9226  1.3307
 6453SOL     OW30994   2.858   0.285   6.251 -0.0398  0.2087 -0.3492
 6453SOL    HW130995   2.782   0.339   6.230 -1.1719 -1.1774  0.1470
 6453SOL    HW230996   2.823   0.201   6.222 -1.1542  0.2578  0.8495
 6454SOL     OW30997   4.539   2.825   3.702 -0.2651 -0.2953  0.2619
 6454SOL    HW130998   4.615   2.790   3.655 -0.8223 -2.2337  0.8109
 6454SOL    HW230999   4.578   2.801   3.786 -2.4489  1.0758  1.6824
 6455SOL     OW31000   3.103   1.009   3.074 -0.5028 -0.2017 -0.6639
 6455SOL    HW131001   3.184   0.969   3.105 -0.2110  1.8808  1.2663
 6455SOL    HW231002   3.129   1.099   3.058 -0.2260 -0.1875 -0.1344
 6456SOL     OW31003   2.794   2.913   6.133  0.0282  0.1389 -0.2214
 6456SOL    HW131004   2.762   2.882   6.048 -1.3089  3.2867 -0.8536
 6456SOL    HW231005   2.853   2.838   6.144  0.9021  0.4356 -2.8593
 6457SOL     OW31006   3.843   2.389   6.330 -0.2413 -0.5677  0.5231
 6457SOL    HW131007   3.769   2.400   6.390 -0.8405  0.7419 -0.4422
 6457SOL    HW231008   3.891   2.472   6.337 -1.7341  0.4668 -1.3115
 6458SOL     OW31009   3.756   3.923   5.985  0.2541 -0.6548 -0.1967
 6458SOL    HW131010   3.691   3.965   6.041  1.2081  0.7119 -0.1113
 6458SOL    HW231011   3.782   3.989   5.922 -0.9948 -0.2578 -0.2897
 6459SOL     OW31012   2.606   0.293   8.311  0.4094 -0.6525 -0.2316
 6459SOL    HW131013   2.588   0.270   8.221  2.7533  0.2693 -0.9485
 6459SOL    HW231014   2.702   0.300   8.317  0.4720 -0.6259 -1.2505
 6460SOL     OW31015   1.793   3.110   8.886 -0.3738 -0.2641 -0.1427
 6460SOL    HW131016   1.738   3.188   8.897 -0.3859 -0.1689 -0.9149
 6460SOL    HW231017   1.851   3.125   8.962  0.6544 -1.4840 -0.6921
 6461SOL     OW31018   4.099   3.723  11.071  0.7738  0.7165  0.5909
 6461SOL    HW131019   4.137   3.674  11.144  2.7813  1.2885 -0.0503
 6461SOL    HW231020   4.176   3.737  11.015  1.3449 -1.3381  0.8858
 6462SOL     OW31021   3.871   3.636   0.389 -0.1431  0.4566 -0.1972
 6462SOL    HW131022   3.818   3.566   0.428  0.6260 -0.3852 -0.6691
 6462SOL    HW231023   3.821   3.664   0.312 -0.4452  0.6155  0.0575
 6463SOL     OW31024   2.148   0.777   2.748 -0.5608 -0.1283 -0.4299
 6463SOL    HW131025   2.158   0.691   2.790  1.9762  0.4057  0.0788
 6463SOL    HW231026   2.194   0.756   2.667  1.2665 -1.4875  0.9333
 6464SOL     OW31027   1.742   4.631   6.266 -0.7484  0.4487  0.7629
 6464SOL    HW131028   1.819   4.583   6.296  0.8508  1.9050 -1.0473
 6464SOL    HW231029   1.754   4.617   6.173 -1.7776 -1.3444  0.8866
 6465SOL     OW31030   1.086   0.156   8.476  0.0904  0.2039 -0.0790
 6465SOL    HW131031   1.011   0.138   8.418  0.1984 -0.0418 -0.1400
 6465SOL    HW231032   1.088   0.251   8.487  1.8930  0.0109  1.1553
 6466SOL     OW31033   2.335   1.035  16.294 -0.0759 -0.0773 -0.6068
 6466SOL    HW131034   2.339   1.100  16.364  0.0274 -0.1352 -0.5575
 6466SOL    HW231035   2.389   0.969  16.338  0.6339  1.0883  0.2500
 6467SOL     OW31036   1.127   3.834   4.342  0.4217  0.1167  0.0014
 6467SOL    HW131037   1.161   3.785   4.267 -0.2455 -2.7964  1.5967
 6467SOL    HW231038   1.043   3.790   4.358  1.2732 -0.9301  1.6768
 6468SOL     OW31039   0.586   1.645   4.280  0.6734 -0.5125  0.3221
 6468SOL    HW131040   0.672   1.621   4.313  1.4682 -0.6060 -1.7983
 6468SOL    HW231041   0.532   1.626   4.356 -0.5924  0.6916 -0.2525
 6469SOL     OW31042   0.571   3.316   3.769 -0.4094  0.1037  0.5891
 6469SOL    HW131043   0.510   3.344   3.701  0.1718  0.4682  0.2120
 6469SOL    HW231044   0.538   3.226   3.780 -2.1721  0.3716 -2.4147
 6470SOL     OW31045   4.446   3.557   8.436  0.6291  0.5540 -0.0964
 6470SOL    HW131046   4.354   3.556   8.462  1.0377  1.2973  1.3920
 6470SOL    HW231047   4.450   3.628   8.373 -0.1923  1.6780  1.1210
 6471SOL     OW31048   2.918   2.103   6.327  0.4549  0.0542 -0.0240
 6471SOL    HW131049   2.955   2.015   6.325  0.3463 -0.0386  2.2952
 6471SOL    HW231050   2.994   2.151   6.359 -0.6626 -0.6361  3.6345
 6472SOL     OW31051   1.280   1.127   7.487  0.0869 -0.3916  0.3021
 6472SOL    HW131052   1.332   1.165   7.558 -1.7172 -1.0911  1.9974
 6472SOL    HW231053   1.344   1.129   7.415  0.8359  2.1161  1.0635
 6473SOL     OW31054   0.904   1.832   6.865 -0.0266  0.1865  0.2831
 6473SOL    HW131055   0.963   1.897   6.827  0.4614 -0.4850 -0.1195
 6473SOL    HW231056   0.924   1.836   6.958 -1.7503  1.7026  0.5958
 6474SOL     OW31057   1.416   0.993   7.972 -0.1614 -0.0990  0.7241
 6474SOL    HW131058   1.435   0.989   8.066 -0.3378  0.1553  0.7697
 6474SOL    HW231059   1.429   0.902   7.947 -0.9726 -0.7267  2.5551
 6475SOL     OW31060   4.112   2.303   6.823  0.6365 -0.4356 -0.0019
 6475SOL    HW131061   4.042   2.366   6.838  0.5898 -0.7622  1.1714
 6475SOL    HW231062   4.149   2.326   6.738  2.5482  3.4605  1.8594
 6476SOL     OW31063   3.618   1.084   5.227  0.1812  0.5152  0.4490
 6476SOL    HW131064   3.534   1.051   5.194  0.2266 -0.1893  1.0493
 6476SOL    HW231065   3.662   1.117   5.149 -2.1597  1.3278 -0.5368
 6477SOL     OW31066   0.440   4.551   3.960 -0.0820  0.2733 -0.1993
 6477SOL    HW131067   0.483   4.635   3.973 -2.5675  1.4177  0.6545
 6477SOL    HW231068   0.424   4.521   4.050  1.8207  2.4303  0.8676
 6478SOL     OW31069   3.672   1.988   0.358  0.5564  0.0495  0.4566
 6478SOL    HW131070   3.718   2.014   0.278  1.7486 -2.2249  0.4109
 6478SOL    HW231071   3.747   1.979   0.416  0.8870 -2.7273 -0.4012
 6479SOL     OW31072   3.049   2.581   3.264  0.0046  0.0213  0.0729
 6479SOL    HW131073   2.959   2.585   3.295  0.0677 -2.1169  0.5314
 6479SOL    HW231074   3.033   2.640   3.190 -0.0738  2.4542  2.0263
 6480SOL     OW31075   3.052   3.604   2.893 -0.3824  0.5982  0.8948
 6480SOL    HW131076   2.977   3.545   2.882  1.4841 -1.5715 -0.0254
 6480SOL    HW231077   3.013   3.676   2.843 -0.4828  0.3289  0.5825
 6481SOL     OW31078   2.226   3.256   4.876 -0.2265  0.2072  0.2423
 6481SOL    HW131079   2.179   3.223   4.953  1.1019 -4.1747 -0.8723
 6481SOL    HW231080   2.316   3.274   4.904 -0.9812  2.3500  1.3117
 6482SOL     OW31081   4.648   1.434   4.932 -0.0852 -0.5244 -0.2883
 6482SOL    HW131082   4.557   1.458   4.952  0.5024  1.6628 -0.2182
 6482SOL    HW231083   4.655   1.455   4.839 -0.2675  0.1631 -0.1443
 6483SOL     OW31084   4.283   0.491  15.107 -0.1945  0.3220 -0.0234
 6483SOL    HW131085   4.325   0.559  15.159  1.7064  0.0398 -1.2072
 6483SOL    HW231086   4.323   0.413  15.146  0.8562  0.2038 -1.3320
 6484SOL     OW31087   3.505   1.035   9.428  0.0122 -0.2131 -0.1989
 6484SOL    HW131088   3.522   0.952   9.383 -0.5162 -0.7241  0.5342
 6484SOL    HW231089   3.409   1.037   9.434  0.1796  4.2861  0.8142
 6485SOL     OW31090   1.598   2.518   4.219 -0.3417 -0.5815 -0.4664
 6485SOL    HW131091   1.550   2.448   4.175  1.7239  0.1933 -3.9344
 6485SOL    HW231092   1.569   2.503   4.309 -0.2907  0.0698 -0.3399
 6486SOL     OW31093   0.431   0.925   1.860 -0.9941  0.6098  0.5622
 6486SOL    HW131094   0.387   0.916   1.944 -0.0383  0.5332  1.0605
 6486SOL    HW231095   0.446   1.018   1.842 -0.0422  0.5652  1.0806
 6487SOL     OW31096   3.998   3.570   5.517  0.2899  0.6735 -0.5516
 6487SOL    HW131097   4.024   3.621   5.594 -1.9914 -0.3650  0.9122
 6487SOL    HW231098   3.964   3.487   5.551  0.4585 -0.0779 -2.2483
 6488SOL     OW31099   3.583   3.622  17.662 -0.6922  0.9010 -0.7509
 6488SOL    HW131100   3.522   3.605  17.734 -1.0049  2.3901 -0.6639
 6488SOL    HW231101   3.666   3.599  17.704 -1.8917  0.8045  1.5646
 6489SOL     OW31102   1.937   0.808   4.575 -0.6089 -0.4744 -0.3303
 6489SOL    HW131103   1.869   0.785   4.639  0.6071 -0.6943  0.8817
 6489SOL    HW231104   1.946   0.720   4.539  3.4052  0.3927 -1.4286
 6490SOL     OW31105   2.246   1.267   9.757 -0.2138  0.2177  0.2043
 6490SOL    HW131106   2.160   1.309   9.759  2.3245  5.2822  2.4186
 6490SOL    HW231107   2.222   1.183   9.718 -1.7157 -0.2957  2.2396
 6491SOL     OW31108   1.558   1.721   2.789 -0.2559  0.0788 -0.1929
 6491SOL    HW131109   1.475   1.758   2.821  0.3364  2.9922 -2.0219
 6491SOL    HW231110   1.588   1.795   2.737 -2.3521  0.2859 -1.1369
 6492SOL     OW31111   3.779   3.451   3.532 -0.7769  0.1191 -0.5668
 6492SOL    HW131112   3.777   3.423   3.441  2.6884 -1.6681 -0.1042
 6492SOL    HW231113   3.866   3.430   3.567 -0.8421  1.3911  0.3635
 6493SOL     OW31114   0.013   3.162   6.326 -0.1248  0.6382  0.1131
 6493SOL    HW131115   0.103   3.195   6.329  0.3704 -0.7843  0.7304
 6493SOL    HW231116   4.702   3.246   6.334  0.8838  1.1439  0.6998
 6494SOL     OW31117   2.668   3.396   9.760  0.4673 -0.1887 -0.4635
 6494SOL    HW131118   2.588   3.348   9.740  0.7174 -1.0626  0.6447
 6494SOL    HW231119   2.728   3.322   9.768  0.7585 -0.0611 -1.3790
 6495SOL     OW31120   0.358   2.436   5.090 -0.0680 -0.2750 -0.3076
 6495SOL    HW131121   0.305   2.428   5.170  4.0368  2.0205  2.6323
 6495SOL    HW231122   0.319   2.373   5.030  0.5094 -1.8783  0.9860
 6496SOL     OW31123   3.185   3.269  11.072 -0.0605  0.2363  0.0344
 6496SOL    HW131124   3.166   3.240  11.162 -2.5145  0.2887 -0.4686
 6496SOL    HW231125   3.263   3.214  11.068 -1.3894 -1.5934 -0.8905
 6497SOL     OW31126   3.120   3.168   9.139 -0.6571  0.2549  0.4001
 6497SOL    HW131127   3.025   3.165   9.125 -0.3067  1.0060 -2.0548
 6497SOL    HW231128   3.152   3.167   9.049  2.1818  2.9998  1.4374
 6498SOL     OW31129   1.436   1.511   5.975  0.1304  0.5447 -0.0737
 6498SOL    HW131130   1.443   1.418   5.953 -1.5426 -0.1060  2.1427
 6498SOL    HW231131   1.466   1.497   6.065  1.5797 -0.5420 -0.7196
 6499SOL     OW31132   4.332   2.488  14.326 -0.0495  0.5127  0.8105
 6499SOL    HW131133   4.237   2.493  14.321 -0.1602 -0.0937  2.2437
 6499SOL    HW231134   4.353   2.560  14.386  0.1871  1.2678 -0.1842
 6500SOL     OW31135   1.990   3.315   6.731 -0.0594  0.2603  1.1244
 6500SOL    HW131136   1.961   3.304   6.641  1.7768  0.9584  0.4280
 6500SOL    HW231137   2.026   3.404   6.743  1.2951 -0.4316  2.2755
 6501SOL     OW31138   0.397   0.785   4.921 -0.0048  0.0980  0.3560
 6501SOL    HW131139   0.404   0.695   4.955  2.5150  0.7915  1.6951
 6501SOL    HW231140   0.302   0.790   4.915  0.0278  0.5653  0.2572
 6502SOL     OW31141   1.304   0.751  16.541 -0.1463 -0.4088 -0.0882
 6502SOL    HW131142   1.315   0.702  16.624 -0.3308  0.8720  0.6873
 6502SOL    HW231143   1.370   0.719  16.479  2.3549 -0.9766  2.8455
 6503SOL     OW31144   2.332   3.493  13.586  0.3541  0.1180  0.3977
 6503SOL    HW131145   2.334   3.586  13.562 -0.6797 -0.1204 -0.5827
 6503SOL    HW231146   2.421   3.489  13.620  0.4027 -1.8150  0.0049
 6504SOL     OW31147   2.684   1.590   7.258  0.2344  0.0547  0.5156
 6504SOL    HW131148   2.620   1.581   7.188  1.2321  0.5383 -0.4661
 6504SOL    HW231149   2.620   1.570   7.327  0.7240 -2.5067  0.2304
 6505SOL     OW31150   0.630   4.476   7.372  0.1392  0.2399  0.0572
 6505SOL    HW131151   0.548   4.471   7.421  1.4248  0.8715  2.2734
 6505SOL    HW231152   0.692   4.510   7.436 -1.0823  1.3949  0.6202
 6506SOL     OW31153   0.918   2.982   8.908  0.1423 -0.1525 -0.3468
 6506SOL    HW131154   0.955   2.950   8.990 -0.5186 -0.4168 -0.1495
 6506SOL    HW231155   0.835   3.004   8.950 -0.9663 -0.2272 -2.5002
 6507SOL     OW31156   1.828   2.672   6.699  0.1572 -0.7240  0.8108
 6507SOL    HW131157   1.805   2.732   6.769 -0.9434  0.5232 -0.6154
 6507SOL    HW231158   1.857   2.595   6.747  0.7872 -0.6603  0.5324
 6508SOL     OW31159   1.870   2.180   2.937  0.3992  0.2568  0.3289
 6508SOL    HW131160   1.801   2.238   2.902  1.0464  0.5912 -0.3781
 6508SOL    HW231161   1.929   2.237   2.986  0.7759  0.2517 -0.1195
 6509SOL     OW31162   1.947   3.462   8.407 -0.2502  0.6058 -0.6113
 6509SOL    HW131163   1.882   3.462   8.477  1.2299 -2.8017  0.7877
 6509SOL    HW231164   1.917   3.384   8.360 -0.5286  1.1135 -1.2805
 6510SOL     OW31165   2.209   3.508  11.637  0.0337  0.0566 -0.9238
 6510SOL    HW131166   2.177   3.434  11.586 -0.2994 -0.4161 -0.0397
 6510SOL    HW231167   2.225   3.566  11.563 -1.7403  1.5513 -0.1563
 6511SOL     OW31168   2.370   0.082   3.621 -0.0482  0.3887  0.1232
 6511SOL    HW131169   2.391   4.724   3.612 -0.6953  0.4318 -1.7476
 6511SOL    HW231170   2.398   0.116   3.536  2.4776  1.1430  1.2588
 6512SOL     OW31171   0.764   2.282   8.108  0.1982  0.2868 -0.2021
 6512SOL    HW131172   0.674   2.294   8.138 -0.6874 -1.5556 -2.1406
 6512SOL    HW231173   0.754   2.202   8.057  1.2936 -0.3462  0.5792
 6513SOL     OW31174   2.741   4.550   0.119  0.2185  0.0599 -0.8137
 6513SOL    HW131175   2.820   4.544   0.064 -0.0770  1.1705 -1.3439
 6513SOL    HW231176   2.744   4.473   0.177 -2.7494  0.4682 -0.1088
 6514SOL     OW31177   1.361   1.456   2.503 -0.1340  0.1005  0.7657
 6514SOL    HW131178   1.397   1.425   2.585  2.6073  0.8839 -0.1074
 6514SOL    HW231179   1.278   1.412   2.520 -0.0457 -0.5184 -0.3930
 6515SOL     OW31180   2.869   2.392  16.222  0.2431 -0.2233 -0.9917
 6515SOL    HW131181   2.846   2.423  16.135 -1.7171 -0.5828 -0.5971
 6515SOL    HW231182   2.941   2.333  16.198  0.6516 -0.2299  0.2357
 6516SOL     OW31183   1.196   2.219   8.984  0.0258 -0.1250  0.2750
 6516SOL    HW131184   1.169   2.249   9.071 -0.8440  0.2408 -0.1155
 6516SOL    HW231185   1.291   2.222   8.990  0.1495  0.2426 -1.6867
 6517SOL     OW31186   1.561   4.440   3.532 -0.1669 -0.0478 -0.4657
 6517SOL    HW131187   1.526   4.523   3.563 -3.0611 -1.1591 -0.7655
 6517SOL    HW231188   1.569   4.393   3.615  0.2253 -2.3647 -1.8131
 6518SOL     OW31189   2.521   4.024  16.880  0.3724  0.3302 -0.1365
 6518SOL    HW131190   2.447   3.962  16.885 -0.3150  1.2535  1.1034
 6518SOL    HW231191   2.548   3.995  16.793  0.0877 -1.4261  0.3478
 6519SOL     OW31192   0.229   0.149   6.608 -0.5779 -0.2325  0.3912
 6519SOL    HW131193   0.304   0.117   6.556  0.7741  2.2962  0.8216
 6519SOL    HW231194   0.192   0.209   6.543 -2.5879  1.4849  3.1419
 6520SOL     OW31195   2.819   1.595   2.071  0.1402  0.3326 -0.1282
 6520SOL    HW131196   2.725   1.611   2.078  0.4079  2.1155 -0.7248
 6520SOL    HW231197   2.838   1.637   1.987  0.8572 -1.6832 -0.9721
 6521SOL     OW31198   0.202   0.150  12.076  0.4366  0.2377  0.2125
 6521SOL    HW131199   0.238   0.118  11.993 -3.6015 -2.9601 -0.2676
 6521SOL    HW231200   0.266   0.120  12.141  0.3268 -0.4449  0.0097
 6522SOL     OW31201   1.494   0.021   9.203 -0.9973 -0.2935  0.4653
 6522SOL    HW131202   1.429   4.688   9.189 -0.8765 -0.2874 -0.1565
 6522SOL    HW231203   1.504   0.030   9.108  1.5432  1.9975  0.9543
 6523SOL     OW31204   0.878   2.013  12.240 -0.4007 -0.1018 -0.5894
 6523SOL    HW131205   0.800   2.065  12.219 -0.2403 -0.4451 -2.0742
 6523SOL    HW231206   0.951   2.069  12.213 -0.7583  0.3146 -0.7053
 6524SOL     OW31207   1.686   4.503   9.186 -0.4588 -0.7086  0.0416
 6524SOL    HW131208   1.711   4.496   9.094 -0.1288 -1.1981  0.1707
 6524SOL    HW231209   1.717   4.591   9.205  1.2100 -1.5342  1.1174
 6525SOL     OW31210   0.888   1.955   6.027 -0.2636  0.3650  0.1466
 6525SOL    HW131211   0.796   1.956   6.053 -0.2003 -0.7132  0.4258
 6525SOL    HW231212   0.922   1.868   6.050  3.7867  2.0665  0.5936
 6526SOL     OW31213   2.231   0.535   6.847  0.0356  0.7234  0.1582
 6526SOL    HW131214   2.200   0.595   6.779 -2.8327 -2.4216 -1.3081
 6526SOL    HW231215   2.158   0.474   6.853  1.4279 -0.9166  0.6461
 6527SOL     OW31216   1.996   3.086   8.617  0.2032  0.0855  0.3805
 6527SOL    HW131217   1.927   3.085   8.550  0.6251 -1.2858 -0.0357
 6527SOL    HW231218   1.955   3.125   8.694  0.1950  1.4471 -0.3094
 6528SOL     OW31219   3.063   0.497   8.549 -0.9287  0.2875  0.3984
 6528SOL    HW131220   3.042   0.520   8.639 -0.5325  0.5426  0.4242
 6528SOL    HW231221   2.995   0.548   8.506 -0.7250 -0.3697 -0.7110
 6529SOL     OW31222   3.847   0.070  15.929 -0.0954  0.6385  0.0327
 6529SOL    HW131223   3.827   0.007  15.860 -1.0900  0.5748  0.3860
 6529SOL    HW231224   3.924   0.031  15.971 -0.5278 -1.8939 -1.5394
 6530SOL     OW31225   0.347   2.819  17.416  0.7845 -0.7647  0.7703
 6530SOL    HW131226   0.425   2.776  17.378  0.6705 -0.6743  0.4314
 6530SOL    HW231227   0.395   2.884  17.467  0.5234  0.1271 -0.1234
 6531SOL     OW31228   2.047   0.752  16.787 -0.3229 -0.2148 -0.7321
 6531SOL    HW131229   2.139   0.739  16.766 -0.2035 -0.5344 -0.0156
 6531SOL    HW231230   2.030   0.845  16.771 -1.2080 -0.6063 -2.0184
 6532SOL     OW31231   0.351   3.318   7.314 -0.1350  0.1335 -0.4308
 6532SOL    HW131232   0.363   3.412   7.330  0.7670  0.2507 -1.8343
 6532SOL    HW231233   0.262   3.311   7.348  0.4495 -1.5480  0.7134
 6533SOL     OW31234   2.667   1.664  12.554  0.1253 -0.3351  0.0080
 6533SOL    HW131235   2.600   1.595  12.546  0.2876 -0.5740  0.6949
 6533SOL    HW231236   2.627   1.718  12.486  2.3713 -0.3557 -1.3159
 6534SOL     OW31237   0.871   4.087   2.792  1.1303 -0.0425  0.0899
 6534SOL    HW131238   0.802   4.069   2.856  0.4825  3.3607  0.3485
 6534SOL    HW231239   0.826   4.119   2.714  1.4091  1.9675  0.7646
 6535SOL     OW31240   1.687   4.381  14.490  0.0542 -0.0049  0.8845
 6535SOL    HW131241   1.693   4.459  14.545  0.8838  0.2213  0.4662
 6535SOL    HW231242   1.592   4.371  14.486  0.1081 -0.2520  0.2831
 6536SOL     OW31243   0.615   0.152   2.370  0.0944 -0.3443  0.4894
 6536SOL    HW131244   0.554   0.168   2.443  0.7887  1.8036  0.5921
 6536SOL    HW231245   0.566   0.091   2.315  0.4813  0.0849 -0.3293
 6537SOL     OW31246   0.442   3.624   4.666  0.2879 -0.1181 -0.3573
 6537SOL    HW131247   0.350   3.627   4.640  0.2263 -0.3612 -0.1734
 6537SOL    HW231248   0.477   3.689   4.606  1.5747  0.0152  0.5448
 6538SOL     OW31249   3.401   0.395   2.560 -0.7473 -0.3996  0.1521
 6538SOL    HW131250   3.415   0.474   2.611 -0.1829 -0.4874  0.1336
 6538SOL    HW231251   3.384   0.434   2.475 -0.9535 -1.1553 -0.1571
 6539SOL     OW31252   0.013   2.219   7.432  0.0011  0.0956  0.5719
 6539SOL    HW131253   4.701   2.212   7.514  0.6530  0.1788  0.9619
 6539SOL    HW231254   0.082   2.278   7.464  2.7595 -1.1591 -3.0045
 6540SOL     OW31255   1.567   3.243  12.641 -0.0231 -0.1372 -0.2127
 6540SOL    HW131256   1.562   3.161  12.689 -0.3793 -0.1640 -0.2962
 6540SOL    HW231257   1.561   3.213  12.550 -0.0418  2.1133 -0.9531
 6541SOL     OW31258   4.298   2.370  12.311 -0.0931 -0.0267 -0.2924
 6541SOL    HW131259   4.377   2.417  12.282 -0.3687  1.2285  0.9547
 6541SOL    HW231260   4.297   2.410  12.398  1.7985 -0.1790 -0.1965
 6542SOL     OW31261   0.101   1.389  12.942 -0.2060 -0.2252 -0.0575
 6542SOL    HW131262   0.085   1.464  12.999 -1.8157  1.4352 -2.6923
 6542SOL    HW231263   0.018   1.389  12.894 -0.1061  1.6667 -0.2063
 6543SOL     OW31264   3.781   2.886   0.272  0.6391 -0.3942  0.2430
 6543SOL    HW131265   3.797   2.903   0.365  1.3310  1.2478 -0.1766
 6543SOL    HW231266   3.855   2.928   0.227 -0.1708  0.4362 -0.3079
 6544SOL     OW31267   3.757   3.600   1.565  0.6560 -0.2569 -0.0313
 6544SOL    HW131268   3.838   3.562   1.532  0.9758 -0.0355  0.4920
 6544SOL    HW231269   3.746   3.678   1.511 -3.2194 -0.9868 -0.3554
 6545SOL     OW31270   1.570   3.822   6.740  0.5075 -0.4045 -0.2403
 6545SOL    HW131271   1.573   3.752   6.805  1.7679 -1.1581 -1.1175
 6545SOL    HW231272   1.476   3.840   6.736  0.5943  0.5765  1.7594
 6546SOL     OW31273   1.535   1.503  11.438  0.2138 -0.9653  1.0186
 6546SOL    HW131274   1.597   1.508  11.511 -1.3645 -1.5943  2.3889
 6546SOL    HW231275   1.548   1.410  11.420 -1.2060 -1.0679  0.5510
 6547SOL     OW31276   3.937   1.133   4.014 -0.2244  0.4825 -0.7503
 6547SOL    HW131277   3.849   1.154   4.044  0.2486  0.9381  0.3175
 6547SOL    HW231278   3.928   1.059   3.954 -0.6009 -0.3178  0.2721
 6548SOL     OW31279   0.597   3.807  15.167 -0.1222  0.5533  0.4266
 6548SOL    HW131280   0.690   3.803  15.190 -0.0118 -1.3162 -0.3755
 6548SOL    HW231281   0.601   3.818  15.072  0.2015 -1.1947  0.2488
 6549SOL     OW31282   1.779   4.592  14.303  0.5097  0.6458 -0.0836
 6549SOL    HW131283   1.817   4.651  14.368 -1.0294  1.5959 -0.0398
 6549SOL    HW231284   1.747   4.532  14.371  1.3929  1.7479  1.2928
 6550SOL     OW31285   2.591   2.073  16.453 -0.0417 -1.0751  0.3848
 6550SOL    HW131286   2.668   2.065  16.510  0.6742  1.5496 -0.2525
 6550SOL    HW231287   2.522   2.036  16.508 -1.8037  0.3405 -0.9034
 6551SOL     OW31288   3.950   2.752   2.059 -0.2300  0.6665 -0.1630
 6551SOL    HW131289   3.891   2.695   2.109 -0.2803  0.6449 -0.2476
 6551SOL    HW231290   4.030   2.702   2.074  0.1051  1.8848  2.0760
 6552SOL     OW31291   4.442   3.477   5.291 -0.2218 -0.1741 -0.3315
 6552SOL    HW131292   4.387   3.547   5.328 -1.1629 -1.5244  0.8236
 6552SOL    HW231293   4.408   3.465   5.203  0.4489 -1.1860 -0.4558
 6553SOL     OW31294   1.684   1.247  15.081 -0.3180 -0.1943 -0.6911
 6553SOL    HW131295   1.726   1.188  15.020 -0.6660  0.1025 -1.2173
 6553SOL    HW231296   1.597   1.207  15.081  0.6611 -2.3249 -1.1234
 6554SOL     OW31297   2.648   2.912   2.366 -0.0699 -0.1895  0.2186
 6554SOL    HW131298   2.631   2.984   2.426  2.8596 -0.8076  1.8258
 6554SOL    HW231299   2.613   2.845   2.425 -1.5010 -0.3654 -0.8340
 6555SOL     OW31300   1.370   3.304   4.414 -0.5740  0.4718 -0.2073
 6555SOL    HW131301   1.463   3.291   4.432 -0.4485 -0.0955 -1.2576
 6555SOL    HW231302   1.347   3.226   4.364  0.9676  1.9174 -3.2177
 6556SOL     OW31303   4.074   1.164  13.269  0.3282 -0.2872 -0.3528
 6556SOL    HW131304   4.148   1.212  13.307  0.1592  0.2966 -0.7604
 6556SOL    HW231305   4.034   1.115  13.341  2.7533 -0.5776  0.8095
 6557SOL     OW31306   0.642   0.178   3.343 -0.1575  0.5746 -0.1843
 6557SOL    HW131307   0.554   0.146   3.365 -1.0402  1.5321 -2.3553
 6557SOL    HW231308   0.670   0.111   3.280  1.3230  1.3816 -0.3781
 6558SOL     OW31309   1.149   1.519   6.232 -0.5603  0.2822 -0.2965
 6558SOL    HW131310   1.105   1.463   6.296 -2.1116  0.2376 -1.4203
 6558SOL    HW231311   1.217   1.561   6.285  0.4664 -1.8653  0.1082
 6559SOL     OW31312   4.699   0.737   9.161  0.9727 -0.2186 -0.2822
 6559SOL    HW131313   4.609   0.722   9.192  1.4472  0.9406  1.6881
 6559SOL    HW231314   4.684   0.819   9.114  0.2619  0.4096  1.0303
 6560SOL     OW31315   0.176   1.185  12.308  0.4539 -0.5542 -0.4527
 6560SOL    HW131316   0.154   1.101  12.349  1.2104 -1.2031 -1.3653
 6560SOL    HW231317   0.240   1.152  12.245  0.8947 -0.4538 -0.0576
 6561SOL     OW31318   2.209   3.409   2.944  0.4004 -0.1238 -0.1619
 6561SOL    HW131319   2.299   3.395   2.916  0.5851 -1.2104  0.9736
 6561SOL    HW231320   2.222   3.473   3.014  0.4320 -1.3720  0.9687
 6562SOL     OW31321   2.893   4.410   5.890 -0.4854  0.0309  0.7925
 6562SOL    HW131322   2.938   4.391   5.808  1.7673  2.7240  1.4208
 6562SOL    HW231323   2.943   4.486   5.918 -0.3510  0.8805 -1.7450
 6563SOL     OW31324   4.626   4.251   6.732  0.3505 -0.3414 -0.0774
 6563SOL    HW131325   4.676   4.318   6.778  0.1440 -0.5947  0.5178
 6563SOL    HW231326   4.566   4.306   6.682 -0.0033 -2.5063 -2.0289
 6564SOL     OW31327   3.468   3.232   2.853 -0.4122  0.0297 -0.0552
 6564SOL    HW131328   3.530   3.162   2.874  0.6784  1.0146 -0.0278
 6564SOL    HW231329   3.395   3.182   2.815  0.2756 -2.2782  1.6717
 6565SOL     OW31330   4.726   4.335   9.134 -0.0193 -0.5781 -0.7074
 6565SOL    HW131331   0.051   4.262   9.124  0.6991 -0.1342  0.3744
 6565SOL    HW231332   0.048   4.385   9.192  1.0807 -3.5428  0.7211
 6566SOL     OW31333   3.133   3.178  12.685  0.0470  0.2849 -0.0137
 6566SOL    HW131334   3.072   3.180  12.611  1.8444 -1.3761 -1.5178
 6566SOL    HW231335   3.102   3.117  12.751  2.1123  2.1230  2.6656
 6567SOL     OW31336   0.079   2.209   9.262  0.5018 -0.0100 -0.4161
 6567SOL    HW131337   0.009   2.174   9.206 -0.3944  0.3156  0.5038
 6567SOL    HW231338   0.070   2.148   9.335 -0.7383  1.6529  0.8073
 6568SOL     OW31339   3.640   0.252  10.004  0.0235  0.3512  0.0075
 6568SOL    HW131340   3.616   0.340  10.034 -2.4916 -0.4399  0.2944
 6568SOL    HW231341   3.718   0.230  10.055 -0.6836  0.4385  1.1395
 6569SOL     OW31342   4.274   2.387  14.673 -0.9539  0.0210  0.4184
 6569SOL    HW131343   4.336   2.391  14.746 -1.0634 -1.0973  0.5584
 6569SOL    HW231344   4.197   2.369  14.725 -0.5001  2.1947  1.8630
 6570SOL     OW31345   0.422   1.414  15.574  0.3729 -0.5667 -0.5319
 6570SOL    HW131346   0.347   1.443  15.626  1.3206  0.8149  0.0522
 6570SOL    HW231347   0.416   1.319  15.585  0.7889 -0.4969  0.3276
 6571SOL     OW31348   0.863   4.528   8.620 -0.3614 -0.1399 -0.4094
 6571SOL    HW131349   0.940   4.518   8.564 -0.4180  3.1741 -1.0676
 6571SOL    HW231350   0.890   4.488   8.703  1.4990  0.6450 -0.6330
 6572SOL     OW31351   3.331   4.272   4.541  0.1465  0.1921  0.6993
 6572SOL    HW131352   3.334   4.348   4.482  0.2493 -0.4464 -0.1173
 6572SOL    HW231353   3.299   4.200   4.488  0.9500 -1.2452  2.1579
 6573SOL     OW31354   0.505   0.796   2.430 -0.1619 -0.1818  0.2319
 6573SOL    HW131355   0.599   0.811   2.419 -0.6306  1.3719 -1.6004
 6573SOL    HW231356   0.479   0.808   2.339  1.8399 -1.2724 -0.4727
 6574SOL     OW31357   1.853   0.336   5.578  0.2388 -0.0305 -0.0345
 6574SOL    HW131358   1.914   0.351   5.506 -1.5733  0.4986 -1.4548
 6574SOL    HW231359   1.779   0.389   5.548  1.6717  2.1200  0.2731
 6575SOL     OW31360   1.622   2.323  15.012 -0.4509 -0.3165  0.0314
 6575SOL    HW131361   1.540   2.364  15.039  0.0065  1.3163 -1.0326
 6575SOL    HW231362   1.680   2.380  15.062  0.3587  0.0592 -1.3340
 6576SOL     OW31363   1.011   1.021  11.770  0.3612 -0.4406 -0.2930
 6576SOL    HW131364   0.931   1.074  11.767 -0.7585 -2.1872 -0.7678
 6576SOL    HW231365   1.078   1.086  11.750 -0.0340 -0.0072 -0.2227
 6577SOL     OW31366   0.895   3.375  14.685 -0.3406 -0.0407 -0.3555
 6577SOL    HW131367   0.850   3.301  14.644  1.5448 -2.6328  2.2367
 6577SOL    HW231368   0.977   3.362  14.636  0.3685  0.9010  0.5885
 6578SOL     OW31369   3.730   1.184   4.999  0.2580 -0.0076 -0.1293
 6578SOL    HW131370   3.772   1.264   4.967  0.3081  0.0407  0.0556
 6578SOL    HW231371   3.809   1.133   5.016  0.6740  1.0514  1.0862
 6579SOL     OW31372   3.768   1.660   2.665  0.6365 -0.4719 -0.8541
 6579SOL    HW131373   3.853   1.645   2.623  2.0334  1.2574  1.3777
 6579SOL    HW231374   3.714   1.594   2.620 -0.4135  0.1566 -0.5282
 6580SOL     OW31375   2.465   1.673   8.874 -0.1864 -0.3354 -0.0668
 6580SOL    HW131376   2.472   1.579   8.891 -3.7086 -0.0772  2.8033
 6580SOL    HW231377   2.507   1.694   8.957 -0.1641  0.3675 -0.2562
 6581SOL     OW31378   1.065   2.381   3.494  0.6030 -0.1415  0.3383
 6581SOL    HW131379   1.095   2.464   3.457  1.8065 -0.6422  0.1703
 6581SOL    HW231380   1.068   2.411   3.585 -2.7550  2.4800 -0.4372
 6582SOL     OW31381   2.810   3.718   2.721  0.1376 -0.2651  0.4847
 6582SOL    HW131382   2.721   3.743   2.697 -0.5657 -3.2870 -0.0193
 6582SOL    HW231383   2.845   3.781   2.658 -0.0526 -1.8028 -1.1668
 6583SOL     OW31384   2.495   3.350   8.294 -0.1947 -0.5521 -0.0091
 6583SOL    HW131385   2.548   3.379   8.220 -0.5956 -4.3082 -1.7650
 6583SOL    HW231386   2.517   3.415   8.361  1.0447 -0.4678 -0.5061
 6584SOL     OW31387   2.261   0.613   7.214  0.2092 -0.1630  0.1142
 6584SOL    HW131388   2.233   0.521   7.221  1.0199 -0.2040  2.9041
 6584SOL    HW231389   2.330   0.622   7.280  0.4328  0.4343 -0.2039
 6585SOL     OW31390   3.260   4.459  11.331 -0.2094 -0.1158  0.2890
 6585SOL    HW131391   3.333   4.454  11.268 -0.1625 -3.2110  0.5935
 6585SOL    HW231392   3.213   4.389  11.286  0.5798 -0.5403  0.1211
 6586SOL     OW31393   1.465   1.268   5.576 -0.1941  0.1692  0.0930
 6586SOL    HW131394   1.482   1.348   5.526  4.2336 -0.7657  0.0710
 6586SOL    HW231395   1.502   1.208   5.511  0.8845 -0.1254  0.9721
 6587SOL     OW31396   1.351   0.404   7.278 -0.8878  0.4342  0.0759
 6587SOL    HW131397   1.348   0.493   7.242 -0.3571  0.5659  0.3654
 6587SOL    HW231398   1.440   0.376   7.256 -1.6024  0.2081 -2.5127
 6588SOL     OW31399   1.610   0.289  10.797  0.5652  0.3126  0.0677
 6588SOL    HW131400   1.703   0.283  10.777  0.1181 -0.6367 -1.8038
 6588SOL    HW231401   1.594   0.382  10.807 -0.0714  0.4655 -2.2315
 6589SOL     OW31402   0.174   0.707   1.884 -0.2719 -0.5493  0.7942
 6589SOL    HW131403   0.255   0.692   1.835 -1.0919  0.5241 -0.8664
 6589SOL    HW231404   0.130   0.769   1.825  1.1957  0.5974  0.8900
 6590SOL     OW31405   0.318   4.125   3.399 -0.0183  0.1509  0.2704
 6590SOL    HW131406   0.413   4.129   3.409  0.1636 -1.3067 -0.8326
 6590SOL    HW231407   0.301   4.033   3.419 -2.4711  0.7825  1.0864
 6591SOL     OW31408   3.347   1.858  10.249 -1.1074 -0.0439  0.0782
 6591SOL    HW131409   3.274   1.857  10.311 -2.2959 -1.4257 -1.3507
 6591SOL    HW231410   3.304   1.913  10.182 -1.7747  2.6434  2.7114
 6592SOL     OW31411   3.609   2.846   6.770  0.4432 -0.1859 -0.1546
 6592SOL    HW131412   3.591   2.811   6.857  1.3759 -1.5099 -0.4950
 6592SOL    HW231413   3.703   2.864   6.764  0.6131 -0.9234  0.3808
 6593SOL     OW31414   4.471   0.023   7.685 -0.3101  0.0116 -0.5422
 6593SOL    HW131415   4.518   0.017   7.602 -0.4969  0.5134 -0.6852
 6593SOL    HW231416   4.385   4.728   7.659  0.2597 -1.6597 -0.4240
 6594SOL     OW31417   1.671   2.935   6.637  0.0728 -0.5351  0.0497
 6594SOL    HW131418   1.600   2.875   6.657  0.7857 -1.4315 -0.0965
 6594SOL    HW231419   1.709   2.933   6.725  0.1972 -1.7980 -0.0361
 6595SOL     OW31420   3.676   3.236   3.078 -0.3265  0.1913  0.2306
 6595SOL    HW131421   3.712   3.165   3.024  2.0356  0.7727  1.0507
 6595SOL    HW231422   3.587   3.203   3.094 -0.7505  0.4056 -1.6374
 6596SOL     OW31423   2.426   4.130   3.037  0.2208  0.1137 -0.1423
 6596SOL    HW131424   2.341   4.087   3.040  0.7692 -0.9462  0.3090
 6596SOL    HW231425   2.453   4.121   2.945 -0.5687 -1.7163 -0.2015
 6597SOL     OW31426   2.742   1.576   5.714 -0.0905 -0.1130  0.2205
 6597SOL    HW131427   2.709   1.665   5.724 -0.6856 -0.3135  0.0009
 6597SOL    HW231428   2.707   1.540   5.633  0.0467 -0.3605  0.2710
 6598SOL     OW31429   1.368   2.118   3.443 -1.0791  0.5613 -0.6172
 6598SOL    HW131430   1.273   2.126   3.450 -1.1016 -0.1190 -0.2347
 6598SOL    HW231431   1.387   2.029   3.471 -3.5413  0.5039  0.8471
 6599SOL     OW31432   1.449   2.265  15.862 -0.5260 -0.1843 -0.4513
 6599SOL    HW131433   1.494   2.205  15.921 -0.1815 -1.9108 -2.4408
 6599SOL    HW231434   1.359   2.239  15.881 -0.4178 -1.3766 -1.5286
 6600SOL     OW31435   4.176   2.607   2.152 -0.1851  0.2555  0.4860
 6600SOL    HW131436   4.146   2.593   2.242 -0.5753  0.9562  0.4601
 6600SOL    HW231437   4.255   2.662   2.152 -0.4946  0.7002 -1.8676
 6601SOL     OW31438   4.149   2.061   6.267 -0.6698 -0.0111  0.0358
 6601SOL    HW131439   4.108   2.128   6.213  1.5839  0.6547 -0.8425
 6601SOL    HW231440   4.191   2.113   6.336 -1.6869 -2.2592  2.3811
 6602SOL     OW31441   1.928   2.062   2.716  0.2652 -0.0952 -0.2000
 6602SOL    HW131442   1.976   1.981   2.731 -1.7011 -0.9805  1.3953
 6602SOL    HW231443   1.910   2.091   2.806  1.8781  0.9195 -0.2019
 6603SOL     OW31444   3.838   2.510   9.639  0.2605  0.3704 -0.7140
 6603SOL    HW131445   3.788   2.447   9.690 -0.1587  2.9637  2.0796
 6603SOL    HW231446   3.774   2.549   9.580 -2.2723 -0.8966  1.2147
 6604SOL     OW31447   0.506   1.560   6.716 -0.0174 -0.3160 -0.0258
 6604SOL    HW131448   0.539   1.604   6.637 -1.9440 -1.8147 -1.6787
 6604SOL    HW231449   0.543   1.621   6.780 -0.4461 -0.4634  0.3622
 6605SOL     OW31450   1.981   1.613   8.866 -0.0070 -0.4988  0.3406
 6605SOL    HW131451   2.001   1.694   8.818 -2.4502 -0.9410 -1.4329
 6605SOL    HW231452   1.917   1.563   8.816 -1.1547 -0.1337  1.4535
 6606SOL     OW31453   3.821   1.255  13.702 -0.1977  0.6752 -0.0030
 6606SOL    HW131454   3.906   1.297  13.719 -1.8005  2.0597  4.6785
 6606SOL    HW231455   3.792   1.254  13.793 -0.0193  0.2957  0.0497
 6607SOL     OW31456   2.624   0.290   1.395  0.7661  0.2800  0.2667
 6607SOL    HW131457   2.699   0.262   1.342 -0.2601 -1.3642 -0.3432
 6607SOL    HW231458   2.655   0.371   1.436 -0.4190  0.2731  1.1772
 6608SOL     OW31459   1.401   0.967   4.552 -0.6218  0.0800  0.4777
 6608SOL    HW131460   1.387   1.038   4.489 -0.3564  0.3674  0.7441
 6608SOL    HW231461   1.472   0.912   4.518 -0.9144  0.3266 -0.5250
 6609SOL     OW31462   2.646   1.972  13.475 -0.1706  0.0009  0.0507
 6609SOL    HW131463   2.652   2.036  13.546 -0.1424  1.0993 -0.9492
 6609SOL    HW231464   2.623   1.894  13.525  1.8688 -1.1033 -0.7254
 6610SOL     OW31465   2.464   2.336  14.187 -0.2655 -0.8329  0.0317
 6610SOL    HW131466   2.496   2.424  14.164 -0.2160  0.1471  3.8508
 6610SOL    HW231467   2.553   2.300  14.185  0.2285  0.2847  1.9356
 6611SOL     OW31468   1.432   3.906   7.831 -0.1051  0.0327 -0.2251
 6611SOL    HW131469   1.490   3.982   7.820  1.9829 -1.4030  0.9084
 6611SOL    HW231470   1.467   3.839   7.772  0.1347 -1.5953  1.8000
 6612SOL     OW31471   0.724   2.923   7.364  0.4770  0.0490 -0.0734
 6612SOL    HW131472   0.782   2.998   7.380 -0.4528  0.2108  2.6224
 6612SOL    HW231473   0.742   2.865   7.438  2.1034  1.4814  0.6703
 6613SOL     OW31474   3.606   4.385   5.041  0.3357  0.2402  0.1222
 6613SOL    HW131475   3.600   4.342   4.956  1.6091  0.7106 -0.2082
 6613SOL    HW231476   3.546   4.456   5.019  0.8467  0.6530  0.0639
 6614SOL     OW31477   2.175   2.719   3.056  0.1403  0.6214 -0.0251
 6614SOL    HW131478   2.097   2.765   3.086  0.1604  0.4249  0.3234
 6614SOL    HW231479   2.145   2.683   2.972  1.1524  0.8781 -0.5009
 6615SOL     OW31480   0.195   1.016   6.546  0.6133  0.5161 -0.5119
 6615SOL    HW131481   0.108   1.057   6.541  0.1669 -0.3823  0.1014
 6615SOL    HW231482   0.182   0.978   6.633  0.6937  4.2826  1.1577
 6616SOL     OW31483   4.591   3.486   4.725 -0.2522  0.1169 -0.9135
 6616SOL    HW131484   4.636   3.404   4.706 -0.0432  0.2425 -0.9609
 6616SOL    HW231485   4.632   3.506   4.810 -0.5482  1.1502 -1.0156
 6617SOL     OW31486   3.776   2.350   4.807 -0.4299 -0.2302  0.3058
 6617SOL    HW131487   3.758   2.270   4.758  0.9333  0.1827 -0.8781
 6617SOL    HW231488   3.802   2.323   4.895  1.1853  0.5449  0.0703
 6618SOL     OW31489   1.120   2.425   2.103 -0.6266  0.2530  0.1862
 6618SOL    HW131490   1.035   2.429   2.059  0.2635  2.7050 -1.2789
 6618SOL    HW231491   1.091   2.441   2.193  0.4351 -0.8313  0.7320
 6619SOL     OW31492   4.511   4.233   5.484 -0.1979 -0.3489 -0.3700
 6619SOL    HW131493   4.444   4.187   5.534  0.3359 -1.8325 -1.0304
 6619SOL    HW231494   4.522   4.178   5.406  0.8952 -0.3054 -0.2435
 6620SOL     OW31495   1.790   1.256   2.656 -0.1366 -0.9943 -0.6908
 6620SOL    HW131496   1.873   1.285   2.694 -1.4055  2.2019 -0.3571
 6620SOL    HW231497   1.783   1.323   2.587 -0.8152  0.3197  0.6425
 6621SOL     OW31498   3.414   1.286   8.833 -0.6399 -0.6965 -0.7196
 6621SOL    HW131499   3.498   1.279   8.787  0.3505  1.3404  0.8036
 6621SOL    HW231500   3.406   1.381   8.839  0.0244 -0.6250 -0.9718
 6622SOL     OW31501   2.919   0.912  15.287  0.9061  0.4556 -0.8019
 6622SOL    HW131502   2.873   0.869  15.215 -0.2740 -1.5975  1.2029
 6622SOL    HW231503   2.916   1.003  15.258  0.4387 -0.0616 -2.3883
 6623SOL     OW31504   0.992   2.579   7.555  0.1451  0.3271  0.7473
 6623SOL    HW131505   0.896   2.578   7.552  0.1194  1.3884  1.0206
 6623SOL    HW231506   1.017   2.671   7.544  1.3140 -0.0573  0.2371
 6624SOL     OW31507   2.837   1.203   8.778  0.2662 -0.0411 -0.0647
 6624SOL    HW131508   2.924   1.234   8.756  0.5387  0.1391  1.2437
 6624SOL    HW231509   2.781   1.235   8.707  0.1611 -2.6854 -1.2122
 6625SOL     OW31510   0.154   4.362   4.621 -0.2940  0.2598 -0.4951
 6625SOL    HW131511   0.140   4.367   4.716  0.1815  1.4615 -0.5008
 6625SOL    HW231512   0.248   4.345   4.627 -0.3970  0.6320  2.2403
 6626SOL     OW31513   4.102   3.421  15.038 -0.3346 -0.2122 -0.3712
 6626SOL    HW131514   4.117   3.405  14.945 -3.2861 -2.5523 -0.4386
 6626SOL    HW231515   4.036   3.491  15.039 -1.6703 -1.4555 -3.1984
 6627SOL     OW31516   3.253   2.889   5.524  0.1215  0.3692  0.2547
 6627SOL    HW131517   3.308   2.909   5.599 -1.1398  0.3952  1.1622
 6627SOL    HW231518   3.163   2.911   5.548 -0.6180 -0.7253 -1.4896
 6628SOL     OW31519   4.517   1.980   1.619 -0.7940 -0.1086 -0.6324
 6628SOL    HW131520   4.502   2.032   1.698 -0.3492 -2.1280  0.7640
 6628SOL    HW231521   4.606   2.002   1.594 -0.3291  0.2574  1.3778
 6629SOL     OW31522   3.063   1.798   3.593 -0.3980 -0.4490  0.1460
 6629SOL    HW131523   2.969   1.789   3.576 -0.0565 -0.4381 -1.6948
 6629SOL    HW231524   3.063   1.891   3.570 -2.1476 -0.3624  0.5020
 6630SOL     OW31525   3.123   1.917   5.559 -0.1331 -0.1524  0.0379
 6630SOL    HW131526   3.081   1.995   5.596 -1.7978 -0.2458 -1.6648
 6630SOL    HW231527   3.205   1.918   5.607 -0.5886 -1.1035  0.8271
 6631SOL     OW31528   4.483   0.567   0.346  0.1311 -0.5302 -0.1754
 6631SOL    HW131529   4.407   0.580   0.403  0.0295  3.2250 -1.2202
 6631SOL    HW231530   4.561   0.573   0.402 -0.8356  1.2439  0.9418
 6632SOL     OW31531   0.436   1.155  17.480  0.3227  0.3048 -0.0009
 6632SOL    HW131532   0.461   1.121  17.566  0.6416 -2.8475 -1.3558
 6632SOL    HW231533   0.382   1.229  17.508 -0.5923 -1.3171  2.4917
 6633SOL     OW31534   0.250   4.589  15.021 -0.4024 -0.4817  0.0353
 6633SOL    HW131535   0.264   4.645  14.944  0.1265  2.2517  2.1064
 6633SOL    HW231536   0.280   4.650  15.089  1.6884  0.1272 -1.4323
 6634SOL     OW31537   0.693   3.406   2.901  0.5310 -0.7283 -0.0205
 6634SOL    HW131538   0.744   3.420   2.821  2.0475  0.0462  1.1002
 6634SOL    HW231539   0.684   3.499   2.922 -0.7185 -0.3454 -2.2373
 6635SOL     OW31540   1.346   2.256   0.421  0.1533 -0.1035 -0.4339
 6635SOL    HW131541   1.358   2.313   0.345 -3.8128  0.1370 -0.8755
 6635SOL    HW231542   1.277   2.300   0.470 -0.2198 -1.2275  0.0473
 6636SOL     OW31543   1.082   3.426   6.055  0.3175 -0.1187  0.0517
 6636SOL    HW131544   1.139   3.394   6.125  0.5787  0.5792  0.1610
 6636SOL    HW231545   1.128   3.406   5.973  1.4565 -2.2530  1.2114
 6637SOL     OW31546   2.026   0.407  13.196 -0.3822  0.1031 -0.0385
 6637SOL    HW131547   1.989   0.319  13.197  0.9492 -0.4520  1.2208
 6637SOL    HW231548   2.032   0.427  13.290 -0.9864  0.5219 -0.0870
 6638SOL     OW31549   0.252   2.585   3.194 -0.0637 -0.2171  0.1774
 6638SOL    HW131550   0.219   2.542   3.116  1.7851 -0.3369 -0.5524
 6638SOL    HW231551   0.334   2.536   3.207 -0.2351  0.0115  2.1975
 6639SOL     OW31552   0.912   0.844   4.132 -0.0348  0.4431  0.2645
 6639SOL    HW131553   0.905   0.878   4.221 -0.2976 -0.9679  0.7905
 6639SOL    HW231554   1.006   0.846   4.116  0.6770  0.9872  4.4130
 6640SOL     OW31555   3.066   4.519  14.673 -0.0116  0.2611 -0.1588
 6640SOL    HW131556   3.010   4.587  14.636 -1.6155  0.0951  1.9808
 6640SOL    HW231557   3.005   4.446  14.678  1.9100 -1.2143  2.0479
 6641SOL     OW31558   2.297   3.407  12.934  0.2242 -0.1391  0.3425
 6641SOL    HW131559   2.210   3.429  12.900  0.7250 -0.4642 -1.1322
 6641SOL    HW231560   2.359   3.462  12.885  0.8351 -1.3570 -0.2442
 6642SOL     OW31561   0.895   3.874   3.771 -0.7576 -0.3335 -0.5481
 6642SOL    HW131562   0.969   3.870   3.832  0.1796  0.6419 -1.5978
 6642SOL    HW231563   0.935   3.849   3.687 -1.7505 -0.8377 -0.8713
 6643SOL     OW31564   0.726   2.301  14.343  0.3016  0.2938 -0.4103
 6643SOL    HW131565   0.633   2.312  14.323  0.4849 -0.4587 -1.6917
 6643SOL    HW231566   0.761   2.280  14.257 -3.6139  1.7263 -2.3522
 6644SOL     OW31567   1.272   3.495  14.102  0.1378 -0.1076 -0.1364
 6644SOL    HW131568   1.307   3.565  14.047 -0.5332  1.2526  1.1655
 6644SOL    HW231569   1.303   3.417  14.056  2.4692  2.1880 -2.4380
 6645SOL     OW31570   1.352   3.101  15.950 -0.3102  1.0775 -0.0144
 6645SOL    HW131571   1.371   3.158  15.875 -1.4579  2.0682  0.4508
 6645SOL    HW231572   1.337   3.015  15.909 -0.8449 -0.1520  2.7756
 6646SOL     OW31573   0.647   3.716   4.326 -0.7751 -0.7546  0.4322
 6646SOL    HW131574   0.552   3.706   4.336 -0.7096 -0.2254  1.6511
 6646SOL    HW231575   0.662   3.802   4.288 -0.6318 -0.5948  0.8534
 6647SOL     OW31576   2.533   1.776  12.960  0.0857  0.5258  0.9056
 6647SOL    HW131577   2.578   1.718  12.898 -2.8249  0.5204 -1.2075
 6647SOL    HW231578   2.492   1.842  12.904  1.1790  1.0611  0.7333
 6648SOL     OW31579   1.926   2.643   7.988  0.0345 -0.1939 -0.1137
 6648SOL    HW131580   1.895   2.654   7.898  1.6145 -2.6257 -0.9475
 6648SOL    HW231581   1.889   2.719   8.034  2.2168  0.0748  1.2409
 6649SOL     OW31582   1.368   2.990  17.257  0.3298  0.5529 -0.1752
 6649SOL    HW131583   1.275   2.967  17.259  1.1375 -2.4751  1.4873
 6649SOL    HW231584   1.407   2.921  17.203  0.2237  0.4322 -0.0954
 6650SOL     OW31585   1.527   4.164  10.965 -0.0730  0.4439 -0.5261
 6650SOL    HW131586   1.432   4.164  10.979 -0.1521 -1.2067 -1.1302
 6650SOL    HW231587   1.554   4.245  11.009  0.0857 -0.9482  1.9295
 6651SOL     OW31588   2.166   1.270   7.108 -0.1282 -0.0165 -0.1739
 6651SOL    HW131589   2.131   1.190   7.071 -1.8907  2.5509 -4.0666
 6651SOL    HW231590   2.195   1.242   7.195 -1.2278 -0.7308 -0.0400
 6652SOL     OW31591   0.994   4.416   3.522 -0.3020  0.4946  0.1273
 6652SOL    HW131592   0.978   4.437   3.614 -2.6171 -0.2370 -0.0910
 6652SOL    HW231593   1.079   4.372   3.532 -0.5655 -0.1170 -0.2996
 6653SOL     OW31594   1.728   2.696   4.944  0.9731  0.3059 -0.1649
 6653SOL    HW131595   1.746   2.756   5.016 -0.5224  1.4317 -0.7428
 6653SOL    HW231596   1.800   2.716   4.885 -0.3510 -0.7462 -2.1350
 6654SOL     OW31597   0.527   1.192   8.319  0.8053 -0.2683  0.4748
 6654SOL    HW131598   0.557   1.229   8.236 -0.5642 -0.6624 -0.1753
 6654SOL    HW231599   0.435   1.179   8.300 -0.2620  1.6648  4.2532
 6655SOL     OW31600   2.183   0.651  13.462  0.6438  0.6607  0.8034
 6655SOL    HW131601   2.181   0.693  13.376  1.1692 -1.4545 -0.2275
 6655SOL    HW231602   2.231   0.721  13.506  2.0300  0.0091  0.3181
 6656SOL     OW31603   4.681   1.338   4.391  0.3018  0.1157  0.1275
 6656SOL    HW131604   4.653   1.247   4.380  0.3391  0.3246 -1.7446
 6656SOL    HW231605   4.694   1.359   4.298 -1.3817 -2.1033 -0.6153
 6657SOL     OW31606   2.520   0.184   2.052  0.2057  0.5476 -0.5192
 6657SOL    HW131607   2.546   0.265   2.095 -1.3519  0.0576  1.3318
 6657SOL    HW231608   2.553   0.200   1.964 -1.8029  0.7814 -1.2320
 6658SOL     OW31609   1.030   1.525   0.387 -0.1654  0.2364  0.6010
 6658SOL    HW131610   1.090   1.572   0.329  1.3539 -2.5010 -0.0208
 6658SOL    HW231611   1.082   1.543   0.465 -0.7874 -1.0507  1.3001
 6659SOL     OW31612   2.316   4.321   5.766 -0.9147  0.0223  0.3293
 6659SOL    HW131613   2.297   4.415   5.756  0.3024  0.1181 -1.2348
 6659SOL    HW231614   2.411   4.318   5.757 -0.8344  0.5671  1.0147
 6660SOL     OW31615   1.803   1.498   8.410  0.2301  0.2137  0.1207
 6660SOL    HW131616   1.827   1.478   8.500  0.4836 -0.8248 -0.1718
 6660SOL    HW231617   1.740   1.568   8.426  1.6226  1.2523  1.0321
 6661SOL     OW31618   2.749   2.731   2.074  0.1436 -0.1590 -0.6279
 6661SOL    HW131619   2.759   2.826   2.064  1.4428 -0.2471 -0.2315
 6661SOL    HW231620   2.720   2.698   1.989  0.5582 -0.0207 -0.8236
 6662SOL     OW31621   1.732   1.073  14.869  0.3941  0.1915  0.6218
 6662SOL    HW131622   1.821   1.037  14.873  1.0255  1.7030  0.1464
 6662SOL    HW231623   1.711   1.033  14.785  1.1474 -0.8852  0.9312
 6663SOL     OW31624   0.608   4.321   6.030 -0.2294 -0.6685 -0.1399
 6663SOL    HW131625   0.516   4.340   6.050  1.0157  4.3339  1.0031
 6663SOL    HW231626   0.595   4.273   5.949 -0.8435 -0.0528 -0.4058
 6664SOL     OW31627   2.663   1.742   7.952  0.1592  0.5244  0.4572
 6664SOL    HW131628   2.568   1.752   7.956  0.1349  0.8842 -1.0696
 6664SOL    HW231629   2.683   1.684   8.025 -1.3548 -1.9516 -1.0863
 6665SOL     OW31630   3.652   0.716   4.325 -0.0914  0.8277 -0.0726
 6665SOL    HW131631   3.688   0.740   4.239 -1.0521 -0.0390 -0.7167
 6665SOL    HW231632   3.568   0.758   4.306 -0.2222  0.8711  0.6084
 6666SOL     OW31633   3.518   0.250   6.729  0.1355 -0.5114  0.1250
 6666SOL    HW131634   3.433   0.233   6.768 -0.1093  1.8966  0.6525
 6666SOL    HW231635   3.583   0.226   6.795 -0.1988 -0.1249  0.5910
 6667SOL     OW31636   4.355   0.784  10.946  0.4784  0.3747 -0.6318
 6667SOL    HW131637   4.402   0.814  10.868 -0.4108 -1.6514 -1.9150
 6667SOL    HW231638   4.286   0.728  10.913  1.7046 -1.0081 -0.8622
 6668SOL     OW31639   3.196   1.974  16.176  0.0538  0.0971  0.0249
 6668SOL    HW131640   3.201   1.923  16.257  2.5822  1.0487  0.4750
 6668SOL    HW231641   3.215   1.911  16.106 -0.5136 -0.8433  0.7093
 6669SOL     OW31642   2.553   0.020   6.832  0.2689 -0.4074  0.1485
 6669SOL    HW131643   2.522   4.672   6.799  0.2961 -0.2900 -0.1751
 6669SOL    HW231644   2.552   0.073   6.752 -1.5486 -0.6021  0.0458
 6670SOL     OW31645   2.408   3.904   1.921  0.0033 -0.0361 -0.0673
 6670SOL    HW131646   2.324   3.858   1.921 -0.0999  0.1566 -0.9486
 6670SOL    HW231647   2.376   3.987   1.956  1.5799 -0.0347  1.3484
 6671SOL     OW31648   2.645   0.514   1.598 -0.2326  0.3599 -0.6388
 6671SOL    HW131649   2.663   0.605   1.573 -0.0162  0.0727 -1.5317
 6671SOL    HW231650   2.611   0.533   1.686 -0.8658 -0.8480 -0.6283
 6672SOL     OW31651   2.234   0.472   9.569 -0.3963 -0.0091 -0.0310
 6672SOL    HW131652   2.287   0.399   9.600 -0.6741 -0.5302 -0.7896
 6672SOL    HW231653   2.193   0.480   9.655  2.0873 -0.1235  1.1906
 6673SOL     OW31654   1.106   2.635   5.129  0.1724  0.3927  1.0959
 6673SOL    HW131655   1.035   2.650   5.067  1.0350 -1.6234 -0.3645
 6673SOL    HW231656   1.055   2.608   5.206  1.6063 -1.1742  1.5136
 6674SOL     OW31657   3.753   1.416   1.934 -0.7538  0.1169 -0.7336
 6674SOL    HW131658   3.778   1.446   1.846 -0.7349  0.8954 -0.4581
 6674SOL    HW231659   3.810   1.340   1.946 -0.6113  0.3545  0.0615
 6675SOL     OW31660   2.457   3.696  16.428 -0.2310 -0.0087  0.3973
 6675SOL    HW131661   2.413   3.707  16.513  1.2102 -2.1793  1.4369
 6675SOL    HW231662   2.394   3.729  16.365 -0.1087 -0.8162 -0.1424
 6676SOL     OW31663   2.586   4.025   6.553  0.2940  0.0386 -0.0958
 6676SOL    HW131664   2.540   4.076   6.620 -0.0195  1.2632 -1.2584
 6676SOL    HW231665   2.526   4.031   6.479  1.0338  2.0291 -0.5247
 6677SOL     OW31666   3.029   4.135   7.794 -0.3450 -0.0492 -0.2410
 6677SOL    HW131667   3.125   4.142   7.800 -0.3640  0.7021 -0.8113
 6677SOL    HW231668   3.002   4.218   7.833  2.7387  0.9123 -0.1627
 6678SOL     OW31669   3.276   2.299   2.645 -0.4036 -0.3987 -0.2136
 6678SOL    HW131670   3.343   2.230   2.647  1.4116  1.2539 -2.4117
 6678SOL    HW231671   3.208   2.254   2.695 -1.4225 -0.1933 -1.4014
 6679SOL     OW31672   1.713   0.242   4.302 -0.1971 -0.2260  0.3918
 6679SOL    HW131673   1.764   0.170   4.339 -0.4034 -0.6774 -0.1988
 6679SOL    HW231674   1.721   0.220   4.209  1.2074  0.4818  0.3527
 6680SOL     OW31675   3.835   4.107   4.136 -0.5174 -0.3102 -0.2008
 6680SOL    HW131676   3.910   4.053   4.159 -0.8283 -1.0476 -0.9534
 6680SOL    HW231677   3.849   4.179   4.198  2.5962 -1.1412  0.0879
 6681SOL     OW31678   0.638   4.216   8.129  0.1966  0.0533 -0.2493
 6681SOL    HW131679   0.621   4.310   8.134  2.0226  0.3778 -0.4350
 6681SOL    HW231680   0.714   4.222   8.072  1.0854 -1.0188  0.8411
 6682SOL     OW31681   4.202   2.340  11.071  0.4176  0.4702 -0.0504
 6682SOL    HW131682   4.234   2.383  11.151  0.2987  1.4393 -0.5231
 6682SOL    HW231683   4.120   2.389  11.065 -0.2124 -0.7344 -1.2230
 6683SOL     OW31684   4.602   0.821   5.428  0.6228 -0.0202 -0.5013
 6683SOL    HW131685   4.657   0.792   5.355  0.3932 -1.9835  0.1038
 6683SOL    HW231686   4.658   0.804   5.504 -0.1562  2.2532  0.5796
 6684SOL     OW31687   2.791   1.167   8.395  0.0241  0.6256  0.1143
 6684SOL    HW131688   2.755   1.249   8.430  0.4034  0.8931 -0.1120
 6684SOL    HW231689   2.734   1.100   8.432  2.2150 -1.1122  0.3729
 6685SOL     OW31690   3.935   4.590   6.915  0.0174 -0.2367  0.3198
 6685SOL    HW131691   3.883   4.631   6.984  0.7931  0.0256  0.7468
 6685SOL    HW231692   3.896   4.619   6.832 -1.1370 -0.6886  0.7083
 6686SOL     OW31693   1.468   3.007   4.144 -0.3114 -0.1113 -0.5091
 6686SOL    HW131694   1.553   2.972   4.116 -0.8530  0.6406 -3.1519
 6686SOL    HW231695   1.495   3.099   4.150 -0.1018 -0.0098 -2.6880
 6687SOL     OW31696   4.686   4.345  11.473 -0.1497  0.0783  0.2423
 6687SOL    HW131697   0.020   4.374  11.533 -0.7760  1.1710  0.4231
 6687SOL    HW231698   4.724   4.377  11.391  0.9229  1.9930  1.4954
 6688SOL     OW31699   0.278   4.079   4.788  0.4334 -0.3638 -0.1452
 6688SOL    HW131700   0.184   4.093   4.774  0.1027 -1.0093  1.3595
 6688SOL    HW231701   0.293   4.151   4.849  0.7087 -2.3081  2.1004
 6689SOL     OW31702   2.004   1.037   6.981  0.2786 -0.0691 -0.2026
 6689SOL    HW131703   2.021   1.012   6.890  1.0794  1.4098 -0.4593
 6689SOL    HW231704   1.943   0.969   7.011  1.9703 -1.7996 -0.6979
 6690SOL     OW31705   3.066   0.106  14.623  0.3822  0.0477  0.2032
 6690SOL    HW131706   3.026   0.188  14.593  0.1202  0.1482  0.8308
 6690SOL    HW231707   3.036   0.039  14.561 -0.2811 -0.6812  1.3076
 6691SOL     OW31708   0.119   0.598   5.427  0.4458 -0.0496  0.3987
 6691SOL    HW131709   0.185   0.528   5.433 -0.4229 -1.0586 -1.8119
 6691SOL    HW231710   0.172   0.677   5.419  1.4426 -0.8714 -1.1444
 6692SOL     OW31711   2.296   4.084   2.628  0.4646 -0.0361 -0.1555
 6692SOL    HW131712   2.230   4.050   2.689 -0.2164  0.2714 -0.7101
 6692SOL    HW231713   2.364   4.114   2.687 -1.3706 -1.2019  2.5315
 6693SOL     OW31714   3.309   4.386   1.322 -0.1631  0.3653 -0.0639
 6693SOL    HW131715   3.280   4.327   1.392 -0.4280  1.7644  0.9872
 6693SOL    HW231716   3.314   4.330   1.244 -0.6581  1.0121 -0.5563
 6694SOL     OW31717   4.347   2.441   0.456 -0.5845  0.2608  0.3516
 6694SOL    HW131718   4.266   2.427   0.507 -2.0385  2.7326 -1.2848
 6694SOL    HW231719   4.310   2.474   0.374 -0.4551 -0.9511 -0.1890
 6695SOL     OW31720   0.086   1.306   2.453  0.1080  0.0636  0.2301
 6695SOL    HW131721   0.150   1.254   2.500  0.1250  1.0129  1.2522
 6695SOL    HW231722   0.145   1.339   2.385 -0.0583  0.9186  0.5024
 6696SOL     OW31723   3.427   2.487   6.712  0.5737  0.6014 -0.4616
 6696SOL    HW131724   3.450   2.575   6.684  0.6187  0.3225 -1.3091
 6696SOL    HW231725   3.348   2.502   6.764  1.6044 -2.9229  2.1642
 6697SOL     OW31726   0.894   2.298   8.517 -0.0561  0.4985 -0.4007
 6697SOL    HW131727   0.953   2.354   8.568 -1.5414  0.4451  1.3742
 6697SOL    HW231728   0.812   2.345   8.527 -2.5914 -4.1350  0.5037
 6698SOL     OW31729   4.134   4.130   5.145 -0.1255 -0.3024  0.0699
 6698SOL    HW131730   4.167   4.208   5.188  2.3357 -2.2971  1.7743
 6698SOL    HW231731   4.207   4.091   5.097  0.0806 -0.8426  0.8207
 6699SOL     OW31732   4.335   2.854   8.961 -0.0010  0.0388  0.3324
 6699SOL    HW131733   4.393   2.865   9.036 -1.3947  0.3038  1.3576
 6699SOL    HW231734   4.258   2.902   8.991  1.2841  2.4947 -0.3150
 6700SOL     OW31735   3.076   4.621  10.537  0.1657  0.5481  0.7409
 6700SOL    HW131736   3.064   4.566  10.459  1.5813 -0.4737  1.2438
 6700SOL    HW231737   3.154   4.671  10.512 -1.4417  3.8001  2.2073
 6701SOL     OW31738   3.364   4.018   1.759 -0.2670  0.1113 -0.1638
 6701SOL    HW131739   3.289   3.967   1.728 -0.0525 -0.1705 -0.2273
 6701SOL    HW231740   3.407   3.955   1.817 -0.3019 -1.3858 -1.7619
 6702SOL     OW31741   0.702   1.414   1.961 -0.4174 -0.2969 -0.2274
 6702SOL    HW131742   0.719   1.458   1.878  1.1325 -0.9757 -0.2795
 6702SOL    HW231743   0.691   1.486   2.022  1.0032  0.1515 -0.4889
 6703SOL     OW31744   1.398   1.995   1.948 -0.4945  0.4223  0.2428
 6703SOL    HW131745   1.362   2.084   1.954 -1.2787 -0.0050  1.7911
 6703SOL    HW231746   1.491   2.008   1.927 -0.0327 -0.5242  1.7325
 6704SOL     OW31747   4.018   0.032   2.550 -0.5616 -0.1349 -0.2714
 6704SOL    HW131748   4.061   4.683   2.547  0.4954  0.4158 -0.7532
 6704SOL    HW231749   4.027   0.070   2.637 -0.9722  2.0294 -1.1513
 6705SOL     OW31750   3.574   0.544   6.993 -0.1412 -0.5719 -0.1013
 6705SOL    HW131751   3.628   0.509   6.922 -0.9934  3.5978 -2.8046
 6705SOL    HW231752   3.491   0.548   6.946  0.4946 -1.6613 -1.3208
 6706SOL     OW31753   1.683   0.732   8.561  0.2519  0.1861 -0.0753
 6706SOL    HW131754   1.610   0.712   8.502 -0.4995 -0.3316  1.0340
 6706SOL    HW231755   1.638   0.782   8.629 -0.6602  0.1097 -0.6283
 6707SOL     OW31756   1.199   3.610   8.633 -0.1154  0.2544  0.7001
 6707SOL    HW131757   1.128   3.657   8.588 -1.0649  0.1793  2.1043
 6707SOL    HW231758   1.148   3.599   8.714 -1.4804 -0.4138 -0.2641
 6708SOL     OW31759   0.478   1.978   3.654  0.9510 -0.5419 -0.1807
 6708SOL    HW131760   0.483   1.969   3.749 -1.0627  0.0645 -0.0026
 6708SOL    HW231761   0.565   2.015   3.645  1.2829 -0.8697  1.6458
 6709SOL     OW31762   1.747   3.596  12.965  0.3196  0.3813 -0.1580
 6709SOL    HW131763   1.806   3.525  12.990 -0.8970 -0.5919 -0.0406
 6709SOL    HW231764   1.681   3.533  12.936  1.2400 -1.0492  0.8426
 6710SOL     OW31765   2.370   3.031   4.057  0.9364 -0.3554 -0.1020
 6710SOL    HW131766   2.382   3.079   3.976  1.9555  0.4424  0.5291
 6710SOL    HW231767   2.457   3.018   4.094  1.2004 -0.5931 -0.8157
 6711SOL     OW31768   0.506   4.365   5.002 -0.0451 -0.1693  0.3884
 6711SOL    HW131769   0.516   4.452   4.963  2.5511 -1.0265 -0.8788
 6711SOL    HW231770   0.411   4.357   4.994 -0.0741  0.7558 -0.1374
 6712SOL     OW31771   0.129   4.514  12.602  0.7492 -0.0060 -0.3249
 6712SOL    HW131772   0.067   4.521  12.675  0.4332  1.7632 -0.7488
 6712SOL    HW231773   0.195   4.577  12.631  1.4587 -0.0125 -1.9493
 6713SOL     OW31774   3.607   2.839   1.196  0.2080  0.4269  0.3134
 6713SOL    HW131775   3.632   2.751   1.223 -0.4602  0.0007 -0.4538
 6713SOL    HW231776   3.652   2.841   1.111  0.2806  0.0949  0.3467
 6714SOL     OW31777   2.983   1.547   9.316  0.0916 -0.7486 -0.3040
 6714SOL    HW131778   2.955   1.487   9.385  2.1318  0.1378  1.3297
 6714SOL    HW231779   2.902   1.554   9.266  0.1397  1.6661 -0.0679
 6715SOL     OW31780   4.523   3.300  17.278  0.5785 -0.3528  0.9399
 6715SOL    HW131781   4.566   3.359  17.339  1.1822 -1.7768  1.8959
 6715SOL    HW231782   4.454   3.269  17.337 -0.2459 -0.6183 -0.1411
 6716SOL     OW31783   1.385   0.734  15.776 -0.3165 -0.1666  0.5064
 6716SOL    HW131784   1.327   0.781  15.715  0.3555 -1.5688 -1.2131
 6716SOL    HW231785   1.330   0.660  15.800 -0.5027 -1.3797 -3.7689
 6717SOL     OW31786   2.733   0.208   2.262 -0.4765  0.6822  0.3878
 6717SOL    HW131787   2.790   0.136   2.236  0.4182  0.7284  2.2211
 6717SOL    HW231788   2.650   0.166   2.237 -0.2755  0.5184 -0.0061
 6718SOL     OW31789   3.115   4.586   1.614 -0.7344  0.4949  0.4922
 6718SOL    HW131790   3.147   4.590   1.704 -1.8632  1.8858  0.8303
 6718SOL    HW231791   3.148   4.499   1.589 -1.1977 -0.1394  2.1292
 6719SOL     OW31792   1.426   1.087   2.364 -0.4078  0.2653 -0.0619
 6719SOL    HW131793   1.382   1.077   2.448 -0.5855  1.3332 -0.0200
 6719SOL    HW231794   1.367   1.148   2.320  0.0356 -0.3111 -1.4446
 6720SOL     OW31795   2.770   0.108   5.366 -0.4515 -0.1350  0.1661
 6720SOL    HW131796   2.788   0.014   5.363  1.0325  0.1465  0.2976
 6720SOL    HW231797   2.857   0.139   5.344 -0.1713 -2.1023 -1.5056
 6721SOL     OW31798   3.606   2.974   3.337 -0.2939  0.2223 -0.6976
 6721SOL    HW131799   3.549   3.005   3.266 -0.0077 -0.1649 -1.1012
 6721SOL    HW231800   3.599   2.879   3.333 -3.2784  0.4796 -1.2909
 6722SOL     OW31801   1.645   3.344  12.909  0.6762  0.2592  0.2261
 6722SOL    HW131802   1.599   3.324  12.828 -0.4154  0.8319  0.7094
 6722SOL    HW231803   1.589   3.309  12.978 -2.0226  1.7415 -1.2492
 6723SOL     OW31804   2.877   1.136   1.173 -0.3138  0.3235  0.0701
 6723SOL    HW131805   2.848   1.220   1.136  0.5401  0.4746 -0.2524
 6723SOL    HW231806   2.851   1.148   1.265  0.3886 -2.6985  0.6475
 6724SOL     OW31807   2.734   0.068   7.552 -0.0490  0.3266 -0.5557
 6724SOL    HW131808   2.700   0.094   7.466  0.5761  1.2190 -0.5353
 6724SOL    HW231809   2.733   4.708   7.547 -1.0141  0.1293  3.3856
 6725SOL     OW31810   0.562   2.489   5.322  0.4660 -0.3579  0.2382
 6725SOL    HW131811   0.482   2.440   5.304 -0.5506  1.2971  0.3088
 6725SOL    HW231812   0.629   2.421   5.316  1.9748  1.3437 -2.2781
 6726SOL     OW31813   3.455   0.084   9.383 -0.7560  0.1208 -0.0836
 6726SOL    HW131814   3.521   0.149   9.361  0.6369 -1.4703 -0.6655
 6726SOL    HW231815   3.463   0.088   9.479  0.4717 -0.6101 -0.1426
 6727SOL     OW31816   1.965   4.368   6.031 -0.0651  0.0162  0.0191
 6727SOL    HW131817   1.935   4.308   6.100 -0.2280  2.0673  1.7240
 6727SOL    HW231818   2.056   4.338   6.025 -0.6090 -1.5192 -0.6994
 6728SOL     OW31819   1.050   1.183   5.818 -0.2248  0.3236 -0.0833
 6728SOL    HW131820   1.085   1.236   5.747  0.5330 -0.2482 -0.1292
 6728SOL    HW231821   1.042   1.249   5.887  1.7864  0.8476 -0.3775
 6729SOL     OW31822   2.781   0.600   5.661  0.3403 -0.4843 -0.3927
 6729SOL    HW131823   2.779   0.588   5.567 -1.2557  1.0293 -0.5537
 6729SOL    HW231824   2.689   0.628   5.666  0.5458 -0.0062  0.8438
 6730SOL     OW31825   3.661   4.151   8.186 -0.3344  0.1598  0.1579
 6730SOL    HW131826   3.603   4.214   8.142 -1.0904  0.7254  1.9418
 6730SOL    HW231827   3.589   4.102   8.225 -0.1022  1.1056  1.7812
 6731SOL     OW31828   0.438   1.213   2.902 -0.0355  0.1024 -0.5049
 6731SOL    HW131829   0.357   1.263   2.892  0.2880  0.6020 -0.6556
 6731SOL    HW231830   0.402   1.125   2.901 -0.7980  0.3994  2.0866
 6732SOL     OW31831   4.386   3.809   7.637  0.0069  0.4547  0.6855
 6732SOL    HW131832   4.417   3.772   7.720  1.6462  0.6283  0.1437
 6732SOL    HW231833   4.466   3.833   7.590  0.0682  0.2343  0.6765
 6733SOL     OW31834   3.332   0.906  13.412  0.1059 -0.0044 -0.0527
 6733SOL    HW131835   3.341   0.823  13.460 -0.4117  0.9685  1.7316
 6733SOL    HW231836   3.262   0.877  13.353 -0.2306 -1.7084  1.1761
 6734SOL     OW31837   3.448   2.955   5.719 -0.1496  0.2404  0.0620
 6734SOL    HW131838   3.542   2.942   5.728  0.2106  1.8424 -1.4377
 6734SOL    HW231839   3.421   2.931   5.808 -3.0333  0.0927 -0.8573
 6735SOL     OW31840   1.955   2.040   4.492 -0.0277 -0.4293  0.7476
 6735SOL    HW131841   1.863   2.060   4.503 -0.9297 -3.5585 -1.0871
 6735SOL    HW231842   1.985   1.988   4.566 -0.8499 -0.4901  1.0274
 6736SOL     OW31843   0.095   1.598   2.228  0.0425  0.2290  0.7593
 6736SOL    HW131844   0.127   1.670   2.174 -3.3106 -0.8654 -2.6860
 6736SOL    HW231845   0.179   1.553   2.242 -0.6321 -1.5472 -0.8009
 6737SOL     OW31846   0.904   2.363  12.079 -0.7106  0.2932  0.5462
 6737SOL    HW131847   0.887   2.344  11.986  2.3005  0.1089  0.0398
 6737SOL    HW231848   0.975   2.303  12.098  0.5019  1.8248  0.8367
 6738SOL     OW31849   1.542   2.124  15.223  0.4435  0.0881  0.4349
 6738SOL    HW131850   1.494   2.201  15.255  2.7730  1.7192  0.0017
 6738SOL    HW231851   1.632   2.156  15.224  0.0849  1.0621  1.0478
 6739SOL     OW31852   4.488   3.905   3.814 -0.4070 -0.2097  0.6334
 6739SOL    HW131853   4.445   3.820   3.823 -0.3891 -0.3963 -0.9789
 6739SOL    HW231854   4.408   3.957   3.826 -0.9771 -1.5304  2.4662
 6740SOL     OW31855   0.364   1.426  14.786  0.0147 -0.0616  0.1409
 6740SOL    HW131856   0.365   1.510  14.739  2.4112  0.1141  0.4707
 6740SOL    HW231857   0.325   1.373  14.717 -2.5157 -0.2697  1.7456
 6741SOL     OW31858   1.706   0.654  14.623 -0.0800  0.2196  0.2326
 6741SOL    HW131859   1.786   0.706  14.610 -0.0552  0.5399  1.7053
 6741SOL    HW231860   1.750   0.592  14.680 -4.0792 -1.8195  1.0965
 6742SOL     OW31861   2.326   1.481   5.578 -0.6016  0.3375 -0.1643
 6742SOL    HW131862   2.325   1.553   5.641 -2.8068  0.0649  0.1078
 6742SOL    HW231863   2.314   1.418   5.648  1.7954  0.4570  0.3537
 6743SOL     OW31864   0.853   0.039   2.422 -0.3690 -0.0729 -0.2951
 6743SOL    HW131865   0.783   0.049   2.358 -2.4861 -2.1553  1.6494
 6743SOL    HW231866   0.917   0.096   2.380  1.4908 -0.3871  2.0937
 6744SOL     OW31867   2.509   1.433  12.456 -0.3188  0.3439  0.4345
 6744SOL    HW131868   2.417   1.449  12.432 -0.3778  1.3897  1.3997
 6744SOL    HW231869   2.522   1.341  12.433 -0.3817  0.4890 -0.1817
 6745SOL     OW31870   3.230   4.573   4.481 -0.0051  0.1733 -0.0624
 6745SOL    HW131871   3.179   4.586   4.401 -0.0956  0.1986  0.0004
 6745SOL    HW231872   3.167   4.537   4.542  0.6087 -0.5219  0.1677
 6746SOL     OW31873   3.185   2.999   6.581 -0.0110 -0.0779 -0.3624
 6746SOL    HW131874   3.101   2.967   6.613 -0.9315  2.4662 -0.2133
 6746SOL    HW231875   3.229   3.011   6.666  1.6437  2.7478 -1.5913
 6747SOL     OW31876   0.605   3.611   4.895 -0.1335  0.2564 -0.7001
 6747SOL    HW131877   0.557   3.596   4.814 -0.3921 -1.6646 -0.1951
 6747SOL    HW231878   0.561   3.694   4.912 -1.9053 -0.4410 -1.8660
 6748SOL     OW31879   4.093   1.769   4.633 -0.3962  0.2232  0.0735
 6748SOL    HW131880   4.077   1.710   4.559 -0.4568 -1.6985  1.6144
 6748SOL    HW231881   4.179   1.738   4.661 -0.0624 -0.8506 -2.1611
 6749SOL     OW31882   2.760   1.978   5.440  0.0474  0.7854 -0.4404
 6749SOL    HW131883   2.788   2.023   5.361 -0.3330  0.8634 -0.5308
 6749SOL    HW231884   2.836   1.994   5.496  0.1274 -0.1444 -0.2700
 6750SOL     OW31885   0.354   2.221   4.775  0.3405  0.0238 -0.3033
 6750SOL    HW131886   0.407   2.141   4.784  0.6628  0.1093 -1.5371
 6750SOL    HW231887   0.271   2.195   4.736 -0.0059 -0.3701  0.6934
 6751SOL     OW31888   0.018   2.934  14.356 -0.0753  0.3051 -0.1972
 6751SOL    HW131889   4.707   2.939  14.440  1.0060  1.4830  0.3367
 6751SOL    HW231890   4.727   3.018  14.319 -1.4548 -0.8757 -1.8722
 6752SOL     OW31891   3.403   3.754   5.686  0.1623 -0.6942 -0.6880
 6752SOL    HW131892   3.428   3.806   5.610 -2.4169  3.6251  1.4081
 6752SOL    HW231893   3.489   3.724   5.715  0.4195  1.6338  0.9548
 6753SOL     OW31894   4.009   4.519  11.811 -0.7875 -0.5387  0.2471
 6753SOL    HW131895   4.058   4.592  11.773  3.1449 -2.7864  1.0061
 6753SOL    HW231896   3.935   4.507  11.751  1.0222 -0.2404 -2.0301
 6754SOL     OW31897   1.659   1.652  13.139 -0.3166  0.5469  0.2402
 6754SOL    HW131898   1.653   1.690  13.226 -0.7968  0.3767  0.2782
 6754SOL    HW231899   1.574   1.609  13.151 -0.2463 -0.0926 -1.5458
 6755SOL     OW31900   2.604   0.321   0.673  0.1952  0.0010  0.1597
 6755SOL    HW131901   2.662   0.272   0.732  1.1671 -0.1854 -0.9449
 6755SOL    HW231902   2.584   0.259   0.603 -1.3642 -0.3153  0.8781
 6756SOL     OW31903   4.621   1.789  12.573  0.4743  0.0804  0.3144
 6756SOL    HW131904   4.665   1.747  12.647  1.2977  4.3538  2.2978
 6756SOL    HW231905   4.655   1.746  12.495  0.7681 -0.2304  0.6158
 6757SOL     OW31906   2.570   3.647  13.878  0.7805 -0.0456 -0.0449
 6757SOL    HW131907   2.493   3.695  13.907  0.0016 -0.2177 -1.8102
 6757SOL    HW231908   2.574   3.681  13.788 -0.5018 -1.5723 -0.6956
 6758SOL     OW31909   4.541   2.055   6.904 -0.4171  0.2188  0.3466
 6758SOL    HW131910   4.451   2.038   6.877  0.3533 -2.3444 -0.6064
 6758SOL    HW231911   4.574   2.108   6.831  3.2882 -1.4745  0.8183
 6759SOL     OW31912   3.978   0.773   2.892  0.0059 -0.6549 -0.1902
 6759SOL    HW131913   3.959   0.786   2.800 -2.0417  0.9602  0.4636
 6759SOL    HW231914   3.919   0.708   2.930 -0.9587 -0.7395 -1.8789
 6760SOL     OW31915   0.308   3.497   8.591 -0.1621  0.3961 -0.1572
 6760SOL    HW131916   0.300   3.427   8.526  0.4048  0.1886 -0.0066
 6760SOL    HW231917   0.280   3.570   8.535  1.2554 -0.0702 -1.4968
 6761SOL     OW31918   2.969   3.375   1.949  0.4738  0.3976 -0.6939
 6761SOL    HW131919   2.942   3.290   1.914 -0.4138 -0.2903  1.6580
 6761SOL    HW231920   2.966   3.429   1.871 -1.0289  0.7692 -0.3756
 6762SOL     OW31921   3.107   0.909   5.314 -0.1975 -0.7001  0.4519
 6762SOL    HW131922   3.175   0.874   5.256 -0.9019 -1.7047  0.2286
 6762SOL    HW231923   3.156   0.895   5.395 -1.7277 -1.4496  1.2636
 6763SOL     OW31924   3.408   0.076   3.913  0.0444  0.1178 -0.0170
 6763SOL    HW131925   3.437   0.072   4.005  0.1329 -1.6065 -0.1375
 6763SOL    HW231926   3.378   0.166   3.901  1.9137  0.5926 -1.0919
 6764SOL     OW31927   2.896   0.256   6.520 -0.0973  0.5043 -0.2549
 6764SOL    HW131928   2.896   0.263   6.424  0.4176  0.0675 -0.2886
 6764SOL    HW231929   2.805   0.235   6.541 -0.3403  1.0118 -0.7693
 6765SOL     OW31930   3.655   4.460   2.273  0.0579 -0.0385  0.4304
 6765SOL    HW131931   3.743   4.450   2.237  1.1011  2.5663  2.2937
 6765SOL    HW231932   3.619   4.371   2.277 -2.0864  0.7368 -1.4431
 6766SOL     OW31933   4.346   1.924   6.693 -0.2346  0.3023  0.0973
 6766SOL    HW131934   4.318   1.993   6.633 -0.2531 -1.1700 -1.5741
 6766SOL    HW231935   4.268   1.896   6.740 -0.3887 -2.0893 -1.6194
 6767SOL     OW31936   0.915   1.430   6.737 -0.4961 -0.0602  0.0445
 6767SOL    HW131937   0.840   1.433   6.797  0.3938 -1.0033  1.2225
 6767SOL    HW231938   0.911   1.342   6.699 -2.5299 -1.2929  3.0962
 6768SOL     OW31939   0.166   0.672  12.134 -0.2899 -0.0710 -0.1444
 6768SOL    HW131940   0.141   0.763  12.152 -1.4349 -0.4447  0.1466
 6768SOL    HW231941   0.078   0.638  12.153 -0.6449  0.6830 -0.4153
 6769SOL     OW31942   2.328   1.640   4.352  0.1118 -0.1343 -0.5207
 6769SOL    HW131943   2.340   1.562   4.298 -2.7701 -1.9822  1.5267
 6769SOL    HW231944   2.409   1.691   4.353  0.0769 -0.0977  0.3554
 6770SOL     OW31945   2.792   3.791   1.424  0.0554 -0.2815  0.2290
 6770SOL    HW131946   2.779   3.884   1.406 -0.0782  0.2200  2.8723
 6770SOL    HW231947   2.781   3.778   1.518  1.3450  0.6352  0.5041
 6771SOL     OW31948   2.395   2.572   5.407 -0.2242  0.3359  0.4979
 6771SOL    HW131949   2.437   2.497   5.448  3.3257  1.7224 -0.5868
 6771SOL    HW231950   2.454   2.583   5.331 -1.2610 -1.7551 -0.5981
 6772SOL     OW31951   2.070   4.546  14.928  0.0628  0.3929 -0.1073
 6772SOL    HW131952   2.042   4.456  14.942 -0.8434  0.3427 -2.2439
 6772SOL    HW231953   2.164   4.532  14.913  0.2699  0.2002  1.3676
 6773SOL     OW31954   1.392   4.128   6.692 -0.6173  0.2627 -0.2724
 6773SOL    HW131955   1.375   4.034   6.689  0.0883  0.0759  1.4312
 6773SOL    HW231956   1.391   4.154   6.600  0.3133 -2.3974 -1.0470
 6774SOL     OW31957   0.044   3.305   3.946 -0.0094 -0.1208  0.3626
 6774SOL    HW131958   0.133   3.325   3.976  0.2573 -2.6431  1.2097
 6774SOL    HW231959   0.030   3.223   3.992 -1.9754 -1.0384 -1.9099
 6775SOL     OW31960   2.990   2.631   5.947 -0.4262  0.4853 -0.0117
 6775SOL    HW131961   2.961   2.644   6.038 -1.1198 -0.6627 -0.0738
 6775SOL    HW231962   2.936   2.556   5.921 -0.2736  0.5049 -0.3735
 6776SOL     OW31963   1.867   1.478  11.392  0.4269 -0.2835  0.2706
 6776SOL    HW131964   1.861   1.571  11.416  0.5191 -0.2670  0.2280
 6776SOL    HW231965   1.775   1.455  11.375  0.6024 -0.4826 -0.4035
 6777SOL     OW31966   0.930   0.276  11.068 -0.3738 -0.0913 -0.0342
 6777SOL    HW131967   1.017   0.309  11.044 -0.7839  2.6033  2.0789
 6777SOL    HW231968   0.948   0.183  11.057 -3.1358 -0.5812 -0.4644
 6778SOL     OW31969   0.335   2.222   4.266 -0.2618 -0.0704 -0.2411
 6778SOL    HW131970   0.275   2.297   4.264  0.8249  0.7741 -1.3417
 6778SOL    HW231971   0.380   2.242   4.184 -0.7944 -1.3359 -0.8505
 6779SOL     OW31972   3.238   2.120   1.620  0.4871 -0.9903 -0.1530
 6779SOL    HW131973   3.323   2.139   1.578 -1.4257  2.9987 -2.2380
 6779SOL    HW231974   3.199   2.206   1.611  1.8902 -0.2554  0.7523
 6780SOL     OW31975   2.419   4.047   0.853 -0.3812 -0.0320  0.0436
 6780SOL    HW131976   2.458   4.129   0.884  1.8880 -0.5228 -1.4935
 6780SOL    HW231977   2.402   3.994   0.931  1.4228 -0.8330 -0.1021
 6781SOL     OW31978   4.491   4.309   2.499  0.4350 -0.1931 -0.0093
 6781SOL    HW131979   4.572   4.330   2.544  0.2920 -0.0381  0.1768
 6781SOL    HW231980   4.488   4.215   2.519 -0.2124 -0.9005 -3.3702
 6782SOL     OW31981   4.343   2.546   5.345 -0.3210  0.3589  0.2834
 6782SOL    HW131982   4.354   2.572   5.437 -0.9377 -1.6734  0.9291
 6782SOL    HW231983   4.365   2.618   5.286 -1.5536 -0.3505 -1.0458
 6783SOL     OW31984   2.989   1.645   5.578  0.3056  0.3012 -0.1020
 6783SOL    HW131985   3.040   1.726   5.566  0.6933  0.3628  2.0737
 6783SOL    HW231986   2.950   1.650   5.665  2.1469  2.1461  0.6354
 6784SOL     OW31987   2.211   1.322   7.424 -0.2169  0.4522  0.6400
 6784SOL    HW131988   2.235   1.314   7.516  0.4666 -1.4446  0.2865
 6784SOL    HW231989   2.226   1.232   7.395 -0.5992  0.3881  0.6389
 6785SOL     OW31990   0.994   1.400   5.983 -0.0270  0.0007  0.1590
 6785SOL    HW131991   1.045   1.433   6.057 -0.4822 -0.2998  0.6142
 6785SOL    HW231992   1.001   1.468   5.916  0.6726  1.3046  1.5517
 6786SOL     OW31993   3.945   0.569   1.608 -0.1536  0.0366  0.4336
 6786SOL    HW131994   3.973   0.575   1.517  0.6210  3.3991  0.8753
 6786SOL    HW231995   3.852   0.562   1.588  0.1198 -0.0884 -0.7885
 6787SOL     OW31996   1.953   0.901   2.308  0.3868 -0.2619  0.0628
 6787SOL    HW131997   2.047   0.896   2.290  0.2064  1.3255 -1.3160
 6787SOL    HW231998   1.951   0.940   2.395 -2.5636  0.9980 -0.5852
 6788SOL     OW31999   2.909   4.694   8.289 -0.2267  0.0953  0.1604
 6788SOL    HW132000   2.839   4.694   8.354 -2.5456  0.2536 -2.3318
 6788SOL    HW232001   2.935   0.050   8.289  0.5306 -0.1178  0.3921
 6789SOL     OW32002   1.912   2.579   3.551 -0.6130 -0.5800 -0.0140
 6789SOL    HW132003   1.939   2.581   3.643 -0.5696 -0.0971 -0.0349
 6789SOL    HW232004   1.819   2.574   3.569 -0.7883  0.4305 -0.6420
 6790SOL     OW32005   4.034   2.592   5.265 -0.3155  0.0119  0.1424
 6790SOL    HW132006   4.088   2.604   5.343 -2.3593  1.3770  1.3718
 6790SOL    HW232007   3.965   2.653   5.292 -1.0087 -0.4203 -0.6429
 6791SOL     OW32008   1.878   0.394   6.716  0.2324 -0.4093 -0.4508
 6791SOL    HW132009   1.906   0.327   6.654 -0.6728  0.0709 -1.3829
 6791SOL    HW232010   1.802   0.345   6.748  0.7801 -1.0777 -0.1635
 6792SOL     OW32011   1.251   3.456   7.918 -0.9977  0.8000  0.5221
 6792SOL    HW132012   1.185   3.495   7.860 -1.7491  0.2406  0.9996
 6792SOL    HW232013   1.203   3.376   7.940  0.9864 -0.3341  0.7357
 6793SOL     OW32014   3.431   2.725   2.990  0.2960 -0.5172 -0.2490
 6793SOL    HW132015   3.476   2.762   3.066 -1.0354 -0.7992  0.6862
 6793SOL    HW232016   3.368   2.663   3.028 -0.0385  1.2101  2.0204
 6794SOL     OW32017   3.716   2.150   8.939 -0.1041  0.2515 -0.1291
 6794SOL    HW132018   3.630   2.184   8.913 -0.0348 -2.0828 -3.4849
 6794SOL    HW232019   3.735   2.217   9.004 -1.6911 -0.1853  0.7954
 6795SOL     OW32020   2.268   3.742   8.813 -0.1618 -0.5672 -0.1921
 6795SOL    HW132021   2.230   3.736   8.725  1.6583 -2.6799 -0.8341
 6795SOL    HW232022   2.360   3.745   8.786 -0.3530 -2.7243 -1.1021
 6796SOL     OW32023   0.678   0.569  15.420  0.8748 -0.3514  0.6429
 6796SOL    HW132024   0.754   0.536  15.469 -0.5341 -2.5731  1.2976
 6796SOL    HW232025   0.600   0.514  15.424  0.6796 -0.0706  0.7308
 6797SOL     OW32026   0.196   2.563  14.741 -0.0465 -0.2728 -0.4705
 6797SOL    HW132027   0.240   2.639  14.703 -0.4143 -0.6127 -1.5821
 6797SOL    HW232028   0.104   2.580  14.719 -0.6117  0.3209  2.2963
 6798SOL     OW32029   1.936   2.886   3.935  0.0798  0.1986  0.4377
 6798SOL    HW132030   1.912   2.927   3.852 -2.0441  1.0359  1.4463
 6798SOL    HW232031   1.981   2.809   3.900 -0.9942  0.5791 -1.7667
 6799SOL     OW32032   0.635   4.149   5.111 -0.9045 -0.0303 -0.0231
 6799SOL    HW132033   0.592   4.211   5.051  0.5182 -0.5556 -1.6030
 6799SOL    HW232034   0.664   4.216   5.174  0.4168 -0.1644 -0.4829
 6800SOL     OW32035   0.776   0.579   8.006  0.7304  0.3738  0.5052
 6800SOL    HW132036   0.736   0.639   7.943  2.3820 -0.0556 -0.9298
 6800SOL    HW232037   0.717   0.503   8.006  2.7224 -1.1728 -0.0515
 6801SOL     OW32038   0.788   1.903   3.907  0.2801  0.0498 -0.0091
 6801SOL    HW132039   0.758   1.818   3.938 -1.7197  1.3643  1.7329
 6801SOL    HW232040   0.735   1.920   3.830  0.7073 -0.7800 -0.4824
 6802SOL     OW32041   2.550   3.581  11.235 -0.2613  0.7838 -0.4231
 6802SOL    HW132042   2.504   3.659  11.205  0.2483  1.8334  1.4984
 6802SOL    HW232043   2.584   3.607  11.321 -0.7560 -0.1944  0.0732
 6803SOL     OW32044   1.670   4.280  15.917 -0.3349  0.0081  0.1612
 6803SOL    HW132045   1.645   4.339  15.846  1.7468 -0.3043 -0.8243
 6803SOL    HW232046   1.619   4.206  15.885 -1.2531  1.0252 -0.7034
 6804SOL     OW32047   4.139   3.674   0.363  0.2289  0.4869 -0.3072
 6804SOL    HW132048   4.050   3.649   0.390 -0.1893  1.1583 -1.0589
 6804SOL    HW232049   4.133   3.648   0.271 -0.3638 -0.5998  0.0344
 6805SOL     OW32050   1.931   0.076   4.893 -0.0496  0.3186  0.3205
 6805SOL    HW132051   1.885   0.055   4.975 -0.3195 -0.7494 -0.1137
 6805SOL    HW232052   1.851   0.082   4.841  0.9339  0.0810 -1.1955
 6806SOL     OW32053   1.594   4.236   6.155  0.2539  0.6297 -0.2412
 6806SOL    HW132054   1.648   4.315   6.161  1.4925 -0.1583 -0.8635
 6806SOL    HW232055   1.664   4.179   6.121  0.1705 -0.1019  0.8144
 6807SOL     OW32056   4.252   2.704   7.077 -0.0294  0.5003  0.8077
 6807SOL    HW132057   4.331   2.746   7.111 -0.5699  2.1829 -0.0380
 6807SOL    HW232058   4.259   2.746   6.992 -0.6964 -1.5508 -0.2597
 6808SOL     OW32059   3.243   1.919   1.297 -0.3828 -0.4422  0.2891
 6808SOL    HW132060   3.308   1.867   1.345  0.8424  0.3914 -0.4507
 6808SOL    HW232061   3.293   1.996   1.270  1.4371 -1.5083  0.5753
 6809SOL     OW32062   0.697   1.699  17.213 -0.3070 -0.4042 -0.3559
 6809SOL    HW132063   0.717   1.645  17.136  1.0149 -1.4411  0.7175
 6809SOL    HW232064   0.605   1.674  17.223 -0.0967 -0.5701  1.0982
 6810SOL     OW32065   1.007   0.316   4.330  0.6355 -0.3588  0.1193
 6810SOL    HW132066   1.052   0.245   4.376 -0.5037 -1.0065  0.2394
 6810SOL    HW232067   1.071   0.334   4.261  0.8773  2.3321  1.0835
 6811SOL     OW32068   0.908   0.473  13.492 -0.0622 -0.0803  0.2842
 6811SOL    HW132069   0.872   0.503  13.576 -1.2083  1.2096 -0.6616
 6811SOL    HW232070   0.883   0.549  13.439  0.1063 -0.3553 -0.1839
 6812SOL     OW32071   0.950   1.026   6.126  0.8882 -0.1416 -0.2014
 6812SOL    HW132072   0.891   1.077   6.071 -1.6932 -0.9184  1.8665
 6812SOL    HW232073   1.032   1.070   6.104 -0.1947  1.7237 -0.4914
 6813SOL     OW32074   1.573   2.896   7.069  0.8751 -0.0797  0.0758
 6813SOL    HW132075   1.571   2.807   7.103  1.7596  0.8066  2.4588
 6813SOL    HW232076   1.505   2.894   7.002  0.5839 -3.3186  0.4745
 6814SOL     OW32077   3.317   2.510   8.043 -0.1884  0.4106  0.1476
 6814SOL    HW132078   3.312   2.605   8.033  0.7106  0.1844 -2.2964
 6814SOL    HW232079   3.366   2.486   8.122  0.8831  1.5846 -0.1665
 6815SOL     OW32080   3.531   3.598   9.028  0.8058  0.1478 -0.0690
 6815SOL    HW132081   3.565   3.612   9.116 -1.2237  0.9481  0.5823
 6815SOL    HW232082   3.481   3.516   9.034  0.9122  0.1492  0.8624
 6816SOL     OW32083   3.009   2.964   0.906 -0.2561  0.2168 -0.3406
 6816SOL    HW132084   3.054   3.047   0.923  0.6540 -0.0677 -1.3217
 6816SOL    HW232085   3.013   2.936   0.997  1.1871  2.4940  0.3034
 6817SOL     OW32086   1.396   3.434   4.032 -0.0006 -0.0886  0.3610
 6817SOL    HW132087   1.415   3.427   3.938  2.1139  0.9474  0.7217
 6817SOL    HW232088   1.303   3.456   4.035 -0.2453 -0.6301 -2.5169
 6818SOL     OW32089   2.420   0.098  14.489  0.4180 -0.5923 -0.4348
 6818SOL    HW132090   2.418   0.009  14.525 -1.2736  0.2441  1.5471
 6818SOL    HW232091   2.509   0.129  14.507 -0.5663  0.5510  2.4693
 6819SOL     OW32092   0.982   2.438   6.735  0.2077 -0.2885  0.4219
 6819SOL    HW132093   1.027   2.452   6.652 -1.6789  0.0167 -0.5509
 6819SOL    HW232094   0.959   2.346   6.722 -1.2851  0.2632 -0.9066
 6820SOL     OW32095   2.863   3.175   9.124 -0.1106  0.0274 -0.5961
 6820SOL    HW132096   2.838   3.084   9.109 -0.9319  0.3860 -1.4868
 6820SOL    HW232097   2.801   3.223   9.069  0.1884  1.3569  0.2330
 6821SOL     OW32098   0.264   0.451   4.058  0.3161 -0.2762  0.3060
 6821SOL    HW132099   0.228   0.367   4.030 -0.0739  0.5330 -1.6128
 6821SOL    HW232100   0.349   0.420   4.088  1.0487  2.3393  0.8746
 6822SOL     OW32101   3.525   2.016  17.548  0.1304 -0.4698  0.7162
 6822SOL    HW132102   3.459   2.019  17.617 -1.1155 -0.2902 -0.4718
 6822SOL    HW232103   3.531   1.921  17.536 -1.1214 -0.2657 -1.3826
 6823SOL     OW32104   2.571   3.849   2.212  0.1333 -0.1204  0.0887
 6823SOL    HW132105   2.481   3.819   2.223 -0.5307  2.6798  2.2098
 6823SOL    HW232106   2.567   3.929   2.265 -0.6688 -0.3232  0.3215
 6824SOL     OW32107   1.363   3.825   3.590 -0.7667  0.7133  0.4357
 6824SOL    HW132108   1.352   3.898   3.529 -0.9913 -0.6874 -1.1753
 6824SOL    HW232109   1.277   3.825   3.632 -0.1970 -0.6443  1.5916
 6825SOL     OW32110   0.538   2.181   7.497  0.2414  0.3418  0.5723
 6825SOL    HW132111   0.562   2.111   7.558  0.5347  0.1563  0.2426
 6825SOL    HW232112   0.563   2.257   7.550  1.1991  2.2469 -2.6268
 6826SOL     OW32113   1.833   3.181   4.856 -0.3151  0.3660  0.2673
 6826SOL    HW132114   1.896   3.182   4.929 -1.1289  0.7604  0.9672
 6826SOL    HW232115   1.876   3.117   4.800 -3.4450 -0.7943 -0.7864
 6827SOL     OW32116   4.040   4.350   2.800 -0.6753  0.2448 -0.0977
 6827SOL    HW132117   3.979   4.423   2.788 -0.6282  0.3363  0.2032
 6827SOL    HW232118   4.035   4.309   2.714  0.6255  2.5397 -1.2842
 6828SOL     OW32119   1.398   3.693  13.892 -0.1390  0.2519  0.1893
 6828SOL    HW132120   1.412   3.767  13.832 -0.7124  0.5777  0.4550
 6828SOL    HW232121   1.356   3.734  13.968 -0.3491  0.5719 -0.1008
 6829SOL     OW32122   1.931   1.429   5.300 -0.1397  0.0894  0.1800
 6829SOL    HW132123   2.020   1.394   5.308 -0.9968 -2.1478 -0.1265
 6829SOL    HW232124   1.884   1.389   5.374 -0.5028 -1.2559 -0.7783
 6830SOL     OW32125   3.387   4.423   3.846 -0.2023 -0.3908  0.4554
 6830SOL    HW132126   3.369   4.349   3.788  0.8027  0.7460 -1.2871
 6830SOL    HW232127   3.463   4.404   3.901 -0.3669  1.4685  1.3424
 6831SOL     OW32128   0.030   1.195   7.112 -0.0529 -0.4396  0.5939
 6831SOL    HW132129   4.726   1.260   7.053  3.8772  0.6307 -0.9040
 6831SOL    HW232130   0.093   1.148   7.057 -1.8665 -2.9472  0.6622
 6832SOL     OW32131   4.290   2.789   5.641  0.1366 -0.1459 -0.1738
 6832SOL    HW132132   4.370   2.842   5.640 -0.0333  0.0870 -1.0945
 6832SOL    HW232133   4.329   2.702   5.634  1.2060  0.3155  0.1006
 6833SOL     OW32134   0.365   2.079  11.949  0.5048 -0.2358  0.0909
 6833SOL    HW132135   0.355   1.997  11.998 -0.7173 -0.8507 -1.1915
 6833SOL    HW232136   0.298   2.067  11.882  1.2845 -0.1471 -0.7039
 6834SOL     OW32137   1.302   1.995   3.998  0.9402 -0.1711 -0.4156
 6834SOL    HW132138   1.359   1.922   4.022 -1.7741 -2.2388 -0.2586
 6834SOL    HW232139   1.274   2.031   4.082  0.2113  0.3653 -0.8931
 6835SOL     OW32140   4.599   4.467   1.146 -0.1774  0.3093 -0.0729
 6835SOL    HW132141   4.678   4.474   1.200 -0.0427 -0.5562 -0.1487
 6835SOL    HW232142   4.565   4.555   1.157  2.3815  1.4822 -1.4514
 6836SOL     OW32143   2.555   1.241  13.454  0.0680 -0.0406 -0.0316
 6836SOL    HW132144   2.619   1.203  13.394 -0.3912  0.9001 -1.1113
 6836SOL    HW232145   2.477   1.199  13.419  0.4802  1.5525 -2.8341
 6837SOL     OW32146   2.443   0.852   3.959 -0.0678 -0.0237  0.1353
 6837SOL    HW132147   2.521   0.896   3.927 -0.3295  0.3292 -0.0069
 6837SOL    HW232148   2.420   0.795   3.885 -3.1824  0.4349  0.7478
 6838SOL     OW32149   4.594   2.341   9.668 -0.2644 -0.2735  0.4595
 6838SOL    HW132150   4.534   2.292   9.612  2.5433 -2.3725 -0.7246
 6838SOL    HW232151   4.629   2.270   9.722  3.3403  0.3396 -1.0378
 6839SOL     OW32152   0.226   1.068   2.520  0.3185 -0.0193 -0.4565
 6839SOL    HW132153   0.191   1.053   2.432 -1.8309 -0.4669  0.4777
 6839SOL    HW232154   0.157   1.047   2.584 -0.0053 -3.3660 -1.8902
 6840SOL     OW32155   4.510   3.274   6.007  0.0353 -0.0370  0.8563
 6840SOL    HW132156   4.483   3.205   5.947 -0.8808 -0.4847  1.7811
 6840SOL    HW232157   4.606   3.273   6.011  0.0808 -0.3497 -0.2243
 6841SOL     OW32158   4.199   2.019   8.550  0.3982  0.4966 -0.4932
 6841SOL    HW132159   4.134   2.079   8.513 -1.0509  0.0792  1.4143
 6841SOL    HW232160   4.165   1.930   8.534 -2.1597  1.3026  0.4233
 6842SOL     OW32161   3.519   0.230   7.910 -0.5248  0.2893 -0.7914
 6842SOL    HW132162   3.464   0.159   7.877  0.0319  0.7684 -2.7568
 6842SOL    HW232163   3.596   0.187   7.947  0.3308  3.1674  0.7502
 6843SOL     OW32164   3.283   4.257   1.929  0.7902 -0.5172 -0.3380
 6843SOL    HW132165   3.327   4.173   1.915  0.2481 -1.3240  2.6958
 6843SOL    HW232166   3.329   4.291   2.006 -2.5910  1.4216  0.8472
 6844SOL     OW32167   2.520   2.789  15.094  0.0714  0.6565  0.3458
 6844SOL    HW132168   2.452   2.830  15.148 -2.2147 -0.7416 -1.4598
 6844SOL    HW232169   2.523   2.863  15.033  1.0628 -1.1620 -1.8001
 6845SOL     OW32170   4.118   2.551   1.439 -0.0003 -0.0982 -0.3662
 6845SOL    HW132171   4.138   2.564   1.532  0.1798 -5.1273  0.2871
 6845SOL    HW232172   4.025   2.574   1.434 -0.4038 -1.1265  2.2222
 6846SOL     OW32173   1.356   1.795  10.770  0.2024  0.0494  0.1213
 6846SOL    HW132174   1.369   1.870  10.712  2.7131  0.9377  1.7906
 6846SOL    HW232175   1.276   1.817  10.817 -1.0013 -4.2593  0.0486
 6847SOL     OW32176   3.638   0.455   6.631  0.2765  0.2645  0.1833
 6847SOL    HW132177   3.611   0.365   6.649  0.6823 -0.0736 -0.8697
 6847SOL    HW232178   3.615   0.450   6.538  1.8227  1.5495 -0.2623
 6848SOL     OW32179   3.798   4.288   4.386 -0.1242 -0.5623  0.0520
 6848SOL    HW132180   3.823   4.361   4.329 -0.3794 -0.8032 -0.3668
 6848SOL    HW232181   3.811   4.324   4.474  1.4189 -4.3949  1.4033
 6849SOL     OW32182   1.487   0.667   8.866  0.7159  0.3811  0.1853
 6849SOL    HW132183   1.409   0.708   8.829 -1.2234 -2.0002  1.6541
 6849SOL    HW232184   1.551   0.737   8.853  0.5390  0.4585 -0.2855
 6850SOL     OW32185   1.818   2.632   7.418 -0.4017 -0.3575  0.6716
 6850SOL    HW132186   1.905   2.607   7.384 -0.1811  0.7419  0.3960
 6850SOL    HW232187   1.835   2.723   7.442 -2.6322  0.3493 -0.4370
 6851SOL     OW32188   1.033   4.335   2.391  0.2024  0.1529  0.3237
 6851SOL    HW132189   1.101   4.401   2.373  2.3091 -2.6540 -2.0140
 6851SOL    HW232190   0.961   4.396   2.409 -1.0701 -2.5884  4.3238
 6852SOL     OW32191   2.721   0.092  13.383  0.4919 -0.2409  0.3176
 6852SOL    HW132192   2.707   0.118  13.474  0.6011  2.2976 -0.3815
 6852SOL    HW232193   2.634   0.075  13.346  1.1369 -1.0468 -0.8163
 6853SOL     OW32194   2.993   1.429   4.404  0.5484  0.1680 -0.2305
 6853SOL    HW132195   3.047   1.443   4.482 -2.1963 -4.3442  2.4716
 6853SOL    HW232196   2.952   1.516   4.402 -1.9086 -0.9952 -0.2839
 6854SOL     OW32197   4.734   3.496   5.544 -0.1214  0.5937 -0.4565
 6854SOL    HW132198   4.702   3.408   5.564  1.1597  0.3293  0.4670
 6854SOL    HW232199   4.695   3.543   5.617  1.7840  0.9895  0.3183
 6855SOL     OW32200   2.863   0.580   1.956 -0.0505 -0.2588 -0.0473
 6855SOL    HW132201   2.827   0.664   1.926 -0.2940  0.2369  1.6461
 6855SOL    HW232202   2.785   0.525   1.954 -0.7939  0.7997 -0.0963
 6856SOL     OW32203   1.413   4.332  14.514  0.6836  0.0013  0.0773
 6856SOL    HW132204   1.328   4.375  14.517  0.6553 -0.1024  0.7800
 6856SOL    HW232205   1.431   4.318  14.607 -3.2156  1.5343  1.0617
 6857SOL     OW32206   3.473   2.834   0.025 -0.0120  0.4346  0.4354
 6857SOL    HW132207   3.473   2.838   0.120  0.5003  0.0784  0.4551
 6857SOL    HW232208   3.397   2.777   0.019  1.4213 -1.3322 -1.0877
 6858SOL     OW32209   1.827   3.201   0.617 -0.4653  0.4125  0.0025
 6858SOL    HW132210   1.914   3.162   0.623 -0.9903 -0.7857 -0.2099
 6858SOL    HW232211   1.834   3.250   0.535  0.4213  0.6766  0.2353
 6859SOL     OW32212   2.080   1.842   2.792 -0.2202 -0.1982  0.4166
 6859SOL    HW132213   2.138   1.897   2.844 -0.0249 -0.7820  0.8155
 6859SOL    HW232214   2.127   1.827   2.710 -0.5206  1.5600 -0.0802
 6860SOL     OW32215   3.616   2.284   7.436  0.3173  0.0132  0.5054
 6860SOL    HW132216   3.698   2.314   7.473 -0.4015  1.9648  0.5074
 6860SOL    HW232217   3.596   2.204   7.484  0.0803 -0.5153 -0.4724
 6861SOL     OW32218   2.095   3.052   0.603 -0.1004 -0.0949 -0.0912
 6861SOL    HW132219   2.138   3.029   0.686 -0.5401  0.3059  0.2455
 6861SOL    HW232220   2.043   2.972   0.596  0.1405 -0.1160 -1.6238
 6862SOL     OW32221   2.574   2.440   3.564 -0.1884  0.2662  0.2097
 6862SOL    HW132222   2.563   2.533   3.548 -1.1009  0.0796 -0.2330
 6862SOL    HW232223   2.621   2.409   3.486 -0.7870 -2.0096  0.7539
 6863SOL     OW32224   0.288   1.102   8.169  0.0367 -0.5049  0.0507
 6863SOL    HW132225   0.272   1.130   8.079  0.9531  1.0068  0.3600
 6863SOL    HW232226   0.342   1.024   8.158 -1.5041 -1.6446  0.6053
 6864SOL     OW32227   3.460   1.805   1.445  0.7799  0.2031 -0.0948
 6864SOL    HW132228   3.530   1.815   1.381  0.4306  0.0508 -0.5097
 6864SOL    HW232229   3.512   1.793   1.524  0.2891 -0.8178  0.0781
 6865SOL     OW32230   3.037   2.201  16.135  0.3855  0.1145  0.2275
 6865SOL    HW132231   3.066   2.215  16.045  1.5396 -2.8449  0.1368
 6865SOL    HW232232   3.071   2.112  16.147  0.8147  0.1548 -0.7283
 6866SOL     OW32233   4.236   1.619  17.586 -0.2643 -0.1588 -0.3568
 6866SOL    HW132234   4.153   1.575  17.566 -0.7608 -0.4030  2.2555
 6866SOL    HW232235   4.260   1.585  17.672  0.4285 -1.5250 -1.0740
 6867SOL     OW32236   0.942   0.091  14.361  0.3967  0.5549  0.1599
 6867SOL    HW132237   0.861   0.071  14.315  0.9859 -0.2989 -0.4995
 6867SOL    HW232238   1.011   0.056  14.306 -0.4093 -2.5637  1.1278
 6868SOL     OW32239   1.310   1.561  16.017 -0.9356  0.3368 -0.1158
 6868SOL    HW132240   1.313   1.466  16.009  2.7483  0.2279  3.1118
 6868SOL    HW232241   1.347   1.575  16.104  1.3771  0.0887 -1.0681
 6869SOL     OW32242   4.318   2.713  14.830 -0.1256  0.3362 -0.1157
 6869SOL    HW132243   4.383   2.644  14.844 -1.3036 -1.0329 -1.3289
 6869SOL    HW232244   4.268   2.678  14.756 -0.2037  2.4848 -1.0794
 6870SOL     OW32245   0.266   1.038   6.289  0.0397 -0.5732  0.4109
 6870SOL    HW132246   0.293   1.130   6.299 -0.9649 -0.5851  3.1306
 6870SOL    HW232247   0.240   1.016   6.378  1.9179  2.1107  1.6343
 6871SOL     OW32248   1.705   3.975   4.189  0.2158  0.3337  0.1804
 6871SOL    HW132249   1.645   3.910   4.224  0.2110 -0.2345 -0.8870
 6871SOL    HW232250   1.791   3.933   4.189 -0.6536 -1.4453 -1.8635
 6872SOL     OW32251   2.306   3.057   0.801 -0.2020  0.3430  0.2925
 6872SOL    HW132252   2.389   3.011   0.788 -0.8371 -0.3166 -1.4981
 6872SOL    HW232253   2.306   3.141   0.756 -1.2166  0.1052 -0.1538
 6873SOL     OW32254   3.911   3.542   2.784  0.0939  0.5313 -0.2473
 6873SOL    HW132255   3.915   3.572   2.875  0.5480 -2.1327  0.6012
 6873SOL    HW232256   3.829   3.493   2.787 -1.0982  2.5755  0.5344
 6874SOL     OW32257   4.040   0.359   9.607  0.2066  0.7362 -0.0381
 6874SOL    HW132258   4.111   0.294   9.612 -1.8103 -1.2712  2.4386
 6874SOL    HW232259   3.965   0.304   9.587 -0.4210  1.8961 -0.8449
 6875SOL     OW32260   2.325   0.172   4.180  0.2808 -0.0678 -0.4724
 6875SOL    HW132261   2.248   0.189   4.126 -0.2224 -1.0314 -0.0559
 6875SOL    HW232262   2.396   0.183   4.118  0.0852 -0.6132 -0.7887
 6876SOL     OW32263   0.052   0.435  10.520  0.0771 -0.3675 -0.6403
 6876SOL    HW132264   0.084   0.436  10.429  0.5464  0.2272 -0.4679
 6876SOL    HW232265   4.705   0.484  10.512 -1.1098 -1.9016  2.4289
 6877SOL     OW32266   4.392   2.083   7.138  0.2593  0.0503  0.3102
 6877SOL    HW132267   4.312   2.081   7.086  0.5567  0.2664 -0.1513
 6877SOL    HW232268   4.463   2.065   7.076  1.1059 -1.0411  1.5947
 6878SOL     OW32269   1.651   4.613   2.746  0.3786 -0.0142  0.3589
 6878SOL    HW132270   1.659   4.538   2.805 -1.4578 -0.6653 -0.2207
 6878SOL    HW232271   1.586   4.572   2.689  1.1581 -1.1428  0.2786
 6879SOL     OW32272   2.146   4.717  11.111  0.1070  0.0712 -0.0318
 6879SOL    HW132273   2.129   4.627  11.082 -0.7617  0.1961  0.0864
 6879SOL    HW232274   2.200   4.733  11.034 -2.0040 -0.3268 -1.6017
 6880SOL     OW32275   3.942   3.276   6.524 -0.3677  0.1672  0.2433
 6880SOL    HW132276   3.945   3.180   6.523 -1.8920  0.1567 -1.7198
 6880SOL    HW232277   3.849   3.294   6.513 -0.3469  0.7244  0.9563
 6881SOL     OW32278   0.599   1.274   8.827  0.4089 -0.1419  0.8262
 6881SOL    HW132279   0.572   1.325   8.903 -0.3347  1.7681 -0.7234
 6881SOL    HW232280   0.517   1.224   8.827 -0.8686  1.9621  1.5970
 6882SOL     OW32281   1.873   3.479   7.035 -0.2667 -0.1310 -0.7941
 6882SOL    HW132282   1.817   3.402   7.025 -1.1499  0.4724 -0.4766
 6882SOL    HW232283   1.944   3.435   7.081  0.5605  0.8251 -1.1604
 6883SOL     OW32284   4.176   1.675   4.042 -0.4063  0.3908 -0.2130
 6883SOL    HW132285   4.093   1.630   4.026 -0.2114 -0.2906  0.6658
 6883SOL    HW232286   4.237   1.602   4.040 -1.0323 -0.1502  0.2018
 6884SOL     OW32287   3.117   1.080   2.523 -0.2745 -0.2424  0.3610
 6884SOL    HW132288   3.182   1.082   2.453 -0.3329  1.5800  0.3571
 6884SOL    HW232289   3.094   0.988   2.511 -1.0680  0.0801 -0.6036
 6885SOL     OW32290   3.801   2.092  11.233  0.0243  0.0706  0.0217
 6885SOL    HW132291   3.748   2.165  11.202 -1.7178 -0.9607  0.5549
 6885SOL    HW232292   3.892   2.110  11.210  0.1595  1.0024  1.2674
 6886SOL     OW32293   0.891   2.031  14.078 -0.2215 -0.2653 -0.5831
 6886SOL    HW132294   0.822   2.001  14.138  1.5442 -1.5419  0.8068
 6886SOL    HW232295   0.862   2.121  14.064 -0.5868 -0.1085  1.1465
 6887SOL     OW32296   3.134   4.629   9.140 -0.8504  0.0068 -0.6436
 6887SOL    HW132297   3.208   4.603   9.086  0.5074 -1.2925  1.8783
 6887SOL    HW232298   3.091   4.543   9.144 -0.5315 -0.2217 -1.9370
 6888SOL     OW32299   0.865   2.176   1.620 -0.0957 -0.4288 -0.2653
 6888SOL    HW132300   0.927   2.248   1.613 -0.5940 -0.1980 -2.3014
 6888SOL    HW232301   0.830   2.173   1.531  1.4538  0.4079 -0.8951
 6889SOL     OW32302   3.866   3.433   0.804  0.1903 -0.4819 -0.3970
 6889SOL    HW132303   3.864   3.527   0.791  0.6686 -0.5095 -0.6846
 6889SOL    HW232304   3.950   3.407   0.842 -0.9230  0.2956  2.5666
 6890SOL     OW32305   4.161   2.817   4.032  0.5015 -0.5252  0.1585
 6890SOL    HW132306   4.170   2.913   4.030 -1.6052 -0.3427  0.0647
 6890SOL    HW232307   4.247   2.795   3.996  1.0782  2.6117 -0.3996
 6891SOL     OW32308   2.679   2.632   1.443 -0.2472  0.2740 -0.0074
 6891SOL    HW132309   2.654   2.632   1.350 -1.2063 -0.4956  0.2561
 6891SOL    HW232310   2.634   2.552   1.466  1.0347 -0.0981  1.1820
 6892SOL     OW32311   3.554   1.184  12.774 -0.0957 -0.0903  0.0682
 6892SOL    HW132312   3.585   1.260  12.823 -0.1256 -0.3336  0.4670
 6892SOL    HW232313   3.629   1.126  12.785 -1.9424 -2.7003 -1.0557
 6893SOL     OW32314   1.729   0.142   8.025 -0.1107 -0.4315 -0.0901
 6893SOL    HW132315   1.712   0.183   7.941  0.7048  1.0211  0.4587
 6893SOL    HW232316   1.641   0.104   8.032  0.6713 -2.1632  0.5857
 6894SOL     OW32317   0.737   1.975  17.306 -0.0824  0.1478 -0.1311
 6894SOL    HW132318   0.722   1.995  17.213  0.9737 -1.4247 -0.6291
 6894SOL    HW232319   0.733   1.880  17.313  1.4624  0.1787  1.2485
 6895SOL     OW32320   0.243   0.883   5.898  0.0041  0.2800  0.6466
 6895SOL    HW132321   0.282   0.838   5.823 -0.1016 -1.3959  1.5968
 6895SOL    HW232322   0.263   0.974   5.876 -1.2851 -0.0077 -1.8168
 6896SOL     OW32323   0.709   0.402   7.161  1.0552  0.2139 -0.2808
 6896SOL    HW132324   0.672   0.472   7.108  0.8927  0.7743  0.5714
 6896SOL    HW232325   0.796   0.433   7.188  1.7143  0.3872 -2.6450
 6897SOL     OW32326   3.967   1.565   9.975 -0.2348  0.2569 -0.3066
 6897SOL    HW132327   4.007   1.577  10.061  2.1984  0.3000 -1.4437
 6897SOL    HW232328   4.046   1.555   9.922 -0.5646  0.2025 -0.7878
 6898SOL     OW32329   0.988   3.000   0.236  0.3840  0.2788  0.1380
 6898SOL    HW132330   0.952   3.087   0.255 -0.5799 -0.3029  1.0020
 6898SOL    HW232331   1.067   3.036   0.196  1.5952 -1.5194  0.9474
 6899SOL     OW32332   0.883   0.175   3.467  0.1433  0.6335 -0.1122
 6899SOL    HW132333   0.818   0.168   3.396  0.0143 -1.3141  0.2043
 6899SOL    HW232334   0.890   0.270   3.468  0.1807  0.6214  0.6706
 6900SOL     OW32335   1.697   1.595   7.451 -0.7303 -0.2641  0.5181
 6900SOL    HW132336   1.631   1.660   7.474 -0.4805  0.3145 -0.4128
 6900SOL    HW232337   1.756   1.600   7.526 -0.7347  1.1005  0.4340
 6901SOL     OW32338   4.701   0.070   2.634  0.3092  0.3090  0.2352
 6901SOL    HW132339   4.612   0.059   2.599  0.4812 -0.2386 -0.0272
 6901SOL    HW232340   4.677   0.066   2.727 -1.1514 -0.5375 -0.1736
 6902SOL     OW32341   0.532   0.851  14.711 -0.4051  0.3419  0.0099
 6902SOL    HW132342   0.572   0.835  14.626  0.3108 -2.0362  0.7832
 6902SOL    HW232343   0.439   0.832  14.696  0.0770 -1.9982  0.0612
 6903SOL     OW32344   1.794   3.261   3.587  0.1508 -0.0394 -0.2034
 6903SOL    HW132345   1.720   3.290   3.640 -0.7105 -3.1443  0.3368
 6903SOL    HW232346   1.776   3.299   3.502  0.0443 -0.5145 -0.3933
 6904SOL     OW32347   3.510   3.399   4.240 -0.6288  0.2758  0.0619
 6904SOL    HW132348   3.578   3.459   4.272 -0.3509 -0.3106  0.5682
 6904SOL    HW232349   3.558   3.343   4.180  1.7581 -0.4005  2.6313
 6905SOL     OW32350   0.063   2.097   7.860 -0.3765 -1.0288 -0.1517
 6905SOL    HW132351   0.096   2.065   7.776 -0.3082 -1.1195 -0.0915
 6905SOL    HW232352   4.731   2.156   7.828 -0.7244 -0.2512  2.0100
 6906SOL     OW32353   2.765   2.585   6.424  0.2401  0.1486 -0.1452
 6906SOL    HW132354   2.744   2.525   6.353  1.6947 -1.4789  0.8058
 6906SOL    HW232355   2.839   2.542   6.466  2.3008  1.7516 -2.1358
 6907SOL     OW32356   1.742   2.170   0.384 -0.1152  0.2572  0.0888
 6907SOL    HW132357   1.788   2.086   0.394  0.0109  0.6025  2.3827
 6907SOL    HW232358   1.804   2.231   0.425  0.3480 -0.8667  1.0753
 6908SOL     OW32359   2.184   0.002  11.491  0.4175  0.4619  0.3787
 6908SOL    HW132360   2.211   4.703  11.576  1.4366  0.2060 -0.0404
 6908SOL    HW232361   2.271   0.019  11.453  0.7673 -2.0790 -0.0102
 6909SOL     OW32362   0.702   2.055   5.740 -0.7952 -0.7859  0.0998
 6909SOL    HW132363   0.658   2.003   5.672  0.1157  1.0159 -1.8481
 6909SOL    HW232364   0.792   2.027   5.725 -0.4798 -0.7667  2.0305
 6910SOL     OW32365   1.386   1.295   4.911  0.4861 -0.1366 -0.0355
 6910SOL    HW132366   1.330   1.219   4.927 -0.1162  0.7225  1.7955
 6910SOL    HW232367   1.457   1.241   4.874 -0.7248  0.6722 -3.5666
 6911SOL     OW32368   4.150   2.102   5.589  0.2858 -0.6623  0.8606
 6911SOL    HW132369   4.217   2.060   5.536 -1.6770 -3.1884  0.3537
 6911SOL    HW232370   4.120   2.176   5.537 -1.2714  0.0267  2.7198
 6912SOL     OW32371   3.110   2.432   7.875 -0.3230 -0.0827 -0.1494
 6912SOL    HW132372   3.100   2.341   7.902  0.5549 -0.5166 -1.2815
 6912SOL    HW232373   3.191   2.449   7.923 -0.1185  0.5840 -0.7286
 6913SOL     OW32374   3.784   3.076   2.601  0.1879  0.0853 -0.3472
 6913SOL    HW132375   3.722   3.143   2.573 -0.2980 -0.5889 -0.8707
 6913SOL    HW232376   3.728   3.000   2.615 -2.0326  2.1163  1.8329
 6914SOL     OW32377   2.457   1.335  15.447  0.0820  0.4611 -0.3095
 6914SOL    HW132378   2.487   1.414  15.493 -0.2821  0.6335 -0.3637
 6914SOL    HW232379   2.491   1.361  15.361 -0.1521 -0.1108 -0.5698
 6915SOL     OW32380   1.814   2.622   8.400  0.4305  0.3016 -0.3156
 6915SOL    HW132381   1.823   2.529   8.423  1.5700  0.6453  0.6507
 6915SOL    HW232382   1.901   2.650   8.428  0.8210 -0.2043 -1.0250
 6916SOL     OW32383   1.614   1.322   3.327 -0.4768 -0.6387  0.0413
 6916SOL    HW132384   1.520   1.340   3.319 -0.3778 -0.0679  0.1669
 6916SOL    HW232385   1.640   1.402   3.281  1.0292 -0.2966  1.5115
 6917SOL     OW32386   3.281   2.324   5.090  1.2331  0.2294  0.3263
 6917SOL    HW132387   3.331   2.287   5.017  1.2399  1.9266 -0.5158
 6917SOL    HW232388   3.337   2.398   5.114  0.5542  1.2739 -1.3207
 6918SOL     OW32389   2.830   0.547   3.953 -0.0007  0.1213  0.1226
 6918SOL    HW132390   2.840   0.633   3.911 -2.5170  1.0960  1.5259
 6918SOL    HW232391   2.787   0.575   4.034  1.5802  1.3207  0.5629
 6919SOL     OW32392   0.962   1.378   2.957  0.2366  0.5362 -0.2955
 6919SOL    HW132393   1.019   1.324   3.013 -0.1251 -0.3752 -0.8070
 6919SOL    HW232394   0.989   1.456   3.005  1.0364  0.6666 -0.9667
 6920SOL     OW32395   1.481   3.501   5.895  0.4487 -0.3510  0.5512
 6920SOL    HW132396   1.509   3.470   5.810  1.2238 -0.9904  1.0487
 6920SOL    HW232397   1.508   3.592   5.879  0.2808 -0.5816 -1.0166
 6921SOL     OW32398   4.571   3.167   7.986  0.0707 -0.4609  0.6476
 6921SOL    HW132399   4.539   3.164   8.076  0.4245  1.1257  0.8237
 6921SOL    HW232400   4.545   3.258   7.969  0.3176 -0.7436 -1.2572
 6922SOL     OW32401   0.442   4.183   9.109 -0.8718 -0.5210 -0.3226
 6922SOL    HW132402   0.487   4.238   9.044 -1.4729 -1.0506 -1.1804
 6922SOL    HW232403   0.480   4.101   9.077  0.0662 -0.0160 -0.5122
 6923SOL     OW32404   4.719   2.188   9.873 -0.0085  0.4106  0.1315
 6923SOL    HW132405   0.049   2.195   9.942  1.0315  0.6797 -0.8924
 6923SOL    HW232406   4.723   2.095   9.850  0.4960  1.0376 -2.3025
 6924SOL     OW32407   2.634   2.100   6.819  0.3320  0.3875 -0.0272
 6924SOL    HW132408   2.689   2.124   6.745  0.9177 -1.0887 -0.0795
 6924SOL    HW232409   2.592   2.185   6.826 -0.1176  0.2359 -1.0145
 6925SOL     OW32410   4.622   0.154   3.699  0.0368 -0.4409  0.6442
 6925SOL    HW132411   4.659   0.074   3.664  0.9376  0.9107 -1.4606
 6925SOL    HW232412   4.530   0.130   3.712 -1.4167  4.2539 -1.0466
 6926SOL     OW32413   2.610   3.771   4.916  0.6187  0.7932  0.1069
 6926SOL    HW132414   2.628   3.769   5.010 -1.6494 -1.0494  0.4864
 6926SOL    HW232415   2.702   3.763   4.891  0.2228  0.6162 -1.2527
 6927SOL     OW32416   4.705   1.898  14.399 -0.9103  0.3778 -0.1658
 6927SOL    HW132417   0.013   1.864  14.478  0.4462  0.1215 -1.0162
 6927SOL    HW232418   4.623   1.933  14.434 -1.4506 -1.1498  0.1322
 6928SOL     OW32419   2.721   4.199   3.876  0.0384 -0.5002  0.5675
 6928SOL    HW132420   2.782   4.126   3.863  1.0504  0.3225  0.7607
 6928SOL    HW232421   2.769   4.273   3.839  0.1514  0.1680  2.0495
 6929SOL     OW32422   3.708   3.872  15.787  0.1838 -0.1308  0.4205
 6929SOL    HW132423   3.708   3.953  15.737 -0.3294 -1.2680 -1.4230
 6929SOL    HW232424   3.658   3.894  15.866 -2.4439 -0.2874 -1.2103
 6930SOL     OW32425   2.739   0.074   5.909 -0.3505  0.3794 -0.2336
 6930SOL    HW132426   2.724   4.716   5.892 -1.0926 -0.1241  3.1311
 6930SOL    HW232427   2.653   0.115   5.902 -0.8012 -0.1793  1.8885
 6931SOL     OW32428   0.603   2.221   2.254 -0.6190 -0.0413 -0.6031
 6931SOL    HW132429   0.673   2.169   2.215 -1.3273 -0.0913 -1.8017
 6931SOL    HW232430   0.621   2.304   2.209  3.1978 -0.6818 -0.3062
 6932SOL     OW32431   2.221   2.845   3.956  0.1945  0.3270  0.2817
 6932SOL    HW132432   2.274   2.907   4.006  1.2668  0.1830 -0.6922
 6932SOL    HW232433   2.157   2.910   3.929 -1.9440 -0.7666  2.6743
 6933SOL     OW32434   3.825   3.491   1.143  0.2128 -0.2728 -0.0702
 6933SOL    HW132435   3.892   3.479   1.209 -0.5030 -2.8641  0.1624
 6933SOL    HW232436   3.788   3.574   1.175  0.1201 -0.3853  0.1148
 6934SOL     OW32437   2.110   2.306   1.853  0.1347  0.2454  0.3016
 6934SOL    HW132438   2.042   2.329   1.790 -1.8922 -3.0985  1.2779
 6934SOL    HW232439   2.134   2.386   1.900 -1.0976 -0.3150  1.8875
 6935SOL     OW32440   1.249   1.861   3.749  0.0301  0.2783 -0.3475
 6935SOL    HW132441   1.289   1.904   3.824  0.1747  0.7902 -0.7162
 6935SOL    HW232442   1.201   1.936   3.714 -1.3973  0.3810  1.8413
 6936SOL     OW32443   4.306   4.566  13.048  0.2384  0.1634 -0.4988
 6936SOL    HW132444   4.331   4.509  12.975 -0.1687 -1.6061  0.7526
 6936SOL    HW232445   4.375   4.537  13.107 -0.9927  0.8345  1.2706
 6937SOL     OW32446   4.125   3.563   3.941  0.7729  0.7456  0.1394
 6937SOL    HW132447   4.111   3.592   4.031  2.0044 -0.0460  0.5754
 6937SOL    HW232448   4.220   3.553   3.932  0.5433 -0.1412 -1.3582
 6938SOL     OW32449   0.327   2.957   8.289  0.2051 -0.9011  0.5221
 6938SOL    HW132450   0.387   2.881   8.286 -0.6416 -1.5400 -0.2161
 6938SOL    HW232451   0.257   2.911   8.335 -1.0660  0.1008 -0.4442
 6939SOL     OW32452   1.462   4.560   8.193  0.0634  0.0402  0.2570
 6939SOL    HW132453   1.460   4.575   8.288 -1.5585  1.5054 -0.0306
 6939SOL    HW232454   1.367   4.558   8.182 -0.0905 -1.2968  1.7178
 6940SOL     OW32455   4.631   4.433  14.950 -0.4205 -0.2166 -0.0573
 6940SOL    HW132456   4.698   4.468  14.891  0.3492 -0.7930  0.4800
 6940SOL    HW232457   4.644   4.489  15.027 -1.4982  1.4119 -1.0535
 6941SOL     OW32458   1.663   1.378   7.667  0.0802 -0.5388 -0.1225
 6941SOL    HW132459   1.701   1.338   7.588 -0.3388 -1.0808 -0.0457
 6941SOL    HW232460   1.734   1.432   7.701  1.3255 -0.2297 -3.2030
 6942SOL     OW32461   0.703   3.820   9.521  0.5302 -0.8692  0.2025
 6942SOL    HW132462   0.650   3.741   9.529  1.4903 -1.7580 -2.3609
 6942SOL    HW232463   0.752   3.811   9.603 -0.0531 -0.6915  0.5767
 6943SOL     OW32464   2.525   4.322   7.800 -0.5305 -0.0508 -0.0142
 6943SOL    HW132465   2.444   4.371   7.818 -1.0133 -0.9131  0.1468
 6943SOL    HW232466   2.563   4.286   7.880 -0.4087 -1.9232 -0.9226
 6944SOL     OW32467   3.502   2.650  13.277 -0.3262 -0.0054  0.0542
 6944SOL    HW132468   3.498   2.746  13.280 -2.1457 -0.1104  0.5325
 6944SOL    HW232469   3.558   2.632  13.353  2.9666  1.0576 -2.1234
 6945SOL     OW32470   1.649   1.555   3.735  0.3222  0.0009  0.4015
 6945SOL    HW132471   1.737   1.519   3.745  1.0721  1.6814 -0.0650
 6945SOL    HW232472   1.662   1.623   3.669  2.4148 -0.2887  0.5230
 6946SOL     OW32473   2.154   0.011   4.437  0.2484 -0.3309 -0.1038
 6946SOL    HW132474   2.196   4.732   4.352 -0.4220 -1.5075 -0.2362
 6946SOL    HW232475   2.178   4.667   4.484 -1.0508 -1.1447 -0.8060
 6947SOL     OW32476   0.045   0.515   6.088 -0.0861 -0.4982  0.1848
 6947SOL    HW132477   0.086   0.431   6.070 -0.0810 -0.1002 -1.6597
 6947SOL    HW232478   0.115   0.580   6.088 -1.6960  1.2290 -1.2493
 6948SOL     OW32479   4.129   1.054   8.779 -0.1267  0.3487 -0.2048
 6948SOL    HW132480   4.059   1.008   8.734 -0.1209 -1.8035  1.9843
 6948SOL    HW232481   4.185   0.985   8.816 -1.8122  0.5268  2.7255
 6949SOL     OW32482   3.725   3.410   5.809 -0.4770  0.2446  0.1418
 6949SOL    HW132483   3.652   3.355   5.837 -0.0823 -0.2926  0.1144
 6949SOL    HW232484   3.737   3.368   5.723 -0.1062  1.2289 -0.2841
 6950SOL     OW32485   1.730   1.514   9.403  0.0109 -0.3904  0.0696
 6950SOL    HW132486   1.642   1.522   9.367  1.1275 -1.5715 -2.9433
 6950SOL    HW232487   1.703   1.477   9.487 -0.7561  0.0836  0.0348
 6951SOL     OW32488   2.250   0.710   3.091 -0.2906 -0.3374  0.0321
 6951SOL    HW132489   2.319   0.699   3.025 -0.8077  1.5335 -0.8007
 6951SOL    HW232490   2.302   0.745   3.164 -0.9682  1.5112 -0.3965
 6952SOL     OW32491   0.707   3.281   5.743 -0.2621 -0.4630  0.3050
 6952SOL    HW132492   0.674   3.214   5.803 -1.1522  1.7452  2.3003
 6952SOL    HW232493   0.789   3.303   5.786 -0.5169  2.6834 -0.8132
 6953SOL     OW32494   1.589   3.309   4.977  0.2410 -0.3398  0.2876
 6953SOL    HW132495   1.640   3.378   4.934 -1.7446 -1.2112 -3.4553
 6953SOL    HW232496   1.583   3.243   4.908  2.1272 -0.4329  0.2060
 6954SOL     OW32497   0.225   2.203  14.046  0.0307 -0.2833 -0.0129
 6954SOL    HW132498   0.200   2.291  14.074  0.6395  0.1579 -0.8592
 6954SOL    HW232499   0.243   2.168  14.133 -2.0648 -0.7237  0.2453
 6955SOL     OW32500   2.420   2.319   5.526  0.6977 -0.4980 -0.2341
 6955SOL    HW132501   2.452   2.312   5.615 -1.1500 -2.7117  0.2446
 6955SOL    HW232502   2.500   2.297   5.478 -0.5565  0.6599 -2.8479
 6956SOL     OW32503   0.997   2.263  11.482  0.9069  0.2677 -0.1726
 6956SOL    HW132504   1.069   2.278  11.422  0.5122 -0.1216 -0.7457
 6956SOL    HW232505   1.035   2.215  11.555  0.3056 -0.3252 -0.2399
 6957SOL     OW32506   2.951   1.580   7.492  0.4874 -0.0526  0.0012
 6957SOL    HW132507   2.911   1.639   7.555 -0.9848 -1.6385  0.5502
 6957SOL    HW232508   2.935   1.623   7.408 -1.4036 -1.8125 -0.5543
 6958SOL     OW32509   2.981   2.978  10.953 -0.6851  0.7649 -0.4471
 6958SOL    HW132510   3.001   2.887  10.977 -1.5989  1.0381  1.4108
 6958SOL    HW232511   3.055   3.006  10.901  1.1190 -0.9432  1.1771
 6959SOL     OW32512   4.311   3.155   6.855  0.1333  0.0992 -0.4002
 6959SOL    HW132513   4.231   3.204   6.838  0.5727  1.2947  1.0006
 6959SOL    HW232514   4.363   3.199   6.788 -0.8792  1.6017 -0.2024
 6960SOL     OW32515   2.299   1.513  16.343  0.1908 -0.4479 -0.4779
 6960SOL    HW132516   2.373   1.511  16.403 -0.6509  0.3013  0.5914
 6960SOL    HW232517   2.286   1.423  16.315 -1.5085  0.0899 -1.4118
 6961SOL     OW32518   0.831   1.822   0.522 -0.1519 -0.2420 -0.2469
 6961SOL    HW132519   0.806   1.769   0.597  1.2755  0.4894  0.7552
 6961SOL    HW232520   0.791   1.906   0.547 -1.9476 -0.1340 -3.4231
 6962SOL     OW32521   0.919   3.162  13.701  0.2002 -0.3993 -0.0271
 6962SOL    HW132522   0.951   3.202  13.782 -0.6810 -1.6646  0.9497
 6962SOL    HW232523   0.930   3.067  13.714  1.5207  0.0702  2.2341
 6963SOL     OW32524   2.898   4.692  16.028  0.2259  0.1130  0.9552
 6963SOL    HW132525   2.887   4.643  16.110 -1.0618  0.1883  0.8248
 6963SOL    HW232526   2.820   0.009  16.013 -0.3598 -0.3925  2.1903
 6964SOL     OW32527   3.730   3.629   5.479  0.0583 -0.0335  0.1717
 6964SOL    HW132528   3.729   3.686   5.402 -0.2312 -0.9471 -0.4986
 6964SOL    HW232529   3.822   3.605   5.487 -0.7517 -2.3480  2.3737
 6965SOL     OW32530   0.817   2.926   7.650  0.5447  0.2295  0.3445
 6965SOL    HW132531   0.779   3.012   7.666 -1.8405 -1.0417  1.5364
 6965SOL    HW232532   0.787   2.887   7.732 -1.1442 -2.1030 -1.3648
 6966SOL     OW32533   3.348   4.686   8.972  0.3880 -0.2839  0.2469
 6966SOL    HW132534   3.431   4.699   9.017  1.1929 -0.1221 -1.2848
 6966SOL    HW232535   3.370   4.663   8.882 -0.0508  2.2572 -0.5064
 6967SOL     OW32536   2.938   2.921   4.155  0.3702 -0.3727  0.0103
 6967SOL    HW132537   3.014   2.902   4.100  1.1565  1.9081  0.2891
 6967SOL    HW232538   2.982   2.956   4.233 -0.9565  0.8032  0.2282
 6968SOL     OW32539   0.299   0.706   3.930  0.1938 -0.5634 -0.4090
 6968SOL    HW132540   0.372   0.749   3.976 -0.3359  1.8902 -1.8526
 6968SOL    HW232541   0.293   0.622   3.975 -1.7202 -0.6593 -0.8753
 6969SOL     OW32542   2.250   3.676  15.342 -0.7140  0.5300  0.2994
 6969SOL    HW132543   2.161   3.642  15.334 -1.5091  3.1093 -1.6210
 6969SOL    HW232544   2.284   3.617  15.410 -0.3143  1.3423  0.7997
 6970SOL     OW32545   0.999   0.497   7.249  0.3774 -0.3173  0.0597
 6970SOL    HW132546   1.036   0.530   7.167  0.0711 -3.3984 -1.3121
 6970SOL    HW232547   1.063   0.532   7.311 -0.1695 -0.7956  0.8931
 6971SOL     OW32548   3.507   4.294   4.265  0.2126 -0.0470  0.1765
 6971SOL    HW132549   3.487   4.202   4.250 -2.1956  0.8256 -1.8852
 6971SOL    HW232550   3.592   4.274   4.304 -0.2755  1.1549  1.8718
 6972SOL     OW32551   1.813   0.176   8.964  0.0447  0.4015  0.0325
 6972SOL    HW132552   1.895   0.195   9.010 -0.5407 -1.5253  1.8888
 6972SOL    HW232553   1.810   0.082   8.943  0.6826  0.6053 -0.9795
 6973SOL     OW32554   0.555   0.057   5.798  0.4589  0.2360 -0.1641
 6973SOL    HW132555   0.521   0.056   5.887  3.9614 -3.9650  1.1504
 6973SOL    HW232556   0.477   0.018   5.757  0.2066  0.1784  0.3667
 6974SOL     OW32557   2.888   3.648   4.565 -0.5933  0.5460 -0.6957
 6974SOL    HW132558   2.846   3.638   4.480 -0.5024 -0.5725 -0.6142
 6974SOL    HW232559   2.865   3.564   4.605  0.0805  1.0164  0.6914
 6975SOL     OW32560   4.148   3.339   7.196  0.6203 -0.4309  0.5656
 6975SOL    HW132561   4.059   3.309   7.215  0.5484  0.9025  2.2922
 6975SOL    HW232562   4.145   3.417   7.251  2.6731 -0.1727  0.3231
 6976SOL     OW32563   2.987   4.029   9.566  0.1637 -0.2402 -0.1096
 6976SOL    HW132564   2.969   3.935   9.564 -2.0805  0.2500 -2.2852
 6976SOL    HW232565   3.052   4.035   9.636 -2.2465 -0.2287  2.1476
 6977SOL     OW32566   0.913   4.222   5.246  0.3637  0.8400  0.7790
 6977SOL    HW132567   0.980   4.289   5.259  0.7927  0.6573 -0.5107
 6977SOL    HW232568   0.836   4.268   5.279  0.7396  2.5068 -0.6825
 6978SOL     OW32569   2.569   0.512   1.857 -0.0419  0.2368 -0.0451
 6978SOL    HW132570   2.540   0.432   1.901 -1.2095 -0.4806 -2.1003
 6978SOL    HW232571   2.491   0.560   1.886  0.7241  1.7223 -0.4488
 6979SOL     OW32572   2.819   4.598   5.280 -0.2080  0.5879 -0.2597
 6979SOL    HW132573   2.891   4.574   5.220  0.5014  0.3313  0.6873
 6979SOL    HW232574   2.865   4.586   5.363  0.1977  0.0383 -0.5618
 6980SOL     OW32575   4.297   2.793   8.356 -0.3741  0.3672 -0.5429
 6980SOL    HW132576   4.328   2.735   8.425 -1.2301  0.7359  0.1457
 6980SOL    HW232577   4.242   2.851   8.409  1.6559 -0.3488  2.3601
 6981SOL     OW32578   3.351   0.002   1.874 -0.6794 -0.2574  0.0212
 6981SOL    HW132579   3.268   0.037   1.840 -0.2943  1.2780  0.6540
 6981SOL    HW232580   3.313   4.651   1.891 -2.1681  0.2936 -0.5114
 6982SOL     OW32581   0.883   1.149   6.668  0.7494  0.1114 -0.2815
 6982SOL    HW132582   0.808   1.119   6.615  0.5238 -0.9416  0.6345
 6982SOL    HW232583   0.958   1.123   6.614  1.1429 -0.1956  0.4192
 6983SOL     OW32584   1.041   1.484   7.831 -0.2227 -0.1803  0.2863
 6983SOL    HW132585   1.058   1.569   7.791 -1.1862  0.1939  0.6942
 6983SOL    HW232586   1.032   1.432   7.751 -0.7579  1.0366 -0.4535
 6984SOL     OW32587   0.949   1.930   1.692 -0.0629  0.3521  0.0416
 6984SOL    HW132588   0.921   2.016   1.659 -0.3438  0.0479 -0.4985
 6984SOL    HW232589   1.018   1.922   1.626 -2.3866  0.7696 -2.4228
 6985SOL     OW32590   0.278   4.054   6.077 -0.3596  0.2558  0.1006
 6985SOL    HW132591   0.217   3.980   6.077 -1.0624  0.8104 -2.0278
 6985SOL    HW232592   0.364   4.013   6.083 -0.3450  0.7459  2.8859
 6986SOL     OW32593   3.210   2.790   5.171 -0.1822  0.4864  0.3601
 6986SOL    HW132594   3.274   2.735   5.216 -0.0560  0.2985 -0.0436
 6986SOL    HW232595   3.235   2.774   5.079 -0.5070  1.3811  0.1195
 6987SOL     OW32596   3.305   1.430   3.357 -0.0371 -0.1198 -0.1640
 6987SOL    HW132597   3.354   1.475   3.426 -1.5672 -0.3376  1.0862
 6987SOL    HW232598   3.235   1.494   3.340  1.8916  1.3808 -2.4152
 6988SOL     OW32599   2.251   3.651   9.715  0.4906 -0.0244 -0.2923
 6988SOL    HW132600   2.206   3.735   9.705  2.6887  1.2803  0.6055
 6988SOL    HW232601   2.180   3.595   9.746  0.6755  0.6933  1.4433
 6989SOL     OW32602   3.230   1.737   9.441  0.4752 -0.2984  0.3141
 6989SOL    HW132603   3.145   1.698   9.422  0.7532 -0.3219 -0.9132
 6989SOL    HW232604   3.269   1.695   9.364  1.0193 -0.1605  0.5161
 6990SOL     OW32605   3.197   3.143  11.328  0.5205  0.1659  0.0326
 6990SOL    HW132606   3.252   3.113  11.401  0.3505  2.1131  0.9564
 6990SOL    HW232607   3.126   3.080  11.314 -1.1482  2.0655 -0.1441
 6991SOL     OW32608   4.437   3.055   8.785 -0.0822 -0.0671  0.1101
 6991SOL    HW132609   4.411   2.971   8.823  0.3164 -0.8132 -1.2926
 6991SOL    HW232610   4.352   3.099   8.778 -0.0364 -0.3259 -1.9890
 6992SOL     OW32611   3.864   2.899   6.743  0.0955 -0.4083  0.1164
 6992SOL    HW132612   3.948   2.855   6.733 -0.8225 -2.3530  1.0788
 6992SOL    HW232613   3.867   2.945   6.659  0.0619 -1.3659 -0.3995
 6993SOL     OW32614   4.411   4.443   5.017  0.4252 -0.7057  0.1861
 6993SOL    HW132615   4.441   4.534   5.019  1.1997 -0.9607  0.1655
 6993SOL    HW232616   4.486   4.398   5.056 -0.6942  1.9010  5.3447
 6994SOL     OW32617   2.889   4.224   8.692  0.1323 -0.5114  0.5203
 6994SOL    HW132618   2.866   4.316   8.708 -0.6052 -0.5812 -0.1427
 6994SOL    HW232619   2.941   4.200   8.769  2.1026  0.2401 -0.5729
 6995SOL     OW32620   4.633   3.746   5.017 -0.2306  0.5696 -0.1119
 6995SOL    HW132621   4.709   3.718   4.966  0.6831 -0.0053  1.5813
 6995SOL    HW232622   4.647   3.708   5.103  1.3940  0.8274 -0.2690
 6996SOL     OW32623   1.301   0.309   8.970  0.6631  0.0063  0.6301
 6996SOL    HW132624   1.347   0.378   9.019 -1.8873  1.8985  0.3946
 6996SOL    HW232625   1.364   0.239   8.982  1.3319 -0.0761 -3.2863
 6997SOL     OW32626   1.245   3.242   8.147 -0.3930  0.3883 -0.8013
 6997SOL    HW132627   1.210   3.300   8.215  1.1113  0.6482 -0.2454
 6997SOL    HW232628   1.333   3.222   8.178  0.5023  2.5568 -1.9041
 6998SOL     OW32629   0.174   1.779   4.664  0.8568 -0.2955 -0.3206
 6998SOL    HW132630   0.249   1.746   4.615  1.0670  1.8388 -1.4435
 6998SOL    HW232631   0.108   1.779   4.595  0.7540 -2.7325 -0.1984
 6999SOL     OW32632   4.128   1.238  16.366 -0.2336  0.6852  0.0845
 6999SOL    HW132633   4.071   1.180  16.316  0.9597  0.1749 -0.6818
 6999SOL    HW232634   4.120   1.322  16.321 -0.0548  1.0258  0.6832
 7000SOL     OW32635   2.087   0.698  10.063 -0.2302  0.7287 -0.0841
 7000SOL    HW132636   2.053   0.736  10.145  0.9755  1.1250  0.2381
 7000SOL    HW232637   2.180   0.690  10.085  0.1908  0.6357 -1.8993
 7001SOL     OW32638   4.458   1.622  17.441 -0.2945  0.6175 -0.3019
 7001SOL    HW132639   4.379   1.627  17.494 -0.0422  0.8714  0.0473
 7001SOL    HW232640   4.453   1.547  17.382  0.5616  0.6908 -0.4661
 7002SOL     OW32641   1.445   4.383   4.659  0.0753  0.2357 -1.2943
 7002SOL    HW132642   1.364   4.358   4.702  0.2504  2.7592  0.4764
 7002SOL    HW232643   1.421   4.378   4.566 -0.7768 -2.0278 -0.9580
 7003SOL     OW32644   0.262   2.173   6.093  0.1087 -0.4553 -0.8950
 7003SOL    HW132645   0.181   2.207   6.054  0.1589  1.3944  0.6139
 7003SOL    HW232646   0.316   2.154   6.016 -1.7365  0.5827 -2.4599
 7004SOL     OW32647   0.335   2.710   6.521 -0.2154  0.5612  0.0511
 7004SOL    HW132648   0.395   2.663   6.580  0.1249  0.6403 -0.2321
 7004SOL    HW232649   0.248   2.675   6.538 -1.0048  1.7915 -1.5716
 7005SOL     OW32650   1.485   0.003   7.525  0.4111  0.0200  0.4593
 7005SOL    HW132651   1.447   0.074   7.576 -1.5991 -1.0428  0.4409
 7005SOL    HW232652   1.427   0.009   7.449  1.0016  0.0811  0.0160
 7006SOL     OW32653   2.672   1.878   0.616  0.1650 -0.1123  0.2481
 7006SOL    HW132654   2.722   1.958   0.598  0.8838 -0.7112 -0.4260
 7006SOL    HW232655   2.586   1.916   0.633  0.8421  0.8747  1.5002
 7007SOL     OW32656   3.122   1.048  13.120  0.1188  0.0727 -0.2317
 7007SOL    HW132657   3.061   1.030  13.191 -4.9094  2.2086 -3.9676
 7007SOL    HW232658   3.139   1.139  13.145  1.6526  0.3212 -2.1834
 7008SOL     OW32659   0.948   1.397   4.653  0.0195  0.1823 -0.3983
 7008SOL    HW132660   0.985   1.480   4.682  0.2980 -0.6052  1.5616
 7008SOL    HW232661   0.947   1.351   4.738 -2.0604  0.8890 -0.0532
 7009SOL     OW32662   2.519   2.949   6.195  0.3998  0.1914  0.8180
 7009SOL    HW132663   2.606   2.937   6.158  0.1831 -0.1691  0.4325
 7009SOL    HW232664   2.465   2.942   6.116 -0.7156  2.4899  1.3546
 7010SOL     OW32665   0.763   2.479   6.077 -0.4861 -0.5626  0.1250
 7010SOL    HW132666   0.735   2.450   5.991 -1.2188 -0.8508  0.4653
 7010SOL    HW232667   0.686   2.531   6.098 -0.8003 -0.4554 -1.3245
 7011SOL     OW32668   0.096   3.271   7.449  1.0343 -0.3359 -0.2256
 7011SOL    HW132669   0.154   3.207   7.489  0.2619  0.6675  2.4735
 7011SOL    HW232670   0.027   3.286   7.513  2.4303 -2.5191  1.7657
 7012SOL     OW32671   1.125   0.616   7.863  0.1475  0.1305  0.5157
 7012SOL    HW132672   1.175   0.688   7.902 -0.3135  0.3139  0.7646
 7012SOL    HW232673   1.097   0.567   7.940 -2.2735 -0.4933 -0.7574
 7013SOL     OW32674   2.605   4.318   0.724 -0.5483 -0.2387  0.5011
 7013SOL    HW132675   2.623   4.410   0.742 -1.2038 -0.1280  0.6061
 7013SOL    HW232676   2.524   4.318   0.673 -0.1967  0.6619 -0.0644
 7014SOL     OW32677   4.223   3.099  10.210  0.1509  0.4556  0.7586
 7014SOL    HW132678   4.188   3.136  10.129 -0.1348 -2.2567 -0.3710
 7014SOL    HW232679   4.210   3.004  10.205  0.2945  0.4678  0.0778
 7015SOL     OW32680   3.299   1.267   0.630  0.8538 -0.7551  0.0395
 7015SOL    HW132681   3.390   1.263   0.659  0.6766 -1.9626  0.4138
 7015SOL    HW232682   3.255   1.232   0.708 -0.0152  0.8980  0.3126
 7016SOL     OW32683   2.020   4.471   8.689  0.3726 -0.2888  0.2041
 7016SOL    HW132684   1.983   4.383   8.689 -2.8522  1.0710  2.1150
 7016SOL    HW232685   1.976   4.506   8.612  1.0532  1.0819  0.4340
 7017SOL     OW32686   2.363   1.926   8.612  0.0232 -0.3217  0.2151
 7017SOL    HW132687   2.433   1.958   8.669  0.1745 -1.0017  0.4133
 7017SOL    HW232688   2.354   1.831   8.619  0.3106 -0.2899  1.0798
 7018SOL     OW32689   0.910   2.097   4.724  1.2445 -0.4211 -0.4691
 7018SOL    HW132690   0.979   2.162   4.743  0.9004 -0.0278 -0.5652
 7018SOL    HW232691   0.854   2.149   4.667  0.4629  0.9399  1.5343
 7019SOL     OW32692   2.263   1.591   6.194  0.7638 -0.0319 -0.2035
 7019SOL    HW132693   2.341   1.639   6.167 -0.0961  2.0646  1.0554
 7019SOL    HW232694   2.199   1.629   6.134 -1.9002  0.1673  2.7640
 7020SOL     OW32695   1.486   0.783   4.217 -0.1155 -0.2937  0.9014
 7020SOL    HW132696   1.436   0.744   4.289 -1.0853 -0.0374  0.3675
 7020SOL    HW232697   1.529   0.859   4.255 -3.2875  1.7545  0.4034
 7021SOL     OW32698   4.319   2.718   2.911  0.2255 -0.0594 -0.2639
 7021SOL    HW132699   4.398   2.757   2.950  0.8378  0.6911 -2.2293
 7021SOL    HW232700   4.365   2.654   2.856  0.3126  1.2264 -1.6853
 7022SOL     OW32701   4.135   2.497   2.963  0.2697  0.0591  0.0836
 7022SOL    HW132702   4.058   2.443   2.979  0.0424  0.7839  1.5009
 7022SOL    HW232703   4.164   2.509   3.054 -1.6408 -1.1633  0.8578
 7023SOL     OW32704   3.497   2.158  10.677 -0.1003  0.4477  0.1052
 7023SOL    HW132705   3.542   2.236  10.707 -0.1458  0.6463 -0.3510
 7023SOL    HW232706   3.520   2.101  10.751 -1.0303  0.0208  0.0703
 7024SOL     OW32707   4.341   0.160   5.583 -0.3580  0.0631 -0.1509
 7024SOL    HW132708   4.267   0.126   5.632  0.0537  0.5640  0.8145
 7024SOL    HW232709   4.303   0.183   5.499  0.2967 -3.1070 -1.3044
 7025SOL     OW32710   2.572   3.501   9.235  0.1449  0.3238  0.7498
 7025SOL    HW132711   2.570   3.531   9.144  2.2835 -2.6196 -0.2600
 7025SOL    HW232712   2.523   3.573   9.275 -2.6660 -0.4202 -1.3418
 7026SOL     OW32713   2.616   1.076   7.422  0.2521 -0.0101 -0.3460
 7026SOL    HW132714   2.583   0.991   7.393  2.6858 -0.5719 -1.4503
 7026SOL    HW232715   2.702   1.049   7.453  0.0635  0.1820  0.3616
 7027SOL     OW32716   0.516   0.449   7.896  0.1672 -0.1855  0.3143
 7027SOL    HW132717   0.429   0.443   7.856  0.2026 -1.2442  0.4033
 7027SOL    HW232718   0.546   0.358   7.892  0.4786 -0.0848  0.3499
 7028SOL     OW32719   2.923   1.290   3.290  0.1615  0.2135 -0.1954
 7028SOL    HW132720   2.831   1.263   3.283  0.2005 -0.6761  2.7418
 7028SOL    HW232721   2.938   1.316   3.199  0.9557  0.2973 -0.0361
 7029SOL     OW32722   3.991   3.583   3.717  0.1328  0.0884 -0.5401
 7029SOL    HW132723   4.050   3.511   3.694 -0.6086 -1.3164  1.9634
 7029SOL    HW232724   4.019   3.589   3.808  0.3098  0.0039 -0.5884
 7030SOL     OW32725   2.841   3.707   0.493 -0.0153 -0.3298 -0.1033
 7030SOL    HW132726   2.846   3.672   0.582 -0.9304  0.6004  0.3172
 7030SOL    HW232727   2.802   3.633   0.447 -0.0269  0.8264 -1.9669
 7031SOL     OW32728   0.181   3.562   0.535  0.6171 -0.0335 -0.2853
 7031SOL    HW132729   0.180   3.485   0.478 -1.9787 -0.4671  0.3314
 7031SOL    HW232730   0.243   3.531   0.601 -0.7734  3.0802  2.4646
 7032SOL     OW32731   2.537   0.631   6.671 -0.2059 -0.0482 -0.1887
 7032SOL    HW132732   2.552   0.570   6.743  0.3413  0.0580 -0.2117
 7032SOL    HW232733   2.509   0.710   6.719 -0.2131 -0.0892 -0.1246
 7033SOL     OW32734   1.669   3.908   7.598  0.0212 -0.0782 -0.4663
 7033SOL    HW132735   1.630   3.821   7.590 -2.6372  0.8534  2.3057
 7033SOL    HW232736   1.755   3.898   7.639  0.5912 -2.6385 -2.3123
 7034SOL     OW32737   2.495   3.215   7.983  0.1490 -0.2367 -0.4789
 7034SOL    HW132738   2.421   3.238   7.928  1.2634 -0.0487 -1.9126
 7034SOL    HW232739   2.542   3.298   7.976  1.0596 -0.7901 -0.9222
 7035SOL     OW32740   4.072   4.162   5.587 -0.3152  0.5026  0.3703
 7035SOL    HW132741   4.043   4.253   5.595 -0.4009  0.2235  3.1841
 7035SOL    HW232742   4.016   4.121   5.520  0.7786  1.8282 -1.3600
 7036SOL     OW32743   0.154   3.457   3.206 -0.3838  0.0120  0.4333
 7036SOL    HW132744   0.212   3.533   3.209 -1.7924  1.1563 -0.9271
 7036SOL    HW232745   0.070   3.498   3.231  0.4861  0.0509  3.3047
 7037SOL     OW32746   0.052   0.555   8.058 -0.0765  0.4427 -0.1506
 7037SOL    HW132747   4.694   0.570   8.043  0.0147 -0.7425 -1.7847
 7037SOL    HW232748   0.055   0.466   8.091  1.2848  0.1012 -1.2478
 7038SOL     OW32749   2.590   1.375   5.111 -0.6730  0.2955  0.4095
 7038SOL    HW132750   2.678   1.398   5.142 -0.9880  0.3799  1.2349
 7038SOL    HW232751   2.540   1.363   5.191 -1.4811  0.2403 -0.1124
 7039SOL     OW32752   0.026   0.024   4.621 -0.2049 -0.3375  0.5049
 7039SOL    HW132753   4.705   0.080   4.568  0.1730 -1.3408 -0.9772
 7039SOL    HW232754   4.699   4.689   4.640 -0.9483  0.3038  0.4065
 7040SOL     OW32755   4.332   2.033   1.890 -0.1695 -0.4011 -0.0894
 7040SOL    HW132756   4.298   2.116   1.857 -1.4032 -0.9972 -0.3146
 7040SOL    HW232757   4.326   1.971   1.817 -0.0208 -1.4205  0.7624
 7041SOL     OW32758   3.250   4.686   5.635  0.3293 -0.4816 -0.2465
 7041SOL    HW132759   3.192   0.025   5.616  1.8790  1.1181  1.1606
 7041SOL    HW232760   3.240   4.628   5.561 -0.4942 -1.5808  0.7329
 7042SOL     OW32761   3.175   2.776  11.503 -0.0007  0.2280 -0.2744
 7042SOL    HW132762   3.130   2.799  11.422  1.5462  1.5081 -0.7831
 7042SOL    HW232763   3.103   2.757  11.563  0.7327 -0.6566  0.3189
 7043SOL     OW32764   3.916   3.303   2.317  0.2668 -0.1928  1.0604
 7043SOL    HW132765   3.836   3.263   2.284  0.3832 -0.6560  1.3418
 7043SOL    HW232766   3.895   3.395   2.335  0.4489  0.2364 -0.9077
 7044SOL     OW32767   3.610   2.518   3.456 -0.2016 -0.7239  0.3176
 7044SOL    HW132768   3.611   2.448   3.520 -0.3006 -2.1800 -1.2717
 7044SOL    HW232769   3.692   2.561   3.479  0.3960 -1.3170 -0.7129
 7045SOL     OW32770   3.698   3.614   1.860  0.5252 -0.0024  0.2159
 7045SOL    HW132771   3.720   3.599   1.769  1.0153 -1.4181  0.5704
 7045SOL    HW232772   3.666   3.525   1.875 -2.8800  0.9995 -1.2459
 7046SOL     OW32773   1.271   1.981   0.372  0.3190 -0.3849 -0.3243
 7046SOL    HW132774   1.214   1.972   0.448  0.6255 -2.4135 -0.3385
 7046SOL    HW232775   1.303   2.070   0.380 -2.2676  0.5623 -0.5120
 7047SOL     OW32776   3.114   2.267  14.164 -0.4911 -0.1519  0.1050
 7047SOL    HW132777   3.204   2.291  14.185 -0.9882  0.4804  1.5587
 7047SOL    HW232778   3.121   2.185  14.115 -0.4085 -0.3324  0.4174
 7048SOL     OW32779   2.616   3.020  10.951 -0.1602  0.7753  0.7862
 7048SOL    HW132780   2.645   3.102  10.912 -1.0776  1.5336  1.7128
 7048SOL    HW232781   2.649   3.018  11.040 -1.3359 -2.6743  1.1755
 7049SOL     OW32782   0.676   1.985   6.561 -0.4114  0.3844 -0.0107
 7049SOL    HW132783   0.724   1.936   6.494  2.4133 -1.3556  3.3299
 7049SOL    HW232784   0.740   2.045   6.597 -0.7445  0.8372 -0.1715
 7050SOL     OW32785   0.202   3.692   8.403 -0.0190 -0.7889 -0.3054
 7050SOL    HW132786   0.193   3.786   8.416 -0.4330 -0.8255 -0.3401
 7050SOL    HW232787   0.265   3.694   8.330  0.0145  1.5071 -0.2295
 7051SOL     OW32788   4.066   1.829   4.945 -0.1357  0.3582  0.2394
 7051SOL    HW132789   4.098   1.916   4.922 -2.7283  0.9257 -1.1071
 7051SOL    HW232790   4.070   1.790   4.858 -0.4443  0.5367  0.1455
 7052SOL     OW32791   4.694   3.254   9.173  0.2889  0.1819 -0.2898
 7052SOL    HW132792   4.609   3.290   9.148 -0.2927 -0.2824  1.0288
 7052SOL    HW232793   4.695   3.284   9.263 -1.3228  0.8038 -0.4863
 7053SOL     OW32794   0.757   2.308   9.087 -0.3094  0.3434  0.4364
 7053SOL    HW132795   0.823   2.287   9.021  1.3448 -0.7346  2.4312
 7053SOL    HW232796   0.679   2.255   9.068 -0.0371  0.6050 -1.3457
 7054SOL     OW32797   2.481   2.988   9.596  0.0454 -0.5055 -0.6724
 7054SOL    HW132798   2.576   2.996   9.599 -0.1712  1.5111  0.3349
 7054SOL    HW232799   2.477   3.003   9.502  1.7003 -0.8231 -0.7907
 7055SOL     OW32800   0.206   1.362   3.432 -0.1894  0.1488 -0.6995
 7055SOL    HW132801   0.120   1.404   3.427  0.1416  1.0340  1.1595
 7055SOL    HW232802   0.233   1.382   3.342  0.0139 -0.3123 -0.7426
 7056SOL     OW32803   2.466   4.610   1.298 -0.0542  0.0268  0.3563
 7056SOL    HW132804   2.427   4.664   1.367 -0.1348  0.9461 -0.4021
 7056SOL    HW232805   2.484   4.685   1.241 -0.5845  0.3838  0.6503
 7057SOL     OW32806   2.678   1.934  14.716 -0.2185  0.0480 -0.1855
 7057SOL    HW132807   2.583   1.937  14.707 -0.2304 -0.0169 -0.0928
 7057SOL    HW232808   2.711   2.016  14.679  1.3322 -0.3680  0.2471
 7058SOL     OW32809   1.717   1.459  15.283  0.1833  0.5336 -0.4059
 7058SOL    HW132810   1.694   1.545  15.249  0.1565  0.0345 -1.6684
 7058SOL    HW232811   1.687   1.399  15.214 -1.4002  2.4703 -1.3951
 7059SOL     OW32812   1.332   1.908   6.010 -0.5262  0.4516  0.4582
 7059SOL    HW132813   1.328   1.862   6.094  1.8886 -0.6140 -0.0063
 7059SOL    HW232814   1.406   1.968   6.022 -0.0783  0.4824 -2.5247
 7060SOL     OW32815   0.998   0.882   5.870 -0.3835 -0.3736  0.7386
 7060SOL    HW132816   0.991   0.879   5.965  1.8153  0.3115  0.9333
 7060SOL    HW232817   0.907   0.867   5.846  0.1656 -2.6708  0.0915
 7061SOL     OW32818   1.748   1.289   5.007  0.1728  0.3573  0.0607
 7061SOL    HW132819   1.831   1.296   4.960  0.6278  2.3670  1.1719
 7061SOL    HW232820   1.689   1.258   4.939 -1.8771  0.1640  1.9094
 7062SOL     OW32821   1.603   4.107   2.300 -0.1750 -0.8890  0.0883
 7062SOL    HW132822   1.531   4.115   2.363  0.0818 -0.2530  0.3062
 7062SOL    HW232823   1.554   4.134   2.222  0.6004  0.7266  0.1469
 7063SOL     OW32824   3.917   2.943   2.411 -0.1949  0.0925 -0.3730
 7063SOL    HW132825   3.880   3.019   2.454 -1.9819 -0.3500 -1.1352
 7063SOL    HW232826   3.896   2.877   2.477 -1.7258  0.3381 -0.6092
 7064SOL     OW32827   1.240   1.173   0.151 -0.0974 -0.5255 -0.5016
 7064SOL    HW132828   1.190   1.229   0.210  0.6086  0.1167 -0.5244
 7064SOL    HW232829   1.222   1.222   0.071 -1.7565  1.3991  1.0644
 7065SOL     OW32830   2.385   3.130   7.621  0.2394  0.0994 -0.4642
 7065SOL    HW132831   2.382   3.058   7.684 -0.1150  1.1975  0.7540
 7065SOL    HW232832   2.476   3.141   7.594  1.1096 -1.2339  1.9373
 7066SOL     OW32833   1.771   2.379   7.562 -0.3665 -0.1047 -0.2020
 7066SOL    HW132834   1.808   2.456   7.520  0.3406 -0.1849  0.2746
 7066SOL    HW232835   1.846   2.323   7.545 -1.0875 -1.6938  1.8548
 7067SOL     OW32836   0.977   1.623   2.316  0.1794  0.5399 -0.0713
 7067SOL    HW132837   0.936   1.554   2.368  1.8261  1.7811  2.8883
 7067SOL    HW232838   0.988   1.568   2.239 -0.4583 -0.7052  0.7189
 7068SOL     OW32839   0.676   1.817  13.367  0.5174 -0.4604  0.0284
 7068SOL    HW132840   0.754   1.829  13.312  0.6409 -2.8834 -0.3306
 7068SOL    HW232841   0.630   1.762  13.302  0.9663 -0.5764 -0.1920
 7069SOL     OW32842   4.661   1.541   7.471 -0.0535 -0.2427  0.3298
 7069SOL    HW132843   4.733   1.492   7.431  0.4418 -0.3910  1.3831
 7069SOL    HW232844   4.709   1.621   7.491  0.4501 -1.1423  2.7732
 7070SOL     OW32845   2.319   1.103  15.380  0.6591 -0.4744 -0.2120
 7070SOL    HW132846   2.407   1.092  15.343  0.6802  1.0799 -0.6382
 7070SOL    HW232847   2.336   1.195  15.402  0.4185  0.2309 -2.9526
 7071SOL     OW32848   3.048   3.408   9.916  0.1478  0.0582  0.3416
 7071SOL    HW132849   3.091   3.352   9.981  0.6171  0.4143  0.3378
 7071SOL    HW232850   2.963   3.364   9.910 -0.4109  1.1351  0.4432
 7072SOL     OW32851   3.830   3.024   8.258  0.4377 -0.0128  0.3820
 7072SOL    HW132852   3.779   2.945   8.274 -0.6804  0.8687  1.1243
 7072SOL    HW232853   3.808   3.048   8.168 -2.5173 -0.8101  0.8916
 7073SOL     OW32854   2.260   0.694  16.341  0.5266 -0.0500 -0.3038
 7073SOL    HW132855   2.244   0.614  16.390  3.5216 -1.2886 -1.3810
 7073SOL    HW232856   2.251   0.759  16.410 -1.8749 -1.9331  1.1532
 7074SOL     OW32857   0.415   0.016   3.269  0.1123 -0.0007  0.6207
 7074SOL    HW132858   0.382   0.070   3.198  0.7858  1.1264  1.1800
 7074SOL    HW232859   0.455   4.679   3.221  0.2601 -1.0567  2.3394
 7075SOL     OW32860   2.330   3.863  16.769  0.1995  0.1126 -0.3295
 7075SOL    HW132861   2.363   3.776  16.747  0.9252  0.3131 -0.0345
 7075SOL    HW232862   2.237   3.849  16.756  0.0154  1.0802 -0.0389
 7076SOL     OW32863   2.528   2.914  17.036  0.0710 -0.2202 -0.4146
 7076SOL    HW132864   2.603   2.954  17.078 -0.2619  1.7171 -1.6684
 7076SOL    HW232865   2.560   2.828  17.011  1.9314  0.6464 -0.9997
 7077SOL     OW32866   3.102   2.633   4.140 -0.0405 -0.2770  0.0600
 7077SOL    HW132867   3.156   2.661   4.214  0.0648 -0.3737  0.0203
 7077SOL    HW232868   3.128   2.685   4.064  1.4009  1.2510  1.6035
 7078SOL     OW32869   1.493   3.159   6.098 -0.0855  0.0665 -0.0077
 7078SOL    HW132870   1.466   3.131   6.185 -2.7190  1.7679 -0.2990
 7078SOL    HW232871   1.462   3.249   6.108 -4.2693 -1.4226  0.4644
 7079SOL     OW32872   2.238   2.472   7.169  0.5370  0.1203  0.2284
 7079SOL    HW132873   2.172   2.447   7.104  1.1984 -2.0730  0.4166
 7079SOL    HW232874   2.278   2.387   7.188  3.0087  1.7677  2.2366
 7080SOL     OW32875   2.670   3.138  10.223  0.0524  0.1865 -0.3029
 7080SOL    HW132876   2.633   3.112  10.138 -0.9836 -0.3715  0.3222
 7080SOL    HW232877   2.625   3.221  10.241  1.7648  0.3760  3.0302
 7081SOL     OW32878   2.315   2.607   6.124  0.1213  0.6112 -0.2607
 7081SOL    HW132879   2.307   2.672   6.054  0.4229 -0.4778 -1.3226
 7081SOL    HW232880   2.316   2.526   6.073 -1.3665  1.2379 -1.2974
 7082SOL     OW32881   2.100   2.968   7.602 -0.4211 -0.4718  0.5748
 7082SOL    HW132882   2.194   2.957   7.613 -0.2350  1.0139  0.5428
 7082SOL    HW232883   2.065   2.952   7.690 -2.0531 -1.1470 -0.1907
 7083SOL     OW32884   1.665   1.570   6.153  0.2211  0.4575  0.0416
 7083SOL    HW132885   1.745   1.622   6.153 -0.2814  1.2296  3.2167
 7083SOL    HW232886   1.686   1.503   6.088 -1.4650 -0.1189  0.0897
 7084SOL     OW32887   3.526   4.036  10.206 -0.1316 -0.0743 -0.6390
 7084SOL    HW132888   3.495   4.075  10.124  1.4849 -0.3099 -1.3667
 7084SOL    HW232889   3.539   4.112  10.264 -0.9025  0.7802 -1.5865
 7085SOL     OW32890   1.636   2.105   1.032 -0.0492  0.3649 -0.4698
 7085SOL    HW132891   1.655   2.023   1.077  0.6544  1.1543  0.6649
 7085SOL    HW232892   1.577   2.150   1.093 -1.0062 -1.3732 -0.1127
 7086SOL     OW32893   4.290   0.388  16.558  1.1389 -0.4537 -0.0055
 7086SOL    HW132894   4.324   0.321  16.617 -0.7189  0.2769  1.8972
 7086SOL    HW232895   4.366   0.444  16.547  0.2224  1.2750  2.5060
 7087SOL     OW32896   4.707   4.564   6.097  0.5272  0.0506 -0.0718
 7087SOL    HW132897   0.005   4.607   6.175 -0.4783 -0.5293  0.6725
 7087SOL    HW232898   4.717   4.633   6.031  1.0424 -1.0814 -1.1975
 7088SOL     OW32899   0.530   0.589   8.413 -0.6638  0.0980  0.1242
 7088SOL    HW132900   0.469   0.578   8.339 -0.9026 -0.3519  0.3891
 7088SOL    HW232901   0.477   0.659   8.450  0.4590  0.3565  1.2384
 7089SOL     OW32902   3.356   1.673   4.305  0.2157  0.1359  0.3779
 7089SOL    HW132903   3.390   1.644   4.221  0.0026  0.7270  0.0856
 7089SOL    HW232904   3.326   1.763   4.290 -0.1645 -0.2597 -1.2029
 7090SOL     OW32905   2.522   4.411   6.430  0.0835  0.4228 -0.5848
 7090SOL    HW132906   2.573   4.417   6.350 -0.8278 -1.2245 -1.2951
 7090SOL    HW232907   2.453   4.356   6.393  0.2552  1.1013 -1.9053
 7091SOL     OW32908   0.130   2.049   4.681 -0.7762 -0.3089  0.6126
 7091SOL    HW132909   0.151   1.956   4.671  0.3144  0.1032 -0.9228
 7091SOL    HW232910   0.062   2.056   4.614  0.5159  0.2063 -0.6393
 7092SOL     OW32911   2.681   1.550   0.050 -0.8526  0.1742  0.2679
 7092SOL    HW132912   2.619   1.612   0.013 -2.5427 -1.3681  0.5081
 7092SOL    HW232913   2.760   1.604   0.042 -0.9560  0.5842  1.9185
 7093SOL     OW32914   4.172   0.887  12.055 -0.4102  0.6451 -0.1478
 7093SOL    HW132915   4.098   0.920  12.003  1.4687  5.0701 -0.0517
 7093SOL    HW232916   4.213   0.972  12.075  0.9777  0.1785 -1.0073
 7094SOL     OW32917   1.424   4.617   5.590  0.1683  0.0228 -0.5871
 7094SOL    HW132918   1.451   4.572   5.510  2.0180 -1.2009  0.7457
 7094SOL    HW232919   1.484   4.691   5.589  1.4549 -0.9970  1.0661
 7095SOL     OW32920   4.321   1.313   8.462  0.4369 -0.0262  0.8489
 7095SOL    HW132921   4.414   1.322   8.443  0.0760 -1.0732 -1.4657
 7095SOL    HW232922   4.293   1.288   8.374  1.3391  2.2962 -0.1009
 7096SOL     OW32923   1.473   3.066   4.496  0.0542 -0.2416  0.5764
 7096SOL    HW132924   1.552   3.111   4.527  0.7671 -1.5364  0.6746
 7096SOL    HW232925   1.421   3.090   4.573  0.2187 -0.1652  0.6644
 7097SOL     OW32926   1.821   1.230   0.596 -0.4324 -0.1204  0.2058
 7097SOL    HW132927   1.874   1.310   0.594 -0.8224  0.1075 -1.1317
 7097SOL    HW232928   1.801   1.222   0.689 -1.3969 -1.4513 -0.1243
 7098SOL     OW32929   3.898   3.160  11.889  0.2506  0.2837  0.4085
 7098SOL    HW132930   3.968   3.213  11.928  1.7549 -1.1447 -0.3175
 7098SOL    HW232931   3.850   3.228  11.842 -0.6002  0.5486  1.6446
 7099SOL     OW32932   3.914   0.863  16.371 -0.7153 -0.0115 -0.2877
 7099SOL    HW132933   3.908   0.838  16.463 -0.2630  1.8265  0.2414
 7099SOL    HW232934   3.824   0.878  16.342 -1.3189 -0.9793  1.0985
 7100SOL     OW32935   4.033   1.786   3.097  0.4508  0.2782 -0.9071
 7100SOL    HW132936   4.000   1.711   3.047  1.3085  0.1609 -1.2930
 7100SOL    HW232937   3.985   1.860   3.060 -0.5735  0.9069  1.6719
 7101SOL     OW32938   3.676   1.077   0.661  0.3639 -0.2246  0.3185
 7101SOL    HW132939   3.633   1.099   0.744 -0.7452  1.5116 -0.7287
 7101SOL    HW232940   3.603   1.079   0.601  0.2861 -0.8106  0.3953
 7102SOL     OW32941   2.760   2.021   2.201  0.5291  0.6549  0.3348
 7102SOL    HW132942   2.809   1.950   2.241  1.2458  0.5209 -0.7850
 7102SOL    HW232943   2.740   2.080   2.274 -0.6363  0.9540 -0.2285
 7103SOL     OW32944   0.982   3.243   0.071  0.1312 -0.3219  0.3396
 7103SOL    HW132945   1.053   3.274   0.015  0.4320 -0.8574  0.4216
 7103SOL    HW232946   0.972   3.320   0.127  1.2324 -0.7712  1.1514
 7104SOL     OW32947   4.058   2.280   8.901  0.1534 -0.2603 -0.4589
 7104SOL    HW132948   3.992   2.266   8.969  0.4252  0.0752 -0.1266
 7104SOL    HW232949   4.041   2.195   8.861 -0.6467 -1.0113  1.5081
 7105SOL     OW32950   3.443   3.221  11.106  0.5524 -0.0620  0.5697
 7105SOL    HW132951   3.489   3.219  11.191 -2.0864  0.7575  2.0206
 7105SOL    HW232952   3.497   3.271  11.044  1.1122 -2.4179 -0.8361
 7106SOL     OW32953   4.334   4.337   6.848 -0.1018 -0.1781 -0.4736
 7106SOL    HW132954   4.280   4.411   6.875  0.6181  0.3994 -0.6086
 7106SOL    HW232955   4.275   4.274   6.807  1.3324 -3.5644  2.6155
 7107SOL     OW32956   4.182   2.985   8.488 -0.4474  0.1232 -0.0965
 7107SOL    HW132957   4.200   3.002   8.580  2.9824 -1.2417 -0.5222
 7107SOL    HW232958   4.147   3.070   8.461 -1.4396 -0.7991 -1.7619
 7108SOL     OW32959   2.150   3.344  17.568  0.5482 -0.3432 -0.2347
 7108SOL    HW132960   2.241   3.373  17.575 -0.2253  1.7020  1.5225
 7108SOL    HW232961   2.155   3.291  17.648  2.1795  0.4857  0.2319
 7109SOL     OW32962   0.795   1.019   6.893  0.0091 -0.0765 -0.8498
 7109SOL    HW132963   0.751   1.099   6.922  0.4404 -0.6050  1.2327
 7109SOL    HW232964   0.861   1.054   6.832  1.4560  0.6413  1.1119
 7110SOL     OW32965   1.385   3.744   5.279  0.4665 -1.1273 -0.7351
 7110SOL    HW132966   1.407   3.665   5.230 -2.3811 -1.1595 -1.9902
 7110SOL    HW232967   1.466   3.794   5.270 -0.0965 -0.5215 -2.4820
 7111SOL     OW32968   4.648   3.548   7.483  0.1276  0.5870  0.3797
 7111SOL    HW132969   4.561   3.516   7.458  0.3063 -0.5187  1.1597
 7111SOL    HW232970   4.623   3.641   7.482  2.2216  1.1736  2.7938
 7112SOL     OW32971   1.445   3.755   6.452  0.0676  0.5584 -0.4436
 7112SOL    HW132972   1.385   3.687   6.483  1.0583 -1.7125 -3.4910
 7112SOL    HW232973   1.412   3.745   6.363  0.0368  1.4222 -0.5266
 7113SOL     OW32974   1.284   0.151   7.356 -0.3707 -0.1114  0.1643
 7113SOL    HW132975   1.325   0.232   7.327  1.3593 -1.6807 -1.7349
 7113SOL    HW232976   1.201   0.159   7.310 -0.5760 -1.5338  0.2769
 7114SOL     OW32977   0.242   1.745  14.837  0.2544  0.1399 -0.0191
 7114SOL    HW132978   0.176   1.716  14.899 -0.0334 -1.4325 -1.0698
 7114SOL    HW232979   0.219   1.838  14.830 -1.4166 -0.2689  0.0677
 7115SOL     OW32980   2.124   3.219   2.528  0.1951  0.3437 -0.5437
 7115SOL    HW132981   2.098   3.280   2.459 -1.4537  0.2771  0.0373
 7115SOL    HW232982   2.036   3.198   2.559  0.2654  0.4083 -0.3022
 7116SOL     OW32983   2.434   1.246   2.874  0.3651  0.0794  0.0177
 7116SOL    HW132984   2.511   1.239   2.818 -0.3067 -0.1780 -0.8729
 7116SOL    HW232985   2.443   1.170   2.931  0.3169  1.4808  1.9011
 7117SOL     OW32986   2.090   1.105   7.586 -0.4755 -0.1459  0.4809
 7117SOL    HW132987   2.167   1.137   7.633 -0.5137  1.4248 -0.5339
 7117SOL    HW232988   2.133   1.043   7.528 -0.0718 -1.0535  1.7495
 7118SOL     OW32989   2.065   4.113   5.170 -0.0925  0.2451  0.1448
 7118SOL    HW132990   2.080   4.201   5.202  2.4797 -0.0376 -0.2596
 7118SOL    HW232991   2.103   4.060   5.240 -0.6423 -0.4026 -0.0439
 7119SOL     OW32992   4.514   3.667   8.078 -0.5345  0.6480  0.5010
 7119SOL    HW132993   4.510   3.729   8.152  1.0560  3.3651 -1.6955
 7119SOL    HW232994   4.461   3.705   8.008  0.0495  0.4481 -0.0537
 7120SOL     OW32995   1.648   0.631   1.201 -0.3964  0.0216 -0.5822
 7120SOL    HW132996   1.584   0.560   1.198 -0.6096  0.1921 -0.0074
 7120SOL    HW232997   1.708   0.608   1.273 -0.1994  0.6760 -0.5428
 7121SOL     OW32998   2.945   0.232   5.880 -0.3313 -0.0853  0.1481
 7121SOL    HW132999   2.884   0.164   5.909 -0.4395  0.1266  0.4287
 7121SOL    HW233000   2.884   0.306   5.879 -1.1542 -0.8067 -3.1332
 7122SOL     OW33001   4.349   3.230   2.876 -0.4918 -0.7585 -0.4579
 7122SOL    HW133002   4.413   3.218   2.805 -1.3701  0.6977 -1.5084
 7122SOL    HW233003   4.291   3.287   2.826 -2.9130 -0.5581  2.6330
 7123SOL     OW33004   2.264   1.440   9.452  0.0202 -0.4308 -0.5470
 7123SOL    HW133005   2.176   1.448   9.488 -0.8196 -0.8526 -2.5396
 7123SOL    HW233006   2.306   1.451   9.537 -1.6224 -0.2301  0.2431
 7124SOL     OW33007   1.594   4.634  13.815  0.0665 -0.3659  0.3115
 7124SOL    HW133008   1.609   4.586  13.897 -1.9200 -1.0636  0.2488
 7124SOL    HW233009   1.603   4.560  13.755 -1.6480 -1.5736  1.5383
 7125SOL     OW33010   4.632   4.258  12.245  0.0568 -0.1744  0.4561
 7125SOL    HW133011   4.704   4.196  12.256 -0.4065 -0.9443 -0.7993
 7125SOL    HW233012   4.678   4.331  12.205  0.9061 -2.0552 -2.0340
 7126SOL     OW33013   4.716   0.145   7.223 -0.1713 -0.0642  0.1547
 7126SOL    HW133014   0.016   0.144   7.311  0.7836 -0.4771 -0.2331
 7126SOL    HW233015   0.040   0.210   7.186 -0.1562 -0.1488  0.0281
 7127SOL     OW33016   2.419   1.305  10.541 -0.5416 -0.4874 -0.0895
 7127SOL    HW133017   2.390   1.213  10.544  0.8048 -0.9499 -1.3871
 7127SOL    HW233018   2.458   1.309  10.629 -0.2991 -1.2355 -0.1575
 7128SOL     OW33019   2.708   1.957   1.397 -0.6345 -0.5005 -0.2109
 7128SOL    HW133020   2.643   1.930   1.332 -1.7928 -0.0216  0.7456
 7128SOL    HW233021   2.780   1.989   1.343 -1.1727  0.1566 -0.5314
 7129SOL     OW33022   1.666   2.472   9.705 -0.2242 -0.1763  0.2385
 7129SOL    HW133023   1.598   2.471   9.773  0.6595 -2.6305  1.0651
 7129SOL    HW233024   1.700   2.559   9.722  1.3079 -0.5646 -0.8572
 7130SOL     OW33025   2.587   3.646   5.567 -0.1498  0.4351  1.0680
 7130SOL    HW133026   2.514   3.661   5.628 -1.6157  3.4380 -1.4207
 7130SOL    HW233027   2.659   3.637   5.629  1.8537 -0.9895 -1.4871
 7131SOL     OW33028   4.195   2.067   6.930  0.3493  0.3858 -0.3497
 7131SOL    HW133029   4.155   2.137   6.879 -1.6919  0.0724  0.8259
 7131SOL    HW233030   4.124   2.007   6.951  0.3904 -0.4663 -2.7082
 7132SOL     OW33031   4.005   1.896   2.626 -0.8463  0.4186  0.0041
 7132SOL    HW133032   4.005   1.802   2.646  2.4912  1.1742  3.5633
 7132SOL    HW233033   4.059   1.931   2.697  0.0748 -0.1106 -0.4205
 7133SOL     OW33034   3.278   4.020   2.254 -0.0746 -0.6604 -0.0421
 7133SOL    HW133035   3.183   4.004   2.253 -0.4746  1.7483 -0.9718
 7133SOL    HW233036   3.278   4.114   2.269  0.0357 -0.1492 -3.2982
 7134SOL     OW33037   3.354   0.648   3.944 -0.1681  0.0401  0.2653
 7134SOL    HW133038   3.275   0.627   3.895 -0.1089 -1.2968  0.7373
 7134SOL    HW233039   3.336   0.593   4.020 -1.7476  1.9290  1.2588
 7135SOL     OW33040   3.376   4.225   9.683  0.8901  0.9910 -0.1386
 7135SOL    HW133041   3.457   4.275   9.684 -0.4705  3.0993  3.3261
 7135SOL    HW233042   3.305   4.289   9.681 -0.1621 -0.1803 -0.7266
 7136SOL     OW33043   1.739   0.931   9.716 -0.4861  0.0417 -0.2026
 7136SOL    HW133044   1.760   1.024   9.705 -1.9121  0.6005  1.7134
 7136SOL    HW233045   1.820   0.880   9.725 -1.0965 -0.6990  1.1115
 7137SOL     OW33046   4.360   1.327   6.006 -0.0263 -0.8428  0.0577
 7137SOL    HW133047   4.374   1.402   6.064  0.0652  0.4798 -1.6460
 7137SOL    HW233048   4.294   1.352   5.940 -0.9684 -2.0193  0.5535
 7138SOL     OW33049   4.682   4.184  12.853 -0.1278 -0.9535 -0.3632
 7138SOL    HW133050   0.000   4.137  12.916 -0.7013  1.1976  1.7580
 7138SOL    HW233051   4.609   4.206  12.911  1.4086 -0.1086  1.2601
 7139SOL     OW33052   2.494   0.369   5.233 -0.3197  0.1836 -0.0765
 7139SOL    HW133053   2.441   0.379   5.154 -0.4491  1.1828  0.1365
 7139SOL    HW233054   2.569   0.333   5.186  0.9286  1.1172  1.2101
 7140SOL     OW33055   1.455   2.256   1.480  0.1873  0.0880  0.1596
 7140SOL    HW133056   1.481   2.181   1.426  0.5315 -0.1364  0.6433
 7140SOL    HW233057   1.371   2.275   1.437  0.5924  0.0415 -0.6498
 7141SOL     OW33058   3.047   3.404   0.057 -0.1130  0.2607  0.4380
 7141SOL    HW133059   3.106   3.356   0.000 -1.0976  0.3145 -0.6383
 7141SOL    HW233060   3.079   3.493   0.040  1.4606 -0.5722 -0.8532
 7142SOL     OW33061   1.006   1.045   1.876 -0.2547 -0.1270  0.2598
 7142SOL    HW133062   1.010   0.949   1.880  2.3105 -0.0306 -0.1576
 7142SOL    HW233063   1.007   1.067   1.970  1.0190 -1.1202  0.4765
 7143SOL     OW33064   4.068   0.329   6.873 -0.2047 -0.2348  0.2988
 7143SOL    HW133065   3.990   0.373   6.840 -1.2062 -1.2207  1.3747
 7143SOL    HW233066   4.106   0.290   6.794  0.7555  1.0147  0.1343
 7144SOL     OW33067   3.337   3.094   0.885 -0.1936  0.2096  0.0539
 7144SOL    HW133068   3.338   3.128   0.974  1.9025 -2.2001  0.9517
 7144SOL    HW233069   3.291   3.156   0.829  0.0102 -0.9249 -1.3833
 7145SOL     OW33070   2.394   1.820   5.737  0.2893  0.7526  0.3824
 7145SOL    HW133071   2.312   1.864   5.715  1.0613 -0.3481 -4.6656
 7145SOL    HW233072   2.454   1.875   5.686  1.5500  0.1517  1.2171
 7146SOL     OW33073   2.211   4.093  12.798  0.4737 -0.7300  0.4050
 7146SOL    HW133074   2.175   4.181  12.809 -3.2873 -2.3252  0.5590
 7146SOL    HW233075   2.169   4.040  12.865  0.5910 -1.8695 -0.4136
 7147SOL     OW33076   1.741   1.593  12.165 -0.3820  0.8902  0.0439
 7147SOL    HW133077   1.688   1.539  12.223  2.0441 -0.0224  1.4123
 7147SOL    HW233078   1.712   1.681  12.189 -1.1234 -0.0872  2.6650
 7148SOL     OW33079   0.352   2.159   5.671 -0.2400 -0.1806  0.2688
 7148SOL    HW133080   0.361   2.091   5.604  2.4894 -0.5196  0.9801
 7148SOL    HW233081   0.390   2.105   5.740 -2.2895 -2.7064 -0.5828
 7149SOL     OW33082   0.177   3.373   0.352 -0.2016 -0.0632  0.4253
 7149SOL    HW133083   0.143   3.396   0.266 -2.2234  1.5466  1.6566
 7149SOL    HW233084   0.271   3.375   0.333 -0.5102 -0.1572 -1.0565
 7150SOL     OW33085   0.167   1.399  12.461  0.2127 -0.0689  0.6789
 7150SOL    HW133086   0.211   1.351  12.531 -0.5997  1.2472  2.1014
 7150SOL    HW233087   0.164   1.332  12.392  1.4770  0.5842 -0.0300
 7151SOL     OW33088   0.328   1.330  11.510 -0.3064  0.4686  0.4240
 7151SOL    HW133089   0.239   1.299  11.496 -1.0550  2.3485  1.1128
 7151SOL    HW233090   0.326   1.396  11.580  2.3510 -0.3442  1.2592
 7152SOL     OW33091   2.015   3.056   6.888 -0.1976 -0.3802 -0.1717
 7152SOL    HW133092   2.108   3.062   6.908 -0.3848 -3.5685  1.7015
 7152SOL    HW233093   2.015   3.123   6.820 -0.9289 -0.1502  0.0597
 7153SOL     OW33094   1.258   3.535   0.834  0.2150 -0.3669  0.3496
 7153SOL    HW133095   1.279   3.482   0.758  0.4555  3.2941 -2.1248
 7153SOL    HW233096   1.208   3.608   0.798  2.2669  0.2609 -1.1823
 7154SOL     OW33097   3.551   0.690  14.229  0.3896 -0.0917 -0.1870
 7154SOL    HW133098   3.594   0.728  14.306 -0.9380 -1.7216  1.3510
 7154SOL    HW233099   3.610   0.623  14.195  1.1575 -0.5369  2.0511
 7155SOL     OW33100   4.114   3.269   2.049  0.3207 -0.0427  0.1604
 7155SOL    HW133101   4.109   3.179   2.080  0.4219  0.8755  2.8025
 7155SOL    HW233102   4.021   3.288   2.037  0.6451  1.8863  0.7584
 7156SOL     OW33103   0.087   1.639  16.619  0.5908  0.5966  0.2838
 7156SOL    HW133104   0.113   1.564  16.674 -3.6803 -0.7133  0.5411
 7156SOL    HW233105   0.074   1.704  16.688 -0.3093 -0.1149  0.7931
 7157SOL     OW33106   1.961   0.414   4.190  0.1414 -0.2859  0.1336
 7157SOL    HW133107   1.994   0.365   4.266  0.5048 -0.3388 -0.0575
 7157SOL    HW233108   2.008   0.372   4.118  0.2499  0.4250 -0.2109
 7158SOL     OW33109   4.625   0.418   4.767 -0.0356 -0.1865  0.3588
 7158SOL    HW133110   4.716   0.411   4.794  0.4234 -0.3861 -1.2840
 7158SOL    HW233111   4.623   0.503   4.723  0.5400 -1.1002 -1.4025
 7159SOL     OW33112   4.334   2.568   4.807  0.7846 -0.2982  0.2198
 7159SOL    HW133113   4.429   2.574   4.820  1.2349 -2.1166 -2.2798
 7159SOL    HW233114   4.297   2.611   4.885 -2.3037  0.4155 -1.6403
 7160SOL     OW33115   2.984   2.699  11.207  0.2755  0.1015  0.0458
 7160SOL    HW133116   3.060   2.645  11.184  0.3727 -0.2030  1.0514
 7160SOL    HW233117   2.912   2.660  11.159 -0.0366  1.5726 -0.6784
 7161SOL     OW33118   2.657   2.369   2.273 -0.5607  0.0091 -0.1945
 7161SOL    HW133119   2.729   2.336   2.218 -1.4096 -1.7562 -0.2393
 7161SOL    HW233120   2.675   2.318   2.352 -0.2408 -0.5993 -0.6529
 7162SOL     OW33121   3.244   2.079   7.346 -0.1649  0.4684 -0.0637
 7162SOL    HW133122   3.293   1.998   7.330 -1.9999  0.2192 -4.6675
 7162SOL    HW233123   3.307   2.121   7.287 -0.0045  0.6953  0.2714
 7163SOL     OW33124   0.771   0.634  10.183 -0.0195 -0.4335  0.6373
 7163SOL    HW133125   0.707   0.659  10.250  0.9740 -1.5091  1.9981
 7163SOL    HW233126   0.835   0.587  10.236  0.7459 -0.2005 -0.0817
 7164SOL     OW33127   1.390   4.337   0.025 -0.2093 -0.0968  0.1158
 7164SOL    HW133128   1.356   4.298   0.105  2.2988 -1.4702  0.5015
 7164SOL    HW233129   1.439   4.409   0.065  0.5853  0.4535 -1.8609
 7165SOL     OW33130   1.251   0.909   5.788  0.8696  0.3116  0.3220
 7165SOL    HW133131   1.232   0.932   5.697  1.7935  0.0258  0.0573
 7165SOL    HW233132   1.161   0.919   5.819  0.7153 -1.3793  0.4618
 7166SOL     OW33133   1.392   3.923  13.752 -0.2280  0.2013 -0.4048
 7166SOL    HW133134   1.346   3.896  13.673 -0.1352 -0.7380 -0.1355
 7166SOL    HW233135   1.341   4.000  13.778 -0.1129 -0.2224  1.0737
 7167SOL     OW33136   3.517   3.592   3.198 -0.2385  0.0414  0.3375
 7167SOL    HW133137   3.610   3.611   3.182  0.1223 -1.1222  1.0403
 7167SOL    HW233138   3.497   3.522   3.136  0.7845 -1.2742  1.4968
 7168SOL     OW33139   3.476   3.650   1.459  0.6784 -0.1063  0.1031
 7168SOL    HW133140   3.543   3.606   1.406  1.2101 -0.7711  1.3190
 7168SOL    HW233141   3.482   3.596   1.538  1.5730  0.7200  0.6014
 7169SOL     OW33142   3.978   1.903   6.966  0.0589  0.0249  0.1589
 7169SOL    HW133143   3.891   1.937   6.947  1.4142  2.2891 -1.9830
 7169SOL    HW233144   3.953   1.822   7.010 -0.2218 -0.5920 -1.1687
 7170SOL     OW33145   4.683   1.554   2.540  0.2280  0.6392  0.4155
 7170SOL    HW133146   0.007   1.496   2.493 -0.0440 -0.7883  1.8428
 7170SOL    HW233147   0.008   1.592   2.604  1.2211 -0.0748 -0.1109
 7171SOL     OW33148   2.571   2.674   4.319 -0.1103 -0.0621  0.4475
 7171SOL    HW133149   2.646   2.726   4.349 -0.9488  1.8417 -0.7051
 7171SOL    HW233150   2.547   2.718   4.237 -2.1065 -0.0001  1.0450
 7172SOL     OW33151   1.097   3.237   2.922 -0.1801  0.2064  0.1049
 7172SOL    HW133152   1.054   3.272   2.845 -0.6196  0.7834  0.6122
 7172SOL    HW233153   1.033   3.180   2.966  1.4323 -0.4036  1.6967
 7173SOL     OW33154   4.279   4.016   8.237  0.0809  0.0725 -0.0766
 7173SOL    HW133155   4.314   3.982   8.320  0.2581 -0.9419 -0.5653
 7173SOL    HW233156   4.357   4.020   8.181 -0.6061  2.2791 -0.8720
 7174SOL     OW33157   3.188   1.119   5.781  0.2606 -0.6433 -0.3882
 7174SOL    HW133158   3.221   1.184   5.720 -0.6807 -0.3247 -0.5503
 7174SOL    HW233159   3.214   1.142   5.870  1.8903 -0.9146 -0.7920
 7175SOL     OW33160   3.035   0.138   5.642  0.1709 -0.0664 -0.0477
 7175SOL    HW133161   3.014   0.212   5.585  0.4166  0.0025 -0.0475
 7175SOL    HW233162   3.008   0.166   5.729  0.2029  1.5614 -0.5511
 7176SOL     OW33163   3.765   3.529   3.065  0.2189 -0.0856 -0.3325
 7176SOL    HW133164   3.844   3.537   3.118  1.2830  0.2942 -1.9808
 7176SOL    HW233165   3.744   3.435   3.060  0.2838 -0.1198  0.0543
 7177SOL     OW33166   2.980   2.145   3.825  0.5911  0.4522  0.3248
 7177SOL    HW133167   2.922   2.204   3.776  0.9153  0.5320  0.0424
 7177SOL    HW233168   2.936   2.149   3.910 -2.5968 -1.1492 -1.2351
 7178SOL     OW33169   2.392   0.835   3.311 -0.4609 -0.2452  0.2676
 7178SOL    HW133170   2.395   0.915   3.364  0.5141 -0.2838  0.2727
 7178SOL    HW233171   2.480   0.841   3.274 -2.0424  0.0161 -3.4831
 7179SOL     OW33172   2.779   3.987   7.590 -0.2563  0.3150  0.0531
 7179SOL    HW133173   2.809   4.073   7.618 -1.2926  1.2917 -1.8476
 7179SOL    HW233174   2.769   3.999   7.496  0.3140 -0.0815 -0.0611
 7180SOL     OW33175   2.883   0.709   9.359  0.4702 -0.1371 -0.2825
 7180SOL    HW133176   2.873   0.643   9.290 -0.4485  1.5764 -1.8287
 7180SOL    HW233177   2.871   0.793   9.314  2.7107  0.2520 -0.1413
 7181SOL     OW33178   3.681   1.092   2.314 -0.0922 -0.0568 -0.1645
 7181SOL    HW133179   3.629   1.024   2.357  0.8053  0.2863  1.4730
 7181SOL    HW233180   3.768   1.053   2.317 -0.3675 -0.3774  3.7758
 7182SOL     OW33181   1.329   4.008   8.845  0.2248 -0.5867 -0.5792
 7182SOL    HW133182   1.328   4.052   8.930 -2.3308 -1.9431  0.0871
 7182SOL    HW233183   1.333   4.083   8.786 -1.9365  0.1701  0.2225
 7183SOL     OW33184   3.239   0.223   5.967  0.1383  0.6363 -0.0499
 7183SOL    HW133185   3.147   0.215   5.942 -0.7406  1.2614  3.0263
 7183SOL    HW233186   3.254   0.317   5.973  0.4165  0.7357 -2.2660
 7184SOL     OW33187   0.948   2.051   8.634  0.0148  0.3094 -0.0300
 7184SOL    HW133188   0.943   2.137   8.593 -2.6709 -0.2354 -0.8577
 7184SOL    HW233189   1.026   2.054   8.690 -1.0889 -1.8587  1.6241
 7185SOL     OW33190   0.350   0.336   8.301  0.0138  0.0935  0.0336
 7185SOL    HW133191   0.295   0.261   8.279 -1.0030  0.9180 -0.1895
 7185SOL    HW233192   0.319   0.348   8.391  0.0347  1.9109 -0.1958
 7186SOL     OW33193   4.638   0.934   7.294  0.5066 -0.9343  0.5915
 7186SOL    HW133194   4.631   1.027   7.312  0.9665 -1.0717  1.4803
 7186SOL    HW233195   4.731   0.930   7.270  0.8913 -2.2764  2.2521
 7187SOL     OW33196   4.523   4.655  14.109  0.4276 -0.4346  0.3847
 7187SOL    HW133197   4.591   4.588  14.098  0.7989  0.3418 -2.0775
 7187SOL    HW233198   4.454   4.600  14.147  0.7421 -0.3479  1.0643
 7188SOL     OW33199   4.160   4.211   7.093  0.7350 -0.0857 -0.0750
 7188SOL    HW133200   4.111   4.231   7.013  3.1402  0.6254 -1.3833
 7188SOL    HW233201   4.096   4.248   7.154  0.1091  0.9900 -1.3791
 7189SOL     OW33202   2.476   2.676   4.838  0.4011 -0.0905  0.0292
 7189SOL    HW133203   2.467   2.587   4.872  1.0314 -0.3649 -0.5227
 7189SOL    HW233204   2.555   2.668   4.785  2.9401  2.2639  3.4923
 7190SOL     OW33205   0.381   4.120   8.581 -0.0417  0.1481  0.0561
 7190SOL    HW133206   0.439   4.158   8.515  0.8294 -0.4390  0.4938
 7190SOL    HW233207   0.296   4.161   8.566  0.0018  0.4973  0.7752
 7191SOL     OW33208   2.903   0.045   9.179 -0.0350 -0.6056 -0.5437
 7191SOL    HW133209   2.835   4.714   9.172 -0.1876 -0.4752 -0.3241
 7191SOL    HW233210   2.975   4.726   9.146  0.7310  0.4604 -0.6355
 7192SOL     OW33211   2.459   1.477   7.404  0.1464  0.7414  0.3193
 7192SOL    HW133212   2.386   1.427   7.367  1.0084 -0.6455  0.5337
 7192SOL    HW233213   2.502   1.414   7.461  0.2947  0.5398 -0.0164
 7193SOL     OW33214   2.865   1.700   3.300  0.2479  0.0110 -0.3261
 7193SOL    HW133215   2.801   1.743   3.357  1.5197  1.5629 -0.0754
 7193SOL    HW233216   2.809   1.641   3.250 -1.1644 -0.5811  1.9531
 7194SOL     OW33217   2.521   1.821   4.821 -0.3730  0.2277  0.3344
 7194SOL    HW133218   2.499   1.740   4.866  0.4832  0.8947  1.9318
 7194SOL    HW233219   2.473   1.890   4.866  0.7678  0.0127  1.8696
 7195SOL     OW33220   0.850   0.641   6.449  0.5990  0.8560 -0.1698
 7195SOL    HW133221   0.857   0.713   6.511 -2.1381  1.7990 -0.9246
 7195SOL    HW233222   0.931   0.646   6.398  0.4112  1.6284 -0.3922
 7196SOL     OW33223   0.011   0.809   5.648  0.0427  0.1336 -0.5088
 7196SOL    HW133224   0.089   0.864   5.648  0.5245 -0.5691 -1.2813
 7196SOL    HW233225   0.046   0.722   5.666  0.6551  0.4876  0.0153
 7197SOL     OW33226   4.679   4.514   2.581 -0.3519  0.5279  0.3002
 7197SOL    HW133227   4.721   4.600   2.581 -0.3274  0.5166  0.0501
 7197SOL    HW233228   4.612   4.535   2.647 -3.0174 -2.0458 -1.5699
 7198SOL     OW33229   1.951   2.700  13.870 -0.0180 -0.4447 -0.1095
 7198SOL    HW133230   1.873   2.701  13.815 -0.1521  1.0624  0.1145
 7198SOL    HW233231   2.012   2.663  13.807 -0.2933 -1.1783  0.0507
 7199SOL     OW33232   3.842   0.223   4.386  0.9554 -0.0976  0.4940
 7199SOL    HW133233   3.835   0.241   4.292  3.8503  0.2929  0.3431
 7199SOL    HW233234   3.751   0.251   4.394  0.9505  0.0397 -0.0064
 7200SOL     OW33235   1.680   2.087   4.560 -0.7786  0.2633  0.3981
 7200SOL    HW133236   1.618   2.014   4.560  1.5497 -1.6816  2.2772
 7200SOL    HW233237   1.623   2.164   4.556 -0.8099  0.1212 -1.9147
 7201SOL     OW33238   2.392   1.031   9.299 -0.0241 -0.1933 -0.6354
 7201SOL    HW133239   2.460   0.966   9.281 -0.5838 -0.2900 -2.4261
 7201SOL    HW233240   2.413   1.054   9.389 -0.0702  1.3048 -1.0066
 7202SOL     OW33241   2.665   3.159   2.448 -0.3719  0.6898  0.6019
 7202SOL    HW133242   2.720   3.235   2.470  0.6808 -0.0499  0.4815
 7202SOL    HW233243   2.578   3.198   2.461 -0.6500 -0.3159  1.7883
 7203SOL     OW33244   3.492   0.989   6.038 -0.2101 -0.2813  0.1636
 7203SOL    HW133245   3.529   0.936   5.967 -1.7560 -1.0901 -0.0411
 7203SOL    HW233246   3.410   0.943   6.058  0.5430 -0.4993  2.6843
 7204SOL     OW33247   2.531   4.259  11.735  0.0708 -0.1990 -0.2633
 7204SOL    HW133248   2.602   4.311  11.772  0.0739  1.0628 -2.0418
 7204SOL    HW233249   2.461   4.323  11.750 -2.0590 -2.0960 -2.1004
 7205SOL     OW33250   0.681   4.350   3.060 -0.2071  0.3302  0.3051
 7205SOL    HW133251   0.710   4.292   3.130 -1.5803 -1.2853 -0.4805
 7205SOL    HW233252   0.649   4.292   2.991 -0.3409  0.8903 -0.1057
 7206SOL     OW33253   3.577   2.154   6.639  0.2590  0.2743 -0.0149
 7206SOL    HW133254   3.533   2.084   6.688  2.2897 -0.0263  1.3415
 7206SOL    HW233255   3.502   2.203   6.604 -0.8107 -1.5545 -0.2889
 7207SOL     OW33256   0.819   1.545   4.373  0.1406 -0.4791  0.3761
 7207SOL    HW133257   0.857   1.482   4.312 -0.7758 -1.2798  0.6409
 7207SOL    HW233258   0.874   1.529   4.450  1.7137  1.4939 -0.3195
 7208SOL     OW33259   3.282   2.875   3.391 -0.1333 -0.2378 -0.2986
 7208SOL    HW133260   3.209   2.912   3.343  0.0038 -1.1912 -1.2337
 7208SOL    HW233261   3.304   2.794   3.345 -0.0656 -0.1702 -0.3861
 7209SOL     OW33262   0.744   4.402   4.371  0.7572 -0.0825 -0.0728
 7209SOL    HW133263   0.658   4.387   4.410  0.3203 -0.6088 -1.2237
 7209SOL    HW233264   0.726   4.366   4.284  1.1797  0.0270 -0.2044
 7210SOL     OW33265   0.941   1.325  17.275 -0.0009 -0.1993 -0.1023
 7210SOL    HW133266   0.887   1.287  17.206  1.5605  0.3814 -1.6457
 7210SOL    HW233267   1.007   1.256  17.277  0.3271  0.1284  0.4815
 7211SOL     OW33268   2.140   0.278   8.911 -0.9168 -0.6238  0.1841
 7211SOL    HW133269   2.192   0.248   8.837  0.6046  2.1014  0.1503
 7211SOL    HW233270   2.147   0.372   8.898 -0.9707 -0.2786  2.6881
 7212SOL     OW33271   1.841   2.056  10.113 -0.2130 -0.1575 -0.2158
 7212SOL    HW133272   1.919   2.010  10.081  1.2652  2.3939 -0.2652
 7212SOL    HW233273   1.876   2.089  10.196 -3.1679  2.1997  0.0700
 7213SOL     OW33274   0.507   0.819  11.041  0.2119 -0.9753 -0.1643
 7213SOL    HW133275   0.486   0.726  11.041 -1.5328 -0.5953  0.3912
 7213SOL    HW233276   0.564   0.817  11.118 -1.5958  0.1098  1.2192
 7214SOL     OW33277   0.899   0.075   0.641 -0.1945  0.3245 -0.1271
 7214SOL    HW133278   0.923   0.164   0.667  3.2612 -0.7365  0.2398
 7214SOL    HW233279   0.909   0.073   0.546  1.2338 -2.2365  0.0664
 7215SOL     OW33280   4.558   3.801   5.373  0.0814  0.0940 -0.4760
 7215SOL    HW133281   4.572   3.707   5.363  0.3597 -0.1409  2.1436
 7215SOL    HW233282   4.481   3.801   5.431 -1.7225 -0.6782 -2.8762
 7216SOL     OW33283   2.348   0.846   8.356 -0.0253 -0.4252  0.2032
 7216SOL    HW133284   2.369   0.756   8.380  1.5155 -0.0038  0.4571
 7216SOL    HW233285   2.362   0.880   8.444 -1.6324 -1.8231  0.9929
 7217SOL     OW33286   1.909   1.329   3.724 -0.2239 -0.1699  0.5375
 7217SOL    HW133287   1.896   1.341   3.630  0.4747 -0.7850  0.3593
 7217SOL    HW233288   2.004   1.340   3.732 -0.1039 -1.1122  0.4170
 7218SOL     OW33289   3.182   3.166   5.400  0.3016 -0.0414  0.0316
 7218SOL    HW133290   3.271   3.180   5.433 -0.2769 -1.0840  2.0463
 7218SOL    HW233291   3.145   3.117   5.474 -1.5167  1.7817  0.3535
 7219SOL     OW33292   0.830   1.734   2.627  0.7220 -0.4089 -0.2400
 7219SOL    HW133293   0.772   1.786   2.572  0.7491 -0.1756 -0.0498
 7219SOL    HW233294   0.787   1.751   2.711 -0.1116 -0.8259 -0.5811
 7220SOL     OW33295   0.059   2.215   4.050 -0.1520  0.1097  0.2911
 7220SOL    HW133296   0.027   2.263   3.973 -2.4199  1.3503  2.0230
 7220SOL    HW233297   4.717   2.224   4.105 -0.0409  0.3689  0.4057
 7221SOL     OW33298   1.559   4.189   2.601 -0.3998 -0.1861 -0.0833
 7221SOL    HW133299   1.597   4.205   2.687  1.2044 -0.0133 -0.8206
 7221SOL    HW233300   1.528   4.276   2.577  1.9182  0.5001 -0.6029
 7222SOL     OW33301   3.147   4.596  16.080  0.1354  0.2314  0.5551
 7222SOL    HW133302   3.164   4.679  16.124  1.3992 -0.4042  1.2863
 7222SOL    HW233303   3.064   4.620  16.039 -0.0489 -1.7160 -0.2386
 7223SOL     OW33304   3.513   4.684   3.115  0.6747 -0.0036  0.2238
 7223SOL    HW133305   3.545   4.657   3.029  0.0472 -0.3903  0.1169
 7223SOL    HW233306   3.581   4.655   3.176  1.9944 -0.0220 -1.2479
 7224SOL     OW33307   1.938   3.896   6.638 -0.1372  0.2088  0.4303
 7224SOL    HW133308   1.860   3.878   6.587  0.7011 -1.0487 -0.3973
 7224SOL    HW233309   1.918   3.862   6.725  0.7874  2.6335  1.5896
 7225SOL     OW33310   1.564   4.277  13.325 -0.0336  0.0987 -0.1041
 7225SOL    HW133311   1.514   4.351  13.292  0.3338  0.4247  0.0547
 7225SOL    HW233312   1.494   4.214  13.312  2.5247 -2.4773 -1.1986
 7226SOL     OW33313   3.625   3.009   8.966 -0.3419  0.0180 -0.1359
 7226SOL    HW133314   3.641   3.023   9.059  0.2719 -0.8701 -0.1087
 7226SOL    HW233315   3.702   3.056   8.933 -1.0386 -0.1107 -1.9379
 7227SOL     OW33316   1.111   0.125   1.184  0.0275  0.1889  0.2903
 7227SOL    HW133317   1.060   0.198   1.219 -0.9320 -0.1234 -0.4794
 7227SOL    HW233318   1.122   0.155   1.093  1.3373 -0.6787  0.1664
 7228SOL     OW33319   3.978   1.406   2.812 -0.0699 -0.7714  0.1784
 7228SOL    HW133320   4.058   1.383   2.860  1.7993  2.2722 -1.4626
 7228SOL    HW233321   3.947   1.317   2.794 -2.9639  0.5233 -1.3285
 7229SOL     OW33322   4.302   1.566   8.572 -0.1435 -0.2518  0.4478
 7229SOL    HW133323   4.261   1.539   8.654  1.1540 -2.7999  0.2405
 7229SOL    HW233324   4.320   1.482   8.530  0.0596 -0.0455  0.1244
 7230SOL     OW33325   1.021   3.061  11.123 -0.5403  0.1931  0.0382
 7230SOL    HW133326   1.087   3.069  11.054 -1.5719  0.9889 -0.8398
 7230SOL    HW233327   1.070   3.018  11.194  2.7961  1.0981 -1.6866
 7231SOL     OW33328   1.633   0.858   5.143  0.8823  0.0108 -0.4087
 7231SOL    HW133329   1.575   0.875   5.069 -0.7825  0.3204  0.9661
 7231SOL    HW233330   1.721   0.857   5.106  1.1158  3.5026  0.1241
 7232SOL     OW33331   2.177   1.910   5.346  0.4195  0.3962  0.0928
 7232SOL    HW133332   2.135   1.948   5.268 -0.8702 -0.1618  0.5289
 7232SOL    HW233333   2.121   1.834   5.357  2.7249 -1.2846  0.1963
 7233SOL     OW33334   3.882   0.335   8.041  0.5429 -0.4753  0.1958
 7233SOL    HW133335   3.813   0.274   8.068  0.4676 -0.7638 -0.6499
 7233SOL    HW233336   3.829   0.377   7.973  0.3823  2.0375  1.8564
 7234SOL     OW33337   1.762   3.934  10.662 -0.5077  0.2821  0.0832
 7234SOL    HW133338   1.768   4.029  10.675 -1.2485  0.0634  2.0427
 7234SOL    HW233339   1.687   3.935  10.603 -1.4619 -0.0130  1.2866
 7235SOL     OW33340   1.323   0.642   9.602  0.2587 -0.2206  0.7383
 7235SOL    HW133341   1.338   0.602   9.688 -0.1382  0.1942  0.9964
 7235SOL    HW233342   1.365   0.576   9.547  1.0880 -0.1043  1.2183
 7236SOL     OW33343   0.385   1.011  12.194  0.4454 -0.0794 -0.0425
 7236SOL    HW133344   0.473   0.975  12.196 -0.2208 -1.7326  0.0117
 7236SOL    HW233345   0.364   0.985  12.104 -0.4197  0.3629  0.0318
 7237SOL     OW33346   3.960   1.048   5.077 -0.2307 -0.1465  0.0330
 7237SOL    HW133347   4.040   1.075   5.032 -1.3309  1.4341 -0.9799
 7237SOL    HW233348   3.985   0.956   5.070  0.0657 -0.2321  2.2486
 7238SOL     OW33349   1.934   1.420   7.032 -0.0312  0.0669 -0.4652
 7238SOL    HW133350   1.916   1.473   7.109  1.4944  1.3345 -0.9717
 7238SOL    HW233351   2.016   1.378   7.061 -1.0374 -0.8813  1.0020
 7239SOL     OW33352   1.101   2.022   1.995 -0.2648  0.4645 -0.0529
 7239SOL    HW133353   1.090   2.090   1.928 -1.0364 -0.9246 -1.3355
 7239SOL    HW233354   1.175   1.975   1.955 -0.0350  0.4762  0.3654
 7240SOL     OW33355   2.769   2.051   4.836 -0.4698 -0.2793 -0.4829
 7240SOL    HW133356   2.706   2.021   4.770 -0.0931 -0.0747 -0.9366
 7240SOL    HW233357   2.766   2.144   4.856 -1.5741 -0.4803  0.2772
 7241SOL     OW33358   1.332   1.688   5.210  0.2263  0.5104  0.1692
 7241SOL    HW133359   1.313   1.697   5.116 -0.6882  1.1229  0.4152
 7241SOL    HW233360   1.406   1.748   5.218  1.0565 -0.3734 -0.8500
 7242SOL     OW33361   2.001   2.950   4.400  0.3806  0.1218  0.3010
 7242SOL    HW133362   2.006   3.025   4.340 -1.1592  0.1123  0.1719
 7242SOL    HW233363   1.950   2.881   4.358  1.1458  1.0501 -2.1505
 7243SOL     OW33364   1.061   2.188  12.469 -0.3081 -0.5475  0.1636
 7243SOL    HW133365   1.076   2.123  12.537  2.6471 -1.0422 -0.9768
 7243SOL    HW233366   0.976   2.158  12.437 -0.1066  1.3809 -2.2033
 7244SOL     OW33367   0.139   2.468   8.166 -0.3355 -0.0826 -0.3421
 7244SOL    HW133368   0.161   2.489   8.257 -1.1310  0.6993 -0.3276
 7244SOL    HW233369   0.071   2.532   8.147 -1.2849 -0.9454  0.1671
 7245SOL     OW33370   4.403   4.086   5.005  0.2977  0.3988  0.1583
 7245SOL    HW133371   4.362   4.147   4.944 -1.0208 -0.9690 -0.3333
 7245SOL    HW233372   4.497   4.087   4.984  0.1742 -0.8072 -0.4698
 7246SOL     OW33373   2.008   1.539   5.702  0.3394  0.7320  0.0847
 7246SOL    HW133374   2.021   1.603   5.633 -1.9622  1.4191  0.2906
 7246SOL    HW233375   2.001   1.457   5.652  1.1909 -0.2836  1.6069
 7247SOL     OW33376   3.127   3.470   9.274 -0.0930 -0.4901  0.4110
 7247SOL    HW133377   3.098   3.402   9.334 -0.0953  0.1860  1.1765
 7247SOL    HW233378   3.061   3.459   9.205 -0.4859  0.8428  0.5751
 7248SOL     OW33379   0.346   3.214  17.349 -0.6769  0.3768 -0.4209
 7248SOL    HW133380   0.259   3.176  17.337 -1.0906  0.2023  3.1482
 7248SOL    HW233381   0.390   3.153  17.290  0.2813  0.9577 -0.3177
 7249SOL     OW33382   1.277   0.972   3.279  0.3957 -0.2329  0.2466
 7249SOL    HW133383   1.297   0.895   3.226 -0.1528 -0.7054  0.7293
 7249SOL    HW233384   1.267   1.040   3.211  0.5068  0.8479  1.3123
 7250SOL     OW33385   4.471   0.593   2.471  0.5098  0.0929 -0.3862
 7250SOL    HW133386   4.464   0.682   2.505  2.6200  0.1621 -0.1222
 7250SOL    HW233387   4.503   0.543   2.546 -0.3665 -0.6809 -0.5246
 7251SOL     OW33388   2.081   2.131   4.029  0.4138  0.0347 -0.2207
 7251SOL    HW133389   2.142   2.058   4.016  0.9077  0.5898 -1.0836
 7251SOL    HW233390   2.026   2.090   4.095  0.1333 -0.9455 -1.0605
 7252SOL     OW33391   0.434   0.679   1.753  0.3255 -0.0411  0.0045
 7252SOL    HW133392   0.448   0.768   1.787  1.9477  0.2570 -1.4415
 7252SOL    HW233393   0.497   0.630   1.806  1.0251  0.4977 -0.3130
 7253SOL     OW33394   4.566   0.277   7.487  0.5456  0.0306  0.0799
 7253SOL    HW133395   4.553   0.187   7.455 -0.9182  0.5563 -0.7832
 7253SOL    HW233396   4.593   0.273   7.578 -1.5117 -0.3074  0.6718
 7254SOL     OW33397   0.042   0.254   6.414  0.2894 -0.0413 -0.1339
 7254SOL    HW133398   4.687   0.235   6.392 -0.2964  2.1934  0.3169
 7254SOL    HW233399   0.034   0.335   6.464  0.2668 -1.0669  1.5340
 7255SOL     OW33400   0.050   3.827  16.106  0.6275  0.6424 -0.0377
 7255SOL    HW133401   0.029   3.739  16.074  0.1270  0.9644 -0.5924
 7255SOL    HW233402   0.051   3.806  16.199 -1.7553 -0.9726 -0.3623
 7256SOL     OW33403   0.906   1.650   6.213  0.3058  0.1758  0.2792
 7256SOL    HW133404   0.999   1.640   6.194  0.3905 -1.1595  1.3513
 7256SOL    HW233405   0.901   1.713   6.284 -3.3728 -0.4508  0.5898
 7257SOL     OW33406   0.490   1.997   4.259 -0.3470  0.2558 -0.4036
 7257SOL    HW133407   0.442   1.938   4.317 -0.0117 -0.2447 -0.6468
 7257SOL    HW233408   0.554   1.936   4.224 -3.3907 -2.4230 -1.2743
 7258SOL     OW33409   0.695   2.070  12.575  0.3007  0.4361  0.1371
 7258SOL    HW133410   0.670   2.135  12.509  0.4788  0.0717 -0.2935
 7258SOL    HW233411   0.633   1.999  12.558 -0.5927  1.5196 -1.1425
 7259SOL     OW33412   2.374   0.764   5.495  0.4183  0.1279 -0.4936
 7259SOL    HW133413   2.421   0.721   5.566  1.1246  0.8317 -0.5316
 7259SOL    HW233414   2.448   0.754   5.434 -0.1570  0.5999 -1.2761
 7260SOL     OW33415   2.898   4.123   5.970 -0.0794 -0.3391 -0.0244
 7260SOL    HW133416   2.881   4.218   5.973  1.9873  0.0057  0.4526
 7260SOL    HW233417   2.949   4.119   5.889  1.4846  1.6851  0.8572
 7261SOL     OW33418   1.824   4.102   6.081 -0.2307  0.0267 -0.0570
 7261SOL    HW133419   1.862   4.048   6.150  0.9107  0.1786 -0.5672
 7261SOL    HW233420   1.814   4.045   6.005  0.0363 -0.5985  0.3863
 7262SOL     OW33421   0.595   3.984   2.873  0.0340  0.5251  0.3280
 7262SOL    HW133422   0.583   3.965   2.966  1.8646  0.3731  0.5350
 7262SOL    HW233423   0.560   4.073   2.867  0.0664  0.4055 -1.8389
 7263SOL     OW33424   3.328   2.332  12.971 -0.2681 -0.3186  0.2943
 7263SOL    HW133425   3.334   2.254  12.915 -1.0913  0.3992 -0.8130
 7263SOL    HW233426   3.392   2.390  12.929 -1.1914 -0.0462 -0.7372
 7264SOL     OW33427   2.152   3.842   2.794 -0.0548  0.5282 -0.3113
 7264SOL    HW133428   2.077   3.901   2.807 -0.9360 -1.2539  2.6415
 7264SOL    HW233429   2.183   3.829   2.883  0.9709  2.0292 -0.4500
 7265SOL     OW33430   0.884   3.931   7.656 -0.0375 -0.3097  0.2677
 7265SOL    HW133431   0.972   3.969   7.653 -0.1409  0.2571  3.7982
 7265SOL    HW233432   0.890   3.862   7.590 -0.9283  0.1066 -0.2454
 7266SOL     OW33433   2.659   0.129   4.012  0.4878  0.2887 -0.2236
 7266SOL    HW133434   2.629   0.151   4.101  1.2687 -2.4193  0.7203
 7266SOL    HW233435   2.576   0.119   3.966  0.1194  1.6357  0.1620
 7267SOL     OW33436   4.210   4.402   5.213  0.4777 -0.1153 -0.0541
 7267SOL    HW133437   4.272   4.466   5.248 -0.2465  0.6954 -0.2296
 7267SOL    HW233438   4.226   4.419   5.121  1.0134 -0.1142  0.0388
 7268SOL     OW33439   1.975   1.133   7.863 -0.2697 -0.0139 -0.0531
 7268SOL    HW133440   1.963   1.226   7.880  0.2350 -0.3459  2.1299
 7268SOL    HW233441   2.017   1.134   7.777  0.3158 -0.3609  0.2277
 7269SOL     OW33442   3.062   1.534  17.152 -0.4146 -0.3964 -0.0061
 7269SOL    HW133443   2.967   1.535  17.158 -0.3033  0.3732  1.6920
 7269SOL    HW233444   3.080   1.440  17.152  1.5447 -0.0310 -0.8087
 7270SOL     OW33445   1.700   2.301   3.866 -0.3212  0.2029 -0.5444
 7270SOL    HW133446   1.723   2.239   3.797 -0.4182  0.2303 -0.6021
 7270SOL    HW233447   1.698   2.244   3.943  1.2875  0.1073 -0.5836
 7271SOL     OW33448   1.929   1.338   4.013 -0.2567  0.5648 -0.4950
 7271SOL    HW133449   1.870   1.413   4.011 -1.3113 -0.2283  0.4801
 7271SOL    HW233450   1.919   1.311   3.922 -1.7795 -0.2996 -0.0878
 7272SOL     OW33451   1.301   2.730   7.036  0.1924 -0.1759 -0.0727
 7272SOL    HW133452   1.358   2.657   7.060 -1.7466 -0.2926  4.0683
 7272SOL    HW233453   1.251   2.737   7.117  0.4448  1.9322 -0.1033
 7273SOL     OW33454   1.570   1.660   2.494 -0.0593 -0.0867 -0.1335
 7273SOL    HW133455   1.570   1.698   2.582  1.1450  0.6652 -0.4694
 7273SOL    HW233456   1.510   1.586   2.507 -0.4838  0.1671 -0.6285
 7274SOL     OW33457   3.374   1.265   7.149 -0.0161 -0.2283 -0.2394
 7274SOL    HW133458   3.302   1.234   7.094 -0.5333 -1.2170  0.9819
 7274SOL    HW233459   3.347   1.236   7.236 -0.2386 -0.6056 -0.4313
 7275SOL     OW33460   3.812   3.334   8.927 -0.6060 -0.0776 -0.2419
 7275SOL    HW133461   3.816   3.368   9.017 -1.1872  0.0106 -0.2533
 7275SOL    HW233462   3.844   3.411   8.881 -0.1247 -0.2801 -0.2507
 7276SOL     OW33463   3.574   2.549   8.768  0.6829  0.4082  0.1548
 7276SOL    HW133464   3.485   2.550   8.804  1.6243  0.3340  2.5210
 7276SOL    HW233465   3.584   2.454   8.756  0.8781 -0.0069  3.3369
 7277SOL     OW33466   2.828   2.347   5.650  0.5076  0.2169  0.4130
 7277SOL    HW133467   2.760   2.364   5.585  0.2505 -2.8600 -0.1191
 7277SOL    HW233468   2.902   2.328   5.594 -1.5020 -2.0528 -1.4931
 7278SOL     OW33469   4.009   1.026   6.269 -0.2385  0.2127 -1.3130
 7278SOL    HW133470   4.072   0.962   6.301  0.4812  1.4184 -0.3615
 7278SOL    HW233471   4.062   1.104   6.256  1.6282 -0.9849 -0.8505
 7279SOL     OW33472   0.725   3.961   8.465  0.4661 -0.1564 -0.2259
 7279SOL    HW133473   0.707   3.957   8.559  1.1294  1.6505 -0.0233
 7279SOL    HW233474   0.787   4.034   8.463 -0.3422  0.4915 -1.1888
 7280SOL     OW33475   0.114   2.468   3.882  0.7448  0.5955 -0.1607
 7280SOL    HW133476   0.064   2.549   3.893 -1.3179 -0.4756 -1.7246
 7280SOL    HW233477   0.074   2.427   3.805  1.8097  0.1200 -0.4558
 7281SOL     OW33478   3.044   4.079   1.615 -0.4300  0.0685 -0.6445
 7281SOL    HW133479   3.070   3.990   1.594  1.6832  0.4940  0.2430
 7281SOL    HW233480   2.967   4.061   1.669  0.6310 -0.6910  0.6165
 7282SOL     OW33481   2.887   1.012   2.856  0.4769 -0.1865  0.1243
 7282SOL    HW133482   2.915   0.963   2.933 -0.2060 -0.0427  0.4574
 7282SOL    HW233483   2.971   1.039   2.818 -0.3888  0.9558 -1.0038
 7283SOL     OW33484   2.557   2.601   3.185 -0.1860 -0.4598  0.2776
 7283SOL    HW133485   2.516   2.657   3.252  1.0802 -0.2770  0.9154
 7283SOL    HW233486   2.646   2.596   3.221  0.2580 -1.1844 -0.9321
 7284SOL     OW33487   0.795   1.474  15.567  0.1017  0.2229 -0.1367
 7284SOL    HW133488   0.843   1.507  15.644 -0.1372  1.2401 -0.4242
 7284SOL    HW233489   0.803   1.551  15.512  2.1317 -1.4888 -2.2469
 7285SOL     OW33490   2.431   4.192   1.968 -0.3929  0.1768  0.5694
 7285SOL    HW133491   2.415   4.263   2.031  1.3619  2.0049 -1.0722
 7285SOL    HW233492   2.461   4.243   1.893 -1.7154 -0.2707 -0.2540
 7286SOL     OW33493   0.631   1.801   6.821 -0.0665 -0.1505  0.1048
 7286SOL    HW133494   0.628   1.844   6.736  1.6993 -1.0831 -0.4216
 7286SOL    HW233495   0.724   1.802   6.846  0.7741  0.2639 -3.0956
 7287SOL     OW33496   3.913   3.785   4.621  0.4951 -0.6450 -0.3765
 7287SOL    HW133497   3.961   3.715   4.578  0.4387 -2.1512  2.0409
 7287SOL    HW233498   3.950   3.782   4.709 -0.3286  0.5360  0.0139
 7288SOL     OW33499   3.421   4.656   0.949  0.2468  0.6081 -0.3576
 7288SOL    HW133500   3.504   4.627   0.988  0.4033  2.6748  0.8591
 7288SOL    HW233501   3.358   4.659   1.021 -3.7351  0.2531 -3.8638
 7289SOL     OW33502   3.509   3.783   4.301  0.0216  0.4998  0.1255
 7289SOL    HW133503   3.543   3.871   4.285  1.5143  0.2927  2.1920
 7289SOL    HW233504   3.467   3.756   4.219 -1.3586  2.3517  0.2457
 7290SOL     OW33505   0.853   3.883  11.244 -0.1886 -0.3167 -0.1716
 7290SOL    HW133506   0.837   3.831  11.322  0.0631 -1.6887 -1.0382
 7290SOL    HW233507   0.889   3.960  11.289  0.4533  0.1783 -1.5353
 7291SOL     OW33508   2.615   1.578   0.427  0.3220  0.0596 -0.0927
 7291SOL    HW133509   2.536   1.532   0.456  0.7055  0.3160  1.3763
 7291SOL    HW233510   2.675   1.554   0.499  0.0750 -1.9857 -0.5527
 7292SOL     OW33511   2.376   3.791   2.598  0.1052 -0.7982 -0.2537
 7292SOL    HW133512   2.297   3.819   2.644  0.3474 -1.2424  0.4348
 7292SOL    HW233513   2.394   3.861   2.536 -1.9358 -2.6322 -2.9397
 7293SOL     OW33514   1.025   2.778   6.517  0.3458  0.0505  0.0732
 7293SOL    HW133515   0.986   2.761   6.603 -1.4305  0.5113 -0.6276
 7293SOL    HW233516   0.961   2.740   6.456 -0.3308  1.0547  0.1515
 7294SOL     OW33517   3.048   4.415  12.433  0.1217  0.5246 -0.7848
 7294SOL    HW133518   3.117   4.463  12.388  0.1572  1.8350  0.6749
 7294SOL    HW233519   3.012   4.366  12.359  0.6819  1.0374 -1.3974
 7295SOL     OW33520   1.103   0.785   5.195  0.3246 -0.3701  0.3039
 7295SOL    HW133521   1.153   0.799   5.114 -1.0124  1.1674 -0.2413
 7295SOL    HW233522   1.125   0.867   5.238  1.7345 -0.9404  0.6805
 7296SOL     OW33523   1.987   2.748   8.967  0.3429 -0.1135  1.0228
 7296SOL    HW133524   1.958   2.793   8.887 -1.9504 -1.9383  0.8124
 7296SOL    HW233525   1.929   2.784   9.034  0.5430  0.5508  0.8426
 7297SOL     OW33526   0.236   2.657   2.292 -0.3234  0.4588  0.6872
 7297SOL    HW133527   0.244   2.569   2.329  1.1081  0.2646 -0.0675
 7297SOL    HW233528   0.144   2.663   2.266 -0.1665  1.2950  0.3207
 7298SOL     OW33529   1.895   1.481  16.058 -0.3477 -0.3023  0.8898
 7298SOL    HW133530   1.963   1.530  16.104 -1.6561  2.6813 -0.3316
 7298SOL    HW233531   1.911   1.508  15.968  1.2302  0.8896  1.5183
 7299SOL     OW33532   1.864   3.930   5.851 -0.2026  1.0700  0.6157
 7299SOL    HW133533   1.805   3.900   5.783  0.8265 -0.1578  0.2662
 7299SOL    HW233534   1.925   3.857   5.861  1.7630  2.9664  2.5272
 7300SOL     OW33535   1.506   0.087  16.866 -0.4669 -0.0017 -0.1903
 7300SOL    HW133536   1.435   0.138  16.905 -1.6567  0.6774 -3.2057
 7300SOL    HW233537   1.540   0.159  16.812  0.0104 -0.9176 -1.1062
 7301SOL     OW33538   3.270   1.599   7.780 -0.6202 -0.1861  0.5599
 7301SOL    HW133539   3.239   1.543   7.708  1.5504 -1.0830  0.3127
 7301SOL    HW233540   3.282   1.552   7.862  0.5489 -0.1820  0.3812
 7302SOL     OW33541   0.805   1.742   5.443  0.3043  0.5767  0.3712
 7302SOL    HW133542   0.845   1.777   5.363 -0.1800  1.5466  0.5541
 7302SOL    HW233543   0.861   1.671   5.474 -0.5359  0.5142  1.7468
 7303SOL     OW33544   2.045   0.688   1.880 -0.2471  0.2701  0.4684
 7303SOL    HW133545   1.965   0.661   1.924 -0.8574  0.9088 -0.2532
 7303SOL    HW233546   2.060   0.773   1.921  0.4349 -0.1918  1.1735
 7304SOL     OW33547   1.280   1.588  13.705 -0.2860  0.0719 -0.0626
 7304SOL    HW133548   1.269   1.652  13.634 -0.0665 -1.4760 -1.4739
 7304SOL    HW233549   1.371   1.607  13.729 -0.4369 -1.8608  2.0194
 7305SOL     OW33550   4.548   3.720   6.219 -0.4012  0.0408  0.2832
 7305SOL    HW133551   4.606   3.737   6.292  1.2745 -0.1510 -1.0065
 7305SOL    HW233552   4.483   3.668   6.267  0.2239 -1.8076 -0.8513
 7306SOL     OW33553   1.367   3.906   2.894 -0.4334  0.5112 -0.4798
 7306SOL    HW133554   1.278   3.939   2.891 -0.6547 -0.1482 -1.1277
 7306SOL    HW233555   1.411   3.952   2.822  0.2562 -1.2975 -1.2127
 7307SOL     OW33556   2.272   1.079   7.329 -0.4674  0.0123  0.2807
 7307SOL    HW133557   2.340   1.037   7.276 -0.4678 -1.1524  1.1793
 7307SOL    HW233558   2.268   1.013   7.398  1.0202 -0.1022  0.2651
 7308SOL     OW33559   1.302   4.129   4.208 -0.0243 -0.5079  0.4591
 7308SOL    HW133560   1.387   4.174   4.203 -0.3756  0.3567  2.1691
 7308SOL    HW233561   1.253   4.172   4.139  1.2324 -1.6348 -1.1281
 7309SOL     OW33562   4.630   1.789   9.236 -0.1776  0.0421 -0.2909
 7309SOL    HW133563   4.567   1.767   9.304  1.9780 -4.1274  0.3578
 7309SOL    HW233564   4.714   1.790   9.281 -1.0433 -0.5567  1.3299
 7310SOL     OW33565   3.924   2.336   2.997  0.1232  0.0231 -0.4573
 7310SOL    HW133566   3.844   2.330   2.945 -1.4763 -1.1930  2.1390
 7310SOL    HW233567   3.890   2.369   3.080 -0.3133  0.9627 -1.0129
 7311SOL     OW33568   1.384   0.275  10.961 -0.3327 -0.2499 -0.1007
 7311SOL    HW133569   1.460   0.278  10.904  1.9567  0.6614  3.0013
 7311SOL    HW233570   1.414   0.211  11.025  0.4787 -1.4807 -1.6980
 7312SOL     OW33571   4.335   4.446   0.659 -0.0072  0.0318  0.1875
 7312SOL    HW133572   4.394   4.427   0.732 -2.1232 -2.5991  1.2338
 7312SOL    HW233573   4.273   4.509   0.696  1.8834  2.9932 -1.7282
 7313SOL     OW33574   3.465   3.546   6.451  0.3035 -0.3493  0.5413
 7313SOL    HW133575   3.535   3.609   6.468  0.4394  0.1174 -1.7157
 7313SOL    HW233576   3.394   3.583   6.504 -0.0570  1.4614 -1.1992
 7314SOL     OW33577   4.015   3.032   7.118  0.0713  0.2091 -0.3052
 7314SOL    HW133578   4.069   3.103   7.083 -1.0408 -0.7734 -4.0026
 7314SOL    HW233579   3.989   3.069   7.202 -0.7358 -0.2140 -0.3776
 7315SOL     OW33580   0.540   0.185   0.431  0.2727  0.2702 -0.0744
 7315SOL    HW133581   0.567   0.232   0.510 -2.2282  0.1989  0.8377
 7315SOL    HW233582   0.562   0.095   0.452  0.0824 -0.2147 -1.9444
 7316SOL     OW33583   0.219   1.099   3.465  0.1094 -0.2413  0.2628
 7316SOL    HW133584   0.253   1.096   3.554  0.4836 -1.0789  0.0956
 7316SOL    HW233585   0.217   1.192   3.445  2.7537 -0.1463  0.4134
 7317SOL     OW33586   0.247   2.944  10.148  0.0252 -0.3111  0.2754
 7317SOL    HW133587   0.268   3.036  10.166 -1.4950 -0.0253  0.5734
 7317SOL    HW233588   0.331   2.901  10.165 -0.0820 -0.5331  0.2436
 7318SOL     OW33589   3.503   4.514   4.606 -0.1298  0.4571 -0.1988
 7318SOL    HW133590   3.475   4.423   4.618  0.1932  0.3744 -0.1000
 7318SOL    HW233591   3.421   4.546   4.567 -3.0305 -3.1491  2.8569
 7319SOL     OW33592   0.001   1.843   6.834 -0.4830  0.3502 -0.3181
 7319SOL    HW133593   4.699   1.919   6.879 -0.3786  1.2209 -1.7092
 7319SOL    HW233594   4.691   1.772   6.880  1.4042  1.1354  2.8183
 7320SOL     OW33595   1.291   0.285   2.818 -0.1276  0.0837  0.2439
 7320SOL    HW133596   1.340   0.253   2.894  1.7395  0.2440 -0.8919
 7320SOL    HW233597   1.365   0.318   2.766 -0.0410  0.5733  0.6800
 7321SOL     OW33598   2.380   3.993   6.392 -0.3075 -0.4193  0.0705
 7321SOL    HW133599   2.285   3.991   6.396 -0.4127  1.5024 -1.7481
 7321SOL    HW233600   2.392   3.915   6.338  0.4822  0.6849 -1.3302
 7322SOL     OW33601   2.406   0.249   4.470 -0.6476  0.0690 -0.2813
 7322SOL    HW133602   2.482   0.305   4.485  0.0969 -1.0323  0.0153
 7322SOL    HW233603   2.408   0.236   4.376 -0.5820  2.0017 -0.5641
 7323SOL     OW33604   1.825   2.892   9.128  0.4673 -0.2133 -0.6119
 7323SOL    HW133605   1.823   2.846   9.212  1.0933 -0.6570 -0.8416
 7323SOL    HW233606   1.819   2.983   9.157 -1.4324 -0.1166 -1.3524
 7324SOL     OW33607   2.118   0.293   4.416 -0.0473  0.2194  0.8503
 7324SOL    HW133608   2.203   0.329   4.389 -1.3090  0.7373 -2.3787
 7324SOL    HW233609   2.145   0.203   4.436  0.3214  0.0748 -0.2842
 7325SOL     OW33610   2.929   1.915  15.877 -0.2539 -0.6946  0.2186
 7325SOL    HW133611   2.951   1.857  15.805 -3.0933 -3.7860  1.8752
 7325SOL    HW233612   3.007   1.970  15.867 -0.4400 -0.4596  0.0675
 7326SOL     OW33613   0.383   0.612   5.276  0.2918  0.0346 -0.0691
 7326SOL    HW133614   0.351   0.693   5.317 -1.4009 -0.5869 -0.1542
 7326SOL    HW233615   0.466   0.597   5.320 -1.6363  0.3904  3.6972
 7327SOL     OW33616   4.575   0.625   2.207  0.1424 -0.2398 -0.3432
 7327SOL    HW133617   4.567   0.642   2.301  2.2707 -1.4370  0.0544
 7327SOL    HW233618   4.583   0.530   2.207  0.8825 -0.1754 -1.6924
 7328SOL     OW33619   3.894   2.211   9.962 -0.6748  0.5166 -0.8451
 7328SOL    HW133620   3.830   2.250   9.902 -0.3438 -0.7412 -1.9994
 7328SOL    HW233621   3.976   2.252   9.931  0.4817  0.1347  1.7631
 7329SOL     OW33622   3.851   3.948   7.097  0.2254 -0.1820 -0.1562
 7329SOL    HW133623   3.879   3.976   7.010 -0.5284  1.0190 -0.0072
 7329SOL    HW233624   3.761   3.981   7.098  0.1457 -0.3526 -1.8611
 7330SOL     OW33625   1.244   3.099   4.737 -0.0452  0.7589 -0.5355
 7330SOL    HW133626   1.231   3.180   4.785  0.8970  0.6065 -0.0321
 7330SOL    HW233627   1.188   3.104   4.659  0.0191 -0.7288 -0.6951
 7331SOL     OW33628   3.344   2.822   2.758 -0.1670 -0.0489  0.3044
 7331SOL    HW133629   3.313   2.743   2.715  2.4972  1.0413 -3.5646
 7331SOL    HW233630   3.368   2.785   2.843 -2.4306  1.1012  1.4439
 7332SOL     OW33631   0.686   3.450   5.099  0.3312 -0.5244  0.1957
 7332SOL    HW133632   0.691   3.527   5.043  0.2121 -0.2816  0.5148
 7332SOL    HW233633   0.602   3.415   5.067 -1.3952  1.0734  2.9695
 7333SOL     OW33634   3.665   0.357   2.595  0.0647  0.1413  0.1102
 7333SOL    HW133635   3.700   0.270   2.573  0.1502  0.1549  0.1931
 7333SOL    HW233636   3.574   0.339   2.569  0.3217 -0.5770 -0.2955
 7334SOL     OW33637   0.503   2.472   5.754 -0.5637 -0.3255  0.6033
 7334SOL    HW133638   0.561   2.546   5.772 -1.5335  0.8380 -1.1567
 7334SOL    HW233639   0.425   2.503   5.801 -0.5603  2.9828 -1.6480
 7335SOL     OW33640   3.744   0.142   5.525  0.3365  0.4849  0.5947
 7335SOL    HW133641   3.809   0.184   5.581 -1.0504  1.2637  1.6098
 7335SOL    HW233642   3.795   0.129   5.445 -0.2230  0.1181  0.2941
 7336SOL     OW33643   0.839   2.886   5.074 -0.7192  0.5402  0.5141
 7336SOL    HW133644   0.841   2.819   5.144 -1.0421  0.4450  0.4293
 7336SOL    HW233645   0.767   2.853   5.021 -0.3887 -0.0746  0.4466
 7337SOL     OW33646   3.353   2.613   5.340  0.0199  0.3085  0.0832
 7337SOL    HW133647   3.438   2.594   5.301  0.3557  0.3554  0.7876
 7337SOL    HW233648   3.368   2.609   5.434  0.3407  2.5744  0.1357
 7338SOL     OW33649   2.770   3.895   4.431 -0.1035 -0.1749  0.0143
 7338SOL    HW133650   2.778   3.819   4.488  2.1963 -1.4812 -2.0452
 7338SOL    HW233651   2.683   3.890   4.392  0.5302  2.1792 -1.6855
 7339SOL     OW33652   3.558   2.184   2.168 -0.0110  0.3064 -0.3865
 7339SOL    HW133653   3.598   2.121   2.227 -1.5258 -1.6525 -1.4315
 7339SOL    HW233654   3.466   2.193   2.193 -0.0067  0.8877 -0.5892
 7340SOL     OW33655   0.745   1.506   3.148 -0.2301 -0.3566 -0.3027
 7340SOL    HW133656   0.809   1.571   3.178  0.2465 -0.8814 -0.1808
 7340SOL    HW233657   0.791   1.424   3.165 -0.8955 -0.2212  2.1443
 7341SOL     OW33658   3.664   0.065   3.798  0.1388  0.2648 -0.7814
 7341SOL    HW133659   3.575   0.045   3.828 -0.3342 -0.4940 -2.7511
 7341SOL    HW233660   3.666   0.157   3.825  1.4225 -0.4668  1.6905
 7342SOL     OW33661   0.469   2.968  10.457  0.2958  0.0431  0.0561
 7342SOL    HW133662   0.464   2.896  10.520  0.5482 -0.9873 -1.1092
 7342SOL    HW233663   0.555   2.946  10.421  0.8945  0.8282  0.9963
 7343SOL     OW33664   2.794   3.017  11.172  0.4555 -0.6372  0.8138
 7343SOL    HW133665   2.835   3.096  11.208 -0.8219  0.3404  0.1292
 7343SOL    HW233666   2.832   3.011  11.084 -1.3121  0.4323 -0.0319
 7344SOL     OW33667   4.700   3.438  15.719  0.2894  0.4651 -0.0724
 7344SOL    HW133668   4.611   3.410  15.740 -0.0407  1.9705  0.5363
 7344SOL    HW233669   4.699   3.416  15.626  0.6342 -1.1810  0.3222
 7345SOL     OW33670   3.251   1.123   7.659  0.4199  0.0761  0.2207
 7345SOL    HW133671   3.227   1.138   7.567 -0.1288 -0.1550  0.3233
 7345SOL    HW233672   3.346   1.120   7.652  0.3501 -1.6094  0.0564
 7346SOL     OW33673   1.811   0.654   7.626 -0.0519 -0.1152  0.0732
 7346SOL    HW133674   1.763   0.630   7.705  0.6053  0.8762  0.7849
 7346SOL    HW233675   1.884   0.705   7.660 -0.5109 -0.7833  2.0224
 7347SOL     OW33676   3.817   4.066  17.330 -0.0837  0.1303  0.7748
 7347SOL    HW133677   3.875   4.126  17.377  1.8415  0.1267 -1.6152
 7347SOL    HW233678   3.801   3.993  17.390  2.6439 -2.2009 -1.3002
 7348SOL     OW33679   4.034   2.101   4.841 -0.2643 -0.4693 -0.1829
 7348SOL    HW133680   4.066   2.191   4.851 -2.5670  0.2722  0.5930
 7348SOL    HW233681   3.983   2.104   4.760  0.3626 -0.2461 -0.5681
 7349SOL     OW33682   3.291   0.983   2.749 -0.1493  0.0132  0.1669
 7349SOL    HW133683   3.227   1.002   2.680  0.6147  0.4529 -0.4238
 7349SOL    HW233684   3.341   1.065   2.748  0.4075 -0.3152  0.8169
 7350SOL     OW33685   1.719   3.300   8.339 -0.0846 -0.9396  0.8129
 7350SOL    HW133686   1.724   3.225   8.399  0.4345 -1.0416  0.6510
 7350SOL    HW233687   1.660   3.243   8.291  0.0754 -0.7965  0.4457
 7351SOL     OW33688   3.554   2.694   6.155 -0.6372 -0.0297 -0.1675
 7351SOL    HW133689   3.617   2.736   6.213 -2.2631  1.8496  0.2376
 7351SOL    HW233690   3.592   2.607   6.147  1.4798  0.7596  1.0976
 7352SOL     OW33691   1.792   0.668   6.720 -0.0276  0.3240 -0.1699
 7352SOL    HW133692   1.849   0.592   6.712  1.5679  1.4340  0.8222
 7352SOL    HW233693   1.705   0.640   6.691 -0.3553  2.2555 -1.0612
 7353SOL     OW33694   3.844   2.013  15.523  0.4579  0.2797 -0.0589
 7353SOL    HW133695   3.780   1.955  15.564  0.4373  1.2647  1.2878
 7353SOL    HW233696   3.795   2.095  15.530 -1.1506 -0.7047  0.1500
 7354SOL     OW33697   2.714   1.641  16.369 -0.5583 -0.1436  0.4842
 7354SOL    HW133698   2.805   1.611  16.367 -0.2052  0.7976  2.5730
 7354SOL    HW233699   2.721   1.727  16.327 -2.1484  0.3800  1.3119
 7355SOL     OW33700   0.055   3.311   5.929  0.4716 -0.9200 -0.2293
 7355SOL    HW133701   0.106   3.365   5.868  0.9255 -0.1808  0.8053
 7355SOL    HW233702   0.118   3.255   5.973  0.2311 -1.2057 -0.2491
 7356SOL     OW33703   3.427   3.469   2.965  0.2330 -0.0729  0.0807
 7356SOL    HW133704   3.458   3.522   2.891 -0.2418  1.6831  1.1277
 7356SOL    HW233705   3.459   3.384   2.937 -0.5953  0.2138 -1.7236
 7357SOL     OW33706   0.205   3.472  11.412 -0.5614 -0.1480  0.4562
 7357SOL    HW133707   0.236   3.382  11.423  1.0411  0.4611  0.8425
 7357SOL    HW233708   0.281   3.513  11.370 -1.1772 -0.7102 -1.2117
 7358SOL     OW33709   4.276   2.068   5.333  0.3587 -0.1308 -0.5883
 7358SOL    HW133710   4.360   2.059   5.379  0.1326  0.6729 -0.0099
 7358SOL    HW233711   4.300   2.131   5.265  0.7546  1.8244  1.3599
 7359SOL     OW33712   2.274   0.010  10.874 -0.4244  0.6527  0.3489
 7359SOL    HW133713   2.250   4.677  10.812  2.5949 -0.8505  0.8447
 7359SOL    HW233714   2.270   0.081  10.809 -1.2766 -0.6441 -1.0077
 7360SOL     OW33715   3.933   1.809  16.429  0.2447  0.2729  0.4372
 7360SOL    HW133716   3.992   1.738  16.407 -0.0431 -0.7177  2.8168
 7360SOL    HW233717   3.935   1.861  16.349 -2.6290  1.1233  0.9177
 7361SOL     OW33718   0.848   0.424   7.508 -0.0342  0.1494  0.4577
 7361SOL    HW133719   0.881   0.493   7.566 -0.7204  0.8181  0.0446
 7361SOL    HW233720   0.849   0.464   7.421  0.7139 -0.9785 -0.0579
 7362SOL     OW33721   3.338   1.260  12.597 -0.2775  0.6332 -0.5302
 7362SOL    HW133722   3.406   1.219  12.651 -1.4291  0.7712  1.0323
 7362SOL    HW233723   3.395   1.317  12.545  1.2950 -1.7368 -1.4160
 7363SOL     OW33724   1.731   2.196   6.648 -0.1272  0.3810 -0.5476
 7363SOL    HW133725   1.651   2.204   6.701 -0.9798  1.4476 -1.9840
 7363SOL    HW233726   1.750   2.105   6.669 -0.5271  0.4937  0.2953
 7364SOL     OW33727   4.107   1.436   7.159 -0.4133 -0.0393  0.0891
 7364SOL    HW133728   4.202   1.438   7.169 -0.4951  1.3603  0.5105
 7364SOL    HW233729   4.075   1.350   7.186 -2.3776  0.5288 -0.4149
 7365SOL     OW33730   0.024   2.102   9.530  0.0715 -0.2889 -0.1331
 7365SOL    HW133731   4.664   2.091   9.532 -0.2053  2.3288  2.2691
 7365SOL    HW233732   0.041   2.066   9.617  1.1269 -0.1280 -0.2775
 7366SOL     OW33733   0.173   1.503   7.326  0.6983 -0.0813  0.6570
 7366SOL    HW133734   0.232   1.538   7.394  0.6913 -2.6012  1.9501
 7366SOL    HW233735   0.210   1.551   7.252 -0.8485 -1.6025 -1.0670
 7367SOL     OW33736   0.749   4.551   6.163  0.6832  0.2391 -0.1266
 7367SOL    HW133737   0.736   4.459   6.141 -0.5263  0.7957 -1.6908
 7367SOL    HW233738   0.817   4.544   6.230  0.0650  0.1355  0.4852
 7368SOL     OW33739   2.607   4.035   6.133 -0.1131 -0.3146  0.4179
 7368SOL    HW133740   2.541   3.975   6.167  2.4761 -2.0375  2.3582
 7368SOL    HW233741   2.605   4.022   6.038  0.7027 -0.1310  0.3714
 7369SOL     OW33742   3.272   3.676   3.128  0.3435 -0.3353 -0.6116
 7369SOL    HW133743   3.289   3.696   3.036 -1.9124 -2.0775 -1.4266
 7369SOL    HW233744   3.355   3.642   3.160  0.1187  0.1255  0.4691
 7370SOL     OW33745   3.575   2.759   9.926  0.0203 -0.0099  0.1295
 7370SOL    HW133746   3.644   2.825   9.924  0.6269 -0.6597 -0.1946
 7370SOL    HW233747   3.589   2.707  10.004 -1.1208 -1.7913 -0.8449
 7371SOL     OW33748   2.308   1.802   3.695  0.2568 -0.1657  0.4053
 7371SOL    HW133749   2.265   1.835   3.773  0.3160  0.9396 -0.0295
 7371SOL    HW233750   2.272   1.713   3.696  0.3045 -0.1780  0.7930
 7372SOL     OW33751   1.080   2.185   6.317  0.1613 -0.5029 -0.0584
 7372SOL    HW133752   0.985   2.183   6.304  0.0146 -2.1305  1.3932
 7372SOL    HW233753   1.107   2.189   6.225 -1.0205 -2.9818 -0.5130
 7373SOL     OW33754   4.362   1.157  14.478 -0.3691 -0.3257  0.0513
 7373SOL    HW133755   4.279   1.120  14.510 -0.9718  1.8425  1.0390
 7373SOL    HW233756   4.333   1.241  14.442 -0.1489 -1.1247 -1.9611
 7374SOL     OW33757   0.488   4.146   6.946  0.4881 -0.2338  0.1604
 7374SOL    HW133758   0.547   4.217   6.974  0.2095 -0.3444  1.0296
 7374SOL    HW233759   0.479   4.167   6.853 -1.8420  1.6842  0.8289
 7375SOL     OW33760   4.258   1.947   3.168 -0.2396 -0.1257  0.0659
 7375SOL    HW133761   4.183   1.895   3.139  0.1401  0.2964 -1.6248
 7375SOL    HW233762   4.207   2.022   3.198 -1.5347 -1.4393  1.2094
 7376SOL     OW33763   1.567   0.291   2.897 -0.0916 -0.1025  0.1517
 7376SOL    HW133764   1.602   0.232   2.963 -1.6150  1.5677  2.4506
 7376SOL    HW233765   1.512   0.351   2.948  0.4582 -1.6002  2.4838
 7377SOL     OW33766   0.713   2.733   8.321 -0.4128 -0.0861 -0.5432
 7377SOL    HW133767   0.621   2.744   8.344 -0.0032  4.1416 -0.9209
 7377SOL    HW233768   0.750   2.817   8.348  2.6384 -2.0342  1.2833
 7378SOL     OW33769   0.362   2.876   6.942  0.4257  0.0898  0.0478
 7378SOL    HW133770   0.410   2.893   7.023 -0.1619 -0.6992  0.5559
 7378SOL    HW233771   0.425   2.902   6.875 -0.6085  1.2449 -0.4844
 7379SOL     OW33772   3.860   3.733   9.010  0.1298  0.5464 -0.3163
 7379SOL    HW133773   3.948   3.718   9.044  0.6375  0.5137 -1.6718
 7379SOL    HW233774   3.823   3.770   9.091  1.9075  1.9894 -0.1563
 7380SOL     OW33775   1.245   3.626   3.885  0.1187  0.2878 -0.0233
 7380SOL    HW133776   1.214   3.715   3.899 -1.1727 -0.3859  1.5202
 7380SOL    HW233777   1.225   3.600   3.795 -0.9304 -0.5268  0.4285
 7381SOL     OW33778   2.854   0.325   1.681  0.7217 -0.4025  0.0769
 7381SOL    HW133779   2.821   0.343   1.768  2.1165  1.8137  0.1665
 7381SOL    HW233780   2.781   0.352   1.625  1.5775  1.8013  0.0105
 7382SOL     OW33781   0.724   1.574   0.362  0.0140 -0.3492 -0.3916
 7382SOL    HW133782   0.738   1.659   0.404 -1.6167 -0.5359  0.5544
 7382SOL    HW233783   0.813   1.541   0.351 -0.2133 -0.5290 -1.7295
 7383SOL     OW33784   2.174   1.701  15.106 -1.0622 -0.5160  1.3217
 7383SOL    HW133785   2.208   1.645  15.176  0.5695  0.4004  1.2557
 7383SOL    HW233786   2.255   1.749  15.089 -1.3118 -1.1302 -1.6352
 7384SOL     OW33787   3.890   0.326   3.777  0.4676 -0.5335 -0.5741
 7384SOL    HW133788   3.983   0.322   3.754  0.4393 -2.0854 -0.4154
 7384SOL    HW233789   3.872   0.418   3.761  0.5981 -0.1661  1.3867
 7385SOL     OW33790   3.844   1.793   8.332  0.0585  0.8565 -0.6123
 7385SOL    HW133791   3.866   1.712   8.379 -1.0974 -0.2324 -1.9354
 7385SOL    HW233792   3.883   1.778   8.245 -1.8060 -1.3323 -1.0668
 7386SOL     OW33793   0.955   3.980  10.145 -0.1710 -0.3623  0.4769
 7386SOL    HW133794   0.972   3.887  10.158 -0.9850 -0.6028 -0.1698
 7386SOL    HW233795   1.022   4.008  10.207  0.2491 -2.4050  0.9389
 7387SOL     OW33796   4.062   4.207  13.382 -0.1372 -0.1126  0.0731
 7387SOL    HW133797   4.104   4.293  13.373  1.1508 -0.8983 -1.7124
 7387SOL    HW233798   3.979   4.220  13.336  0.3650  0.1086 -0.7744
 7388SOL     OW33799   0.106   2.811   6.807  0.2017  0.1847  0.1026
 7388SOL    HW133800   0.091   2.890   6.859 -0.5359 -0.3479  0.7032
 7388SOL    HW233801   0.202   2.816   6.810  0.1824 -0.4882  2.1149
 7389SOL     OW33802   1.353   4.585   4.158  0.2243 -0.1267  0.5719
 7389SOL    HW133803   1.355   4.516   4.092 -1.9716 -0.7319  1.1437
 7389SOL    HW233804   1.275   4.637   4.141  1.2628  0.6373 -1.8383
 7390SOL     OW33805   2.091   4.201   2.206 -0.0104  0.4704  0.5694
 7390SOL    HW133806   2.167   4.259   2.211 -0.0087  0.3375  2.1835
 7390SOL    HW233807   2.038   4.266   2.254 -0.1373  0.1950  0.8022
 7391SOL     OW33808   2.498   4.164   2.761 -0.4281  0.4606  0.4015
 7391SOL    HW133809   2.588   4.151   2.790 -0.1564 -2.3991 -1.7453
 7391SOL    HW233810   2.522   4.231   2.697  1.7533 -0.5655  0.1462
 7392SOL     OW33811   3.860   1.768  12.356  0.0441 -0.4241  0.7385
 7392SOL    HW133812   3.847   1.713  12.279  1.5249  0.8541 -0.4164
 7392SOL    HW233813   3.913   1.843  12.330 -0.5144 -0.0546  0.6688
 7393SOL     OW33814   0.793   3.969   4.812 -0.1719 -0.5501  0.0689
 7393SOL    HW133815   0.826   3.958   4.901  1.9432 -1.2912 -0.8090
 7393SOL    HW233816   0.868   4.001   4.763  0.5789 -1.7584  0.4302
 7394SOL     OW33817   0.380   1.687   4.534 -0.4128  0.0455 -0.3141
 7394SOL    HW133818   0.387   1.594   4.511 -0.6731  0.4885 -2.2089
 7394SOL    HW233819   0.468   1.707   4.568 -0.1918  0.4447 -1.1087
 7395SOL     OW33820   1.628   0.276   7.823 -0.1188  0.4522  0.4147
 7395SOL    HW133821   1.680   0.297   7.745 -0.6263  1.9176  0.4849
 7395SOL    HW233822   1.552   0.232   7.784  1.1864  1.3372 -3.1032
 7396SOL     OW33823   0.903   3.072   6.921 -0.4136 -0.1471  0.2178
 7396SOL    HW133824   0.853   3.118   6.854 -0.6121 -0.7802 -0.0638
 7396SOL    HW233825   0.883   3.124   7.000 -0.7012  0.4512 -0.2523
 7397SOL     OW33826   4.404   0.448   9.403 -0.1136  0.7591  0.2132
 7397SOL    HW133827   4.380   0.382   9.468 -1.0676  0.0641 -0.8506
 7397SOL    HW233828   4.331   0.510   9.411 -2.1666 -2.2184  4.2240
 7398SOL     OW33829   3.063   2.062   9.102 -0.3734 -0.4250  0.8327
 7398SOL    HW133830   3.038   2.028   9.016  0.2900 -0.8850  0.8197
 7398SOL    HW233831   3.138   2.119   9.082 -1.6870  1.2879  0.8038
 7399SOL     OW33832   0.382   3.934   6.611 -0.3772 -0.2715 -0.3448
 7399SOL    HW133833   0.291   3.910   6.596 -0.3817  0.3681 -1.3443
 7399SOL    HW233834   0.373   4.025   6.640 -0.8062 -0.5995  0.5585
 7400SOL     OW33835   0.425   1.600   8.081  0.3178 -0.1137  0.6170
 7400SOL    HW133836   0.505   1.634   8.119  0.4053  1.1836 -0.7325
 7400SOL    HW233837   0.461   1.515   8.056 -0.9915 -0.1352 -1.2894
 7401SOL     OW33838   1.035   0.223   7.260  0.4776 -0.0772  0.2170
 7401SOL    HW133839   0.947   0.200   7.289  0.5196 -0.9916 -0.4021
 7401SOL    HW233840   1.030   0.319   7.263 -0.0833 -0.0969 -0.1485
 7402SOL     OW33841   1.041   2.470  14.019  0.3787 -0.1581 -0.0691
 7402SOL    HW133842   1.075   2.468  13.930  0.7231  0.9975  0.0319
 7402SOL    HW233843   1.106   2.524  14.064 -2.4073  1.3652  2.1200
 7403SOL     OW33844   1.256   1.459   4.588  0.4178 -0.7896 -0.0694
 7403SOL    HW133845   1.266   1.475   4.682  2.8330 -0.1674 -0.4249
 7403SOL    HW233846   1.350   1.448   4.573 -0.1243 -3.5846 -1.4326
 7404SOL     OW33847   4.678   1.112   2.106  0.4543 -0.2739 -0.3125
 7404SOL    HW133848   4.639   1.195   2.132 -0.6600 -1.5113  2.0124
 7404SOL    HW233849   4.657   1.064   2.186  1.2316  0.7853  0.5238
 7405SOL     OW33850   2.937   0.915   5.040  0.7694 -0.4052 -0.4021
 7405SOL    HW133851   2.912   0.850   5.106 -2.3026 -0.5209 -1.6731
 7405SOL    HW233852   3.019   0.950   5.075  0.2621  1.2091 -0.8336
 7406SOL     OW33853   2.124   3.159   5.824  0.3375  0.0168  0.5668
 7406SOL    HW133854   2.138   3.166   5.729  0.4973 -0.2012  0.5746
 7406SOL    HW233855   2.128   3.064   5.836 -1.6646  0.3610  3.9580
 7407SOL     OW33856   0.186   2.358   2.299 -0.5116 -0.2015 -0.2963
 7407SOL    HW133857   0.115   2.311   2.344 -1.4215  0.7600 -0.7411
 7407SOL    HW233858   0.259   2.332   2.355 -0.7400  0.0746  0.1312
 7408SOL     OW33859   1.407   3.950   5.797  0.3896 -0.1207  0.2061
 7408SOL    HW133860   1.438   3.940   5.707  0.3051  0.6629  0.0869
 7408SOL    HW233861   1.321   3.988   5.783  1.5721  1.9975 -1.3855
 7409SOL     OW33862   2.828   0.768  13.423 -0.2546 -0.1193  0.1732
 7409SOL    HW133863   2.790   0.681  13.406  1.1435 -0.8208  0.6397
 7409SOL    HW233864   2.812   0.793  13.514  2.9687 -0.7644  0.9100
 7410SOL     OW33865   3.986   2.479  14.127  0.2091 -0.2338 -0.2501
 7410SOL    HW133866   3.922   2.541  14.091  0.6738  0.5067  0.1944
 7410SOL    HW233867   4.016   2.444  14.043 -1.2368 -0.3063 -0.7414
 7411SOL     OW33868   4.011   0.149   2.274 -0.3545  0.3279  0.1693
 7411SOL    HW133869   4.009   0.091   2.349  3.0485  1.5598  1.2070
 7411SOL    HW233870   3.934   0.114   2.229 -0.1344  0.8736 -0.6396
 7412SOL     OW33871   2.377   2.672   2.412  0.8734  0.7937  0.1774
 7412SOL    HW133872   2.392   2.765   2.430 -2.1981  0.9098  2.2431
 7412SOL    HW233873   2.430   2.658   2.334 -0.1506  0.4695 -0.4648
 7413SOL     OW33874   3.812   3.074   6.957  0.6058  0.0351  0.0059
 7413SOL    HW133875   3.877   3.059   7.025  0.3733  0.0149  0.2231
 7413SOL    HW233876   3.846   3.022   6.883  0.4930 -0.0731  0.0288
 7414SOL     OW33877   2.137   2.826   7.259  0.4175  0.0542 -0.3555
 7414SOL    HW133878   2.098   2.744   7.290 -0.8261  0.7730 -0.0324
 7414SOL    HW233879   2.058   2.865   7.220  0.7098  3.6176  2.6161
 7415SOL     OW33880   1.433   1.704  11.279  0.3400  0.1841 -0.4786
 7415SOL    HW133881   1.486   1.637  11.322  0.4866  1.6697  1.6793
 7415SOL    HW233882   1.483   1.740  11.206 -0.2332 -0.5574 -1.2294
 7416SOL     OW33883   2.696   1.011   3.869 -0.0976  0.0937  0.1224
 7416SOL    HW133884   2.691   1.101   3.839 -3.7752 -0.5187 -1.0698
 7416SOL    HW233885   2.752   1.032   3.944 -3.0730  0.5054  2.2663
 7417SOL     OW33886   0.766   3.511   3.414  0.5141  0.5963 -0.2480
 7417SOL    HW133887   0.841   3.483   3.361  0.0486 -1.5336  0.2229
 7417SOL    HW233888   0.800   3.489   3.501  1.5506  0.4565 -0.6838
 7418SOL     OW33889   1.355   3.712   8.849 -0.4723  0.5670  0.3121
 7418SOL    HW133890   1.262   3.714   8.827 -0.2902 -1.1927 -0.5222
 7418SOL    HW233891   1.370   3.807   8.847  1.2815  0.2911  0.4058
 7419SOL     OW33892   0.359   1.081   3.686  0.0587 -0.2741  0.0207
 7419SOL    HW133893   0.360   0.999   3.636  1.5472 -0.5345  0.4830
 7419SOL    HW233894   0.430   1.071   3.749 -1.2088  0.4251  1.5568
 7420SOL     OW33895   3.776   4.676   6.708 -0.6838 -0.1917 -0.1171
 7420SOL    HW133896   3.706   4.657   6.771  1.4374 -0.1999  2.2444
 7420SOL    HW233897   3.742   4.637   6.628 -1.8097  0.5924 -0.0258
 7421SOL     OW33898   4.300   2.373   2.235  0.2086  0.1547  0.3781
 7421SOL    HW133899   4.278   2.450   2.182  0.5109  0.6750  1.0125
 7421SOL    HW233900   4.228   2.311   2.223  2.3586 -2.4567  0.8550
 7422SOL     OW33901   0.010   2.378   3.665  0.3193  0.0209 -0.6110
 7422SOL    HW133902   4.684   2.333   3.608 -0.8656  1.6986 -0.6681
 7422SOL    HW233903   0.094   2.375   3.620  0.9142 -3.4513  0.7697
 7423SOL     OW33904   3.509   1.659   2.068 -0.0396  0.0551 -0.1596
 7423SOL    HW133905   3.604   1.649   2.062  0.3197  2.6591  1.6128
 7423SOL    HW233906   3.498   1.568   2.095  0.6974 -0.3201 -1.1132
 7424SOL     OW33907   2.954   2.921  11.371  0.5740  0.1806  0.0869
 7424SOL    HW133908   2.884   2.947  11.311 -1.2367 -0.8594  1.7422
 7424SOL    HW233909   2.960   2.826  11.358  1.5111  0.2494  0.0065
 7425SOL     OW33910   1.457   2.881   7.391 -0.0490  0.1491 -0.1555
 7425SOL    HW133911   1.378   2.898   7.341 -0.0113 -1.2565 -0.7006
 7425SOL    HW233912   1.496   2.810   7.340 -1.8035 -0.3343 -0.8030
 7426SOL     OW33913   0.159   3.198  11.209  0.1045 -0.1445  0.0131
 7426SOL    HW133914   0.223   3.212  11.280  0.5109  0.1293 -0.4071
 7426SOL    HW233915   0.090   3.170  11.270  0.5123 -0.5496  0.2881
 7427SOL     OW33916   3.794   0.314  13.330 -0.0918 -0.1836 -0.2596
 7427SOL    HW133917   3.871   0.279  13.375  0.3033  0.0226 -0.7713
 7427SOL    HW233918   3.811   0.299  13.237  0.1701  1.3319 -0.4622
 7428SOL     OW33919   4.250   1.301   3.720  0.3241  0.3642  0.1337
 7428SOL    HW133920   4.333   1.258   3.738 -0.7651 -1.6471  0.2682
 7428SOL    HW233921   4.243   1.291   3.625 -0.7173  0.5935  0.1839
 7429SOL     OW33922   2.511   3.657   3.115 -0.0695 -0.8184 -0.1073
 7429SOL    HW133923   2.421   3.667   3.083  0.8519 -1.6157 -2.9716
 7429SOL    HW233924   2.501   3.644   3.210 -1.2251 -1.2845 -0.2912
 7430SOL     OW33925   2.218   4.479   1.994  0.8559 -0.2342  0.5076
 7430SOL    HW133926   2.237   4.558   1.945  1.5539 -0.4357  0.4514
 7430SOL    HW233927   2.140   4.444   1.952  1.2098 -0.4724  0.0543
 7431SOL     OW33928   3.029   2.514  17.619 -0.2028 -0.0467  0.1862
 7431SOL    HW133929   3.092   2.443  17.609 -0.2739  0.2094 -2.0322
 7431SOL    HW233930   3.005   2.517  17.712 -3.0708  1.7574 -0.5936
 7432SOL     OW33931   0.195   2.651   7.215  0.3025  0.3122 -0.7584
 7432SOL    HW133932   0.118   2.596   7.227  0.2970  0.2372 -1.1372
 7432SOL    HW233933   0.144   2.732   7.207  2.3917  1.7913  0.6810
 7433SOL     OW33934   1.558   1.257   8.735  0.1502  0.0765 -0.0843
 7433SOL    HW133935   1.494   1.239   8.803  1.2891  0.6657  1.1408
 7433SOL    HW233936   1.575   1.349   8.753  0.1072  0.3036 -1.1550
 7434SOL     OW33937   4.411   1.662   3.622 -0.3458 -0.0969  0.7773
 7434SOL    HW133938   4.438   1.572   3.636 -0.7097 -0.3215  0.0323
 7434SOL    HW233939   4.458   1.698   3.697 -0.5127  1.0239  0.3416
 7435SOL     OW33940   4.342   3.652  15.529 -0.1198  0.3864  0.1921
 7435SOL    HW133941   4.255   3.633  15.567 -0.3274  2.2400  0.6238
 7435SOL    HW233942   4.399   3.636  15.604  1.3652 -1.0023 -1.2552
 7436SOL     OW33943   1.332   1.228  12.681 -0.0140 -0.7941  0.0778
 7436SOL    HW133944   1.302   1.192  12.597 -0.3128 -1.4109  0.4498
 7436SOL    HW233945   1.248   1.247  12.723  0.9440  4.4389 -0.3747
 7437SOL     OW33946   4.256   1.519   4.713  0.2642  0.5129 -0.5765
 7437SOL    HW133947   4.222   1.466   4.642 -1.0016  1.3539 -0.6039
 7437SOL    HW233948   4.225   1.467   4.787 -3.0501  1.5864 -1.1811
 7438SOL     OW33949   3.550   1.706  11.023  0.1215  0.5582  0.3758
 7438SOL    HW133950   3.619   1.722  10.959 -0.8326  2.9058 -0.0773
 7438SOL    HW233951   3.560   1.785  11.076 -0.1671  1.8414 -1.4905
 7439SOL     OW33952   3.237   3.968  12.363  0.1636 -0.0754 -0.5452
 7439SOL    HW133953   3.142   3.971  12.364  0.1716 -0.4477  2.2165
 7439SOL    HW233954   3.260   4.038  12.424  0.8559 -1.5249  0.8622
 7440SOL     OW33955   3.231   3.626   6.569 -0.4441 -0.2422  0.0835
 7440SOL    HW133956   3.150   3.586   6.536 -0.2883  0.0391 -0.6439
 7440SOL    HW233957   3.204   3.708   6.609 -2.8307 -0.2341 -1.5566
 7441SOL     OW33958   3.242   0.338  12.332 -0.5083  0.4894  0.5467
 7441SOL    HW133959   3.319   0.346  12.389 -1.1096  2.3013  1.1155
 7441SOL    HW233960   3.195   0.265  12.373 -2.4580  1.5013  0.1327
 7442SOL     OW33961   3.158   2.770   9.634 -0.0168  0.4645  0.2366
 7442SOL    HW133962   3.250   2.767   9.663  0.3602 -1.1294 -1.1178
 7442SOL    HW233963   3.101   2.751   9.708 -2.6641 -1.4838 -2.2894
 7443SOL     OW33964   1.057   2.597   4.675  0.7161  0.2622  0.3261
 7443SOL    HW133965   0.980   2.613   4.621  0.4256  0.8796  0.9288
 7443SOL    HW233966   1.023   2.622   4.760  1.9737  3.4370 -0.0892
 7444SOL     OW33967   1.572   4.520   5.374 -0.2003 -0.2927  0.0517
 7444SOL    HW133968   1.574   4.446   5.434 -1.4167 -1.2687 -1.0866
 7444SOL    HW233969   1.661   4.525   5.339 -0.4417  0.7276 -0.4131
 7445SOL     OW33970   2.716   0.887  17.197 -0.0275 -0.2518  0.3200
 7445SOL    HW133971   2.709   0.834  17.276 -1.9275  1.2971  1.1895
 7445SOL    HW233972   2.633   0.875  17.150  0.5096 -3.5277  0.2158
 7446SOL     OW33973   0.333   0.202   3.082  0.7903  0.2581  0.0583
 7446SOL    HW133974   0.334   0.289   3.123  0.2391 -0.2592  1.1692
 7446SOL    HW233975   0.304   0.230   2.995 -1.0694  2.8024  1.4953
 7447SOL     OW33976   1.179   4.076  13.779  0.3548 -0.2576 -0.9734
 7447SOL    HW133977   1.145   4.141  13.841 -3.6454 -1.3844 -2.0225
 7447SOL    HW233978   1.114   4.087  13.710 -1.5221 -3.1401  0.3254
 7448SOL     OW33979   4.085   2.436   3.379  0.3690  0.3006  0.1184
 7448SOL    HW133980   4.144   2.481   3.319  1.7313 -0.0068  1.2378
 7448SOL    HW233981   4.133   2.354   3.393  1.4578  0.6489 -1.5214
 7449SOL     OW33982   4.727   2.370  11.353 -0.1129 -0.4519 -0.0100
 7449SOL    HW133983   0.074   2.418  11.353 -0.5215  0.2440  0.1126
 7449SOL    HW233984   4.681   2.418  11.285  1.2219 -1.1980 -1.4620
 7450SOL     OW33985   3.519   4.456   2.703  0.4627 -0.0489 -0.5368
 7450SOL    HW133986   3.559   4.501   2.629  0.5291  0.8581  0.0580
 7450SOL    HW233987   3.429   4.486   2.699  1.1365  2.1556  0.9138
 7451SOL     OW33988   1.316   1.450   8.554  0.2382  0.0667  0.1228
 7451SOL    HW133989   1.408   1.424   8.554  0.2767  0.2005  0.2121
 7451SOL    HW233990   1.283   1.367   8.520  2.2885 -0.4379 -0.6343
 7452SOL     OW33991   2.043   1.794   7.259 -0.0243 -0.2685 -0.3985
 7452SOL    HW133992   2.106   1.728   7.287  0.2886  0.2026 -0.0075
 7452SOL    HW233993   1.967   1.737   7.243  0.8877 -0.8610 -2.6142
 7453SOL     OW33994   2.792   3.779  16.844  0.0076 -0.1996  0.1742
 7453SOL    HW133995   2.752   3.729  16.774  0.7889  0.0089 -0.4248
 7453SOL    HW233996   2.785   3.871  16.818  0.8947 -0.1896 -0.0359
 7454SOL     OW33997   2.179   3.132   1.753  0.0884 -0.3859 -0.2827
 7454SOL    HW133998   2.241   3.202   1.773 -0.1056  0.2647 -1.9559
 7454SOL    HW233999   2.098   3.181   1.771 -0.8624 -1.4761 -1.5930
 7455SOL     OW34000   4.185   2.338   4.928 -0.3474 -0.0804 -0.2617
 7455SOL    HW134001   4.273   2.309   4.955  0.6690  1.4712 -1.9206
 7455SOL    HW234002   4.197   2.430   4.908 -1.3775 -0.1889 -1.3734
 7456SOL     OW34003   4.136   4.144  17.172  0.0682  0.4452  0.8189
 7456SOL    HW134004   4.229   4.141  17.197  0.4438 -1.2799 -0.7386
 7456SOL    HW234005   4.102   4.188  17.250 -0.2831 -0.3602  1.1137
 7457SOL     OW34006   4.041   2.671   5.745 -0.4075  0.0746 -0.2335
 7457SOL    HW134007   4.120   2.719   5.767 -0.2090 -0.7484  0.8612
 7457SOL    HW234008   4.083   2.586   5.732 -0.7581  0.0433 -1.1644
 7458SOL     OW34009   0.490   2.265   8.199 -0.3225 -0.4075 -0.3808
 7458SOL    HW134010   0.440   2.217   8.132 -0.3120  1.3000 -1.6152
 7458SOL    HW234011   0.480   2.195   8.263  0.5500  0.6858  0.9260
 7459SOL     OW34012   2.197   0.783   1.005 -0.6390  0.1511  0.3686
 7459SOL    HW134013   2.234   0.831   1.080  0.4964  1.7319 -1.2143
 7459SOL    HW234014   2.177   0.698   1.045 -0.6673 -0.7074 -1.5126
 7460SOL     OW34015   3.165   2.038   2.452 -0.1960  0.0605 -0.3623
 7460SOL    HW134016   3.215   1.967   2.492 -0.1593 -0.3200 -1.0836
 7460SOL    HW234017   3.222   2.112   2.476  0.1684  0.2590 -1.8034
 7461SOL     OW34018   2.084   2.384   3.044  0.1278  0.3370 -0.1437
 7461SOL    HW134019   2.131   2.405   2.964 -1.5535 -0.3186 -1.2924
 7461SOL    HW234020   2.156   2.341   3.091  0.3591  1.5841  0.6486
 7462SOL     OW34021   0.188   0.018   5.686 -0.2296  0.1104  0.4109
 7462SOL    HW134022   0.109   4.701   5.671 -0.1308 -0.0168  0.3381
 7462SOL    HW234023   0.255   4.686   5.675  0.0603  0.4694  0.0131
 7463SOL     OW34024   4.192   0.931  16.526 -0.3328  0.3599 -0.3777
 7463SOL    HW134025   4.190   0.843  16.563 -0.3523  0.1263 -0.9380
 7463SOL    HW234026   4.132   0.918  16.453 -0.4378  0.3924 -0.2966
 7464SOL     OW34027   1.232   4.375   3.645 -0.4854  0.5818 -0.3777
 7464SOL    HW134028   1.261   4.461   3.616 -1.9270  1.9845  2.3870
 7464SOL    HW234029   1.315   4.327   3.652 -0.8070 -0.0063 -0.6242
 7465SOL     OW34030   2.738   2.164   7.373  0.0360  0.0259  0.0571
 7465SOL    HW134031   2.825   2.126   7.385 -0.1502 -0.7329 -0.9427
 7465SOL    HW234032   2.700   2.162   7.461 -1.3924 -0.7718 -0.5738
 7466SOL     OW34033   0.333   1.481   3.681  0.2339  0.1132 -0.0708
 7466SOL    HW134034   0.249   1.437   3.664  0.7418 -0.8174 -0.1750
 7466SOL    HW234035   0.368   1.486   3.592 -2.5206 -1.7276 -1.2558
 7467SOL     OW34036   0.388   3.382  14.327 -0.3254  0.0024 -0.3937
 7467SOL    HW134037   0.318   3.318  14.313 -1.8447  1.2873  1.2913
 7467SOL    HW234038   0.369   3.452  14.265 -0.6644  1.8135  1.7786
 7468SOL     OW34039   3.619   2.628   7.318 -0.2147  0.3039 -0.0400
 7468SOL    HW134040   3.689   2.693   7.306  0.5316 -0.5964 -0.5681
 7468SOL    HW234041   3.637   2.601   7.409 -1.3959  4.7052  1.5047
 7469SOL     OW34042   2.678   4.100   4.713  0.3950 -0.2564 -0.3510
 7469SOL    HW134043   2.678   4.145   4.629  0.5272  0.3045 -0.0495
 7469SOL    HW234044   2.607   4.040   4.691  1.3263 -0.6188 -2.3719
 7470SOL     OW34045   3.148   3.217  10.157  0.2576 -0.3165  0.0094
 7470SOL    HW134046   3.100   3.172  10.227  1.3848 -2.1949 -0.4392
 7470SOL    HW234047   3.223   3.260  10.198  1.1388 -1.5206 -0.3682
 7471SOL     OW34048   1.083   4.060  16.495  0.0982  0.3659  0.3033
 7471SOL    HW134049   1.100   4.141  16.446 -1.5716  1.0672  0.8930
 7471SOL    HW234050   1.162   4.008  16.479  0.0244 -0.0761  1.3958
 7472SOL     OW34051   1.522   4.728  15.813 -0.4305  0.1734 -0.2223
 7472SOL    HW134052   1.589   0.061  15.819 -0.4311  0.1716 -0.1925
 7472SOL    HW234053   1.499   4.706  15.904 -1.3751  2.1712  0.0355
 7473SOL     OW34054   3.672   0.080  14.712 -0.2254  0.2672 -0.2119
 7473SOL    HW134055   3.727   0.016  14.667  0.5839  0.2551  0.7790
 7473SOL    HW234056   3.589   0.073  14.665  0.5569  2.0388 -1.8918
 7474SOL     OW34057   2.591   2.012   8.097 -0.4468 -0.6584  0.2440
 7474SOL    HW134058   2.622   1.956   8.168 -1.3964 -1.2465  0.1896
 7474SOL    HW234059   2.579   1.952   8.024 -1.1742 -1.8169  1.3114
 7475SOL     OW34060   3.992   2.055   3.059 -0.7697 -0.1928 -0.8973
 7475SOL    HW134061   3.976   2.142   3.023  0.6438 -0.5826 -2.4514
 7475SOL    HW234062   3.960   2.072   3.147 -1.0395  0.4208 -1.1163
 7476SOL     OW34063   1.048   4.171   7.096 -0.4129 -0.0017 -0.2449
 7476SOL    HW134064   1.097   4.182   7.014  0.2926  0.0147  0.1807
 7476SOL    HW234065   0.969   4.215   7.063 -0.1962  0.0539 -0.6978
 7477SOL     OW34066   1.654   2.400   6.478  0.0148 -0.2165 -0.3400
 7477SOL    HW134067   1.679   2.329   6.537  0.6162  0.3882  0.1434
 7477SOL    HW234068   1.735   2.398   6.426 -1.1574 -0.9142 -2.1352
 7478SOL     OW34069   2.422   1.959  12.787  0.4233 -0.6117 -0.1597
 7478SOL    HW134070   2.494   1.973  12.725 -0.2112  0.2948 -0.6851
 7478SOL    HW234071   2.361   2.025  12.756  0.4899 -1.5821 -2.4260
 7479SOL     OW34072   3.247   2.859   8.741 -0.5077  0.3720  0.3613
 7479SOL    HW134073   3.247   2.901   8.827  1.2743  3.3003 -1.0660
 7479SOL    HW234074   3.278   2.930   8.684  1.1382 -1.1891 -0.6907
 7480SOL     OW34075   0.536   2.716   8.711 -0.4823 -0.2457  0.3087
 7480SOL    HW134076   0.524   2.654   8.783  0.5509 -0.7993  0.0051
 7480SOL    HW234077   0.444   2.744   8.708 -0.4924 -0.2627  0.4433
 7481SOL     OW34078   0.779   2.185   6.960  0.0661  0.1660 -0.1552
 7481SOL    HW134079   0.766   2.202   7.053  0.3459  0.0605 -0.0963
 7481SOL    HW234080   0.727   2.106   6.944 -1.4195  1.0559  0.2860
 7482SOL     OW34081   2.173   1.438   8.688  0.9204 -0.2808  0.9748
 7482SOL    HW134082   2.144   1.463   8.776  1.6204  0.1952  1.0694
 7482SOL    HW234083   2.110   1.375   8.652  0.9505 -1.1577  2.4728
 7483SOL     OW34084   3.734   2.955  12.767  0.3958  0.0635  0.3186
 7483SOL    HW134085   3.738   2.938  12.861 -1.1191 -0.7901  0.2148
 7483SOL    HW234086   3.757   3.048  12.765  2.9017 -0.5567  0.2941
 7484SOL     OW34087   2.058   1.824   8.719 -0.3326  0.0752 -0.5569
 7484SOL    HW134088   2.003   1.902   8.725  1.4792  1.2597  0.6199
 7484SOL    HW234089   2.131   1.847   8.776 -0.7879 -1.3598  0.6420
 7485SOL     OW34090   2.488   1.673   2.882 -0.0899 -0.0987 -0.7739
 7485SOL    HW134091   2.455   1.611   2.817  0.4068  0.0927 -1.2050
 7485SOL    HW234092   2.413   1.726   2.910  1.4848  0.8412  1.6537
 7486SOL     OW34093   1.395   2.084   7.511  0.4353  0.0916  0.3927
 7486SOL    HW134094   1.368   2.088   7.603  1.0649  0.6100  0.5469
 7486SOL    HW234095   1.421   2.174   7.492  0.7073 -0.3085 -1.1174
 7487SOL     OW34096   0.589   3.289  17.089 -0.3242  0.1500 -0.3920
 7487SOL    HW134097   0.651   3.362  17.091 -0.2777  0.0589  1.5684
 7487SOL    HW234098   0.651   3.218  17.073  1.0751  1.4944 -0.9649
 7488SOL     OW34099   0.710   3.908  14.485 -0.2050  0.0423  0.2219
 7488SOL    HW134100   0.678   3.819  14.502  1.4624 -0.4713  0.6729
 7488SOL    HW234101   0.687   3.949  14.569 -0.1041  0.4054  0.0703
 7489SOL     OW34102   2.837   1.951   7.484  0.6474  0.0692 -0.1291
 7489SOL    HW134103   2.788   1.960   7.566  0.2852 -1.4858 -0.1914
 7489SOL    HW234104   2.919   2.000   7.498  2.8518 -2.8062 -3.0899
 7490SOL     OW34105   1.204   0.994   5.536  0.9191  0.4206 -0.2827
 7490SOL    HW134106   1.110   0.979   5.536  1.0893 -0.6595  0.8893
 7490SOL    HW234107   1.211   1.089   5.539 -0.9678  0.4926  1.6128
 7491SOL     OW34108   4.135   4.657   4.274  0.4272 -0.7881  0.1551
 7491SOL    HW134109   4.165   0.004   4.314 -1.3509 -1.3171  2.5250
 7491SOL    HW234110   4.188   4.589   4.316  3.1618  0.6286 -0.9679
 7492SOL     OW34111   1.762   0.348   7.562 -0.0400  0.0866 -0.0320
 7492SOL    HW134112   1.685   0.405   7.560  0.6196  0.9607 -0.9687
 7492SOL    HW234113   1.779   0.334   7.469  1.5460  1.6378  0.0166
 7493SOL     OW34114   3.925   1.303   8.404 -0.6190  0.0228  0.6775
 7493SOL    HW134115   3.930   1.237   8.473  2.1918  0.2082  0.6537
 7493SOL    HW234116   3.850   1.264   8.361  0.6158 -1.2340 -0.3231
 7494SOL     OW34117   0.214   0.523   7.064  0.2653  0.7970  0.7190
 7494SOL    HW134118   0.251   0.436   7.079 -0.4952  0.3222 -0.1627
 7494SOL    HW234119   0.122   0.505   7.085  0.7579 -0.7464  1.5385
 7495SOL     OW34120   3.814   3.007   2.950 -0.5653 -0.1791  0.1865
 7495SOL    HW134121   3.905   3.020   2.923 -0.2748 -1.3201  0.6090
 7495SOL    HW234122   3.791   2.918   2.922 -1.9861 -0.4201  2.1681
 7496SOL     OW34123   1.290   0.691   8.497  0.1899 -0.2144 -0.2643
 7496SOL    HW134124   1.225   0.723   8.560 -0.2737 -0.6697 -0.5183
 7496SOL    HW234125   1.268   0.753   8.428 -1.9064 -0.8577 -0.1606
 7497SOL     OW34126   0.571   0.507   2.871  0.5286  0.0740 -0.6807
 7497SOL    HW134127   0.589   0.601   2.869  0.6169  0.0220 -1.9022
 7497SOL    HW234128   0.593   0.487   2.962 -0.7246  0.5298 -0.2707
 7498SOL     OW34129   1.483   2.595  17.545 -0.2397  0.0276  0.0262
 7498SOL    HW134130   1.513   2.570  17.632  1.3658 -2.7763 -1.3587
 7498SOL    HW234131   1.421   2.660  17.579  0.2821  0.9467 -0.7665
 7499SOL     OW34132   1.294   0.041   4.715  0.1539 -0.4019 -0.3682
 7499SOL    HW134133   1.367   4.715   4.721  0.6260  0.3507  1.5178
 7499SOL    HW234134   1.265   0.013   4.802 -0.4627  0.1785 -0.3823
 7500SOL     OW34135   4.432   0.491   1.754  0.0460  0.5565  0.3362
 7500SOL    HW134136   4.407   0.441   1.831 -0.6604  1.4750  0.7034
 7500SOL    HW234137   4.523   0.513   1.773  0.5199 -2.3141  1.3199
 7501SOL     OW34138   3.357   4.346   2.173  0.1691  0.0401 -0.1096
 7501SOL    HW134139   3.406   4.426   2.190 -0.6886  0.5148  0.0932
 7501SOL    HW234140   3.276   4.366   2.220 -0.2845  1.1297 -1.3735
 7502SOL     OW34141   4.594   1.884   5.995  0.1081  0.8334 -0.1610
 7502SOL    HW134142   4.535   1.926   6.058 -0.2651  1.0478 -0.6519
 7502SOL    HW234143   4.565   1.793   5.994 -0.6056  1.0548  0.5047
 7503SOL     OW34144   2.747   0.891   8.512 -0.0673 -0.2252 -0.1149
 7503SOL    HW134145   2.732   0.897   8.606 -0.3031  0.9139 -0.2175
 7503SOL    HW234146   2.674   0.833   8.488 -2.1743  2.1525  0.4930
 7504SOL     OW34147   1.470   3.109  11.583 -0.1673  0.6653 -0.2654
 7504SOL    HW134148   1.410   3.043  11.619 -1.8718  1.7437 -1.1091
 7504SOL    HW234149   1.471   3.169  11.657 -1.8919  1.8990 -1.2237
 7505SOL     OW34150   2.882   1.843   8.224  0.5341  0.1434 -0.7201
 7505SOL    HW134151   2.909   1.828   8.133  0.9800 -1.6943 -0.2815
 7505SOL    HW234152   2.793   1.809   8.231  0.4553  0.3545 -0.6943
 7506SOL     OW34153   0.091   3.211  12.087  0.2820  0.1419  0.2447
 7506SOL    HW134154   0.179   3.247  12.077 -0.8309  2.7469 -0.3068
 7506SOL    HW234155   0.034   3.285  12.064  2.5741  2.6307  2.5787
 7507SOL     OW34156   2.828   0.260   0.186  0.3802  0.2051 -0.0746
 7507SOL    HW134157   2.833   0.240   0.092 -3.8932 -2.3377  0.2557
 7507SOL    HW234158   2.769   0.187   0.204  1.0565 -0.2167  0.4180
 7508SOL     OW34159   1.065   3.236   4.572 -0.3179  0.1453  0.3709
 7508SOL    HW134160   1.090   3.296   4.502 -0.8344  0.3808  0.3917
 7508SOL    HW234161   0.973   3.213   4.560 -0.5214  1.3377 -0.3234
 7509SOL     OW34162   4.733   0.050  10.029  0.6005 -0.6507  0.0035
 7509SOL    HW134163   0.072   0.037  10.088  0.1513 -2.9359  0.0838
 7509SOL    HW234164   0.048   0.026   9.952  0.4132 -1.5095  0.1397
 7510SOL     OW34165   3.357   1.606   3.682 -0.3504  0.2108 -0.1148
 7510SOL    HW134166   3.320   1.517   3.687 -4.0170  1.7384  0.3798
 7510SOL    HW234167   3.431   1.605   3.742 -0.3955 -2.1071 -0.0808
 7511SOL     OW34168   4.020   1.436   4.083 -0.0818  0.4328 -0.3018
 7511SOL    HW134169   4.034   1.444   3.989 -2.0978  1.4341 -0.5093
 7511SOL    HW234170   3.972   1.353   4.077 -0.9567  1.1168 -2.6668
 7512SOL     OW34171   4.729   1.200   5.301 -0.1217  0.2405  0.0686
 7512SOL    HW134172   4.636   1.219   5.285 -0.0001  0.3426 -0.5284
 7512SOL    HW234173   4.726   1.227   5.393  2.1956 -0.2281  0.2887
 7513SOL     OW34174   3.416   1.340  13.454  0.3878 -0.4945 -0.4750
 7513SOL    HW134175   3.458   1.286  13.522  0.4849 -2.0696 -1.7707
 7513SOL    HW234176   3.495   1.380  13.419 -1.1138  2.7982 -0.0534
 7514SOL     OW34177   4.658   1.314   4.086 -0.4032  0.2030 -0.3464
 7514SOL    HW134178   4.685   1.326   3.995  0.5618  0.7831  0.0101
 7514SOL    HW234179   4.656   1.407   4.111  1.5014 -0.1429  1.1027
 7515SOL     OW34180   1.450   1.278  12.443 -0.4044  0.0665 -0.3074
 7515SOL    HW134181   1.376   1.218  12.437 -0.4783  0.0903  0.3672
 7515SOL    HW234182   1.474   1.263  12.534  0.5837  0.0682 -0.5722
 7516SOL     OW34183   3.176   3.630   8.827  0.2537 -0.4730  0.0308
 7516SOL    HW134184   3.107   3.644   8.893 -1.4561  0.7795 -2.0407
 7516SOL    HW234185   3.146   3.551   8.784 -0.5347  0.2691 -0.7799
 7517SOL     OW34186   2.653   3.657  11.480 -0.3824 -0.0415 -0.0529
 7517SOL    HW134187   2.701   3.739  11.469  1.3813 -1.2491 -1.3174
 7517SOL    HW234188   2.599   3.691  11.551 -0.2835 -0.1225  0.0614
 7518SOL     OW34189   0.104   0.178   7.772 -0.5579 -0.2853  0.1764
 7518SOL    HW134190   0.010   0.184   7.788 -0.0468  2.1839  2.4107
 7518SOL    HW234191   0.107   0.093   7.729  2.5884 -0.9585  1.7000
 7519SOL     OW34192   0.931   1.684   3.261 -0.2580  0.2639  0.1772
 7519SOL    HW134193   0.880   1.663   3.340 -0.3386 -0.0159  0.0478
 7519SOL    HW234194   0.966   1.771   3.284  0.0499 -0.3054  1.8936
 7520SOL     OW34195   0.626   1.176   5.553  0.0513 -0.9532  0.3489
 7520SOL    HW134196   0.682   1.141   5.622  1.9697  0.3110 -0.5572
 7520SOL    HW234197   0.555   1.222   5.598 -0.2689 -0.9778 -0.1339
 7521SOL     OW34198   4.071   0.706  11.655  0.3427  0.2619  0.2200
 7521SOL    HW134199   4.139   0.668  11.600  1.0874  1.0039  0.6458
 7521SOL    HW234200   4.098   0.674  11.741 -0.0638 -0.2253  0.1712
 7522SOL     OW34201   2.831   0.018   1.801 -0.1449  0.2280 -0.3964
 7522SOL    HW134202   2.774   0.053   1.733  1.6102  2.0563 -0.9351
 7522SOL    HW234203   2.787   4.669   1.811  1.7174 -0.4886  1.8562
 7523SOL     OW34204   0.297   2.067   9.156  0.1572  0.1918 -0.5656
 7523SOL    HW134205   0.242   2.136   9.194  0.0677 -1.3152  2.0246
 7523SOL    HW234206   0.236   2.011   9.109 -0.6007 -0.1269  0.7841
 7524SOL     OW34207   2.219   3.810   3.084  0.0638  0.1855 -0.4932
 7524SOL    HW134208   2.241   3.853   3.167 -0.7914 -1.9102  0.8239
 7524SOL    HW234209   2.123   3.814   3.078  0.1549  0.9092 -1.5079
 7525SOL     OW34210   2.492   4.577  14.177 -0.3286  0.3519  0.3036
 7525SOL    HW134211   2.403   4.588  14.211 -0.2966  0.3199  0.3971
 7525SOL    HW234212   2.487   4.482  14.168  1.4421  0.0579  2.4305
 7526SOL     OW34213   4.273   2.032   1.541 -0.3141  0.2465 -0.0311
 7526SOL    HW134214   4.267   2.061   1.450 -0.5537  0.5601  0.0861
 7526SOL    HW234215   4.368   2.023   1.554 -0.0295  1.9647 -0.8816
 7527SOL     OW34216   2.506   1.231   1.986 -0.0009 -0.4303  0.3145
 7527SOL    HW134217   2.470   1.259   2.070  2.4913  3.8911 -0.0885
 7527SOL    HW234218   2.529   1.309   1.936  0.9239 -1.3481 -0.6917
 7528SOL     OW34219   0.289   3.100   7.529  0.3222 -0.4555 -0.2823
 7528SOL    HW134220   0.306   3.049   7.609  1.1625 -0.8279 -0.7071
 7528SOL    HW234221   0.351   3.172   7.525  1.8162 -1.7980 -1.1992
 7529SOL     OW34222   0.439   1.036   5.366  0.2769 -0.1577  0.5469
 7529SOL    HW134223   0.410   1.118   5.326 -1.3633 -1.4253 -0.8463
 7529SOL    HW234224   0.470   1.060   5.454  0.2637  1.4486  0.1247
 7530SOL     OW34225   0.559   3.318   8.555 -0.5526 -0.0370 -0.1744
 7530SOL    HW134226   0.526   3.234   8.522 -0.1401 -0.9605  1.7701
 7530SOL    HW234227   0.524   3.376   8.487  1.9420  1.9245  0.2170
 7531SOL     OW34228   2.506   1.107   9.530 -0.2898  0.6845  0.0348
 7531SOL    HW134229   2.596   1.085   9.506 -0.7308 -0.1264 -0.8610
 7531SOL    HW234230   2.518   1.161   9.609  0.7518 -0.7283  0.8288
 7532SOL     OW34231   2.462   0.118   1.174  0.1456  0.4032  0.0215
 7532SOL    HW134232   2.426   0.204   1.195 -1.6618  0.1423 -1.9443
 7532SOL    HW234233   2.547   0.144   1.140  0.6902 -0.8374  0.4366
 7533SOL     OW34234   4.420   2.748   6.249  0.2428  0.0938 -0.2035
 7533SOL    HW134235   4.488   2.681   6.247  0.4994  0.3236  0.6385
 7533SOL    HW234236   4.469   2.826   6.224  0.8635 -0.2429 -0.0450
 7534SOL     OW34237   1.631   4.594   3.842 -0.1311 -0.5088  0.3937
 7534SOL    HW134238   1.541   4.616   3.819  0.4107  1.8450  0.4986
 7534SOL    HW234239   1.683   4.675   3.834 -2.1285  0.7965  0.5885
 7535SOL     OW34240   3.175   0.186   3.026 -0.3455  0.1506 -0.2563
 7535SOL    HW134241   3.248   0.205   3.086 -0.9082 -0.2071  0.5286
 7535SOL    HW234242   3.114   0.144   3.085  0.2055  0.3205  0.4304
 7536SOL     OW34243   4.281   2.821  13.006 -0.2628 -0.5712 -0.0513
 7536SOL    HW134244   4.251   2.730  13.011 -0.7589 -0.3601  0.8433
 7536SOL    HW234245   4.215   2.868  12.955  1.1068  1.6013  0.1516
 7537SOL     OW34246   1.111   2.970  15.729 -0.1765 -0.2645  0.0989
 7537SOL    HW134247   1.152   3.056  15.740 -0.4876  0.0963 -1.5637
 7537SOL    HW234248   1.026   2.982  15.771 -1.2987 -1.8877 -1.7317
 7538SOL     OW34249   0.467   2.355   6.909 -0.6619 -0.0811 -0.0180
 7538SOL    HW134250   0.413   2.419   6.957  0.2540 -0.0078  0.9402
 7538SOL    HW234251   0.521   2.422   6.866  0.8222 -1.1139  0.2293
 7539SOL     OW34252   2.259   2.091   2.927  0.1951  0.0273 -0.0324
 7539SOL    HW134253   2.354   2.082   2.924  0.3992  1.1643  2.4452
 7539SOL    HW234254   2.244   2.176   2.885  0.9996 -0.1611 -0.6960
 7540SOL     OW34255   4.194   1.208   9.890 -0.1312  0.1076 -0.5697
 7540SOL    HW134256   4.179   1.114   9.902 -1.7802  0.5928  1.2385
 7540SOL    HW234257   4.158   1.212   9.801 -1.0204 -3.9259 -0.4042
 7541SOL     OW34258   0.314   1.382   8.294 -0.1820  0.1308  0.3093
 7541SOL    HW134259   0.314   1.314   8.227 -1.5653  0.7242 -0.2858
 7541SOL    HW234260   0.248   1.441   8.259  1.1168 -1.0861 -4.0785
 7542SOL     OW34261   1.748   4.247   3.271 -0.0555 -0.5176  0.3717
 7542SOL    HW134262   1.745   4.338   3.299 -1.3384 -0.4405  0.0285
 7542SOL    HW234263   1.819   4.206   3.320  0.6668  0.1824 -0.0982
 7543SOL     OW34264   3.925   1.974   3.922 -0.5046 -0.3624 -0.5930
 7543SOL    HW134265   4.015   1.947   3.903  0.5913  2.4820  0.6806
 7543SOL    HW234266   3.907   2.063   3.892 -2.5476 -1.3320 -2.2868
 7544SOL     OW34267   2.120   0.107   1.483  0.0965  0.0760 -0.4273
 7544SOL    HW134268   2.059   0.093   1.410  0.7001 -0.8057 -0.7609
 7544SOL    HW234269   2.062   0.111   1.559 -1.6905 -0.0972 -1.7577
 7545SOL     OW34270   3.328   4.039   6.296 -0.2381 -0.3743 -0.6688
 7545SOL    HW134271   3.243   4.009   6.263  0.7804 -3.7028 -0.2924
 7545SOL    HW234272   3.296   4.126   6.318 -0.4970 -0.4236 -0.8533
 7546SOL     OW34273   2.444   1.127   2.433 -0.2785  0.1561  0.1680
 7546SOL    HW134274   2.438   1.090   2.521 -2.1768  0.4031  0.1378
 7546SOL    HW234275   2.424   1.047   2.384 -1.3086 -0.0520  0.9441
 7547SOL     OW34276   3.076   0.497   7.805  0.8921 -0.9010 -0.4294
 7547SOL    HW134277   3.000   0.469   7.754  1.0442  0.1286 -1.2337
 7547SOL    HW234278   3.097   0.574   7.752  2.6632 -0.6397  0.6558
 7548SOL     OW34279   3.314   1.449   1.791  0.3836  0.1326 -0.0631
 7548SOL    HW134280   3.297   1.540   1.766 -0.3185 -0.7525 -2.8685
 7548SOL    HW234281   3.395   1.441   1.740  0.9547 -2.6133  1.2657
 7549SOL     OW34282   4.033   0.800   0.854  0.1231  0.2294 -0.0478
 7549SOL    HW134283   4.025   0.854   0.775  0.9593 -0.3415 -0.5194
 7549SOL    HW234284   4.104   0.841   0.904 -2.0454  0.5246  2.8129
 7550SOL     OW34285   2.048   4.653   9.289  0.0509  0.0954 -0.1479
 7550SOL    HW134286   2.105   4.616   9.357  1.0699  0.2609 -0.9183
 7550SOL    HW234287   2.104   4.703   9.231 -0.8522 -0.9142 -1.8884
 7551SOL     OW34288   3.754   1.323   0.588 -0.1680  0.5811 -0.0189
 7551SOL    HW134289   3.764   1.230   0.567  0.7239  0.6211  0.2526
 7551SOL    HW234290   3.676   1.350   0.540 -0.4067 -0.0382  0.0153
 7552SOL     OW34291   3.657   1.789   6.556  0.1928  0.4410 -0.6076
 7552SOL    HW134292   3.727   1.759   6.614  0.3205  0.7073 -0.6252
 7552SOL    HW234293   3.587   1.780   6.621 -0.0891 -0.5440 -1.0553
 7553SOL     OW34294   3.618   0.936  13.457  0.2606  0.3841  0.2934
 7553SOL    HW134295   3.665   0.853  13.442 -0.3157 -0.3762  2.7352
 7553SOL    HW234296   3.534   0.911  13.418  0.7705 -1.6898  0.4861
 7554SOL     OW34297   3.429   0.454   6.024  0.2971  0.0049 -0.1017
 7554SOL    HW134298   3.478   0.452   6.106  1.3260  1.4571 -0.6838
 7554SOL    HW234299   3.438   0.538   5.979  3.9965 -0.3540 -0.0035
 7555SOL     OW34300   1.736   3.579   1.312 -0.1082 -0.1830 -0.4271
 7555SOL    HW134301   1.668   3.531   1.265  0.3458  0.7913 -2.0802
 7555SOL    HW234302   1.699   3.668   1.315 -0.4288 -0.3569  0.7965
 7556SOL     OW34303   3.145   2.377   1.573 -0.2600 -0.0214  0.2390
 7556SOL    HW134304   3.152   2.432   1.651  2.4864 -0.6558  0.4446
 7556SOL    HW234305   3.078   2.414   1.515 -1.3135  0.0390  1.5045
 7557SOL     OW34306   4.657   1.895  13.133 -0.2626  0.1062 -0.2134
 7557SOL    HW134307   4.713   1.973  13.126 -0.8563  0.4408 -1.1451
 7557SOL    HW234308   4.606   1.913  13.212 -2.5336 -1.9120 -1.2253
 7558SOL     OW34309   4.339   1.686   2.984  0.0136  0.0587  0.6384
 7558SOL    HW134310   4.275   1.756   2.969 -0.8310 -0.8562 -0.0393
 7558SOL    HW234311   4.355   1.683   3.078 -1.2665 -2.7133  0.7722
 7559SOL     OW34312   2.367   4.103  14.730 -0.2906  0.1510 -0.2614
 7559SOL    HW134313   2.359   4.111  14.635  1.5804 -3.1797 -0.7092
 7559SOL    HW234314   2.316   4.025  14.752  0.8921 -0.1860  1.3291
 7560SOL     OW34315   2.038   3.693   7.171 -0.0753 -0.0570  0.2178
 7560SOL    HW134316   2.004   3.728   7.253 -0.0043 -0.6747  0.5037
 7560SOL    HW234317   2.009   3.602   7.177 -0.4539  0.1083  0.8413
 7561SOL     OW34318   2.544   1.375   2.479 -0.0634 -0.2413 -0.5905
 7561SOL    HW134319   2.515   1.284   2.469 -1.1376  0.2084 -1.6025
 7561SOL    HW234320   2.615   1.369   2.542 -0.5026 -1.8992 -0.2383
 7562SOL     OW34321   2.345   1.153   4.987  0.2101  0.3147 -0.0808
 7562SOL    HW134322   2.289   1.104   4.927  1.6253 -0.3328 -0.8731
 7562SOL    HW234323   2.298   1.235   4.999 -1.3110 -0.8008  1.7169
 7563SOL     OW34324   2.262   3.207  17.299 -0.3940  0.0759 -0.2475
 7563SOL    HW134325   2.343   3.179  17.255 -0.1233  0.4261  0.0270
 7563SOL    HW234326   2.198   3.180  17.233  0.0913  1.7767 -1.4000
 7564SOL     OW34327   0.762   0.042   0.329 -0.8662 -0.4153  0.6402
 7564SOL    HW134328   0.758   4.688   0.294  1.5927  0.3773 -1.6954
 7564SOL    HW234329   0.842   0.069   0.284 -0.3815 -2.0104  0.5283
 7565SOL     OW34330   3.540   2.981  11.693  0.5709 -0.1405 -0.4007
 7565SOL    HW134331   3.568   2.984  11.602  2.0646  0.5813  0.0815
 7565SOL    HW234332   3.452   3.020  11.692  0.9948  0.8820  1.7897
 7566SOL     OW34333   3.349   0.589   6.555 -0.8014 -0.1735 -0.2794
 7566SOL    HW134334   3.263   0.608   6.594  0.0424  1.3687  0.8097
 7566SOL    HW234335   3.323   0.509   6.510  0.6120 -1.1829  0.7393
 7567SOL     OW34336   2.566   1.973   9.912  0.3094 -0.3550  0.0107
 7567SOL    HW134337   2.608   2.018   9.839 -0.4755  1.2152  0.5358
 7567SOL    HW234338   2.572   1.892   9.860 -2.6498  0.4869 -1.6278
 7568SOL     OW34339   3.164   0.897   1.345  0.0988  0.0404 -0.0929
 7568SOL    HW134340   3.158   0.814   1.392 -0.5032  0.2472  0.1988
 7568SOL    HW234341   3.133   0.960   1.410 -1.6166 -1.1269  0.2069
 7569SOL     OW34342   3.103   4.590   5.875  0.0136  0.4168  0.0209
 7569SOL    HW134343   3.139   4.623   5.793 -0.0657  0.3258 -0.0498
 7569SOL    HW234344   3.173   4.563   5.935  1.7718  2.6875 -0.9931
 7570SOL     OW34345   0.455   3.594  17.701 -0.3995  0.0908  0.8284
 7570SOL    HW134346   0.381   3.592   0.022  1.0267 -1.1260  2.4866
 7570SOL    HW234347   0.416   3.652  17.636  0.2672  1.1205  1.3437
 7571SOL     OW34348   3.389   2.304   6.523 -0.4554  0.3649  0.1362
 7571SOL    HW134349   3.329   2.242   6.563 -1.5370  3.0489  2.6712
 7571SOL    HW234350   3.386   2.377   6.585 -1.0894  0.5094 -0.0655
 7572SOL     OW34351   1.407   4.692   0.406  0.3857 -0.3270  0.4995
 7572SOL    HW134352   1.369   4.681   0.319  0.5244  0.1751  0.3726
 7572SOL    HW234353   1.406   4.603   0.440  2.9080 -1.0638 -1.4068
 7573SOL     OW34354   3.335   0.772   6.164 -0.1025 -0.1016 -0.2381
 7573SOL    HW134355   3.358   0.784   6.257 -1.4910 -0.3997  0.1338
 7573SOL    HW234356   3.415   0.733   6.128 -1.2143 -1.2359 -1.4392
 7574SOL     OW34357   2.807   4.640  16.301 -0.0258 -0.5416  0.5612
 7574SOL    HW134358   2.817   4.644  16.396  0.6923 -1.0091  0.5026
 7574SOL    HW234359   2.800   4.547  16.282  0.5510 -0.3075 -0.7669
 7575SOL     OW34360   4.541   4.379   6.186 -0.8670 -0.3573 -0.3630
 7575SOL    HW134361   4.554   4.444   6.255 -1.1885 -1.8781  1.1359
 7575SOL    HW234362   4.584   4.427   6.116 -0.5723 -0.3653 -0.1863
 7576SOL     OW34363   1.147   2.327   7.503 -0.0938  0.0877 -0.1286
 7576SOL    HW134364   1.091   2.400   7.528  1.5782  0.7613  1.6867
 7576SOL    HW234365   1.198   2.311   7.583 -0.4320  2.5517  0.5958
 7577SOL     OW34366   3.657   1.308   8.733 -0.6497 -0.1160 -0.2282
 7577SOL    HW134367   3.739   1.355   8.744  0.6733 -1.8189 -2.7334
 7577SOL    HW234368   3.684   1.250   8.662 -0.3109 -0.1702 -0.0557
 7578SOL     OW34369   2.029   0.421  10.059 -0.7956  0.1275  0.0336
 7578SOL    HW134370   1.934   0.416  10.044 -0.8425 -0.4203  0.5002
 7578SOL    HW234371   2.046   0.512  10.037  2.0070 -0.9467 -2.2400
 7579SOL     OW34372   4.380   3.763  11.196  0.0372  0.2624  0.4768
 7579SOL    HW134373   4.391   3.668  11.189  2.0675  0.6858 -1.9049
 7579SOL    HW234374   4.374   3.787  11.104 -1.2060  2.0049  1.0179
 7580SOL     OW34375   0.529   1.904   2.826 -0.4241  0.0550  0.2534
 7580SOL    HW134376   0.583   1.967   2.778  0.4244 -0.0834  1.0340
 7580SOL    HW234377   0.599   1.845   2.853 -1.0766  0.6166  3.2809
 7581SOL     OW34378   3.497   2.358   5.631  0.2142 -0.1426  0.2305
 7581SOL    HW134379   3.521   2.309   5.553 -0.2705  0.0015 -0.0145
 7581SOL    HW234380   3.579   2.369   5.679  0.1813  2.2956 -0.2626
 7582SOL     OW34381   1.829   3.823   4.503 -0.1246 -0.5441  0.4059
 7582SOL    HW134382   1.748   3.776   4.522 -0.6725 -0.1590 -0.9899
 7582SOL    HW234383   1.887   3.763   4.551  2.2911  1.8847  0.5626
 7583SOL     OW34384   4.466   1.126   8.909  0.0579  0.1108  0.0657
 7583SOL    HW134385   4.430   1.129   8.820  0.1122 -3.8160 -0.0851
 7583SOL    HW234386   4.495   1.217   8.913  3.4247 -0.9495  0.0470
 7584SOL     OW34387   1.344   0.359   3.946 -0.1536 -0.0004 -0.3433
 7584SOL    HW134388   1.270   0.340   3.888  0.9601  0.2959 -1.8585
 7584SOL    HW234389   1.305   0.388   4.028  0.5829 -0.7284  0.2565
 7585SOL     OW34390   1.692   1.679   7.877 -0.3555  0.6941 -0.2366
 7585SOL    HW134391   1.756   1.650   7.812  1.2245  0.4669  1.4288
 7585SOL    HW234392   1.626   1.715   7.819 -2.5072 -0.5142  1.4501
 7586SOL     OW34393   4.459   0.808   8.080 -0.6249 -0.0341 -0.5456
 7586SOL    HW134394   4.387   0.763   8.123 -0.0200 -0.8134 -0.3621
 7586SOL    HW234395   4.504   0.822   8.163 -1.9339 -2.4816  0.5772
 7587SOL     OW34396   3.587   3.113  17.066 -0.0190 -0.4132 -0.0220
 7587SOL    HW134397   3.573   3.091  17.158 -0.8167  1.1256  0.2127
 7587SOL    HW234398   3.540   3.195  17.056  1.6672  0.5169 -0.4099
 7588SOL     OW34399   2.861   2.180   5.292  0.3539  0.0795  0.6616
 7588SOL    HW134400   2.894   2.233   5.365 -1.2873 -1.0550  2.2156
 7588SOL    HW234401   2.886   2.234   5.217 -0.7319  0.3829  0.5161
 7589SOL     OW34402   2.588   0.368   9.299  0.0450  0.5986  0.3285
 7589SOL    HW134403   2.613   0.400   9.385 -1.8068 -0.4658  1.2547
 7589SOL    HW234404   2.523   0.300   9.317  0.0234  0.7613  0.8394
 7590SOL     OW34405   4.303   2.504  17.615  0.1248 -0.4634  0.0757
 7590SOL    HW134406   4.279   2.538  17.529 -1.2117  0.7491  0.9388
 7590SOL    HW234407   4.231   2.533  17.670  0.4451 -0.9370  0.7492
 7591SOL     OW34408   4.384   1.953  12.505  0.5299  0.3425  0.0599
 7591SOL    HW134409   4.454   1.888  12.510  0.7328  0.4387 -1.4406
 7591SOL    HW234410   4.423   2.024  12.454  0.7681  0.4843  0.4473
 7592SOL     OW34411   1.159   1.144   7.961  0.5213 -0.0983 -0.7503
 7592SOL    HW134412   1.229   1.174   8.019 -0.8682 -0.8397  1.3110
 7592SOL    HW234413   1.216   1.083   7.914  1.5983 -2.4744  3.5846
 7593SOL     OW34414   0.576   0.469  16.416 -0.2351  0.2888  0.2990
 7593SOL    HW134415   0.622   0.424  16.487 -0.1389  0.4522  0.3394
 7593SOL    HW234416   0.635   0.543  16.408 -1.7391  1.4976  0.3001
 7594SOL     OW34417   0.284   0.643   6.038 -0.3045  0.9566  0.8389
 7594SOL    HW134418   0.256   0.688   5.959  0.5519 -0.2900 -0.1714
 7594SOL    HW234419   0.317   0.716   6.091  0.1549  1.4060 -0.0615
 7595SOL     OW34420   2.913   3.395   7.077 -0.5091  0.0742  0.5516
 7595SOL    HW134421   2.869   3.333   7.135 -0.7750  0.6919  1.0218
 7595SOL    HW234422   2.841   3.458   7.065  0.4633  1.0902  0.0390
 7596SOL     OW34423   3.230   4.446   2.480  0.2305 -0.0027 -0.7056
 7596SOL    HW134424   3.200   4.537   2.479 -0.1768 -0.1379 -0.6826
 7596SOL    HW234425   3.172   4.408   2.414  0.4164  0.7054 -1.2859
 7597SOL     OW34426   3.158   3.376   3.017  0.1172  0.1386 -0.3039
 7597SOL    HW134427   3.253   3.384   3.013 -0.0430  0.8637 -2.5249
 7597SOL    HW234428   3.139   3.470   3.013 -0.4824 -0.0165 -1.0512
 7598SOL     OW34429   2.828   1.421   9.492 -0.2912 -0.1321  0.0912
 7598SOL    HW134430   2.885   1.423   9.568 -1.5210 -0.2254  1.0041
 7598SOL    HW234431   2.772   1.344   9.497 -0.5786 -0.0534 -1.7585
 7599SOL     OW34432   1.710   0.553   7.861 -0.0393  0.1020 -0.6829
 7599SOL    HW134433   1.666   0.469   7.848  0.1688 -0.0440 -0.4492
 7599SOL    HW234434   1.751   0.525   7.943 -0.0384  1.6691 -0.1580
 7600SOL     OW34435   3.519   1.931   8.538 -0.1577 -0.0915  0.2569
 7600SOL    HW134436   3.501   2.018   8.575 -0.2077 -0.1781  0.4333
 7600SOL    HW234437   3.532   1.882   8.619  0.6145  1.2563  0.9436
 7601SOL     OW34438   3.620   3.730   6.810  0.3108 -0.4157 -0.3038
 7601SOL    HW134439   3.638   3.700   6.721 -1.3898 -0.9926 -0.4564
 7601SOL    HW234440   3.662   3.663   6.864  0.1625  0.8830  1.4263
 7602SOL     OW34441   3.840   2.749   7.722 -0.5596  0.3094 -0.3472
 7602SOL    HW134442   3.835   2.738   7.817 -1.0391 -0.0194 -0.4119
 7602SOL    HW234443   3.926   2.790   7.711  0.4037 -1.5720  0.1520
 7603SOL     OW34444   3.141   2.925   3.082 -0.6191 -0.5471 -0.2477
 7603SOL    HW134445   3.168   2.849   3.031  1.4232 -1.0134  1.5479
 7603SOL    HW234446   3.057   2.948   3.041  0.2512  0.6433 -1.3558
 7604SOL     OW34447   2.163   3.572   6.104  0.1650 -0.2638  0.1811
 7604SOL    HW134448   2.095   3.547   6.166 -1.5654 -1.7647 -2.3159
 7604SOL    HW234449   2.224   3.498   6.097  2.7189  1.8002  0.6529
 7605SOL     OW34450   3.540   4.050   4.174  0.3017 -0.2632  0.0140
 7605SOL    HW134451   3.476   4.049   4.103  1.3389  1.4592 -0.9762
 7605SOL    HW234452   3.629   4.049   4.140 -0.2917 -1.6414 -1.4626
 7606SOL     OW34453   3.799   3.789  11.615  0.2914  0.2081  1.0113
 7606SOL    HW134454   3.788   3.860  11.551  0.3047  0.0643  0.8505
 7606SOL    HW234455   3.854   3.825  11.685 -0.6770 -3.2816  3.5596
 7607SOL     OW34456   1.601   0.319  10.453  0.1732  0.0601 -0.1010
 7607SOL    HW134457   1.672   0.328  10.517  0.2819 -2.7859  0.1634
 7607SOL    HW234458   1.606   0.228  10.424 -1.1540 -0.1810  0.4290
 7608SOL     OW34459   4.671   2.666   8.577 -0.1948 -0.1871  0.0101
 7608SOL    HW134460   4.708   2.701   8.658  2.6123 -2.8991 -0.0915
 7608SOL    HW234461   4.610   2.602   8.614 -1.0953 -0.5134 -2.0060
 7609SOL     OW34462   3.721   0.102   8.048 -0.1786 -0.0336 -0.1207
 7609SOL    HW134463   3.671   0.105   8.130 -1.1209  1.3237 -0.7479
 7609SOL    HW234464   3.736   0.008   8.045  0.8744  0.1987 -2.1216
 7610SOL     OW34465   2.812   2.376   3.946  0.1123  0.3237 -0.0628
 7610SOL    HW134466   2.717   2.373   3.961  0.2178  0.4097  0.5925
 7610SOL    HW234467   2.837   2.320   4.019 -2.0510 -0.4554  0.0824
 7611SOL     OW34468   2.031   2.276   9.407 -0.2528  0.0601  0.0174
 7611SOL    HW134469   2.022   2.206   9.342  1.0917  0.6560 -0.8056
 7611SOL    HW234470   2.094   2.232   9.464 -0.0843  2.1753  1.4548
 7612SOL     OW34471   2.582   0.826   9.293 -0.2214  0.6763  0.9034
 7612SOL    HW134472   2.619   0.762   9.233 -2.1425  1.5006 -1.1789
 7612SOL    HW234473   2.604   0.788   9.378 -2.0216  0.5072  1.3068
 7613SOL     OW34474   3.986   4.716   4.840  0.3930 -0.0953  0.1301
 7613SOL    HW134475   3.995   0.041   4.766 -0.4530 -0.6053 -0.3851
 7613SOL    HW234476   4.074   4.714   4.876  1.8088  2.1897 -3.2310
 7614SOL     OW34477   4.540   3.819   8.639 -0.1832 -0.1110  0.0379
 7614SOL    HW134478   4.565   3.848   8.551  1.4722  0.0848  0.5663
 7614SOL    HW234479   4.519   3.728   8.620 -0.7240 -0.1380  0.7834
 7615SOL     OW34480   2.394   2.107  10.399 -0.1860 -0.2667 -0.5995
 7615SOL    HW134481   2.458   2.139  10.463 -0.9629 -2.5619  1.3016
 7615SOL    HW234482   2.379   2.018  10.430 -1.5513  0.7353  1.6196
 7616SOL     OW34483   3.463   4.359  15.509  0.1272  0.3117 -0.3896
 7616SOL    HW134484   3.475   4.393  15.420 -0.7467 -0.2005 -0.7028
 7616SOL    HW234485   3.376   4.397  15.520  0.5887  2.0194 -2.4862
 7617SOL     OW34486   4.459   2.376  10.955  0.3067 -0.1696 -0.6294
 7617SOL    HW134487   4.372   2.350  10.986  0.2534 -0.2560 -0.8459
 7617SOL    HW234488   4.484   2.311  10.888  0.3910 -0.1454 -0.6209
 7618SOL     OW34489   2.450   3.036   5.029 -0.8968 -0.5653  0.0841
 7618SOL    HW134490   2.440   3.110   5.089 -0.6103 -0.0589 -0.4925
 7618SOL    HW234491   2.428   2.963   5.087 -1.8365 -0.1120  0.2985
 7619SOL     OW34492   0.013   0.401  11.041 -0.0387  0.2408  0.3165
 7619SOL    HW134493   0.043   0.414  10.951  0.7792 -0.6045  0.4669
 7619SOL    HW234494   0.028   0.307  11.047  0.3106  0.2074 -1.0475
 7620SOL     OW34495   0.485   0.360  12.381 -0.3288 -0.7007 -0.3036
 7620SOL    HW134496   0.528   0.288  12.336  0.8002  0.2637 -0.7779
 7620SOL    HW234497   0.394   0.354  12.352 -0.1103  1.1128 -1.3539
 7621SOL     OW34498   1.677   2.389   5.068 -0.3783 -0.1270  0.1214
 7621SOL    HW134499   1.668   2.407   4.975 -0.1497 -1.2278 -0.1148
 7621SOL    HW234500   1.593   2.425   5.098 -0.2031  1.8829 -1.8598
 7622SOL     OW34501   1.206   0.684   0.755 -0.0917  0.0363  0.3273
 7622SOL    HW134502   1.160   0.634   0.688 -0.4436  0.9615 -0.1207
 7622SOL    HW234503   1.296   0.655   0.747  0.0281  1.0434 -2.0286
 7623SOL     OW34504   3.148   2.014   9.415  0.2675 -0.4385  0.2482
 7623SOL    HW134505   3.180   1.924   9.413  4.4078  1.0035  0.0353
 7623SOL    HW234506   3.156   2.042   9.323 -0.7535  0.9215  0.5686
 7624SOL     OW34507   3.715   0.404   2.126 -0.7898 -0.8455 -0.3469
 7624SOL    HW134508   3.642   0.374   2.072 -0.7464 -2.0603  0.2639
 7624SOL    HW234509   3.729   0.488   2.081  0.7101 -2.0148 -2.0438
 7625SOL     OW34510   1.158   1.636   3.983 -0.1663 -0.1133 -0.3759
 7625SOL    HW134511   1.121   1.723   3.997  1.9506  0.7086  0.0084
 7625SOL    HW234512   1.213   1.639   3.904  0.5878  2.3822  0.2627
 7626SOL     OW34513   4.695   3.668  17.183  0.0871 -0.4681  0.1541
 7626SOL    HW134514   4.605   3.699  17.173  0.9589  0.8519 -3.4104
 7626SOL    HW234515   0.007   3.751  17.194 -1.6167  0.6112 -0.6099
 7627SOL     OW34516   3.609   2.782   4.033 -0.5378  0.1665 -0.5839
 7627SOL    HW134517   3.668   2.843   4.077 -2.2616 -0.3176  2.3888
 7627SOL    HW234518   3.617   2.803   3.940  0.7922  2.5065  0.0393
 7628SOL     OW34519   3.522   1.735   7.030  0.3381  0.5264 -0.1207
 7628SOL    HW134520   3.602   1.740   7.082 -1.3281 -2.3831  2.7193
 7628SOL    HW234521   3.496   1.645   7.049 -2.4297  1.5951  1.1510
 7629SOL     OW34522   2.870   3.293   4.319  0.2153 -0.6668  0.0450
 7629SOL    HW134523   2.877   3.237   4.241 -2.1531 -1.8751  0.7331
 7629SOL    HW234524   2.776   3.291   4.333  0.0185 -0.1693 -1.2138
 7630SOL     OW34525   3.315   4.359   5.166 -0.5280  0.8845  0.0554
 7630SOL    HW134526   3.383   4.307   5.122 -0.3512 -0.2093  1.6410
 7630SOL    HW234527   3.246   4.293   5.167  1.2618 -1.0117 -0.4066
 7631SOL     OW34528   4.140   2.375  11.402 -0.4624 -0.1994  0.2266
 7631SOL    HW134529   4.073   2.403  11.464  0.0425  2.0045 -0.2382
 7631SOL    HW234530   4.206   2.333  11.456 -1.6699 -0.8387  1.2007
 7632SOL     OW34531   1.141   2.032  16.640  0.1206 -0.1468  0.0609
 7632SOL    HW134532   1.222   2.083  16.647 -0.7012  1.0708  0.5697
 7632SOL    HW234533   1.106   2.046  16.728 -1.3698  0.1028 -0.5858
 7633SOL     OW34534   0.297   0.572  10.817  0.1550 -0.4477  0.0970
 7633SOL    HW134535   0.344   0.570  10.900 -1.3799  0.2793  0.9962
 7633SOL    HW234536   0.354   0.624  10.761 -0.5565  2.7486  2.3355
 7634SOL     OW34537   1.776   2.817  12.759 -0.6340 -0.6451  0.2724
 7634SOL    HW134538   1.822   2.758  12.818 -1.2608 -0.6252  0.7885
 7634SOL    HW234539   1.836   2.869  12.706  0.5015 -1.4938  0.7317
 7635SOL     OW34540   3.247   4.727   7.964  0.3794 -0.0216  0.2598
 7635SOL    HW134541   3.191   4.674   8.020  0.4136 -0.2407  0.0885
 7635SOL    HW234542   3.215   4.716   7.875 -1.6126 -0.7310  1.0681
 7636SOL     OW34543   1.871   0.838   5.022  0.2489 -0.0872 -0.1471
 7636SOL    HW134544   1.933   0.897   5.064  1.0300  1.4184 -3.4522
 7636SOL    HW234545   1.895   0.757   5.067 -0.0077  0.7966  1.6219
 7637SOL     OW34546   1.442   1.685   3.057  0.0690  0.1560  0.6526
 7637SOL    HW134547   1.525   1.640   3.039 -0.7125 -0.6530 -0.9530
 7637SOL    HW234548   1.457   1.749   3.127  1.8265  1.7166 -1.1696
 7638SOL     OW34549   1.925   4.387   2.322 -0.0035  0.0344 -0.0968
 7638SOL    HW134550   1.833   4.412   2.316 -0.1641 -0.7460 -0.9446
 7638SOL    HW234551   1.908   4.303   2.365  1.7480 -1.1138 -1.6469
 7639SOL     OW34552   1.177   1.664   8.695  0.1068 -0.3020 -0.4221
 7639SOL    HW134553   1.246   1.717   8.655  0.6432  0.9526  2.1742
 7639SOL    HW234554   1.182   1.583   8.645 -0.5746 -0.1944 -0.6708
 7640SOL     OW34555   0.743   0.606   6.173  0.2592  0.2442  0.3023
 7640SOL    HW134556   0.768   0.666   6.243  1.4709  2.6479 -2.2056
 7640SOL    HW234557   0.830   0.586   6.138 -0.8192  0.2772 -2.4129
 7641SOL     OW34558   3.243   3.883   8.649  0.1803 -0.1055  0.1592
 7641SOL    HW134559   3.180   3.828   8.695 -0.3250 -0.5481 -1.0651
 7641SOL    HW234560   3.272   3.948   8.713 -1.1169  0.7278 -0.0950
 7642SOL     OW34561   0.661   1.238   1.246 -0.1983 -0.2346 -0.1465
 7642SOL    HW134562   0.612   1.156   1.256  0.5008 -0.1404  3.7980
 7642SOL    HW234563   0.611   1.287   1.180 -1.6412 -1.2642  0.1643
 7643SOL     OW34564   1.086   2.099   3.520  0.2016 -0.3231  0.1772
 7643SOL    HW134565   1.089   2.090   3.616  1.4598 -1.3421  0.0559
 7643SOL    HW234566   1.091   2.194   3.510  2.5150 -0.4477  0.1037
 7644SOL     OW34567   0.230   1.458   3.176 -0.0257  0.4735  0.6280
 7644SOL    HW134568   0.239   1.553   3.186 -0.6812  0.8197 -1.9471
 7644SOL    HW234569   0.244   1.435   3.084  2.0235 -2.6861  1.7516
 7645SOL     OW34570   2.093   0.284   8.568  0.3195  0.4546 -0.8064
 7645SOL    HW134571   2.175   0.241   8.594  0.3838 -0.1673 -2.0698
 7645SOL    HW234572   2.092   0.370   8.612 -2.0949 -0.1153  0.2152
 7646SOL     OW34573   3.714   3.509   6.991  0.1539 -0.0055  0.2265
 7646SOL    HW134574   3.780   3.575   7.013  2.4803 -1.4634 -2.3255
 7646SOL    HW234575   3.714   3.478   7.082  0.8302 -2.1505 -0.5097
 7647SOL     OW34576   3.811   1.013  12.222 -0.0238  0.4622 -0.0260
 7647SOL    HW134577   3.842   0.945  12.283 -1.1970 -1.5026 -1.6075
 7647SOL    HW234578   3.740   0.965  12.179  0.8432 -0.3633 -0.5272
 7648SOL     OW34579   2.960   0.055   2.121  0.5181 -0.5461  0.2822
 7648SOL    HW134580   3.051   0.066   2.152  0.0500  1.1843  1.0325
 7648SOL    HW234581   2.968   4.713   2.066  0.2919 -0.8649  0.6964
 7649SOL     OW34582   4.596   1.788   0.664  0.3189  0.6890 -0.3054
 7649SOL    HW134583   4.513   1.836   0.665  0.8226  1.5444  0.5819
 7649SOL    HW234584   4.625   1.781   0.574  3.2962 -1.4084  0.8159
 7650SOL     OW34585   2.054   0.460  12.642  0.1171 -0.2332  0.6323
 7650SOL    HW134586   2.046   0.454  12.737  1.5518  0.5495  0.8021
 7650SOL    HW234587   1.961   0.482  12.629 -0.7084 -3.4877  0.9071
 7651SOL     OW34588   1.919   2.467   2.628 -0.3263 -0.3042 -0.0741
 7651SOL    HW134589   1.877   2.400   2.574  0.2173 -1.0499  0.4227
 7651SOL    HW234590   2.003   2.460   2.583  1.0916 -0.5089  2.5940
 7652SOL     OW34591   2.404   0.238  11.581 -0.4866  0.5175 -0.4114
 7652SOL    HW134592   2.447   0.188  11.513  1.7793 -1.3763  2.4073
 7652SOL    HW234593   2.420   0.174  11.651  1.1685  0.9066 -0.4320
 7653SOL     OW34594   2.913   3.151   4.714  0.6683  0.0293  0.1163
 7653SOL    HW134595   2.867   3.112   4.640  1.0728 -0.2159 -0.0082
 7653SOL    HW234596   2.864   3.119   4.789 -0.8294 -1.4698 -1.5176
 7654SOL     OW34597   2.756   2.718   3.573  0.1956  0.0451 -0.5401
 7654SOL    HW134598   2.761   2.682   3.662  1.7221  2.4374  0.3284
 7654SOL    HW234599   2.820   2.787   3.559 -1.3112  1.4563 -0.4361
 7655SOL     OW34600   2.652   4.320  17.537 -0.1830 -0.0629  0.1430
 7655SOL    HW134601   2.627   4.393  17.480 -0.5866  0.1669  0.6137
 7655SOL    HW234602   2.567   4.280  17.550 -0.5997  1.0707  0.9773
 7656SOL     OW34603   2.245   4.537   8.864  0.4053  0.2745  0.1778
 7656SOL    HW134604   2.270   4.459   8.914 -1.1938 -0.2567  0.1436
 7656SOL    HW234605   2.150   4.534   8.868  0.4777 -1.3121  0.6695
 7657SOL     OW34606   2.299   4.123  16.619  0.3224  0.4417 -0.8501
 7657SOL    HW134607   2.365   4.097  16.554  0.0581 -2.7331  0.1299
 7657SOL    HW234608   2.275   4.035  16.649 -0.6708  0.4069 -1.7716
 7658SOL     OW34609   2.085   2.830  14.507  0.3697 -0.4158 -0.1372
 7658SOL    HW134610   2.120   2.918  14.499 -0.3612 -0.1578 -0.4850
 7658SOL    HW234611   2.046   2.828  14.594 -0.8053  0.5734 -0.6526
 7659SOL     OW34612   1.247   3.549   4.846  0.6196  0.1066 -0.1244
 7659SOL    HW134613   1.164   3.589   4.872  0.6509  1.2725 -1.8222
 7659SOL    HW234614   1.240   3.476   4.907 -0.1554 -1.0412 -1.5865
 7660SOL     OW34615   4.451   2.614   4.548 -0.2902  0.1494 -0.4061
 7660SOL    HW134616   4.486   2.535   4.590 -2.2640 -0.3816  0.2390
 7660SOL    HW234617   4.372   2.644   4.593  0.9494 -0.0398  1.9066
 7661SOL     OW34618   1.686   3.708  13.406 -0.0754 -0.0664 -0.1546
 7661SOL    HW134619   1.640   3.627  13.386 -1.6130  0.7733 -0.0149
 7661SOL    HW234620   1.734   3.725  13.325  2.4541 -0.3203  1.2582
 7662SOL     OW34621   2.997   0.636   8.777  0.1615  0.4414 -0.4781
 7662SOL    HW134622   3.055   0.643   8.853  0.8271  0.2031 -0.9663
 7662SOL    HW234623   3.004   0.728   8.754 -0.4253  1.0559  1.7660
 7663SOL     OW34624   3.393   0.486   9.211 -0.1216 -0.0677  0.0900
 7663SOL    HW134625   3.431   0.528   9.133 -1.6258 -0.5459 -0.9028
 7663SOL    HW234626   3.442   0.404   9.205  1.6137  1.0378 -0.8273
 7664SOL     OW34627   3.130   0.733   4.513 -0.0860 -0.3774  0.1944
 7664SOL    HW134628   3.091   0.776   4.588 -0.6322 -0.0862 -0.2573
 7664SOL    HW234629   3.186   0.659   4.537  0.1980 -0.0208  0.6307
 7665SOL     OW34630   1.920   4.527   7.370  0.8300  0.6570  0.1651
 7665SOL    HW134631   1.849   4.492   7.424  1.0804  2.6516  1.8001
 7665SOL    HW234632   1.866   4.604   7.354  1.0363  1.2689  2.3656
 7666SOL     OW34633   4.417   0.722   9.168  0.5116  0.0278 -0.1443
 7666SOL    HW134634   4.398   0.816   9.161 -1.7748 -0.4096  0.0796
 7666SOL    HW234635   4.371   0.713   9.252  1.3993 -3.4298 -0.0563
 7667SOL     OW34636   2.123   3.270   6.207 -0.0976 -0.3045 -0.0627
 7667SOL    HW134637   2.035   3.267   6.171  0.3312  2.0918 -1.3168
 7667SOL    HW234638   2.138   3.175   6.205  0.4347 -0.2179 -0.1847
 7668SOL     OW34639   0.909   1.176   7.815 -0.4492  0.1969  0.4692
 7668SOL    HW134640   0.895   1.118   7.890 -0.4603 -0.0387  0.2825
 7668SOL    HW234641   0.970   1.243   7.847  0.5801 -1.2345  1.4843
 7669SOL     OW34642   3.939   3.936   5.131  0.2279  0.2296  0.2929
 7669SOL    HW134643   3.990   4.011   5.162  2.7752 -1.3660 -0.0364
 7669SOL    HW234644   3.939   3.951   5.037 -0.7097 -0.6356  0.1529
 7670SOL     OW34645   1.200   2.313  10.667  0.1798 -0.7205 -0.4779
 7670SOL    HW134646   1.125   2.279  10.715  0.9235 -2.5428 -0.5894
 7670SOL    HW234647   1.180   2.278  10.580 -0.4583 -1.1154 -0.1666
 7671SOL     OW34648   3.133   3.268   6.548 -0.0980  0.3647 -0.3600
 7671SOL    HW134649   3.170   3.273   6.460 -0.7442  3.3014 -0.4652
 7671SOL    HW234650   3.191   3.200   6.584 -0.0258  0.8433  0.4237
 7672SOL     OW34651   2.840   1.299  12.432 -0.0323 -0.3624 -0.4942
 7672SOL    HW134652   2.746   1.313  12.433  0.3731  2.4648 -2.0460
 7672SOL    HW234653   2.851   1.209  12.463 -1.1079  0.1370  1.3129
 7673SOL     OW34654   1.790   0.463   0.797 -0.1237 -0.3056  0.0422
 7673SOL    HW134655   1.759   0.548   0.765 -3.5619 -1.0862  1.2192
 7673SOL    HW234656   1.865   0.496   0.847 -0.5869 -1.0999  1.2733
 7674SOL     OW34657   0.491   4.542   8.355 -0.4642 -0.7511 -0.5735
 7674SOL    HW134658   0.433   4.617   8.368 -0.1458 -0.3465 -1.5317
 7674SOL    HW234659   0.572   4.593   8.351  0.4532 -2.0467  0.9723
 7675SOL     OW34660   1.495   4.029   9.700 -0.2656 -0.1874  0.4293
 7675SOL    HW134661   1.486   4.056   9.609  2.3864  1.3700  0.6352
 7675SOL    HW234662   1.404   4.008   9.718 -0.7314 -0.3655 -2.1424
 7676SOL     OW34663   4.562   1.311  11.546 -0.3148 -0.5709 -0.1174
 7676SOL    HW134664   4.469   1.294  11.556 -0.0383 -1.8092  0.3844
 7676SOL    HW234665   4.573   1.370  11.472 -1.0592  1.7738  1.6261
 7677SOL     OW34666   3.143   4.517   3.963  0.3559  0.4236  0.3046
 7677SOL    HW134667   3.236   4.531   3.977  0.2083  1.1182  0.6459
 7677SOL    HW234668   3.140   4.550   3.873 -1.1868 -0.5329  0.0075
 7678SOL     OW34669   0.990   3.963   0.269  0.4110  0.2346 -0.6998
 7678SOL    HW134670   0.898   3.939   0.285  0.4722  0.1504 -0.4639
 7678SOL    HW234671   1.033   3.882   0.243  0.2522 -0.1644  0.2525
 7679SOL     OW34672   2.693   2.408  13.245 -0.5019  0.3411  0.4820
 7679SOL    HW134673   2.694   2.327  13.195  1.0650  1.6943 -1.7249
 7679SOL    HW234674   2.711   2.376  13.334 -2.4907 -0.0110  0.7453
 7680SOL     OW34675   4.257   0.905  17.324  0.7067  0.2873 -0.1413
 7680SOL    HW134676   4.343   0.920  17.284  0.7228  0.5481 -0.0080
 7680SOL    HW234677   4.285   0.881  17.412  2.8699  1.3423 -0.5442
 7681SOL     OW34678   2.288   1.831   3.029  0.1805  0.0037 -0.1832
 7681SOL    HW134679   2.265   1.922   3.009 -0.2710 -0.3187 -1.1928
 7681SOL    HW234680   2.290   1.823   3.124  0.6749  0.9649 -0.1094
 7682SOL     OW34681   1.330   3.858   0.088 -0.2484 -0.4633 -0.3869
 7682SOL    HW134682   1.377   3.867   0.170  0.8493 -0.0144 -1.0718
 7682SOL    HW234683   1.355   3.941   0.048  0.2386  0.7493  2.4853
 7683SOL     OW34684   2.691   1.100  10.634 -0.8631  0.0954  0.0959
 7683SOL    HW134685   2.677   1.171  10.696 -1.6055  0.5357 -0.5879
 7683SOL    HW234686   2.697   1.140  10.547 -0.7378  0.7258  0.3945
 7684SOL     OW34687   1.430   1.007   8.875  0.5539 -0.3568  0.6166
 7684SOL    HW134688   1.375   0.939   8.837  1.8869 -2.9365  3.3162
 7684SOL    HW234689   1.381   1.029   8.955 -0.0772  1.3835 -0.2498
 7685SOL     OW34690   4.574   2.523  17.681 -0.0155 -0.0184  0.2217
 7685SOL    HW134691   4.629   2.455  17.642 -0.2357  0.9211 -1.7287
 7685SOL    HW234692   4.484   2.496  17.661 -0.4228  1.1826  0.4226
 7686SOL     OW34693   1.891   1.164   6.334  0.2035  0.4822 -0.0942
 7686SOL    HW134694   1.957   1.196   6.273 -0.1107 -2.9051 -2.2051
 7686SOL    HW234695   1.814   1.193   6.285  0.4183  0.6984 -0.3035
 7687SOL     OW34696   3.588   3.269  12.384  0.0677 -0.1141  0.1883
 7687SOL    HW134697   3.582   3.194  12.443  2.7188 -0.1292  0.4658
 7687SOL    HW234698   3.681   3.259  12.365 -0.2610 -0.9414 -0.9763
 7688SOL     OW34699   1.526   1.233   8.368  0.0667 -0.1374 -0.1143
 7688SOL    HW134700   1.505   1.166   8.303 -1.2125 -0.8698  1.0532
 7688SOL    HW234701   1.536   1.305   8.305  0.3985 -0.4298 -0.4010
 7689SOL     OW34702   2.813   3.302   5.387  0.2837  0.2707 -0.7176
 7689SOL    HW134703   2.878   3.354   5.434 -0.8400 -0.7008  1.9233
 7689SOL    HW234704   2.774   3.372   5.335  1.8565  2.3712  0.9155
 7690SOL     OW34705   3.022   2.781  14.430 -0.7049 -0.2640  0.1176
 7690SOL    HW134706   3.027   2.876  14.421 -1.4516 -0.1259  1.0313
 7690SOL    HW234707   3.110   2.757  14.459 -0.8133  1.2633  1.7563
 7691SOL     OW34708   1.023   0.837   6.925 -0.4251 -0.3763 -0.3893
 7691SOL    HW134709   1.094   0.900   6.913 -0.3036  0.0384  2.4191
 7691SOL    HW234710   0.963   0.910   6.943 -0.5280 -1.0423  1.9858
 7692SOL     OW34711   2.361   1.983   3.481 -0.1407 -0.4400 -0.1576
 7692SOL    HW134712   2.326   1.928   3.551  0.5451  0.1059  0.6260
 7692SOL    HW234713   2.359   2.070   3.522  1.0720 -1.1157  1.3547
 7693SOL     OW34714   2.994   0.151   7.635  0.1757 -0.1874 -0.1133
 7693SOL    HW134715   2.914   0.140   7.585  0.0966 -2.1071  0.4413
 7693SOL    HW234716   3.029   0.234   7.602 -0.7564  1.0366  1.9944
 7694SOL     OW34717   0.090   1.776   8.653  0.7327  0.3250  0.0614
 7694SOL    HW134718   0.077   1.856   8.704  0.2316  0.6386 -0.5632
 7694SOL    HW234719   0.037   1.782   8.573 -2.2510  2.2045  2.1467
 7695SOL     OW34720   2.372   4.431  15.288  0.6474  0.3175  0.3390
 7695SOL    HW134721   2.456   4.468  15.262  0.5407  2.0888  2.5865
 7695SOL    HW234722   2.394   4.343  15.318  0.8868  1.5910  3.8295
 7696SOL     OW34723   2.477   4.160   7.003 -0.6191  0.7035 -0.3305
 7696SOL    HW134724   2.441   4.132   6.918 -0.3769 -1.2246  0.2011
 7696SOL    HW234725   2.411   4.226   7.025 -0.2683  0.8170  0.3957
 7697SOL     OW34726   1.169   3.505   3.656  0.1786 -0.4221 -0.1745
 7697SOL    HW134727   1.200   3.444   3.589 -0.5911 -2.4071  1.2921
 7697SOL    HW234728   1.099   3.458   3.700  0.7121  0.2094  1.3353
 7698SOL     OW34729   3.551   2.394   1.354  0.4283 -0.7268 -0.1353
 7698SOL    HW134730   3.488   2.458   1.387  2.4055  0.8473  0.5205
 7698SOL    HW234731   3.497   2.320   1.384  0.8252 -0.8030  0.3985
 7699SOL     OW34732   0.334   0.642  15.193 -0.1708  0.3483  0.1090
 7699SOL    HW134733   0.377   0.721  15.161 -1.2886  1.3517  1.0383
 7699SOL    HW234734   0.296   0.611  15.111  0.3784 -1.4355  0.5345
 7700SOL     OW34735   2.429   3.234   1.806 -0.0037 -0.0450  0.5390
 7700SOL    HW134736   2.478   3.315   1.801 -0.3676  0.2883  2.4272
 7700SOL    HW234737   2.483   3.192   1.873  1.7856  2.4012  0.6255
 7701SOL     OW34738   0.432   2.606   5.514  0.6670  0.0915  0.1911
 7701SOL    HW134739   0.482   2.559   5.448 -0.4694 -0.1170 -0.5128
 7701SOL    HW234740   0.445   2.544   5.585  1.4150 -0.1493 -0.1560
 7702SOL     OW34741   0.966   4.485   6.310  0.1197  0.5716  0.0951
 7702SOL    HW134742   0.979   4.479   6.404 -1.0924 -2.8718  0.0626
 7702SOL    HW234743   1.044   4.442   6.274 -0.9204  0.6875 -2.3004
 7703SOL     OW34744   0.578   3.726  10.566 -0.3925 -0.0548 -0.5943
 7703SOL    HW134745   0.554   3.739  10.658  1.6110 -2.0694  0.2267
 7703SOL    HW234746   0.516   3.784  10.523 -1.9065 -0.9391  0.4219
 7704SOL     OW34747   0.429   3.886   7.047 -0.2315 -0.0696  0.3746
 7704SOL    HW134748   0.447   3.968   7.000 -3.0088  1.3019  1.7042
 7704SOL    HW234749   0.350   3.866   6.998 -1.0175 -1.3444  2.1623
 7705SOL     OW34750   1.999   1.269  11.062 -0.4885 -0.3203  0.3733
 7705SOL    HW134751   2.081   1.226  11.038  0.1366  1.1673 -0.1596
 7705SOL    HW234752   1.969   1.309  10.980 -0.8963  0.5443  0.9352
 7706SOL     OW34753   1.795   4.110  16.354 -0.5821 -0.2430 -0.0729
 7706SOL    HW134754   1.810   4.173  16.425 -1.3217 -0.6044  0.3955
 7706SOL    HW234755   1.766   4.035  16.405 -0.4088 -0.9569 -1.0148
 7707SOL     OW34756   3.990   2.846  17.005  0.0343  0.5370 -0.2092
 7707SOL    HW134757   3.985   2.942  17.011  0.7498  0.5072  0.8711
 7707SOL    HW234758   3.908   2.814  16.968 -0.6551  0.8513  1.0775
 7708SOL     OW34759   0.764   0.381   4.438 -0.0077 -0.1474 -0.6576
 7708SOL    HW134760   0.769   0.289   4.464 -1.4033 -0.3015 -0.9501
 7708SOL    HW234761   0.839   0.373   4.379  0.0236  3.3348 -1.0894
 7709SOL     OW34762   3.801   2.961  13.277  0.4116  0.1967 -0.7055
 7709SOL    HW134763   3.832   3.033  13.223 -2.0165  0.0354 -2.3343
 7709SOL    HW234764   3.885   2.933  13.312  0.5534  0.0270 -1.1872
 7710SOL     OW34765   3.219   3.187  16.515  0.7359 -0.0321  0.0041
 7710SOL    HW134766   3.240   3.111  16.570 -2.2098 -2.9388 -2.8919
 7710SOL    HW234767   3.242   3.253  16.581 -1.2852 -0.4840  1.1633
 7711SOL     OW34768   3.204   0.045  13.077  0.2823  0.4745  0.0391
 7711SOL    HW134769   3.212   0.123  13.022  0.9330  1.3076  1.3404
 7711SOL    HW234770   3.213   4.703  13.020 -2.8412 -0.4146  0.7308
 7712SOL     OW34771   4.510   3.606  13.471 -0.3680 -0.7155 -0.0699
 7712SOL    HW134772   4.429   3.655  13.484  0.4842  0.9697 -1.1768
 7712SOL    HW234773   4.568   3.678  13.448 -0.3957 -0.2535  1.3068
 7713SOL     OW34774   2.861   3.532   4.008 -0.0953  0.0194  1.0028
 7713SOL    HW134775   2.795   3.549   3.941 -0.7361 -0.9165  1.3916
 7713SOL    HW234776   2.815   3.469   4.063  2.1371  0.0998  3.0072
 7714SOL     OW34777   0.299   0.133   8.668  0.4835  0.3268 -0.0920
 7714SOL    HW134778   0.224   0.081   8.698  1.6038  0.1538  2.4305
 7714SOL    HW234779   0.368   0.070   8.687 -0.1816  0.5482  3.0957
 7715SOL     OW34780   1.241   1.718   6.604 -0.0907  0.5259  0.3392
 7715SOL    HW134781   1.199   1.709   6.518  2.4345 -1.7708 -0.6467
 7715SOL    HW234782   1.174   1.674   6.657 -1.6219  1.3095 -0.9672
 7716SOL     OW34783   4.641   1.480  14.037  0.5006  0.6071  0.4187
 7716SOL    HW134784   4.614   1.449  14.124 -1.0761  0.7428 -0.0229
 7716SOL    HW234785   4.626   1.396  13.994 -0.2708  0.7014  0.5047
 7717SOL     OW34786   0.784   2.814  17.256 -0.5343  0.3592 -0.6024
 7717SOL    HW134787   0.859   2.769  17.296  0.0060  1.1026 -0.7684
 7717SOL    HW234788   0.804   2.907  17.248  2.3969 -0.1757  0.2686
 7718SOL     OW34789   0.679   2.048  14.484 -0.7390  0.2704 -0.3772
 7718SOL    HW134790   0.739   1.991  14.437 -0.4050 -0.5592  1.0381
 7718SOL    HW234791   0.685   2.134  14.442 -0.3669  0.1711 -0.5195
 7719SOL     OW34792   2.802   4.598   3.580  0.7320 -0.0588  0.1731
 7719SOL    HW134793   2.774   4.689   3.579 -1.0448 -0.5609  3.7553
 7719SOL    HW234794   2.865   4.598   3.508  0.1563 -1.8022 -0.3460
 7720SOL     OW34795   0.351   1.685  11.164  0.4739 -0.1117 -0.1376
 7720SOL    HW134796   0.318   1.605  11.124 -0.6713  2.3364 -4.0209
 7720SOL    HW234797   0.325   1.746  11.095 -1.1499 -2.1163 -1.2883
 7721SOL     OW34798   2.178   2.997   6.211 -0.6367 -0.2866 -0.2510
 7721SOL    HW134799   2.246   2.975   6.148 -1.8761  1.3135 -2.1747
 7721SOL    HW234800   2.129   2.916   6.194 -0.0191 -0.5288 -0.8832
 7722SOL     OW34801   4.541   3.076  17.047 -0.7159 -0.1903 -0.1270
 7722SOL    HW134802   4.577   3.158  17.013  0.7997 -0.4382  0.8720
 7722SOL    HW234803   4.549   3.091  17.142  4.3782 -0.9864 -0.4644
 7723SOL     OW34804   4.404   1.725   9.072  0.4642 -0.3608 -0.0516
 7723SOL    HW134805   4.444   1.713   8.986 -0.5079 -0.9923 -0.4228
 7723SOL    HW234806   4.477   1.768   9.116  1.7984 -1.7418 -0.9152
 7724SOL     OW34807   0.855   0.241   9.940 -0.1104 -0.0664 -0.0162
 7724SOL    HW134808   0.878   0.152   9.967  1.4329  0.6412  1.0199
 7724SOL    HW234809   0.942   0.281   9.928 -0.8550  1.2768 -0.9777
 7725SOL     OW34810   3.908   2.237  17.516  0.1452 -0.2085 -0.4421
 7725SOL    HW134811   3.864   2.247  17.600 -0.2615  1.4268 -0.8539
 7725SOL    HW234812   3.845   2.272  17.453 -1.3021 -2.6403 -0.3411
 7726SOL     OW34813   0.904   4.544  10.763 -0.1629 -0.4902  0.5172
 7726SOL    HW134814   0.960   4.572  10.690  0.7255 -3.2394  0.1479
 7726SOL    HW234815   0.835   4.609  10.755  0.2493 -0.4595 -2.8385
 7727SOL     OW34816   0.633   0.770   2.829 -0.4489 -0.3690  0.0535
 7727SOL    HW134817   0.551   0.769   2.779 -0.1256 -1.4594 -0.4475
 7727SOL    HW234818   0.697   0.782   2.759 -0.3747 -2.4280 -0.2044
 7728SOL     OW34819   1.127   4.419  13.353 -0.1388 -0.1404  0.1014
 7728SOL    HW134820   1.197   4.385  13.297  0.1617  0.1149  0.3247
 7728SOL    HW234821   1.189   4.478  13.395  0.0304  0.8600 -1.5240
 7729SOL     OW34822   0.425   4.247   4.104 -0.5881  0.2269  0.2045
 7729SOL    HW134823   0.518   4.266   4.102 -0.7851  1.2224  0.4057
 7729SOL    HW234824   0.408   4.247   4.198 -0.0579 -1.7633  0.3017
 7730SOL     OW34825   4.373   3.282   6.633 -0.4242  0.0547  0.5826
 7730SOL    HW134826   4.467   3.279   6.649 -0.0558 -1.2706 -1.8784
 7730SOL    HW234827   4.355   3.217   6.565  0.4036  0.2723  0.1575
 7731SOL     OW34828   1.375   2.877   5.819 -0.0459  0.2610  0.1508
 7731SOL    HW134829   1.448   2.825   5.850 -0.1177  0.0772  0.0156
 7731SOL    HW234830   1.329   2.886   5.902  0.3649  0.6908  0.3279
 7732SOL     OW34831   0.928   3.585   9.127  0.0342  0.4370  0.1234
 7732SOL    HW134832   0.859   3.581   9.193  0.0738 -0.7474  0.0822
 7732SOL    HW234833   0.881   3.527   9.069  2.2526 -0.5174 -0.7256
 7733SOL     OW34834   4.225   0.670   5.538 -0.3164 -0.1073 -0.3005
 7733SOL    HW134835   4.186   0.584   5.554 -1.8341  0.6097 -0.1117
 7733SOL    HW234836   4.282   0.680   5.615  0.6125 -0.0579 -0.9996
 7734SOL     OW34837   2.178   2.540   5.822 -0.0906  1.0535  0.0723
 7734SOL    HW134838   2.140   2.483   5.755 -0.0688  0.0587  0.8900
 7734SOL    HW234839   2.202   2.467   5.880  0.8574  1.6139  0.3769
 7735SOL     OW34840   2.433   1.937   7.635  0.6095  0.5199 -0.0900
 7735SOL    HW134841   2.475   2.022   7.640  2.3865 -0.4402  1.1447
 7735SOL    HW234842   2.362   1.933   7.700  0.1751 -2.0378 -0.7176
 7736SOL     OW34843   2.948   3.544   6.577  0.1589 -0.4160  0.1009
 7736SOL    HW134844   2.853   3.545   6.584  0.2185  2.6834  0.3524
 7736SOL    HW234845   2.978   3.509   6.661 -0.8177  0.1598  0.6881
 7737SOL     OW34846   2.602   2.443   7.450 -0.5341  0.2380 -0.5277
 7737SOL    HW134847   2.693   2.471   7.450 -0.6203  0.5151 -0.1858
 7737SOL    HW234848   2.553   2.522   7.472 -1.6815 -0.8860  0.9979
 7738SOL     OW34849   1.404   0.609   4.473 -0.5450 -0.0493 -0.1467
 7738SOL    HW134850   1.435   0.518   4.469 -1.2891 -0.2843 -0.6312
 7738SOL    HW234851   1.484   0.654   4.498  0.4578 -1.2406 -1.1593
 7739SOL     OW34852   0.245   2.164   3.682 -0.8898 -0.1106 -0.4360
 7739SOL    HW134853   0.266   2.256   3.670 -1.3523 -0.2315 -2.1452
 7739SOL    HW234854   0.262   2.136   3.592 -0.0243 -0.1376 -0.2673
 7740SOL     OW34855   0.439   0.369   3.456  0.1642  0.4011  0.5331
 7740SOL    HW134856   0.416   0.430   3.386  1.0373 -1.8088 -1.6828
 7740SOL    HW234857   0.361   0.363   3.510 -1.1964  0.3624 -1.4653
 7741SOL     OW34858   1.003   3.366   3.827  0.7942  0.2360 -0.9282
 7741SOL    HW134859   1.037   3.408   3.906  0.6097 -1.0822 -0.1510
 7741SOL    HW234860   1.027   3.274   3.842  0.5005  0.0469 -1.6028
 7742SOL     OW34861   3.109   2.514   4.806 -0.0395 -0.2931  0.2071
 7742SOL    HW134862   3.082   2.422   4.812 -0.3238 -0.0549  2.7101
 7742SOL    HW234863   3.039   2.556   4.856  0.3964 -0.5434  1.0254
 7743SOL     OW34864   1.615   1.468  16.084  0.0620 -0.1984  0.0542
 7743SOL    HW134865   1.572   1.391  16.046 -0.9845  0.2259  0.3738
 7743SOL    HW234866   1.706   1.462  16.053  0.0521 -2.1824  0.3860
 7744SOL     OW34867   4.474   3.174   8.246 -0.1045 -0.0152 -0.1782
 7744SOL    HW134868   4.384   3.205   8.236 -0.0558  0.5144  0.9823
 7744SOL    HW234869   4.481   3.159   8.341  1.1570  2.8168  0.1734
 7745SOL     OW34870   4.354   4.235   6.415 -0.2375 -0.0111 -0.4041
 7745SOL    HW134871   4.272   4.281   6.433  0.1526  0.6342 -0.2809
 7745SOL    HW234872   4.394   4.279   6.340 -1.6064 -0.6907 -1.5302
 7746SOL     OW34873   0.471   1.958   0.294  0.0089  0.6656  0.4121
 7746SOL    HW134874   0.449   1.867   0.272  0.2484  0.4500  1.0448
 7746SOL    HW234875   0.554   1.980   0.251  0.3700 -0.4761  0.5073
 7747SOL     OW34876   3.020   4.384   9.053 -0.4335  0.3315 -0.0116
 7747SOL    HW134877   2.927   4.387   9.029 -0.1967 -0.8384 -1.0460
 7747SOL    HW234878   3.025   4.289   9.070  1.2835  0.0601 -2.1645
 7748SOL     OW34879   1.150   1.558   6.838 -0.1848 -0.0231  0.4192
 7748SOL    HW134880   1.214   1.495   6.870  1.6690  0.8587 -1.5622
 7748SOL    HW234881   1.090   1.496   6.797  1.0204  0.4465 -2.0738
 7749SOL     OW34882   0.042   0.271   5.249  0.2906 -0.3329  0.0133
 7749SOL    HW134883   4.724   0.350   5.256 -0.9021 -0.8692 -2.8666
 7749SOL    HW234884   0.118   0.281   5.305  0.5371  1.6582 -0.6634
 7750SOL     OW34885   4.234   3.298   8.224  0.2987 -0.1269 -0.5726
 7750SOL    HW134886   4.188   3.377   8.251 -0.9985 -0.7864 -0.8310
 7750SOL    HW234887   4.169   3.242   8.267  0.9085  1.3664  2.2796
 7751SOL     OW34888   3.363   0.505   6.826  0.4308 -0.1781 -0.6684
 7751SOL    HW134889   3.283   0.555   6.810 -1.7776 -3.8162 -0.9476
 7751SOL    HW234890   3.420   0.532   6.755  1.3414  1.4828  0.7031
 7752SOL     OW34891   3.162   1.432   5.754  0.6462  0.0452 -0.8157
 7752SOL    HW134892   3.207   1.398   5.676  0.2336 -1.0806 -0.5595
 7752SOL    HW234893   3.195   1.522   5.754 -1.0847  0.6625 -0.9590
 7753SOL     OW34894   4.444   3.509   9.436  0.0264  0.2188  0.1390
 7753SOL    HW134895   4.509   3.461   9.488  0.6736 -0.4128 -1.2426
 7753SOL    HW234896   4.507   3.548   9.376 -0.5000 -0.8300 -1.0927
 7754SOL     OW34897   4.191   1.307   2.976 -0.1898 -1.0174 -0.0608
 7754SOL    HW134898   4.277   1.341   3.001 -0.1365  0.7197 -2.5683
 7754SOL    HW234899   4.160   1.284   3.064 -2.1202 -0.7242 -0.6588
 7755SOL     OW34900   1.811   1.816   9.006 -0.5391 -0.5427 -0.3662
 7755SOL    HW134901   1.871   1.742   8.999  2.3480  1.8147 -0.4064
 7755SOL    HW234902   1.726   1.772   9.014 -1.0804  0.4028 -1.0481
 7756SOL     OW34903   2.482   0.985   2.961  0.3118 -0.2390  0.0269
 7756SOL    HW134904   2.525   0.921   2.904  0.1554  0.0048 -0.3589
 7756SOL    HW234905   2.502   0.960   3.052 -1.8659  1.4242  0.9694
 7757SOL     OW34906   3.713   4.039   3.918 -0.0234 -0.4136  0.5277
 7757SOL    HW134907   3.769   4.072   3.989 -0.4481  0.9573  0.2249
 7757SOL    HW234908   3.773   3.976   3.879  2.8856  2.2220  0.6755
 7758SOL     OW34909   0.901   4.673  16.917 -0.2476  0.1227 -0.3216
 7758SOL    HW134910   0.989   4.635  16.911  0.4791  1.4826  1.6041
 7758SOL    HW234911   0.880   4.711  16.832 -2.1721  1.1022  0.5975
 7759SOL     OW34912   1.676   2.549   1.536  0.2427 -0.0672  0.3289
 7759SOL    HW134913   1.629   2.537   1.453 -0.1512  2.1539  0.2148
 7759SOL    HW234914   1.666   2.644   1.543  2.0023  0.0857  0.6857
 7760SOL     OW34915   4.574   3.279  16.093 -0.3813  0.0531 -0.1435
 7760SOL    HW134916   4.541   3.269  16.182 -1.3286  0.5844 -0.4301
 7760SOL    HW234917   4.543   3.197  16.055 -0.1925 -0.2103  0.2692
 7761SOL     OW34918   3.286   4.569  13.797  0.3870  0.4743 -0.3870
 7761SOL    HW134919   3.207   4.610  13.763 -0.9496 -1.6290  0.1232
 7761SOL    HW234920   3.332   4.542  13.718  0.7525  0.6655 -0.2398
 7762SOL     OW34921   0.838   2.210  13.340  0.5536  0.1366 -0.4417
 7762SOL    HW134922   0.744   2.204  13.355  0.4831 -1.8415 -1.6206
 7762SOL    HW234923   0.840   2.303  13.317 -1.9025 -0.2880 -2.3022
 7763SOL     OW34924   2.120   0.559   2.187 -0.0979 -0.5322  0.4618
 7763SOL    HW134925   2.043   0.570   2.243  0.1334 -0.4866  0.7711
 7763SOL    HW234926   2.129   0.464   2.187 -2.2358 -0.7372 -0.8878
 7764SOL     OW34927   1.978   4.518   6.366 -0.3280 -0.3935  0.0047
 7764SOL    HW134928   2.020   4.442   6.408  1.4076 -0.4389 -1.7627
 7764SOL    HW234929   2.042   4.585   6.391  1.2827 -1.4918 -1.1480
 7765SOL     OW34930   4.106   1.831  10.900 -0.3870  0.2134 -0.0299
 7765SOL    HW134931   4.066   1.756  10.943  0.4013 -2.0817 -3.3022
 7765SOL    HW234932   4.042   1.902  10.908 -0.8342 -0.0376 -1.4288
 7766SOL     OW34933   3.366   4.519  11.653 -0.3130 -0.2794  0.2057
 7766SOL    HW134934   3.345   4.568  11.574  1.4822  0.3847  0.1349
 7766SOL    HW234935   3.363   4.427  11.628  2.6029 -0.4542  0.5196
 7767SOL     OW34936   1.099   4.036   8.308  0.5818 -0.4761  0.2954
 7767SOL    HW134937   1.005   4.018   8.313  0.2880  1.2786  0.9144
 7767SOL    HW234938   1.121   3.961   8.253 -0.0940 -0.2956 -0.2128
 7768SOL     OW34939   3.625   4.026   5.239 -0.1056 -0.4899  0.1317
 7768SOL    HW134940   3.567   4.047   5.166  0.3034  0.7195  0.1670
 7768SOL    HW234941   3.652   4.115   5.261  1.2415 -0.3410 -2.0159
 7769SOL     OW34942   1.376   4.590   5.866  0.2611 -0.3154  0.4034
 7769SOL    HW134943   1.388   4.601   5.772  1.2289  0.8253  0.6537
 7769SOL    HW234944   1.422   4.508   5.881 -0.2018 -0.5078  0.7786
 7770SOL     OW34945   3.144   1.169  12.811  0.1849  0.0080  0.2250
 7770SOL    HW134946   3.162   1.243  12.869 -1.8017 -0.0946  0.9606
 7770SOL    HW234947   3.207   1.183  12.739  1.4576  1.0075  1.5180
 7771SOL     OW34948   4.093   3.872   2.105 -0.5164 -0.5604  0.0320
 7771SOL    HW134949   4.109   3.923   2.184  0.9418 -1.0750  0.0647
 7771SOL    HW234950   4.135   3.788   2.121 -0.0812 -0.3545 -0.0351
 7772SOL     OW34951   1.389   1.511   0.136  0.5042 -0.3517  0.0680
 7772SOL    HW134952   1.435   1.475   0.212 -1.0350 -2.0069  0.2176
 7772SOL    HW234953   1.385   1.427   0.091 -1.4204 -1.2212  1.8586
 7773SOL     OW34954   4.671   0.411   8.608 -0.1799  0.0212  0.3264
 7773SOL    HW134955   4.659   0.503   8.632 -0.1568  0.6501 -2.1280
 7773SOL    HW234956   4.705   0.379   8.692 -0.6981 -0.8829  0.1852
 7774SOL     OW34957   0.254   2.383   3.516 -0.3021 -0.0044  0.0467
 7774SOL    HW134958   0.262   2.477   3.500  0.2719 -0.3429 -1.6803
 7774SOL    HW234959   0.315   2.340   3.456 -0.5826 -0.3281 -0.0054
 7775SOL     OW34960   0.287   2.922   4.124 -0.0431  0.0366 -0.3711
 7775SOL    HW134961   0.236   2.942   4.202 -0.9106 -0.1461 -0.9004
 7775SOL    HW234962   0.230   2.938   4.049  0.1114  0.1031 -0.4758
 7776SOL     OW34963   0.716   1.278   8.109 -0.3829 -0.0654 -1.1574
 7776SOL    HW134964   0.787   1.341   8.117 -1.7340  1.4522 -1.0773
 7776SOL    HW234965   0.750   1.194   8.138 -1.9385  0.5807  2.5135
 7777SOL     OW34966   2.170   1.603   3.328 -0.5583  0.2736  0.3615
 7777SOL    HW134967   2.251   1.643   3.297 -1.4809  0.8897 -1.2388
 7777SOL    HW234968   2.198   1.518   3.361  0.9639  0.8092  0.4324
 7778SOL     OW34969   0.850   1.687   0.755 -0.0066 -0.1433 -0.1853
 7778SOL    HW134970   0.874   1.740   0.831  2.0863  1.6372 -2.0791
 7778SOL    HW234971   0.765   1.649   0.778  0.3631  0.4689  2.1864
 7779SOL     OW34972   2.587   3.655   0.993 -0.0458  0.2855  0.0571
 7779SOL    HW134973   2.640   3.707   0.933 -0.2159  2.0419  1.4230
 7779SOL    HW234974   2.576   3.725   1.057  1.8677 -0.8024  1.5851
 7780SOL     OW34975   3.452   1.910   6.383  0.3086  0.8408  0.2712
 7780SOL    HW134976   3.485   1.839   6.328 -2.2154 -1.2924  1.5140
 7780SOL    HW234977   3.526   1.925   6.442 -0.2960 -1.8830  1.7693
 7781SOL     OW34978   1.372   1.258   6.200 -0.0778  0.3991 -0.2382
 7781SOL    HW134979   1.354   1.188   6.138  0.2850  0.9701 -0.9907
 7781SOL    HW234980   1.286   1.299   6.211  1.6651  3.2406  3.0010
 7782SOL     OW34981   0.811   2.510  13.519 -0.3801  0.0718 -0.2508
 7782SOL    HW134982   0.843   2.476  13.436 -1.6661 -1.0240 -0.2987
 7782SOL    HW234983   0.800   2.599  13.487 -0.4027  0.0628 -0.2675
 7783SOL     OW34984   1.229   1.781   1.475  0.6247 -0.2386 -0.6800
 7783SOL    HW134985   1.225   1.728   1.395  0.0980 -0.4370 -0.5246
 7783SOL    HW234986   1.238   1.712   1.541 -1.9177 -0.9181 -1.0282
 7784SOL     OW34987   0.739   4.344   6.820  0.5281  0.1779  0.2438
 7784SOL    HW134988   0.655   4.353   6.774  0.8587 -0.1127 -0.4082
 7784SOL    HW234989   0.783   4.282   6.763 -1.0442 -1.4051  0.7653
 7785SOL     OW34990   3.779   0.007   2.225  0.1059  0.2383  0.0171
 7785SOL    HW134991   3.814   4.658   2.198 -1.2059  0.1221 -1.2776
 7785SOL    HW234992   3.724   0.038   2.153  0.6446  2.4106  0.5463
 7786SOL     OW34993   1.319   2.650   8.983  0.2471  0.4563 -0.2920
 7786SOL    HW134994   1.334   2.728   8.929 -0.3680 -0.5579 -1.9353
 7786SOL    HW234995   1.372   2.666   9.062  2.5833  0.9142 -1.9324
 7787SOL     OW34996   2.564   0.155   4.722  0.0816 -0.0374  0.1965
 7787SOL    HW134997   2.617   0.204   4.659  1.5070 -0.6685  0.9098
 7787SOL    HW234998   2.625   0.159   4.796  0.6065  0.3574 -0.2618
 7788SOL     OW34999   3.815   3.043   7.856  0.1354  0.0108  0.0687
 7788SOL    HW135000   3.902   3.011   7.881 -0.8959 -1.2740  2.0231
 7788SOL    HW235001   3.823   3.067   7.764 -0.9785 -2.3642 -0.6606
 7789SOL     OW35002   3.336   0.314   2.249  0.6979  0.9596 -0.5594
 7789SOL    HW135003   3.401   0.247   2.272 -2.4598 -2.4431 -1.5196
 7789SOL    HW235004   3.255   0.270   2.223 -0.1575  2.3711 -0.2657
 7790SOL     OW35005   2.594   3.218  17.724 -0.5188 -0.3706 -0.2109
 7790SOL    HW135006   2.563   3.211  17.633 -1.5772 -0.6617  0.1693
 7790SOL    HW235007   2.515   3.248   0.028  0.0081 -0.5032  0.8036
 7791SOL     OW35008   2.593   4.063   7.239 -0.2764 -0.1475 -0.4614
 7791SOL    HW135009   2.687   4.059   7.222  0.2610  1.0991  2.2246
 7791SOL    HW235010   2.555   4.103   7.161 -0.7341 -0.5902 -0.4654
 7792SOL     OW35011   1.567   1.738   0.960 -0.5403 -0.2116 -0.4279
 7792SOL    HW135012   1.501   1.717   1.026  0.3092  0.8738  0.7538
 7792SOL    HW235013   1.638   1.777   1.011 -1.1237  0.0131  0.2068
 7793SOL     OW35014   4.631   3.271  17.582 -0.1437 -0.5293 -0.1554
 7793SOL    HW135015   4.558   3.222  17.618  2.0203 -2.6727  1.3455
 7793SOL    HW235016   4.590   3.356  17.567  2.6029  0.9288  0.6065
 7794SOL     OW35017   1.835   4.342   7.145  0.0777  0.1527  0.0180
 7794SOL    HW135018   1.853   4.362   7.236  1.7615 -1.0702 -0.0471
 7794SOL    HW235019   1.752   4.294   7.146 -0.0616  0.3343 -1.7369
 7795SOL     OW35020   1.775   3.785  13.143  0.0082 -0.3587  0.0953
 7795SOL    HW135021   1.761   3.709  13.086 -0.5016 -1.3975  1.5853
 7795SOL    HW235022   1.870   3.785  13.138  0.0712 -0.3682  1.2251
 7796SOL     OW35023   1.536   1.705   4.630  0.7825 -0.3119  1.1426
 7796SOL    HW135024   1.551   1.772   4.698  1.3500  0.2606  0.4548
 7796SOL    HW235025   1.463   1.651   4.660 -0.8975  1.7639  0.8010
 7797SOL     OW35026   3.888   2.534  10.194 -0.6486  0.2212  0.1175
 7797SOL    HW135027   3.941   2.530  10.114  1.0518 -2.1012  1.3823
 7797SOL    HW235028   3.854   2.447  10.215  0.1983 -0.7492 -2.5600
 7798SOL     OW35029   2.896   2.528  15.693  0.0969 -0.3874  0.5209
 7798SOL    HW135030   2.989   2.534  15.670  0.5077 -2.9525  1.5061
 7798SOL    HW235031   2.884   2.619  15.718  0.0225 -0.1054 -0.5509
 7799SOL     OW35032   0.433   0.078  14.539  0.5447  0.0455  0.0155
 7799SOL    HW135033   0.524   0.070  14.567  0.6540 -0.0517 -0.3644
 7799SOL    HW235034   0.450   0.108  14.449 -0.6738 -0.1110 -0.2765
 7800SOL     OW35035   3.931   2.279   3.846  0.2551  0.4612 -0.1902
 7800SOL    HW135036   3.994   2.298   3.915 -0.2307 -0.0488  0.3979
 7800SOL    HW235037   3.862   2.345   3.850 -0.5064 -0.2061 -2.3940
 7801SOL     OW35038   0.177   0.271  12.570  0.3028  0.5029 -0.2061
 7801SOL    HW135039   0.237   0.339  12.599  3.1038 -2.7557  1.7461
 7801SOL    HW235040   0.179   0.260  12.475 -1.0168  1.1012 -0.3045
 7802SOL     OW35041   3.127   0.561   2.915  0.4892 -0.0334  0.0541
 7802SOL    HW135042   3.174   0.600   2.841 -1.5090  3.3336  0.5370
 7802SOL    HW235043   3.079   0.486   2.880  0.3387 -0.3372  0.9276
 7803SOL     OW35044   0.715   0.569   2.166 -0.0295 -0.4129  0.6000
 7803SOL    HW135045   0.766   0.650   2.177 -2.0061  0.9883 -0.4498
 7803SOL    HW235046   0.751   0.499   2.220  0.0890 -0.7918  0.0278
 7804SOL     OW35047   0.210   1.445   8.012  0.4978 -0.5338  0.0279
 7804SOL    HW135048   0.268   1.516   8.039  0.3665 -1.2106  2.1014
 7804SOL    HW235049   0.272   1.390   7.963 -0.1617 -1.1464 -0.1230
 7805SOL     OW35050   0.080   2.044  10.915 -0.0041  0.1255  0.1486
 7805SOL    HW135051   0.167   2.083  10.913  0.2328 -0.3513  1.1383
 7805SOL    HW235052   0.030   2.084  10.844  0.4062 -0.4360 -0.4658
 7806SOL     OW35053   4.548   0.465   2.705 -0.0342  0.5030 -0.1961
 7806SOL    HW135054   4.627   0.425   2.668 -0.5846  0.7754 -1.6742
 7806SOL    HW235055   4.526   0.398   2.770  0.8984  1.2140  0.8341
 7807SOL     OW35056   2.526   3.471   5.957 -0.0602  0.5475  0.0763
 7807SOL    HW135057   2.506   3.394   6.009  0.0467  2.5616  3.1142
 7807SOL    HW235058   2.451   3.460   5.898  0.2781 -0.4109 -0.1729
 7808SOL     OW35059   1.377   1.839   3.506 -0.2948 -0.5934 -0.3911
 7808SOL    HW135060   1.318   1.795   3.445  0.7323 -1.2682 -0.9018
 7808SOL    HW235061   1.328   1.827   3.587 -1.1973  0.7791 -0.7363
 7809SOL     OW35062   1.664   2.633   2.697 -0.5149 -0.3343  0.0649
 7809SOL    HW135063   1.699   2.707   2.747 -1.3249  0.4244 -0.5023
 7809SOL    HW235064   1.718   2.624   2.619  0.9224  0.1187  1.0156
 7810SOL     OW35065   4.263   0.185  15.962 -0.3645  0.0959 -0.0092
 7810SOL    HW135066   4.254   0.132  15.883 -0.2178  0.2258 -0.1132
 7810SOL    HW235067   4.170   0.206  15.972 -0.7446 -1.0805 -1.1495
 7811SOL     OW35068   0.465   0.040   2.160  0.3615  0.4091 -0.3583
 7811SOL    HW135069   0.376   0.006   2.153  0.5793 -0.0727 -0.8194
 7811SOL    HW235070   0.458   0.121   2.110 -1.1330  0.3641 -0.2181
 7812SOL     OW35071   2.759   3.822   7.799  0.2020 -0.1647 -0.6338
 7812SOL    HW135072   2.755   3.892   7.734 -1.9547 -1.1285 -1.5052
 7812SOL    HW235073   2.831   3.771   7.762  0.1885 -0.7280  0.1092
 7813SOL     OW35074   0.153   2.671   4.826 -0.1789  0.4878  0.7060
 7813SOL    HW135075   0.187   2.680   4.737 -0.7216  2.5879  0.7150
 7813SOL    HW235076   0.214   2.608   4.865 -2.2825 -1.2707  1.1540
 7814SOL     OW35077   4.199   2.632   2.452 -0.1102 -0.3746 -0.6348
 7814SOL    HW135078   4.119   2.680   2.474  1.1082  1.2871  0.0912
 7814SOL    HW235079   4.150   2.551   2.436 -0.7419  0.0538 -0.8432
 7815SOL     OW35080   2.296   4.190   8.074  0.4393  0.4961 -0.1166
 7815SOL    HW135081   2.222   4.215   8.130 -0.6984 -3.4617  0.1645
 7815SOL    HW235082   2.252   4.202   7.990  1.3815  1.3008 -0.5010
 7816SOL     OW35083   1.307   0.974   3.727 -0.3581 -0.2694 -0.0031
 7816SOL    HW135084   1.356   0.971   3.810  0.3921  0.0774 -0.4381
 7816SOL    HW235085   1.372   0.991   3.660  0.3452 -0.6848  0.5762
 7817SOL     OW35086   4.691   4.403   6.495  0.0209  0.1118 -0.4093
 7817SOL    HW135087   4.703   4.477   6.436 -1.3140  1.6517  1.2458
 7817SOL    HW235088   4.599   4.412   6.523 -0.2007 -3.2882 -0.0149
 7818SOL     OW35089   2.874   4.347  10.182 -0.4114  0.5747  0.1237
 7818SOL    HW135090   2.904   4.392  10.103  2.4412  0.4815  1.1528
 7818SOL    HW235091   2.827   4.271  10.148  1.7744 -0.6677 -0.1020
 7819SOL     OW35092   4.317   0.268   6.088  0.1618 -0.8033 -0.9587
 7819SOL    HW135093   4.257   0.318   6.033  0.5453  2.1702  1.2775
 7819SOL    HW235094   4.368   0.217   6.025  1.3852  1.7255 -2.0322
 7820SOL     OW35095   4.554   1.338   8.335 -0.6412 -0.1499  0.0445
 7820SOL    HW135096   4.593   1.297   8.258  3.5414  3.3957  0.2446
 7820SOL    HW235097   4.613   1.412   8.352  1.1782 -0.9944 -2.5808
 7821SOL     OW35098   2.804   1.281   4.577  0.0217  0.1757 -0.0437
 7821SOL    HW135099   2.852   1.303   4.498  0.7229  0.0005  0.3316
 7821SOL    HW235100   2.800   1.185   4.577  0.5584  0.1432  1.3907
 7822SOL     OW35101   2.754   0.327  10.147  0.1514 -0.8126 -0.3953
 7822SOL    HW135102   2.841   0.305  10.181  0.0483  0.5075  0.6877
 7822SOL    HW235103   2.690   0.284  10.204  0.3307  0.1608  0.5382
 7823SOL     OW35104   3.701   4.709  11.809 -1.0509 -0.3662 -0.4753
 7823SOL    HW135105   3.705   0.057  11.764 -3.7672  0.1449  0.2451
 7823SOL    HW235106   3.714   4.724  11.903 -3.5583  1.5561 -0.4529
 7824SOL     OW35107   1.129   1.745   9.061  0.0564 -0.5734 -0.4667
 7824SOL    HW135108   1.202   1.762   9.001  1.1914 -0.6165  0.8792
 7824SOL    HW235109   1.159   1.806   9.130  0.9611 -2.0242  0.4266
 7825SOL     OW35110   0.460   2.373   6.432 -0.2430 -0.1779 -0.4497
 7825SOL    HW135111   0.473   2.359   6.525  2.1726  1.0473 -0.5899
 7825SOL    HW235112   0.498   2.291   6.402 -2.1454 -0.2178 -2.7615
 7826SOL     OW35113   4.577   2.795   8.352 -0.9025 -0.3484  0.9298
 7826SOL    HW135114   4.482   2.794   8.363 -1.0868 -0.7508 -0.6923
 7826SOL    HW235115   4.610   2.782   8.441  2.6235  1.1095 -0.1398
 7827SOL     OW35116   4.511   2.537  14.915 -0.4170  0.5025 -0.0296
 7827SOL    HW135117   4.573   2.529  14.842 -0.0149 -0.5540  0.4286
 7827SOL    HW235118   4.561   2.515  14.993 -0.4301  1.7990  0.3515
 7828SOL     OW35119   4.554   1.729   6.635  0.2772 -0.5112  0.1028
 7828SOL    HW135120   4.618   1.801   6.637 -0.4388  0.1513 -0.9005
 7828SOL    HW235121   4.472   1.761   6.672 -0.6890 -0.2676 -2.2652
 7829SOL     OW35122   3.415   1.194   9.732  0.1331  0.4571  0.4729
 7829SOL    HW135123   3.422   1.282   9.769  2.3587 -0.6324  2.6226
 7829SOL    HW235124   3.364   1.216   9.653 -2.1142 -1.6347  1.3631
 7830SOL     OW35125   1.500   3.972  10.578 -0.3845 -0.0205 -0.1073
 7830SOL    HW135126   1.429   3.909  10.563 -0.6701  0.6673 -1.5768
 7830SOL    HW235127   1.544   3.968  10.493  1.5203  0.0741  0.8612
 7831SOL     OW35128   3.874   0.495   6.296  0.4657  0.2609  0.4068
 7831SOL    HW135129   3.888   0.589   6.311  0.3859  0.5486 -1.3724
 7831SOL    HW235130   3.967   0.471   6.294  0.5132  0.3293  1.4987
 7832SOL     OW35131   2.309   2.836  16.520  0.0042  0.0162  0.1557
 7832SOL    HW135132   2.349   2.757  16.484 -0.2813 -0.2431  0.4065
 7832SOL    HW235133   2.316   2.826  16.615 -1.3618 -0.2226  0.2354
 7833SOL     OW35134   0.817   3.601   8.162  0.5236 -0.2583  0.2021
 7833SOL    HW135135   0.736   3.601   8.112  0.2690  0.1045  0.6156
 7833SOL    HW235136   0.787   3.628   8.249  2.2287 -0.4905  0.8553
 7834SOL     OW35137   4.361   1.655   7.284  0.2307 -0.7860 -0.4913
 7834SOL    HW135138   4.272   1.654   7.320 -0.1343 -0.0283 -1.3560
 7834SOL    HW235139   4.375   1.561   7.278  1.2017 -0.7189  0.9290
 7835SOL     OW35140   0.191   0.547  14.900  0.4228  0.1170  0.4038
 7835SOL    HW135141   0.236   0.528  14.818 -0.0191  0.9560 -0.0293
 7835SOL    HW235142   0.133   0.622  14.886 -0.5173 -0.6282  0.3342
 7836SOL     OW35143   1.994   4.205  13.884 -0.1077 -0.3941  0.4950
 7836SOL    HW135144   1.948   4.198  13.968 -3.2146 -0.1153 -1.1929
 7836SOL    HW235145   1.919   4.241  13.837 -0.5603  0.3537  1.8056
 7837SOL     OW35146   4.156   0.366   0.442  0.5527  0.4152  0.4640
 7837SOL    HW135147   4.175   0.457   0.463  2.5712  0.2386 -0.5852
 7837SOL    HW235148   4.243   0.328   0.450  0.4227 -0.2967 -1.4163
 7838SOL     OW35149   3.333   2.182   1.201 -0.3480 -0.1257  0.3779
 7838SOL    HW135150   3.426   2.187   1.176 -0.1210 -2.0789  0.8641
 7838SOL    HW235151   3.290   2.247   1.146  0.0429  0.2223  0.4759
 7839SOL     OW35152   3.482   1.076   4.023  0.6953 -0.4841 -0.0287
 7839SOL    HW135153   3.492   1.128   3.944 -1.6928  1.9374  1.2438
 7839SOL    HW235154   3.390   1.089   4.046  0.4857  0.7334 -1.5652
 7840SOL     OW35155   1.517   2.063   6.163 -0.2180 -0.0701 -0.2257
 7840SOL    HW135156   1.600   2.067   6.211 -0.6554 -0.8982  0.6013
 7840SOL    HW235157   1.467   2.139   6.193 -0.1594 -1.1807  2.7173
 7841SOL     OW35158   2.446   2.407   1.547  0.7320  0.3657  0.1137
 7841SOL    HW135159   2.382   2.473   1.574  1.4001  1.0146  0.0982
 7841SOL    HW235160   2.384   2.350   1.501  0.4661 -0.6346  1.7133
 7842SOL     OW35161   4.409   0.502   4.457 -0.1136  0.6154  0.1916
 7842SOL    HW135162   4.462   0.534   4.384 -0.4145  3.1059  1.0658
 7842SOL    HW235163   4.416   0.408   4.440  4.6798  1.4113 -2.3501
 7843SOL     OW35164   0.005   3.081  10.745 -0.2512 -0.4495  0.4264
 7843SOL    HW135165   4.711   3.150  10.685 -2.8868 -0.5449  1.6051
 7843SOL    HW235166   0.055   3.137  10.804 -2.8990  1.9224  0.4356
 7844SOL     OW35167   0.777   4.718   3.704 -0.3679  0.2997  0.2028
 7844SOL    HW135168   0.818   0.011   3.786 -0.5005  0.7385  0.1177
 7844SOL    HW235169   0.785   0.059   3.646 -0.6575  0.2996  0.1618
 7845SOL     OW35170   2.105   2.300   1.448 -0.0936 -0.1614  0.5508
 7845SOL    HW135171   2.060   2.352   1.382 -0.2242  1.1436  1.6722
 7845SOL    HW235172   2.072   2.330   1.533 -1.0141  2.7979 -0.8737
 7846SOL     OW35173   2.735   4.679  10.948 -0.0286  0.2481 -0.2861
 7846SOL    HW135174   2.799   4.683  11.019 -0.2244 -0.1189 -0.0884
 7846SOL    HW235175   2.793   4.696  10.874  0.3949 -0.4062 -0.1014
 7847SOL     OW35176   1.651   2.714   0.627 -0.4699  0.7101 -0.2117
 7847SOL    HW135177   1.685   2.703   0.716 -1.5138  1.8547  0.3435
 7847SOL    HW235178   1.577   2.774   0.638 -2.5944 -1.6303 -1.7935
 7848SOL     OW35179   0.031   4.416   2.338  0.0289 -0.5034  0.3443
 7848SOL    HW135180   4.715   4.436   2.416 -1.8033  0.5042 -1.1309
 7848SOL    HW235181   0.079   4.497   2.326 -2.6828  0.9723 -0.5516
 7849SOL     OW35182   2.252   2.756   9.104  0.1685 -0.1163  0.5265
 7849SOL    HW135183   2.172   2.779   9.057  0.2549  2.3109  1.5472
 7849SOL    HW235184   2.315   2.812   9.059  0.3249 -0.8891 -0.2110
 7850SOL     OW35185   4.665   3.227   5.115 -0.7443  0.3609  0.2822
 7850SOL    HW135186   4.627   3.246   5.201  0.9340 -1.5287  1.4192
 7850SOL    HW235187   4.674   3.316   5.080 -0.6557  0.7475  1.2702
 7851SOL     OW35188   4.171   4.568   7.150 -0.1844  0.1976  0.3027
 7851SOL    HW135189   4.118   4.603   7.078 -1.6888 -0.1456  1.2308
 7851SOL    HW235190   4.116   4.510   7.204 -0.2386 -1.4708 -1.5365
 7852SOL     OW35191   1.564   3.332   5.682  0.0717  0.1173 -0.2141
 7852SOL    HW135192   1.537   3.241   5.692 -0.6887  0.3106 -0.4805
 7852SOL    HW235193   1.550   3.349   5.589  0.5625  0.3260 -0.2480
 7853SOL     OW35194   2.207   2.284   7.694 -0.0559  0.0476 -0.1952
 7853SOL    HW135195   2.177   2.259   7.781  0.4900 -0.9396 -0.2861
 7853SOL    HW235196   2.145   2.240   7.635 -1.7326  0.2103  1.4553
 7854SOL     OW35197   1.832   0.245  13.273  0.2485  0.2880 -0.1081
 7854SOL    HW135198   1.791   0.160  13.285  0.6831 -0.0715 -1.1339
 7854SOL    HW235199   1.776   0.300  13.328  1.9684  0.4470  1.4913
 7855SOL     OW35200   1.741   0.187   1.896  0.8083  0.2442 -0.0311
 7855SOL    HW135201   1.684   0.112   1.911  0.7255  0.4948  0.9167
 7855SOL    HW235202   1.772   0.205   1.984  2.2113  1.0727 -0.6947
 7856SOL     OW35203   2.389   1.507  15.662 -0.6355 -0.1598  0.4335
 7856SOL    HW135204   2.350   1.562  15.730 -0.4126 -1.0772  1.3109
 7856SOL    HW235205   2.315   1.505  15.602  0.4231 -0.3523 -0.8739
 7857SOL     OW35206   2.604   0.759   0.595 -0.0780  0.4003 -0.6159
 7857SOL    HW135207   2.539   0.697   0.562 -1.3403  1.2128  0.3673
 7857SOL    HW235208   2.574   0.839   0.553  0.2771 -0.8830 -3.3437
 7858SOL     OW35209   0.239   4.366   9.040  0.0962  0.1560  0.2828
 7858SOL    HW135210   0.304   4.309   9.081  0.8573 -1.2729 -2.9229
 7858SOL    HW235211   0.251   4.458   9.065  1.1228  0.1309 -0.1183
 7859SOL     OW35212   1.176   4.661   3.832  0.2195 -0.5060 -0.5590
 7859SOL    HW135213   1.137   4.702   3.755  0.8153  2.1277  0.5578
 7859SOL    HW235214   1.104   4.665   3.895 -0.6645  0.3134 -1.6172
 7860SOL     OW35215   0.710   0.102   3.994  0.3043  0.0198  0.1677
 7860SOL    HW135216   0.752   0.184   3.970  0.3981  0.0103  0.2945
 7860SOL    HW235217   0.623   0.106   3.955  0.5712  0.7666 -0.3523
 7861SOL     OW35218   0.344   2.071   2.900  0.2622 -0.3293  0.2748
 7861SOL    HW135219   0.420   2.025   2.864  0.7648 -0.2232  1.2070
 7861SOL    HW235220   0.341   2.025   2.984  0.7229 -0.3392  0.2828
 7862SOL     OW35221   0.041   0.373   0.593 -0.1407 -0.6764 -0.1389
 7862SOL    HW135222   0.061   0.366   0.500 -0.8194 -2.0512 -0.1787
 7862SOL    HW235223   0.097   0.449   0.608 -1.9064  0.9314 -1.7449
 7863SOL     OW35224   2.774   2.503  13.795  0.3047  0.0912  0.4766
 7863SOL    HW135225   2.845   2.456  13.839  1.3636 -0.8748 -2.2523
 7863SOL    HW235226   2.755   2.570  13.860 -0.4634  0.1815  0.1567
 7864SOL     OW35227   1.659   3.212   4.641 -0.4337 -0.0345 -0.5772
 7864SOL    HW135228   1.700   3.243   4.561 -1.1753  1.2498 -0.4610
 7864SOL    HW235229   1.736   3.199   4.696  0.1004  0.9113 -1.1082
 7865SOL     OW35230   0.158   3.347   3.648  0.6510 -0.0092 -0.3797
 7865SOL    HW135231   0.135   3.387   3.732 -0.3705  1.7136 -1.4648
 7865SOL    HW235232   0.137   3.421   3.590 -0.9927  0.3795  0.6897
 7866SOL     OW35233   4.333   2.534   0.989 -0.4318 -0.1819 -0.7735
 7866SOL    HW135234   4.307   2.624   1.010  1.6490  0.2957 -0.2392
 7866SOL    HW235235   4.401   2.531   1.057 -1.4181  1.1564  0.2719
 7867SOL     OW35236   0.753   1.759   2.878 -0.0446  0.0053  0.3144
 7867SOL    HW135237   0.841   1.789   2.901  0.6843 -1.5340 -0.4124
 7867SOL    HW235238   0.763   1.664   2.884  0.9076  0.1718  1.3611
 7868SOL     OW35239   2.177   0.380  13.797 -0.4427  0.2228  0.2886
 7868SOL    HW135240   2.246   0.378  13.730  2.1583 -1.9958  3.0741
 7868SOL    HW235241   2.225   0.411  13.874  1.0224 -0.6928 -0.2632
 7869SOL     OW35242   0.233   1.889   7.975  0.4140  0.4331  0.2033
 7869SOL    HW135243   0.151   1.860   8.016  1.3464 -0.2724  1.5582
 7869SOL    HW235244   0.209   1.979   7.955 -0.0662  0.0614 -0.8903
 7870SOL     OW35245   0.353   1.666  15.272 -0.4861  0.0554 -0.6899
 7870SOL    HW135246   0.393   1.580  15.261 -2.1006 -0.6698 -0.9898
 7870SOL    HW235247   0.402   1.700  15.346 -0.0743  0.1085 -0.9857
 7871SOL     OW35248   3.239   3.453  12.422  0.3599 -1.0056 -0.2491
 7871SOL    HW135249   3.264   3.524  12.481 -1.2822  1.3858 -2.4500
 7871SOL    HW235250   3.213   3.504  12.345 -2.4871 -0.4530  1.0954
 7872SOL     OW35251   2.880   2.565   7.194  0.3877 -0.6996  0.5150
 7872SOL    HW135252   2.932   2.641   7.168 -2.1674  0.5744 -0.8751
 7872SOL    HW235253   2.792   2.585   7.164  0.7112 -1.6159 -1.0477
 7873SOL     OW35254   1.568   3.385   5.414 -0.1793  0.4912  0.1024
 7873SOL    HW135255   1.535   3.338   5.337 -0.4593  0.8038  0.0308
 7873SOL    HW235256   1.492   3.437   5.439  0.5275  2.1922 -1.2608
 7874SOL     OW35257   2.881   1.672   4.350  0.1336 -0.3223 -0.0531
 7874SOL    HW135258   2.819   1.640   4.284  0.4147  1.8650 -1.3638
 7874SOL    HW235259   2.839   1.755   4.372  1.2053 -0.0647  1.0138
 7875SOL     OW35260   3.678   1.840   3.944  0.3375 -0.1578  0.3755
 7875SOL    HW135261   3.757   1.884   3.913  0.9114  0.0431  2.1271
 7875SOL    HW235262   3.654   1.921   3.990 -0.7605  0.0730 -0.5975
 7876SOL     OW35263   0.595   1.568   7.779  0.5240  0.2517 -0.1160
 7876SOL    HW135264   0.596   1.475   7.756  0.7626 -0.2645  1.9925
 7876SOL    HW235265   0.506   1.601   7.769  0.7346  0.3956 -1.4705
 7877SOL     OW35266   2.214   2.857   1.631 -0.4181  0.3445  0.1264
 7877SOL    HW135267   2.278   2.813   1.687  1.9205  1.2272 -1.8516
 7877SOL    HW235268   2.240   2.949   1.636  1.8634 -0.2766 -0.3063
 7878SOL     OW35269   0.733   3.251   2.463 -0.2119 -0.0926 -0.4319
 7878SOL    HW135270   0.788   3.305   2.520  1.1766 -0.1131 -1.7690
 7878SOL    HW235271   0.721   3.172   2.515  0.0326  1.6645  2.3097
 7879SOL     OW35272   0.449   1.865  10.483  0.1519  0.0071  0.1831
 7879SOL    HW135273   0.537   1.878  10.448  0.2411  2.6604  1.3958
 7879SOL    HW235274   0.463   1.866  10.578 -0.8670  0.4756  0.3286
 7880SOL     OW35275   0.237   0.465  10.058 -0.6112 -0.4654  0.3036
 7880SOL    HW135276   0.294   0.414  10.000 -2.1750 -1.5079 -0.3165
 7880SOL    HW235277   0.171   0.398  10.078 -0.8790  0.5138  2.6433
 7881SOL     OW35278   4.670   2.698  17.284 -1.2343  0.4198 -0.1778
 7881SOL    HW135279   0.031   2.693  17.284 -1.2948 -0.6924 -1.0018
 7881SOL    HW235280   4.661   2.634  17.214 -0.4900 -1.3521  1.3261
 7882SOL     OW35281   3.407   0.886  16.113  0.5046 -0.0910  0.1259
 7882SOL    HW135282   3.352   0.949  16.160 -0.1978 -0.7233  0.1566
 7882SOL    HW235283   3.349   0.840  16.054  0.6593  0.4243 -0.4247
 7883SOL     OW35284   0.615   0.563   1.893 -0.0093 -0.4297 -0.5594
 7883SOL    HW135285   0.706   0.582   1.874 -0.8811  3.4608 -0.9905
 7883SOL    HW235286   0.616   0.547   1.987  0.1652  0.7999 -0.3511
 7884SOL     OW35287   3.022   1.914   6.631  0.0460 -0.2900  0.1782
 7884SOL    HW135288   3.039   1.841   6.572 -1.1511 -0.3057 -0.1475
 7884SOL    HW235289   2.989   1.858   6.701 -0.9626 -1.8731 -1.5621
 7885SOL     OW35290   0.801   1.226   2.108 -0.0872  0.4675  0.0896
 7885SOL    HW135291   0.772   1.295   2.049  1.2273  0.8013 -0.1784
 7885SOL    HW235292   0.715   1.184   2.110 -0.1087  0.4649 -0.8432
 7886SOL     OW35293   2.493   3.041   8.490  0.4712 -0.3008  0.2310
 7886SOL    HW135294   2.426   3.099   8.527  1.3683  1.8740 -1.5533
 7886SOL    HW235295   2.483   3.055   8.396 -4.1071  0.6355  0.8503
 7887SOL     OW35296   2.142   4.057   8.575  0.2205 -0.2933  0.1409
 7887SOL    HW135297   2.066   4.103   8.610 -1.1329 -2.0253 -0.5260
 7887SOL    HW235298   2.192   4.139   8.573 -0.0426 -0.1669 -1.2820
 7888SOL     OW35299   4.663   3.547   3.889 -0.5095  0.1003  0.0078
 7888SOL    HW135300   0.016   3.577   3.911  0.4970 -3.7033  1.0621
 7888SOL    HW235301   4.677   3.457   3.918  0.5332  0.2555 -0.0025
 7889SOL     OW35302   2.793   2.993   9.973  0.1312 -0.3544  0.4710
 7889SOL    HW135303   2.779   2.904   9.940  3.4823  0.1454 -2.2319
 7889SOL    HW235304   2.851   2.977  10.048 -0.1947 -2.5708  0.2526
 7890SOL     OW35305   0.631   3.026  11.653  0.5215 -0.0251 -0.2333
 7890SOL    HW135306   0.600   3.064  11.571 -1.5024 -0.0869  0.5015
 7890SOL    HW235307   0.719   3.062  11.651  0.3155  0.4636 -0.5609
 7891SOL     OW35308   2.765   1.626   5.423  0.3015 -0.3861  0.2488
 7891SOL    HW135309   2.798   1.589   5.341  0.5230 -0.3769  0.3318
 7891SOL    HW235310   2.849   1.644   5.466  0.0472 -2.5806  1.6490
 7892SOL     OW35311   1.281   2.263   3.930  0.6563 -1.0468 -0.4972
 7892SOL    HW135312   1.302   2.170   3.936 -1.9153 -1.6936 -1.6975
 7892SOL    HW235313   1.338   2.292   3.859 -1.5199 -0.7308 -2.1249
 7893SOL     OW35314   3.576   3.673  13.490 -0.7739 -0.1357 -0.0432
 7893SOL    HW135315   3.646   3.609  13.479 -2.4666 -2.0954  0.6549
 7893SOL    HW235316   3.506   3.629  13.443 -0.9141 -1.7335  1.6467
 7894SOL     OW35317   0.508   2.036   5.355 -0.4695  0.2478  0.2758
 7894SOL    HW135318   0.528   2.073   5.269  0.0437  1.5363  0.9535
 7894SOL    HW235319   0.447   1.967   5.327 -1.5743  0.2076  2.8614
 7895SOL     OW35320   2.448   1.984   5.381  0.3185 -0.2122 -0.6296
 7895SOL    HW135321   2.358   1.952   5.389 -0.2641  1.4496 -0.5613
 7895SOL    HW235322   2.493   1.903   5.359 -0.7056 -1.1137  0.5980
 7896SOL     OW35323   3.298   3.856   2.852 -0.7060  0.1115 -0.0387
 7896SOL    HW135324   3.387   3.822   2.844  0.5344  2.9182  1.9002
 7896SOL    HW235325   3.332   3.944   2.867  0.8312 -0.5076  0.1186
 7897SOL     OW35326   2.081   3.696   8.983  0.2429 -0.7472  0.2814
 7897SOL    HW135327   2.015   3.665   8.922 -0.1548 -3.2940  2.0060
 7897SOL    HW235328   2.151   3.720   8.923 -0.5087  2.4510  0.6972
 7898SOL     OW35329   0.783   1.305   7.325 -0.0976  0.0019  0.0016
 7898SOL    HW135330   0.742   1.384   7.360  0.1612  1.1949 -2.4040
 7898SOL    HW235331   0.851   1.341   7.268 -0.0312 -1.8878 -1.0887
 7899SOL     OW35332   3.708   1.093  10.450  0.2194 -0.0190  0.3565
 7899SOL    HW135333   3.689   0.999  10.449 -0.4416  0.1079  1.9113
 7899SOL    HW235334   3.629   1.125  10.494  2.3324  2.7504  2.0263
 7900SOL     OW35335   4.238   1.749   2.080 -0.1679  0.4908  0.3460
 7900SOL    HW135336   4.270   1.836   2.105 -2.2116  1.4770 -0.4412
 7900SOL    HW235337   4.224   1.706   2.164 -0.1582 -2.3257 -1.1067
 7901SOL     OW35338   3.608   2.038  10.905  0.1677  0.2546  0.1425
 7901SOL    HW135339   3.672   2.108  10.916  2.4055 -1.7500  0.0068
 7901SOL    HW235340   3.664   1.962  10.891 -0.7790 -0.1400 -1.4308
 7902SOL     OW35341   1.592   3.293   4.165 -0.4728  0.1467  0.0641
 7902SOL    HW135342   1.527   3.348   4.122 -1.8641 -0.9261  0.8030
 7902SOL    HW235343   1.604   3.248   4.081 -0.6234  1.4827 -0.6715
 7903SOL     OW35344   0.084   1.652  12.432 -0.3778  0.0207 -0.0369
 7903SOL    HW135345   0.124   1.656  12.345 -1.2471  3.2079 -0.3109
 7903SOL    HW235346   0.110   1.563  12.454 -2.0621 -0.5334 -0.3354
 7904SOL     OW35347   0.440   1.264   4.034  0.4408 -0.2442  0.1846
 7904SOL    HW135348   0.380   1.263   4.108 -0.8537 -3.4734 -0.9126
 7904SOL    HW235349   0.520   1.295   4.076  0.1394 -0.6375  1.0548
 7905SOL     OW35350   0.711   3.096   2.807  0.1907  0.1366 -0.5784
 7905SOL    HW135351   0.662   3.024   2.767 -0.6898  0.1088  0.5532
 7905SOL    HW235352   0.645   3.161   2.832 -0.0346 -1.1621  2.2402
 7906SOL     OW35353   3.059   3.854  16.774 -0.7703 -0.4218 -0.1032
 7906SOL    HW135354   3.137   3.823  16.728 -0.3621  0.7503 -0.1852
 7906SOL    HW235355   3.073   3.802  16.854 -0.2334  0.0845  0.1262
 7907SOL     OW35356   0.282   4.242  17.562 -0.5509  0.1084 -0.5407
 7907SOL    HW135357   0.343   4.281  17.625 -0.6250  0.8817 -0.9453
 7907SOL    HW235358   0.279   4.308  17.493 -1.4131 -0.4271 -1.0142
 7908SOL     OW35359   0.893   4.122   5.978  0.3339  0.1698  0.6845
 7908SOL    HW135360   0.900   4.216   5.996  1.0157  0.0584  1.0022
 7908SOL    HW235361   0.863   4.111   5.888 -2.1467  0.8982  1.4209
 7909SOL     OW35362   2.210   4.634   6.549  0.5522  0.1723  0.8474
 7909SOL    HW135363   2.142   4.698   6.572 -0.7426 -1.4902  1.6957
 7909SOL    HW235364   2.277   4.686   6.506  0.1992  0.9562  1.2454
 7910SOL     OW35365   0.129   4.108  13.882 -0.5969  0.4076 -0.6674
 7910SOL    HW135366   0.084   4.041  13.830  3.1033 -1.6659 -1.2066
 7910SOL    HW235367   0.220   4.092  13.855  0.4617  2.0158  1.9880
 7911SOL     OW35368   1.047   1.415   7.570  0.0137 -0.1052  0.5039
 7911SOL    HW135369   0.958   1.416   7.533 -0.2573 -0.4568  1.1442
 7911SOL    HW235370   1.098   1.401   7.490 -2.5734 -1.0634 -0.9895
 7912SOL     OW35371   3.162   3.716  14.425  0.3911  0.0006  0.6392
 7912SOL    HW135372   3.234   3.728  14.362  1.7225  1.7445  2.4645
 7912SOL    HW235373   3.110   3.795  14.412  1.0170  0.7293  2.5384
 7913SOL     OW35374   4.693   0.194   2.252 -0.2859 -0.2538 -0.2225
 7913SOL    HW135375   4.652   0.129   2.195 -1.5844  0.1321  0.2910
 7913SOL    HW235376   4.622   0.257   2.249 -1.7868 -1.8478  2.2497
 7914SOL     OW35377   0.207   2.910   5.971  0.5993 -0.4703  0.6065
 7914SOL    HW135378   0.120   2.913   6.012  0.8341 -0.4718  1.0985
 7914SOL    HW235379   0.229   3.003   5.972  0.2631 -0.3799 -0.2188
 7915SOL     OW35380   1.662   1.205   3.903 -0.2618  0.4081  0.1743
 7915SOL    HW135381   1.679   1.277   3.843 -0.3890  0.5905  0.3564
 7915SOL    HW235382   1.585   1.185   3.850 -0.8906 -1.5035  1.7828
 7916SOL     OW35383   3.763   2.260   2.522 -0.0195  0.1230  0.2922
 7916SOL    HW135384   3.733   2.175   2.492  1.7022 -0.2682 -0.3319
 7916SOL    HW235385   3.792   2.232   2.609 -0.3074  0.1042  0.3819
 7917SOL     OW35386   2.020   1.430   9.670 -0.1410 -0.5028 -0.4110
 7917SOL    HW135387   2.003   1.446   9.763 -2.5268  1.1352 -1.1046
 7917SOL    HW235388   1.981   1.513   9.641  0.7760 -0.8658 -2.6093
 7918SOL     OW35389   1.944   2.974  13.941  0.5890 -0.1083 -0.2648
 7918SOL    HW135390   1.860   3.017  13.927 -0.1070 -1.0013  1.2652
 7918SOL    HW235391   1.933   2.882  13.916  1.0449  0.2043 -1.6292
 7919SOL     OW35392   0.162   1.051  15.166  0.6189  0.9270  0.3562
 7919SOL    HW135393   0.238   1.018  15.216  1.8269  0.5092 -1.7756
 7919SOL    HW235394   0.206   1.055  15.081 -0.6765  0.1080 -0.3524
 7920SOL     OW35395   1.065   2.157   7.061  0.6227  0.6229  0.0063
 7920SOL    HW135396   1.067   2.234   7.118  0.9916  1.8081 -1.6082
 7920SOL    HW235397   0.974   2.162   7.030  0.4629  1.0935  0.5580
 7921SOL     OW35398   2.148   4.356   5.287 -0.4414 -0.1732  0.0247
 7921SOL    HW135399   2.168   4.425   5.223  1.4599 -1.1541 -0.4430
 7921SOL    HW235400   2.217   4.378   5.350  0.1411 -1.8734 -0.0151
 7922SOL     OW35401   0.603   0.404   3.182 -0.0629  0.3495 -0.2806
 7922SOL    HW135402   0.559   0.336   3.233 -0.1619  0.5587 -0.0874
 7922SOL    HW235403   0.689   0.363   3.172 -0.0754  0.6818 -1.8699
 7923SOL     OW35404   2.670   3.434   7.726  0.5808  0.1461  0.1490
 7923SOL    HW135405   2.765   3.433   7.729  0.5479 -1.5333  0.7985
 7923SOL    HW235406   2.651   3.345   7.694  1.0461 -0.9680  3.0133
 7924SOL     OW35407   3.943   2.722   2.561  0.3836 -0.0948 -0.3302
 7924SOL    HW135408   3.966   2.720   2.654  1.1149  0.4928 -0.4968
 7924SOL    HW235409   3.867   2.665   2.571  0.2369  0.0853 -0.4282
 7925SOL     OW35410   3.542   4.506  11.887 -0.6982  0.2306 -0.0672
 7925SOL    HW135411   3.591   4.586  11.868  1.4259 -0.2964  3.2957
 7925SOL    HW235412   3.515   4.483  11.798 -0.0856  0.3713 -0.2896
 7926SOL     OW35413   3.808   2.235  10.998 -0.3391  0.2368  0.2228
 7926SOL    HW135414   3.778   2.280  10.919 -1.3074 -1.1261 -0.2118
 7926SOL    HW235415   3.843   2.305  11.052  2.2775 -0.6107 -0.3599
 7927SOL     OW35416   1.719   2.691   6.397 -0.4552  0.1301 -0.2184
 7927SOL    HW135417   1.680   2.609   6.427  1.7334  0.4229  3.3473
 7927SOL    HW235418   1.798   2.697   6.450  0.4027 -0.8234 -1.3818
 7928SOL     OW35419   2.774   4.512   4.554  0.4124  0.4602 -0.0687
 7928SOL    HW135420   2.851   4.458   4.533 -0.7984 -1.1058 -0.4788
 7928SOL    HW235421   2.805   4.600   4.534  0.0513  0.7642  0.7339
 7929SOL     OW35422   0.449   4.568   4.739  0.3574 -0.4165  0.5175
 7929SOL    HW135423   0.476   4.597   4.827  1.7445 -1.0441  0.3016
 7929SOL    HW235424   0.384   4.638   4.730 -1.7957 -2.0925  2.9581
 7930SOL     OW35425   0.984   0.670   5.631  0.2592 -0.1841  0.3426
 7930SOL    HW135426   1.006   0.757   5.596  0.4423 -0.0677  0.7521
 7930SOL    HW235427   1.041   0.667   5.707 -0.2918  0.8019  0.8018
 7931SOL     OW35428   3.962   2.957   1.064 -0.5163 -0.2295 -0.1798
 7931SOL    HW135429   3.946   2.910   1.145 -0.9419 -1.0614 -0.7392
 7931SOL    HW235430   4.033   3.018   1.083 -0.1568 -1.0307  0.9980
 7932SOL     OW35431   3.116   4.684   2.499  0.3212 -0.3350  0.3789
 7932SOL    HW135432   3.069   0.031   2.495  0.6810 -0.3008 -3.1071
 7932SOL    HW235433   3.043   4.623   2.510  0.3694 -0.4066  0.3075
 7933SOL     OW35434   1.965   3.970   0.340  0.1260  0.3913 -0.0404
 7933SOL    HW135435   1.886   3.918   0.354 -0.0643  0.6388 -0.1862
 7933SOL    HW235436   2.021   3.913   0.286  0.0876  0.5374 -0.2354
 7934SOL     OW35437   0.633   0.884   6.035  0.1031  0.1289  0.4009
 7934SOL    HW135438   0.675   0.811   5.990  0.1731  0.6105 -0.3085
 7934SOL    HW235439   0.565   0.834   6.080 -0.9318 -1.8843 -3.4259
 7935SOL     OW35440   0.407   0.228  14.807  0.2930 -0.3112  0.1164
 7935SOL    HW135441   0.399   0.169  14.732 -0.1704 -0.1301  0.0258
 7935SOL    HW235442   0.324   0.274  14.795  1.1286  1.5257  1.5251
 7936SOL     OW35443   4.678   3.679   4.444  0.8673 -0.0790  0.6631
 7936SOL    HW135444   4.658   3.586   4.456 -0.3482  0.3417  1.8788
 7936SOL    HW235445   4.681   3.682   4.348 -1.2097  0.1062  0.5973
 7937SOL     OW35446   4.629   2.041   3.341 -0.2474  0.0060 -0.6388
 7937SOL    HW135447   4.627   2.096   3.263  0.2388 -0.0677 -0.7058
 7937SOL    HW235448   4.592   2.105   3.402  1.6674 -1.4650  2.0531
 7938SOL     OW35449   0.675   4.075   8.732 -0.0059 -0.2169  0.5949
 7938SOL    HW135450   0.668   4.153   8.676  2.9329  0.8924  1.7997
 7938SOL    HW235451   0.736   4.106   8.798  0.2045  0.1355  0.2343
 7939SOL     OW35452   1.008   3.529   5.752  0.1257 -1.3104 -0.4046
 7939SOL    HW135453   0.970   3.445   5.726 -1.5574 -0.6518 -0.0314
 7939SOL    HW235454   1.102   3.508   5.753  0.1683 -1.1673 -1.3848
 7940SOL     OW35455   2.602   1.799   3.737 -0.5510  0.3090  0.0461
 7940SOL    HW135456   2.595   1.804   3.832  0.0913 -0.3840  0.1335
 7940SOL    HW235457   2.509   1.794   3.716 -0.8239  1.0139  1.1178
 7941SOL     OW35458   0.160   2.452   9.234 -0.0411 -0.1588  0.4051
 7941SOL    HW135459   0.132   2.361   9.246  2.6169 -0.5977  3.2799
 7941SOL    HW235460   0.212   2.466   9.312  0.0532 -0.0149  0.3151
 7942SOL     OW35461   3.759   2.684   5.899 -0.8080  0.3282  0.3976
 7942SOL    HW135462   3.818   2.727   5.961  0.0313 -0.2253 -0.0163
 7942SOL    HW235463   3.732   2.750   5.836  1.8034  1.8051  0.8228
 7943SOL     OW35464   2.566   2.398   2.558 -0.1735  0.2868  0.2039
 7943SOL    HW135465   2.531   2.423   2.644 -0.0691  0.7750  0.1046
 7943SOL    HW235466   2.487   2.369   2.514  0.6877  0.2539 -1.3173
 7944SOL     OW35467   3.620   0.719   7.891  0.1372 -0.2755  0.2037
 7944SOL    HW135468   3.623   0.627   7.864  1.9928 -0.6916  1.9026
 7944SOL    HW235469   3.545   0.745   7.836 -0.8587 -3.0899  0.2318
 7945SOL     OW35470   1.206   2.840   1.298  0.1318 -0.0271 -0.5418
 7945SOL    HW135471   1.140   2.909   1.310 -0.4024 -0.3161 -1.8906
 7945SOL    HW235472   1.277   2.898   1.270 -0.3620  0.4151 -0.8798
 7946SOL     OW35473   0.153   1.625   0.098  0.4147 -0.3585 -0.1567
 7946SOL    HW135474   0.176   1.703   0.149  1.1623 -0.9430  0.3937
 7946SOL    HW235475   0.081   1.593   0.152 -0.9127 -0.2166 -1.8632
 7947SOL     OW35476   3.831   3.201  12.732 -0.1305 -0.4387 -0.3559
 7947SOL    HW135477   3.912   3.252  12.734 -0.3786 -0.0351 -0.4770
 7947SOL    HW235478   3.771   3.276  12.735  0.6936  0.1042  2.0664
 7948SOL     OW35479   2.822   3.778   6.223  0.8241 -0.1709 -0.1290
 7948SOL    HW135480   2.835   3.817   6.137  0.2042 -0.4240 -0.3331
 7948SOL    HW235481   2.727   3.777   6.232  0.9649  0.2168  1.4306
 7949SOL     OW35482   1.974   2.659   5.252 -0.0433 -0.5074 -0.6109
 7949SOL    HW135483   2.029   2.584   5.276 -0.9382 -1.5627 -1.8774
 7949SOL    HW235484   1.887   2.633   5.281  0.1827 -0.2099  0.3450
 7950SOL     OW35485   1.815   2.182   3.564 -0.6773 -0.4307  0.3449
 7950SOL    HW135486   1.885   2.244   3.545 -0.7306  0.4653  3.0548
 7950SOL    HW235487   1.869   2.103   3.567 -0.4140 -0.3052 -1.1961
 7951SOL     OW35488   3.318   0.309  17.015 -0.4260 -0.2602 -0.1395
 7951SOL    HW135489   3.325   0.392  16.969 -2.5517 -0.1297 -0.1980
 7951SOL    HW235490   3.259   0.325  17.088 -0.9268 -1.0269 -0.3782
 7952SOL     OW35491   3.166   1.776   6.445 -0.3710  0.1314 -0.6105
 7952SOL    HW135492   3.245   1.826   6.424 -1.7090  1.5323 -2.2872
 7952SOL    HW235493   3.207   1.690   6.453  0.3628  0.5033 -0.4165
 7953SOL     OW35494   4.323   2.456   9.309  0.2854 -0.3237 -0.1391
 7953SOL    HW135495   4.334   2.546   9.341  0.5018 -0.3314 -0.1915
 7953SOL    HW235496   4.263   2.472   9.236  2.0503 -0.9824 -1.7025
 7954SOL     OW35497   0.700   2.403   3.709  0.8390  0.2859 -0.3215
 7954SOL    HW135498   0.619   2.398   3.761  0.4227 -0.0006 -0.9943
 7954SOL    HW235499   0.683   2.489   3.670  1.4049  0.4506 -0.1961
 7955SOL     OW35500   3.795   0.210   8.397 -0.0036 -0.0657  0.9199
 7955SOL    HW135501   3.834   0.123   8.400  2.0097  0.8121  0.1688
 7955SOL    HW235502   3.787   0.241   8.487 -1.5646  1.4259  0.2626
 7956SOL     OW35503   1.307   1.320   2.278 -0.2094 -0.2586  0.1509
 7956SOL    HW135504   1.323   1.379   2.352 -0.8991  0.1406 -0.0127
 7956SOL    HW235505   1.213   1.336   2.273 -0.0428  0.0461 -1.7338
 7957SOL     OW35506   3.813   0.197   9.626  0.5050 -0.4302  0.2048
 7957SOL    HW135507   3.719   0.217   9.619  0.4946 -0.1038  1.2297
 7957SOL    HW235508   3.824   0.161   9.715  2.3098 -0.1358  0.0821
 7958SOL     OW35509   4.616   4.553   7.242 -0.2568 -0.6676  0.0749
 7958SOL    HW135510   4.597   4.460   7.249  2.0534 -1.3771 -3.5326
 7958SOL    HW235511   4.601   4.572   7.150  0.7587  0.1782  0.0776
 7959SOL     OW35512   2.595   0.914   8.806  0.2706  0.0592 -0.3101
 7959SOL    HW135513   2.520   0.855   8.796 -0.2340  0.9743 -1.8321
 7959SOL    HW235514   2.558   0.982   8.862  1.9574  1.1925 -0.5796
 7960SOL     OW35515   1.855   2.360   7.999 -0.1889  0.1338 -0.8355
 7960SOL    HW135516   1.762   2.343   7.984 -0.6190  2.4345 -0.7029
 7960SOL    HW235517   1.851   2.455   8.011 -1.5219  0.0860 -0.8736
 7961SOL     OW35518   0.304   0.271   7.111 -0.1883  0.3864 -0.3003
 7961SOL    HW135519   0.327   0.202   7.049  1.5189  1.5968 -1.0186
 7961SOL    HW235520   0.366   0.256   7.183 -0.9033  2.6896  0.7895
 7962SOL     OW35521   4.097   2.890  17.529 -0.0364  0.1084  0.1873
 7962SOL    HW135522   4.035   2.924  17.465 -1.4179 -1.2343  0.8150
 7962SOL    HW235523   4.176   2.910  17.478 -1.3327 -2.8583 -3.0162
 7963SOL     OW35524   3.970   3.126   9.571  0.0345 -0.0582  0.1432
 7963SOL    HW135525   4.048   3.176   9.596  0.0645 -2.2817  4.3685
 7963SOL    HW235526   3.951   3.158   9.482 -2.7300 -0.3090  0.6523
 7964SOL     OW35527   1.010   4.273   0.217  0.1765 -0.1992  0.0896
 7964SOL    HW135528   0.971   4.188   0.198 -1.2039  0.4280  0.0794
 7964SOL    HW235529   0.959   4.305   0.292 -0.8988 -0.8123 -0.3835
 7965SOL     OW35530   2.895   0.567   9.101  0.4365 -0.0965 -0.6008
 7965SOL    HW135531   2.879   0.475   9.125 -0.3241  0.2745  0.2904
 7965SOL    HW235532   2.991   0.566   9.098  0.5067  0.6803  1.8126
 7966SOL     OW35533   1.242   2.827  13.545 -0.6435 -0.0893  0.4074
 7966SOL    HW135534   1.258   2.806  13.453 -0.3825 -1.0724  0.6839
 7966SOL    HW235535   1.330   2.865  13.553 -0.3452 -0.1527 -2.5339
 7967SOL     OW35536   3.772   0.117   2.494  0.7768  0.0185  0.3880
 7967SOL    HW135537   3.854   0.086   2.533  0.4627 -0.6746  0.5003
 7967SOL    HW235538   3.790   0.097   2.402 -0.0081 -2.1301  0.6973
 7968SOL     OW35539   0.518   2.190   7.105  0.2859  0.4202 -0.7969
 7968SOL    HW135540   0.516   2.101   7.071  3.0319 -0.0135  0.1661
 7968SOL    HW235541   0.486   2.241   7.030 -2.5694 -0.0865  0.0547
 7969SOL     OW35542   2.120   1.136   4.662 -0.4403  0.4367  0.7486
 7969SOL    HW135543   2.105   1.056   4.713 -0.3274  0.0874  0.2327
 7969SOL    HW235544   2.122   1.097   4.574 -0.0574 -1.8036  1.7523
 7970SOL     OW35545   3.861   4.137  11.852 -0.0991  1.2860  0.1915
 7970SOL    HW135546   3.950   4.128  11.819 -0.2063  1.3205 -0.1118
 7970SOL    HW235547   3.871   4.136  11.947 -0.7407  0.9028  0.2549
 7971SOL     OW35548   1.675   4.374   1.141 -1.0695  0.8594  0.8981
 7971SOL    HW135549   1.760   4.408   1.116 -0.2427 -0.9691  1.2151
 7971SOL    HW235550   1.659   4.301   1.081 -0.9017 -0.1898  2.1213
 7972SOL     OW35551   3.361   2.561   1.445 -0.6545 -0.8636  0.3152
 7972SOL    HW135552   3.397   2.605   1.522  0.0271 -0.3864 -0.2742
 7972SOL    HW235553   3.301   2.494   1.478 -1.1534 -1.1627 -1.2077
 7973SOL     OW35554   4.733   1.844   7.440 -0.0917  0.3184  0.0354
 7973SOL    HW135555   0.043   1.815   7.360  0.7553  1.5775  0.0630
 7973SOL    HW235556   4.644   1.863   7.412  0.0432  0.7630 -0.0954
 7974SOL     OW35557   2.772   3.211   6.737 -0.0868  0.0073 -0.0594
 7974SOL    HW135558   2.769   3.176   6.648  2.0339  1.6357 -0.7631
 7974SOL    HW235559   2.863   3.188   6.756  0.0952 -0.6732 -1.7627
 7975SOL     OW35560   3.510   2.278   6.246 -0.0165 -0.3743 -0.1153
 7975SOL    HW135561   3.518   2.272   6.341 -0.3635 -0.0897 -0.0674
 7975SOL    HW235562   3.593   2.315   6.216  1.8895 -3.1029  1.8553
 7976SOL     OW35563   2.120   0.680   5.416  0.1796  0.0173  0.7299
 7976SOL    HW135564   2.144   0.591   5.389  1.3029  0.3854  0.5151
 7976SOL    HW235565   2.197   0.711   5.463  1.6376  0.8002 -2.1862
 7977SOL     OW35566   1.285   3.162  10.955 -0.7041 -0.5005  0.3152
 7977SOL    HW135567   1.335   3.119  11.025 -0.9124 -1.4318 -0.1173
 7977SOL    HW235568   1.233   3.225  11.005  0.9854  1.3448 -0.2506
 7978SOL     OW35569   3.461   1.622   0.189  0.1856 -0.2429 -0.2821
 7978SOL    HW135570   3.384   1.621   0.132  0.0456 -0.6729 -0.0801
 7978SOL    HW235571   3.450   1.714   0.215 -1.4682 -0.9753  1.5273
 7979SOL     OW35572   1.510   0.385  14.903 -0.0978 -0.2870 -0.3074
 7979SOL    HW135573   1.603   0.406  14.897 -0.2547 -0.8838 -4.7625
 7979SOL    HW235574   1.463   0.463  14.873 -0.7478 -0.6921 -0.3417
 7980SOL     OW35575   2.844   0.473   7.665 -0.1488 -0.0012 -0.4952
 7980SOL    HW135576   2.777   0.421   7.621  0.6962 -3.2057  1.9896
 7980SOL    HW235577   2.828   0.565   7.645 -0.3867  0.0115 -0.2419
 7981SOL     OW35578   3.045   2.081   3.103 -0.1950  0.6614 -0.0439
 7981SOL    HW135579   3.003   1.999   3.078  2.7910 -0.7722 -0.3071
 7981SOL    HW235580   3.105   2.042   3.166 -0.3513  0.6940  0.1273
 7982SOL     OW35581   1.764   0.246   3.286 -0.5840  0.0744 -0.5943
 7982SOL    HW135582   1.800   0.214   3.203  0.4079 -1.0253  0.2472
 7982SOL    HW235583   1.765   0.341   3.271  1.1224  0.0831 -0.4986
 7983SOL     OW35584   2.150   4.378   7.299 -0.3076 -0.6884 -0.4851
 7983SOL    HW135585   2.067   4.418   7.324  1.3282  2.3312 -0.0299
 7983SOL    HW235586   2.177   4.347   7.385  1.9229  2.5016 -0.0371
 7984SOL     OW35587   0.222   2.127  15.342  0.2148 -0.1701  0.4117
 7984SOL    HW135588   0.209   2.196  15.406  1.8420  0.4299  0.0862
 7984SOL    HW235589   0.154   2.075  15.385 -0.7552 -0.8097 -1.8966
 7985SOL     OW35590   2.494   4.666   6.122  0.0199 -0.3183 -0.2292
 7985SOL    HW135591   2.458   0.000   6.067 -0.2933  0.4153  0.9108
 7985SOL    HW235592   2.571   4.643   6.070 -0.8998 -2.1607 -0.7653
 7986SOL     OW35593   2.138   0.839   8.144 -0.2427 -0.1502  0.0365
 7986SOL    HW135594   2.205   0.848   8.212  0.8364 -1.9753 -0.7692
 7986SOL    HW235595   2.164   0.913   8.089  1.2061  0.4807  1.5722
 7987SOL     OW35596   3.044   3.333   2.716 -0.0294  0.0015 -0.9644
 7987SOL    HW135597   3.086   3.335   2.803 -0.8048  1.1706 -0.6075
 7987SOL    HW235598   3.115   3.289   2.671  1.8483  0.1275  1.8517
 7988SOL     OW35599   4.383   0.037   4.044  0.3556  0.1010 -0.3491
 7988SOL    HW135600   4.436   4.693   4.038  2.3192  1.3930 -0.4010
 7988SOL    HW235601   4.448   0.103   4.070  0.4144  0.2504 -0.8720
 7989SOL     OW35602   2.893   1.782   7.279  0.1110  0.5879 -0.0396
 7989SOL    HW135603   2.805   1.753   7.255 -0.2034  1.7825 -0.2895
 7989SOL    HW235604   2.879   1.868   7.317  1.1011  0.5767  0.3502
 7990SOL     OW35605   0.840   4.361  12.820  0.2630 -0.1664  0.4199
 7990SOL    HW135606   0.759   4.346  12.771  0.6948 -2.1268  0.3475
 7990SOL    HW235607   0.794   4.391  12.899  1.6765  1.9866  0.4441
 7991SOL     OW35608   0.257   3.425   4.080  0.0883 -0.3991 -0.2152
 7991SOL    HW135609   0.344   3.454   4.051  0.7845 -2.0294  0.2576
 7991SOL    HW235610   0.204   3.491   4.034  1.6707  1.1433  0.1431
 7992SOL     OW35611   2.120   4.458   3.484 -0.5309  0.0942  0.1327
 7992SOL    HW135612   2.124   4.493   3.573 -0.3444  0.0361  0.1465
 7992SOL    HW235613   2.029   4.472   3.457 -0.2615  2.4009  0.4269
 7993SOL     OW35614   1.246   4.717   8.347  0.1276 -0.4535  0.2778
 7993SOL    HW135615   1.181   0.039   8.388  0.4013 -0.2447  0.4201
 7993SOL    HW235616   1.279   0.046   8.285 -3.3574 -0.6586 -1.7856
 7994SOL     OW35617   4.255   3.899   5.309  0.0963  0.2474  0.2799
 7994SOL    HW135618   4.297   3.983   5.328  3.0970 -0.9800 -0.9182
 7994SOL    HW235619   4.185   3.924   5.249  0.2840  1.0910  0.4086
 7995SOL     OW35620   2.901   3.064  14.306 -0.3025 -0.3323  0.3551
 7995SOL    HW135621   2.827   3.041  14.362 -1.8025  2.7912 -0.3567
 7995SOL    HW235622   2.869   3.113  14.230 -0.0668 -0.8853 -0.1070
 7996SOL     OW35623   3.583   1.442  11.190 -0.1264  0.3060 -0.6937
 7996SOL    HW135624   3.565   1.533  11.166  2.4307  0.4321 -2.2269
 7996SOL    HW235625   3.677   1.438  11.208 -0.6868 -0.8660  1.9852
 7997SOL     OW35626   3.909   2.975   4.907  0.6539  1.2476  0.2978
 7997SOL    HW135627   3.945   3.050   4.954  0.3265  1.4605  0.2119
 7997SOL    HW235628   3.840   2.946   4.967  1.5667 -1.3553  0.1038
 7998SOL     OW35629   1.612   4.087   7.063 -0.4882 -0.4413  0.1063
 7998SOL    HW135630   1.569   4.005   7.040 -0.5308  0.2601 -2.2551
 7998SOL    HW235631   1.702   4.054   7.065  0.1205  1.3397  2.5723
 7999SOL     OW35632   1.196   1.259   8.372 -0.3787  0.4094  0.1046
 7999SOL    HW135633   1.205   1.329   8.308 -1.8639  2.0130  1.6336
 7999SOL    HW235634   1.101   1.253   8.385 -0.5576 -0.2816 -1.6080
 8000SOL     OW35635   3.102   1.824  11.053 -0.3247 -0.3103 -0.0797
 8000SOL    HW135636   3.189   1.841  11.017 -0.7486 -1.8751 -1.8160
 8000SOL    HW235637   3.054   1.772  10.989 -1.5731 -0.8874  1.3182
 8001SOL     OW35638   4.024   0.514   9.139 -0.3388  0.3291 -0.2385
 8001SOL    HW135639   4.051   0.551   9.055  0.4194  0.2951 -0.0090
 8001SOL    HW235640   3.932   0.500   9.117 -0.4595 -0.7617  1.0056
 8002SOL     OW35641   1.682   3.833   2.776 -0.0887  0.2083 -0.5396
 8002SOL    HW135642   1.596   3.858   2.742 -0.3486 -0.1297 -0.1310
 8002SOL    HW235643   1.742   3.857   2.705  0.6981  2.7489  1.0051
 8003SOL     OW35644   3.820   3.000   4.649  0.4573  0.0439 -0.0028
 8003SOL    HW135645   3.856   2.914   4.626 -0.0006 -0.3364  0.7110
 8003SOL    HW235646   3.858   3.001   4.737  0.1785 -1.6499  0.1298
 8004SOL     OW35647   3.257   1.671   6.919 -0.4869 -0.1660 -0.0889
 8004SOL    HW135648   3.191   1.683   6.987 -3.3451 -0.3292 -2.8499
 8004SOL    HW235649   3.336   1.654   6.971 -1.3005  1.1990  1.5983
 8005SOL     OW35650   4.006   2.230  15.366  0.4475 -0.1908  0.1305
 8005SOL    HW135651   3.956   2.265  15.439 -2.5371  0.2646 -2.1474
 8005SOL    HW235652   3.970   2.142  15.355 -1.0323  0.5196 -0.5850
 8006SOL     OW35653   4.606   1.774   2.226  0.4020 -0.5515 -0.8127
 8006SOL    HW135654   4.683   1.742   2.274  1.9976  1.3778 -2.1332
 8006SOL    HW235655   4.528   1.741   2.270 -0.0224  1.7446  0.1344
 8007SOL     OW35656   1.446   1.726  14.418 -1.0852 -0.3172 -0.3734
 8007SOL    HW135657   1.533   1.696  14.445 -1.6167 -1.1689  0.4109
 8007SOL    HW235658   1.443   1.814  14.456  0.8524 -0.9376  1.2049
 8008SOL     OW35659   3.289   1.315   6.741 -0.9515 -0.0039  0.0289
 8008SOL    HW135660   3.286   1.270   6.657 -0.0535 -0.2249  0.1228
 8008SOL    HW235661   3.235   1.393   6.724 -0.5980  0.8050  2.6452
 8009SOL     OW35662   4.293   1.310  15.261  0.3866 -0.0171 -0.4122
 8009SOL    HW135663   4.268   1.243  15.325  3.3814 -2.0579 -1.3203
 8009SOL    HW235664   4.363   1.345  15.316 -1.1043  0.8971  0.8929
 8010SOL     OW35665   4.134   4.464   8.096 -0.0481  0.5521  0.1598
 8010SOL    HW135666   4.129   4.382   8.146 -1.2666 -0.3252 -1.4030
 8010SOL    HW235667   4.198   4.511   8.150 -2.0746  0.9418  2.2038
 8011SOL     OW35668   2.936   0.794   7.358  0.3680  0.7895  0.2456
 8011SOL    HW135669   2.915   0.701   7.368 -1.8486  1.4995  2.4103
 8011SOL    HW235670   2.891   0.808   7.274  0.0302 -2.3826 -0.1253
 8012SOL     OW35671   0.134   0.473   4.339 -0.0497  0.1273  0.0595
 8012SOL    HW135672   0.137   0.465   4.243  2.9253 -0.7136  0.2135
 8012SOL    HW235673   0.044   0.502   4.353 -0.3638 -0.4077 -0.8502
 8013SOL     OW35674   3.860   0.148  15.373  0.1446  0.4500  0.1630
 8013SOL    HW135675   3.895   0.220  15.425 -0.3914  1.5204 -0.9651
 8013SOL    HW235676   3.869   0.181  15.284 -1.8309 -1.6032 -0.8181
 8014SOL     OW35677   0.342   3.451   6.625  0.2295  0.2635 -0.0426
 8014SOL    HW135678   0.285   3.527   6.639 -0.6117  0.1412 -2.9578
 8014SOL    HW235679   0.412   3.484   6.569 -0.3829  0.6231 -0.5863
 8015SOL     OW35680   4.462   1.384   3.384  0.2831  0.1071  0.1239
 8015SOL    HW135681   4.424   1.381   3.296  0.2704 -1.9820  0.2030
 8015SOL    HW235682   4.393   1.335   3.429  0.5016  1.1418  1.6163
 8016SOL     OW35683   2.966   1.817   2.943 -0.4594  0.2740  0.1870
 8016SOL    HW135684   2.877   1.835   2.914 -0.7671 -0.4156  0.7156
 8016SOL    HW235685   2.959   1.738   2.996  2.2639  0.1609  0.3615
 8017SOL     OW35686   2.891   3.478   5.619  0.1477 -0.0426  0.1058
 8017SOL    HW135687   2.831   3.502   5.689  1.8004 -0.0410  1.5393
 8017SOL    HW235688   2.930   3.402   5.663  2.3810  0.7122 -0.5754
 8018SOL     OW35689   4.555   0.039   6.571 -0.3675 -0.0976  0.0069
 8018SOL    HW135690   4.499   0.116   6.568  2.0662  1.7070  1.5409
 8018SOL    HW235691   4.618   0.079   6.630 -1.1582  1.2481 -0.0826
 8019SOL     OW35692   0.758   2.284   4.642  0.4231  0.2674  0.2708
 8019SOL    HW135693   0.678   2.289   4.590 -0.4133  3.3648  1.8414
 8019SOL    HW235694   0.809   2.331   4.576 -1.0288  1.8203  0.2473
 8020SOL     OW35695   0.667   3.536   0.169 -0.1390  0.3181 -0.3319
 8020SOL    HW135696   0.599   3.553   0.103 -1.6284  1.6277  1.5231
 8020SOL    HW235697   0.711   3.460   0.133 -0.7847  0.4760 -1.4631
 8021SOL     OW35698   1.988   1.833  16.278 -0.0583  0.1852 -0.2613
 8021SOL    HW135699   1.985   1.892  16.202  0.2324  1.6528  0.8662
 8021SOL    HW235700   1.903   1.788  16.277 -0.6592  1.3103 -1.1621
 8022SOL     OW35701   4.356   2.575   8.909 -0.1739  0.0181 -0.0943
 8022SOL    HW135702   4.366   2.670   8.920 -2.2223  0.3576 -1.2124
 8022SOL    HW235703   4.433   2.564   8.853  0.5851  1.1298  0.7209
 8023SOL     OW35704   0.395   4.220  16.698  0.3877 -0.3580  0.0571
 8023SOL    HW135705   0.417   4.294  16.641 -0.7990 -0.9051 -1.1159
 8023SOL    HW235706   0.474   4.167  16.688 -0.5880 -1.2991 -2.5622
 8024SOL     OW35707   2.155   2.091   1.149  0.6511 -0.6224  0.0805
 8024SOL    HW135708   2.242   2.065   1.120  0.2223 -1.9617  0.0210
 8024SOL    HW235709   2.185   2.115   1.237 -0.3450 -1.1215  0.5493
 8025SOL     OW35710   4.427   0.232   7.196  0.2877 -0.1867  0.0271
 8025SOL    HW135711   4.375   0.161   7.235 -0.2021  0.6195  0.8623
 8025SOL    HW235712   4.508   0.191   7.167  0.1476 -0.6876  0.3334
 8026SOL     OW35713   3.879   3.695  15.913  0.0607 -0.5575 -0.1607
 8026SOL    HW135714   3.814   3.759  15.883  0.9756 -0.8034 -2.6807
 8026SOL    HW235715   3.954   3.754  15.901  0.7084 -1.1995  0.7336
 8027SOL     OW35716   4.646   0.979   9.038  0.3034  0.6091 -0.1243
 8027SOL    HW135717   4.704   1.047   9.072  2.1627  0.0824 -2.2633
 8027SOL    HW235718   4.583   1.024   8.982 -0.2775 -1.1590 -0.9170
 8028SOL     OW35719   2.419   3.300   3.152  0.0209  0.1587 -0.0167
 8028SOL    HW135720   2.376   3.287   3.067 -2.9329 -1.0324  1.6703
 8028SOL    HW235721   2.438   3.393   3.164  0.4294  0.2530 -1.3414
 8029SOL     OW35722   4.079   3.182   2.507 -0.4451  0.6737 -0.1024
 8029SOL    HW135723   4.048   3.186   2.597 -0.5414  0.5689 -0.1299
 8029SOL    HW235724   4.020   3.231   2.449  1.1787  1.3665 -1.1761
 8030SOL     OW35725   3.725   0.474   7.451  0.1171  0.2646 -0.0055
 8030SOL    HW135726   3.794   0.461   7.516 -1.3389  0.3599  1.5607
 8030SOL    HW235727   3.726   0.398   7.393 -1.6623 -1.3495  2.0671
 8031SOL     OW35728   4.567   1.295   7.561 -0.7536 -0.1344 -0.2288
 8031SOL    HW135729   4.602   1.384   7.567  1.9011 -1.0827 -1.5652
 8031SOL    HW235730   4.616   1.248   7.493  0.2351  1.1097 -0.3625
 8032SOL     OW35731   3.507   3.919   5.478  0.1733 -0.3813  0.0804
 8032SOL    HW135732   3.543   3.954   5.397  1.0538 -0.9054  0.2494
 8032SOL    HW235733   3.586   3.930   5.531 -0.7607 -0.5323  1.4987
 8033SOL     OW35734   0.991   1.799   7.803 -0.4943 -0.1791 -0.3471
 8033SOL    HW135735   1.049   1.812   7.878  0.5401 -1.0351 -0.9790
 8033SOL    HW235736   0.913   1.769   7.849 -1.2431  0.7720 -0.9985
 8034SOL     OW35737   3.573   3.992   7.097  0.7052 -0.2716  0.5657
 8034SOL    HW135738   3.494   4.015   7.049  0.5363  1.5576  1.7089
 8034SOL    HW235739   3.543   3.916   7.146  1.5930 -1.8931 -1.3871
 8035SOL     OW35740   2.311   2.423   3.845 -0.0459  0.2619 -0.1412
 8035SOL    HW135741   2.315   2.507   3.799 -1.3438 -0.8297 -2.2409
 8035SOL    HW235742   2.221   2.406   3.873  0.5214 -1.0439  0.9155
 8036SOL     OW35743   0.227   2.655   7.622  0.3376 -0.0040 -0.8098
 8036SOL    HW135744   0.146   2.700   7.648  1.4811 -0.6104  3.8123
 8036SOL    HW235745   0.273   2.707   7.557  2.8132 -1.8655 -0.5443
 8037SOL     OW35746   1.428   4.320   5.924  0.4115 -0.5108 -0.4291
 8037SOL    HW135747   1.519   4.294   5.909  0.2837 -0.4889 -1.2391
 8037SOL    HW235748   1.395   4.247   5.977 -1.8037 -0.3595 -1.5803
 8038SOL     OW35749   1.221   2.851   7.948  0.0034 -0.2045 -0.0149
 8038SOL    HW135750   1.246   2.910   7.877  0.4913 -1.9641 -1.3012
 8038SOL    HW235751   1.200   2.772   7.898  0.2969  0.6583 -1.5150
 8039SOL     OW35752   0.167   3.899   7.458 -0.1351  0.3529 -0.6904
 8039SOL    HW135753   0.148   3.808   7.482 -0.5788  0.4650 -0.6203
 8039SOL    HW235754   0.158   3.944   7.542  1.5782  1.7786 -1.2711
 8040SOL     OW35755   2.352   1.728   1.691 -0.2955 -0.2870 -1.0510
 8040SOL    HW135756   2.354   1.761   1.781  2.3272  0.1309 -1.2633
 8040SOL    HW235757   2.283   1.783   1.655 -0.8540 -0.7216 -0.6551
 8041SOL     OW35758   2.437   3.484   6.882 -0.3741  0.6862  0.2884
 8041SOL    HW135759   2.401   3.481   6.793  0.5717  1.4427 -0.1211
 8041SOL    HW235760   2.480   3.399   6.890 -0.6874  0.5125  0.1501
 8042SOL     OW35761   0.796   3.276   3.108  0.3914 -0.0288 -0.0492
 8042SOL    HW135762   0.734   3.217   3.152  1.9392 -1.7323 -0.1467
 8042SOL    HW235763   0.754   3.296   3.024  0.6947  0.2218 -0.1392
 8043SOL     OW35764   3.178   0.747   9.907 -0.2686  0.5008  0.2595
 8043SOL    HW135765   3.218   0.715   9.826 -0.9957  0.1049  0.0578
 8043SOL    HW235766   3.210   0.837   9.908 -0.7719  0.6686  0.8920
 8044SOL     OW35767   4.468   1.360   3.048 -0.1440 -0.5358 -0.1771
 8044SOL    HW135768   4.512   1.433   3.004 -1.7456 -0.7575 -2.1292
 8044SOL    HW235769   4.548   1.309   3.063 -0.8867 -1.4409  0.6878
 8045SOL     OW35770   2.068   0.152   6.022  0.1996  0.3862  0.3717
 8045SOL    HW135771   2.084   0.059   6.010 -0.7860 -0.1070  2.9779
 8045SOL    HW235772   1.973   0.160   6.029 -0.1827 -2.8478 -1.0648
 8046SOL     OW35773   4.078   3.536  17.106  0.2343  0.3653 -0.3700
 8046SOL    HW135774   4.048   3.607  17.163 -1.2446 -0.7025  0.1830
 8046SOL    HW235775   4.153   3.500  17.153 -0.8402 -3.0540 -1.2321
 8047SOL     OW35776   2.241   4.526  10.702  0.2980  0.3277 -0.2045
 8047SOL    HW135777   2.231   4.483  10.617 -1.2959  0.6560 -0.1928
 8047SOL    HW235778   2.329   4.500  10.730  0.0889  0.1441  0.2770
 8048SOL     OW35779   1.215   1.767   7.309 -0.3274 -0.0403 -0.0975
 8048SOL    HW135780   1.174   1.782   7.394  0.2286  0.3479  0.1020
 8048SOL    HW235781   1.285   1.707   7.334  1.3104  1.6000 -0.7643
 8049SOL     OW35782   0.783   0.947   3.586 -0.7257  0.5015 -0.2884
 8049SOL    HW135783   0.876   0.966   3.590 -0.3871 -1.3942  0.8205
 8049SOL    HW235784   0.760   0.965   3.678 -0.6916  3.8475 -0.9352
 8050SOL     OW35785   2.289   2.316   6.018  0.2905 -0.2279 -0.3138
 8050SOL    HW135786   2.302   2.286   6.108  1.3944  1.0405 -0.0421
 8050SOL    HW235787   2.247   2.236   5.985 -2.3223  1.2656 -0.6386
 8051SOL     OW35788   2.840   3.194   9.816  0.2802 -0.2633 -0.0814
 8051SOL    HW135789   2.931   3.171   9.795 -0.5444 -0.9763 -2.9862
 8051SOL    HW235790   2.814   3.114   9.863 -0.1220  1.6500  2.9249
 8052SOL     OW35791   0.462   4.340   6.708 -0.0943 -0.1768 -0.1264
 8052SOL    HW135792   0.472   4.302   6.621 -0.0699  0.4454 -0.3908
 8052SOL    HW235793   0.369   4.361   6.708  0.1935  1.1897  2.8104
 8053SOL     OW35794   1.582   0.334  16.773  0.7819  0.4528  0.2058
 8053SOL    HW135795   1.547   0.398  16.835 -1.1490  1.5166 -1.9571
 8053SOL    HW235796   1.574   0.386  16.693 -0.2292  1.1723  0.7758
 8054SOL     OW35797   3.964   2.689   4.902 -0.0967 -0.0405  0.2255
 8054SOL    HW135798   3.951   2.784   4.913 -0.2365  0.1132 -1.1683
 8054SOL    HW235799   4.028   2.663   4.968  0.4137  0.2327 -0.1571
 8055SOL     OW35800   2.885   1.020   7.476 -0.2443  0.0712  0.2300
 8055SOL    HW135801   2.882   0.933   7.437  1.4012  0.9613 -1.9032
 8055SOL    HW235802   2.916   1.075   7.405  1.1933 -0.0756  0.7397
 8056SOL     OW35803   1.983   3.671   5.873 -0.0938  0.3684  0.9266
 8056SOL    HW135804   1.911   3.615   5.843  0.4829  0.4091 -0.5717
 8056SOL    HW235805   2.044   3.615   5.920  0.9312  0.5454 -0.2027
 8057SOL     OW35806   1.453   3.570   3.546 -0.2096 -0.1393  0.1952
 8057SOL    HW135807   1.477   3.564   3.454 -0.9899 -0.0273 -0.0158
 8057SOL    HW235808   1.430   3.662   3.558 -0.2240  0.0565 -1.4389
 8058SOL     OW35809   4.470   2.866   2.665 -0.1279 -0.0697 -0.3940
 8058SOL    HW135810   4.436   2.899   2.582 -1.2646 -0.9074 -0.2781
 8058SOL    HW235811   4.393   2.817   2.696  0.5351 -0.4644  0.6364
 8059SOL     OW35812   0.820   3.938  15.480  0.4369  0.8991  0.0862
 8059SOL    HW135813   0.755   3.873  15.506  0.8619  0.3561 -0.2142
 8059SOL    HW235814   0.768   4.018  15.479 -1.2228 -0.1917  0.1578
 8060SOL     OW35815   1.236   4.163   6.056  0.0777  0.5125  0.2187
 8060SOL    HW135816   1.175   4.161   5.982  0.6606  0.6838 -0.2719
 8060SOL    HW235817   1.243   4.251   6.091  0.6342  0.4091  0.3726
 8061SOL     OW35818   3.928   1.045  16.809  0.2945  0.3375  0.0463
 8061SOL    HW135819   3.869   1.114  16.839  0.5087  0.2001  0.7737
 8061SOL    HW235820   3.983   1.096  16.749  3.4289 -1.0756  1.7206
 8062SOL     OW35821   0.066   0.924  12.138  0.1315  0.3051 -0.0817
 8062SOL    HW135822   4.706   0.928  12.142  0.1812 -0.4763  1.7978
 8062SOL    HW235823   0.084   0.976  12.060 -1.2413  0.2186 -0.4627
 8063SOL     OW35824   1.842   1.336   3.467 -0.1836 -0.1489  0.1283
 8063SOL    HW135825   1.785   1.352   3.392 -1.9804 -3.0541  0.8883
 8063SOL    HW235826   1.795   1.258   3.495  1.6812 -1.2719  0.1053
 8064SOL     OW35827   3.114   1.000  14.991  0.0517 -0.3681  0.1271
 8064SOL    HW135828   3.148   0.922  15.035 -0.0502 -0.6893 -0.3644
 8064SOL    HW235829   3.040   0.963  14.943 -1.1444  2.1373  0.0322
 8065SOL     OW35830   0.518   3.959   6.132 -0.2803  0.4158  0.7886
 8065SOL    HW135831   0.525   3.887   6.195 -1.4255 -2.4898 -2.4304
 8065SOL    HW235832   0.590   3.937   6.074 -2.6175 -2.5106 -0.9644
 8066SOL     OW35833   1.514   4.286  15.427  0.6233  0.1039 -0.7745
 8066SOL    HW135834   1.605   4.265  15.448  0.2413  0.1379  0.9177
 8066SOL    HW235835   1.525   4.375  15.393  1.2257  0.5167  0.4973
 8067SOL     OW35836   1.680   2.560   3.961 -0.3962  0.1580 -0.0023
 8067SOL    HW135837   1.689   2.468   3.936  1.4800 -0.2518  2.1503
 8067SOL    HW235838   1.668   2.558   4.056  1.4598  0.2350  0.2433
 8068SOL     OW35839   4.236   2.115   6.545 -0.1104  0.4396  0.7539
 8068SOL    HW135840   4.143   2.101   6.560  0.2459 -1.2150  1.3348
 8068SOL    HW235841   4.233   2.210   6.529 -1.1174  0.3686  0.5075
 8069SOL     OW35842   4.022   2.712   0.870 -0.0210  0.1365  0.2054
 8069SOL    HW135843   4.023   2.616   0.865 -1.2162  0.0915  0.8360
 8069SOL    HW235844   3.989   2.728   0.958  0.0736  0.3532  0.2003
 8070SOL     OW35845   0.917   1.666   6.634 -0.0797 -0.5529  0.2568
 8070SOL    HW135846   0.915   1.724   6.711  1.7407  0.9799 -0.8545
 8070SOL    HW235847   0.905   1.581   6.676  2.5304 -0.9636  0.1647
 8071SOL     OW35848   0.909   4.719  13.568  0.4806 -0.0389  0.4437
 8071SOL    HW135849   0.883   4.669  13.490 -0.2108  3.2056 -1.3806
 8071SOL    HW235850   0.950   0.060  13.529 -0.9910  0.0274 -0.9623
 8072SOL     OW35851   0.584   2.043  15.318  0.4596  0.0408 -0.1693
 8072SOL    HW135852   0.637   2.122  15.332 -0.8393  1.0178 -0.7206
 8072SOL    HW235853   0.596   1.995  15.400  1.1461  0.7109  0.1234
 8073SOL     OW35854   3.478   2.833   7.553 -0.2389  0.1831 -0.4627
 8073SOL    HW135855   3.430   2.897   7.606 -0.1654 -0.9035  0.9069
 8073SOL    HW235856   3.458   2.750   7.596  2.3937  0.1320  0.6814
 8074SOL     OW35857   3.105   2.259  10.652 -0.6398  0.7053 -0.6437
 8074SOL    HW135858   3.018   2.221  10.668 -0.1645 -0.3832 -0.6210
 8074SOL    HW235859   3.087   2.350  10.677 -0.1611  0.5795  0.1704
 8075SOL     OW35860   3.971   3.282   6.105  1.2210 -0.0877  0.5310
 8075SOL    HW135861   3.898   3.330   6.145  0.0067 -0.0138 -1.7859
 8075SOL    HW235862   4.009   3.365   6.078 -0.2224 -0.0084 -1.2743
 8076SOL     OW35863   4.599   1.468   3.815 -0.1876  0.2391  1.0068
 8076SOL    HW135864   4.689   1.491   3.792 -0.9279 -0.6024 -2.7177
 8076SOL    HW235865   4.614   1.385   3.770  0.2768 -0.2159  1.9999
 8077SOL     OW35866   1.439   4.562   7.731  0.1639 -0.2508 -0.3862
 8077SOL    HW135867   1.359   4.512   7.717  0.5326 -1.1311  0.7167
 8077SOL    HW235868   1.433   4.632   7.666  0.1113  1.3381  1.2983
 8078SOL     OW35869   3.619   1.008   6.279 -0.0046  0.0874 -0.0072
 8078SOL    HW135870   3.547   0.978   6.335  0.2433  5.0374  2.9940
 8078SOL    HW235871   3.581   1.014   6.192 -0.5374  1.1645  0.2956
 8079SOL     OW35872   1.072   1.881   5.341  0.0556  0.4420 -0.3226
 8079SOL    HW135873   1.118   1.880   5.425 -1.2699 -2.7846  0.3324
 8079SOL    HW235874   1.135   1.918   5.279 -0.0630  1.5941  0.2446
 8080SOL     OW35875   3.753   0.258   4.106 -0.3552 -0.1550 -0.0947
 8080SOL    HW135876   3.668   0.258   4.061 -1.1167 -0.6395  1.3544
 8080SOL    HW235877   3.774   0.166   4.094  2.9261  0.6841 -0.7743
 8081SOL     OW35878   3.768   2.438   7.147  0.2631  0.2221  0.0738
 8081SOL    HW135879   3.841   2.496   7.126  0.0414  0.6490  0.4535
 8081SOL    HW235880   3.713   2.496   7.200  1.0742  1.4612 -0.4170
 8082SOL     OW35881   2.289   2.214  12.737 -0.2644 -0.1023 -0.2031
 8082SOL    HW135882   2.327   2.290  12.783 -0.9272  0.9361 -1.3777
 8082SOL    HW235883   2.196   2.227  12.719  0.0828  2.4961 -0.1188
 8083SOL     OW35884   4.178   3.518   4.817  0.0895 -0.4426 -0.1975
 8083SOL    HW135885   4.249   3.456   4.833  1.6445  1.1899 -0.8055
 8083SOL    HW235886   4.224   3.577   4.759 -2.5708  1.2833 -0.5685
 8084SOL     OW35887   2.463   3.443   1.421 -0.0182  0.5204  0.3789
 8084SOL    HW135888   2.482   3.536   1.435  2.2809  0.1113  0.0721
 8084SOL    HW235889   2.451   3.445   1.326 -0.4224 -1.9348  0.3911
 8085SOL     OW35890   3.098   0.604   6.220 -0.0451 -1.0664  0.0578
 8085SOL    HW135891   3.149   0.685   6.230  0.1154 -1.3781  1.7653
 8085SOL    HW235892   3.018   0.647   6.250  1.4235  2.5153 -1.0842
 8086SOL     OW35893   2.621   1.736   5.957  0.4257  0.5242 -0.0424
 8086SOL    HW135894   2.673   1.795   5.903 -1.7946  1.4389 -1.2231
 8086SOL    HW235895   2.683   1.670   5.989 -1.0244 -0.4250  0.8222
 8087SOL     OW35896   2.889   0.447  12.890  0.3996 -0.2479 -0.4086
 8087SOL    HW135897   2.838   0.367  12.885  0.2865 -0.2873  1.4618
 8087SOL    HW235898   2.844   0.515  12.841  0.0614  0.0513  0.3260
 8088SOL     OW35899   0.627   2.006   8.227 -0.4264 -0.2767 -0.5073
 8088SOL    HW135900   0.615   1.997   8.321  1.0153 -0.6653 -0.3624
 8088SOL    HW235901   0.718   1.979   8.218  0.1180  1.2507  0.2880
 8089SOL     OW35902   1.981   3.303   4.299  0.7216  0.1081 -0.4154
 8089SOL    HW135903   2.041   3.376   4.280  0.4053  0.5268  0.1848
 8089SOL    HW235904   1.995   3.236   4.232 -0.8342 -2.4209  1.7948
 8090SOL     OW35905   0.349   1.866   4.872 -0.4189  0.0874  0.4385
 8090SOL    HW135906   0.266   1.848   4.829  0.0979 -0.7611 -0.2075
 8090SOL    HW235907   0.402   1.878   4.793 -1.6186  0.0126 -0.3694
 8091SOL     OW35908   0.020   3.203   2.305  0.3481 -0.1406  0.2055
 8091SOL    HW135909   0.081   3.222   2.234 -0.6984  0.7346 -0.4694
 8091SOL    HW235910   4.675   3.233   2.263 -0.8533 -0.9563  1.8898
 8092SOL     OW35911   1.857   1.832   3.822  0.0139  0.5729 -0.1992
 8092SOL    HW135912   1.797   1.758   3.809 -0.0201  0.7959 -1.3503
 8092SOL    HW235913   1.792   1.899   3.798  0.4583  1.0928  0.0506
 8093SOL     OW35914   2.563   0.963  13.125  0.1156  0.4985  0.3833
 8093SOL    HW135915   2.544   0.952  13.218  0.0993  0.0077  0.3207
 8093SOL    HW235916   2.476   0.945  13.090  0.0612 -1.6509  1.6365
 8094SOL     OW35917   2.016   4.168   6.769  0.3718  0.2584  0.2432
 8094SOL    HW135918   2.079   4.144   6.838 -1.0814 -0.4681  1.3037
 8094SOL    HW235919   1.980   4.088   6.732  0.1122  0.2276  0.5639
 8095SOL     OW35920   1.212   4.535   8.080 -0.3060  0.2496 -0.1435
 8095SOL    HW135921   1.132   4.583   8.056 -1.8739 -2.1308  0.3014
 8095SOL    HW235922   1.183   4.445   8.067  0.4817  0.2227 -1.6475
 8096SOL     OW35923   0.507   1.605   3.004  0.6018 -0.1658 -0.5256
 8096SOL    HW135924   0.494   1.511   2.994 -2.7782  0.1124  1.1200
 8096SOL    HW235925   0.580   1.611   3.065 -1.8798  1.9651  2.2544
 8097SOL     OW35926   2.984   3.150   8.715  0.1842 -0.0725  0.0235
 8097SOL    HW135927   2.973   3.101   8.633 -1.5636  0.3619  0.0094
 8097SOL    HW235928   2.895   3.166   8.745  0.8777 -0.8418  2.4396
 8098SOL     OW35929   2.445   2.729   4.038 -0.5302 -0.3303 -0.2834
 8098SOL    HW135930   2.368   2.773   4.002  1.9864  1.5384 -3.3596
 8098SOL    HW235931   2.405   2.655   4.084 -0.3184  0.2813  0.8769
 8099SOL     OW35932   1.576   2.394   7.991  0.4874  0.3103  0.0757
 8099SOL    HW135933   1.487   2.411   7.958  0.4795  1.4199  0.6531
 8099SOL    HW235934   1.586   2.463   8.058  1.5087 -0.6656  0.9272
 8100SOL     OW35935   0.593   0.873   7.555 -0.1278  0.7069 -0.6266
 8100SOL    HW135936   0.557   0.956   7.587 -1.3487 -0.6274  1.4683
 8100SOL    HW235937   0.679   0.882   7.596 -1.0300 -0.1371  1.4360
 8101SOL     OW35938   4.433   3.850  11.464  0.0912  0.7052 -0.0359
 8101SOL    HW135939   4.411   3.831  11.373 -1.7332 -2.0664  0.9967
 8101SOL    HW235940   4.426   3.760  11.496  3.2937 -0.3551 -2.2997
 8102SOL     OW35941   3.010   0.742   3.256  0.1338  0.0029 -0.7654
 8102SOL    HW135942   3.099   0.772   3.238 -0.3383  1.8371  0.0009
 8102SOL    HW235943   3.023   0.693   3.338 -1.1347 -0.9108 -1.0923
 8103SOL     OW35944   0.873   1.443   5.126 -0.4615 -0.3611  0.1926
 8103SOL    HW135945   0.922   1.512   5.172 -1.4662  0.5043 -0.0310
 8103SOL    HW235946   0.866   1.385   5.202 -0.0457 -0.1011  0.4330
 8104SOL     OW35947   3.614   2.559   2.835 -0.1152 -0.6537 -0.2383
 8104SOL    HW135948   3.525   2.554   2.800  0.3714 -0.4875 -1.4630
 8104SOL    HW235949   3.595   2.547   2.928 -2.3051 -0.6674 -0.6844
 8105SOL     OW35950   3.223   4.312   1.621 -0.5517 -0.2653 -0.1726
 8105SOL    HW135951   3.195   4.226   1.653 -0.9271 -0.5769 -1.3730
 8105SOL    HW235952   3.319   4.308   1.612 -0.3842 -0.5598  1.7337
 8106SOL     OW35953   2.225   0.010  12.196 -0.3558 -0.1912  0.3650
 8106SOL    HW135954   2.243   4.654  12.178 -0.2663 -0.2863  0.9501
 8106SOL    HW235955   2.242   0.047  12.109 -0.9359 -0.9944 -0.0954
 8107SOL     OW35956   1.184   0.877   2.123  0.1652  0.5866 -0.4540
 8107SOL    HW135957   1.118   0.924   2.174  1.2161  2.5316 -0.8873
 8107SOL    HW235958   1.135   0.848   2.046 -1.4396  1.5009  0.2315
 8108SOL     OW35959   0.511   1.396   2.440 -0.1102 -0.1797 -0.0012
 8108SOL    HW135960   0.515   1.327   2.506  0.1564 -0.7635 -0.6188
 8108SOL    HW235961   0.521   1.470   2.499 -1.6035  0.2391 -0.2740
 8109SOL     OW35962   1.885   0.621  13.133 -0.2448 -0.7035 -0.0548
 8109SOL    HW135963   1.884   0.665  13.219  0.4542 -0.6441 -0.0745
 8109SOL    HW235964   1.902   0.532  13.165  0.2742 -0.1218  1.3058
 8110SOL     OW35965   2.888   4.555   6.803  0.1337  0.5720  0.2293
 8110SOL    HW135966   2.843   4.550   6.718  2.1465 -1.0842 -0.7607
 8110SOL    HW235967   2.812   4.597   6.842 -0.7473 -1.1808  0.4384
 8111SOL     OW35968   4.463   3.914   4.188  0.1854  0.5316  0.0981
 8111SOL    HW135969   4.487   3.969   4.113  3.4470  1.0050  1.4745
 8111SOL    HW235970   4.369   3.932   4.190 -0.0556 -0.4980 -1.5797
 8112SOL     OW35971   4.401   3.598  14.663  0.5464  0.1045  0.0834
 8112SOL    HW135972   4.376   3.641  14.582  0.0975 -1.5558 -0.6570
 8112SOL    HW235973   4.409   3.663  14.733 -0.0842  0.7277 -0.4276
 8113SOL     OW35974   4.188   1.110  15.434  0.2208  0.9587 -0.6780
 8113SOL    HW135975   4.167   1.032  15.382 -1.6949  1.2085 -0.2771
 8113SOL    HW235976   4.163   1.081  15.522  1.9966 -1.2915 -0.9249
 8114SOL     OW35977   3.779   2.178   5.079  0.4307  0.3226 -0.5531
 8114SOL    HW135978   3.811   2.089   5.095  1.6938  1.1454  1.4830
 8114SOL    HW235979   3.863   2.222   5.095 -0.2643  1.8774 -1.1513
 8115SOL     OW35980   1.367   4.456   2.858 -0.3582  0.3356  0.0886
 8115SOL    HW135981   1.375   4.431   2.766 -1.7521  0.8333 -0.1637
 8115SOL    HW235982   1.455   4.480   2.889 -0.0014 -1.2092  0.2838
 8116SOL     OW35983   1.729   3.636   9.095 -0.3220  0.0274 -0.3652
 8116SOL    HW135984   1.753   3.728   9.090 -1.0466  0.2047 -0.6813
 8116SOL    HW235985   1.633   3.630   9.090 -0.2217 -1.6141 -0.3408
 8117SOL     OW35986   1.528   1.381   8.143 -0.1996 -0.2643  0.4799
 8117SOL    HW135987   1.563   1.363   8.056 -0.2502 -1.0806  0.6306
 8117SOL    HW235988   1.500   1.471   8.125 -0.9544 -0.3575  1.1748
 8118SOL     OW35989   3.625   2.167   7.837 -0.0129  0.0003 -0.3196
 8118SOL    HW135990   3.568   2.133   7.906  0.0159  2.1506  0.7465
 8118SOL    HW235991   3.706   2.157   7.886 -1.2359  0.8376  1.8652
 8119SOL     OW35992   0.044   3.426   4.959 -0.1411 -0.2934 -0.3405
 8119SOL    HW135993   0.121   3.380   4.927  0.6014  1.4044 -0.9868
 8119SOL    HW235994   0.080   3.510   4.933 -1.6313 -0.0693 -1.6836
 8120SOL     OW35995   1.470   2.815   6.360  0.1414 -0.2505  0.6642
 8120SOL    HW135996   1.556   2.778   6.340  0.4235  0.4126  0.6243
 8120SOL    HW235997   1.428   2.737   6.394 -0.6038 -1.4284 -2.9552
 8121SOL     OW35998   4.234   4.297  16.489  0.2457 -0.3158  0.7065
 8121SOL    HW135999   4.141   4.320  16.495  0.1652 -1.0584  2.5204
 8121SOL    HW236000   4.236   4.237  16.564  0.9885 -1.4399 -0.2298
 8122SOL     OW36001   3.310   2.602   3.359  0.6420 -0.2464 -0.6328
 8122SOL    HW136002   3.328   2.511   3.385 -2.0417 -0.5125  0.2239
 8122SOL    HW236003   3.217   2.591   3.339  0.4611 -2.6577  1.4560
 8123SOL     OW36004   0.730   2.070  16.770 -0.3539 -0.9337  0.2671
 8123SOL    HW136005   0.638   2.046  16.784 -0.4410  0.4236  2.0348
 8123SOL    HW236006   0.778   2.025  16.840  0.3011 -0.0389  0.3850
 8124SOL     OW36007   0.629   2.899   6.822  0.1541 -0.2198 -0.2564
 8124SOL    HW136008   0.651   2.843   6.897 -0.3217  0.2184  0.2156
 8124SOL    HW236009   0.676   2.978   6.849  0.4321 -0.5259  0.1587
 8125SOL     OW36010   1.063   0.249   8.836  0.1333 -0.2177  0.2914
 8125SOL    HW136011   1.020   0.330   8.863  0.2898  0.1636 -0.6126
 8125SOL    HW236012   1.148   0.259   8.879  0.1498 -0.2316  0.2619
 8126SOL     OW36013   1.318   4.196   8.051 -0.7831  0.1134  0.0690
 8126SOL    HW136014   1.316   4.173   7.958  0.5284 -0.4737  0.1961
 8126SOL    HW236015   1.232   4.238   8.062  0.4174  2.3728  0.9459
 8127SOL     OW36016   3.027   4.575   9.468  0.0854  0.2809  0.0910
 8127SOL    HW136017   3.040   4.666   9.439  0.8256 -0.2000 -1.1275
 8127SOL    HW236018   2.942   4.548   9.432 -0.8388  1.5905  1.3131
 8128SOL     OW36019   4.374   1.110  16.044 -0.1326 -0.4555  0.5325
 8128SOL    HW136020   4.461   1.137  16.074 -0.7352  0.9546  1.0201
 8128SOL    HW236021   4.356   1.184  15.987  2.5591  0.0686  0.3347
 8129SOL     OW36022   3.273   1.645   6.236  0.4840  0.0509 -0.3318
 8129SOL    HW136023   3.264   1.575   6.300 -0.8373 -0.3193 -0.9310
 8129SOL    HW236024   3.369   1.654   6.232  0.4199  0.5368 -0.8200
 8130SOL     OW36025   2.350   3.309  13.189 -0.4020  0.4131  0.3198
 8130SOL    HW136026   2.309   3.329  13.104 -0.8510 -0.0179  0.4284
 8130SOL    HW236027   2.408   3.384  13.193 -0.4503  0.4471  0.3927
 8131SOL     OW36028   1.656   3.714   5.031  0.5793 -0.7433  0.1846
 8131SOL    HW136029   1.604   3.756   5.099 -0.2561  0.4680 -1.2079
 8131SOL    HW236030   1.737   3.731   5.080  2.6328 -2.0677 -2.7379
 8132SOL     OW36031   1.912   2.328   6.357  0.3190  0.3862  1.1234
 8132SOL    HW136032   1.906   2.404   6.299  0.0145 -0.9195 -0.5448
 8132SOL    HW236033   1.985   2.350   6.415 -0.3260  1.9437  1.3750
 8133SOL     OW36034   0.446   3.973   9.623 -0.1139  0.4245 -0.0573
 8133SOL    HW136035   0.536   3.941   9.633  0.8048  2.8362 -0.7467
 8133SOL    HW236036   0.452   4.061   9.586 -2.1981  1.3980  1.9171
 8134SOL     OW36037   3.858   0.708  10.454  0.4760  0.5257  0.0875
 8134SOL    HW136038   3.799   0.744  10.520  0.0305  1.6179 -0.8987
 8134SOL    HW236039   3.947   0.731  10.483  0.1252 -0.2838  1.7835
 8135SOL     OW36040   3.551   3.228  11.346 -0.0638 -0.4111 -0.3747
 8135SOL    HW136041   3.582   3.140  11.369  0.9639 -0.2767 -1.2616
 8135SOL    HW236042   3.520   3.264  11.429  0.5580  2.5614 -1.4516
 8136SOL     OW36043   4.454   1.286   5.263  0.0658 -0.3590  0.7309
 8136SOL    HW136044   4.465   1.308   5.356  3.1118  2.1797 -0.2411
 8136SOL    HW236045   4.369   1.313   5.228 -0.9011 -3.6079  0.5789
 8137SOL     OW36046   3.105   3.330   4.495 -0.0894  0.4602 -0.0280
 8137SOL    HW136047   3.019   3.299   4.467  1.6494 -2.2399 -2.3314
 8137SOL    HW236048   3.152   3.335   4.412 -2.2966  0.2271 -1.3052
 8138SOL     OW36049   2.253   0.691   4.755  0.1569  0.1139 -0.8281
 8138SOL    HW136050   2.237   0.702   4.662 -2.1155 -0.3169 -0.5027
 8138SOL    HW236051   2.177   0.643   4.789  1.5275 -0.9706  0.7223
 8139SOL     OW36052   2.472   4.341   5.051 -0.5022  0.1499 -0.5338
 8139SOL    HW136053   2.411   4.289   4.999 -0.2121 -0.9827  0.2687
 8139SOL    HW236054   2.424   4.422   5.066 -2.4338 -0.9492 -0.9018
 8140SOL     OW36055   1.210   3.612   9.194  0.2701 -0.1142 -0.6303
 8140SOL    HW136056   1.198   3.543   9.259  1.1284 -1.9988 -2.4686
 8140SOL    HW236057   1.120   3.634   9.171 -0.3490 -0.7493  1.1809
 8141SOL     OW36058   2.098   3.295   9.418  0.3781 -0.1053 -0.5551
 8141SOL    HW136059   2.004   3.284   9.406  0.6302 -2.8711  0.1882
 8141SOL    HW236060   2.123   3.206   9.442  1.1240 -0.0535 -1.1039
 8142SOL     OW36061   2.894   1.744   3.941 -0.3182  0.8077  0.2091
 8142SOL    HW136062   2.820   1.800   3.918 -1.0814 -0.1007  0.4350
 8142SOL    HW236063   2.965   1.807   3.952  0.5105 -0.1636  0.4357
 8143SOL     OW36064   0.703   0.984   6.276  0.0965 -0.1027  0.2490
 8143SOL    HW136065   0.666   0.970   6.189  0.9243 -0.2419 -0.0821
 8143SOL    HW236066   0.797   0.974   6.260  0.7154  1.9311  2.6077
 8144SOL     OW36067   4.648   1.466   0.112 -0.2381  0.1167 -0.4671
 8144SOL    HW136068   4.678   1.457   0.022  2.8390  1.1193  0.4468
 8144SOL    HW236069   4.630   1.373   0.126 -1.0506  0.1413 -1.3547
 8145SOL     OW36070   3.332   1.979   8.823 -0.2592 -0.3042  0.1056
 8145SOL    HW136071   3.351   1.897   8.778  0.0517 -0.3492  0.3190
 8145SOL    HW236072   3.239   1.995   8.807  0.1661  1.6755 -0.4327
 8146SOL     OW36073   4.535   1.213  17.445 -0.3030 -0.7174  0.2013
 8146SOL    HW136074   4.538   1.253  17.532 -0.1915 -3.3226  1.3999
 8146SOL    HW236075   4.578   1.276  17.386  0.1735 -0.4140  0.8700
 8147SOL     OW36076   0.631   1.608   6.209 -0.3786  0.4175 -0.2068
 8147SOL    HW136077   0.632   1.541   6.141  0.3015  1.8000 -1.5494
 8147SOL    HW236078   0.722   1.635   6.202 -0.4029  0.8392  1.1677
 8148SOL     OW36079   2.814   0.869  12.562  0.0850  0.0599 -0.4374
 8148SOL    HW136080   2.856   0.803  12.507  1.0717 -0.5977  1.0940
 8148SOL    HW236081   2.743   0.818  12.601  0.9159 -1.2408 -0.6179
 8149SOL     OW36082   1.834   3.742   8.328 -0.7612 -0.4941 -0.1938
 8149SOL    HW136083   1.822   3.651   8.358 -0.2670 -0.4624  0.1049
 8149SOL    HW236084   1.892   3.730   8.253 -1.2590 -1.1378 -0.4767
 8150SOL     OW36085   3.362   4.362  14.794 -0.1414  0.5725 -0.4778
 8150SOL    HW136086   3.454   4.351  14.769 -0.3454  3.2023 -2.4923
 8150SOL    HW236087   3.343   4.428  14.727 -0.5864  0.7831 -0.1440
 8151SOL     OW36088   2.179   1.157   0.518  0.1015 -0.1305  0.2658
 8151SOL    HW136089   2.095   1.134   0.480  0.2448  1.7654 -1.1296
 8151SOL    HW236090   2.232   1.077   0.511  0.6523  0.3533 -1.0462
 8152SOL     OW36091   3.276   2.683   0.353  0.6922  0.4355 -0.0706
 8152SOL    HW136092   3.368   2.709   0.359  0.6303  0.7611 -0.5158
 8152SOL    HW236093   3.286   2.590   0.330 -0.2005  0.6620 -1.3289
 8153SOL     OW36094   1.011   0.404   5.520  0.0568 -0.5994 -0.1882
 8153SOL    HW136095   1.067   0.450   5.458  0.4684  0.7578  1.1779
 8153SOL    HW236096   0.983   0.476   5.577  1.1403  0.1623 -0.6269
 8154SOL     OW36097   2.188   0.933   4.870  0.3393  0.0397 -0.1738
 8154SOL    HW136098   2.218   0.863   4.812 -1.3399 -1.6931  1.0234
 8154SOL    HW236099   2.156   0.872   4.937 -0.9058  0.4121 -0.4357
 8155SOL     OW36100   3.436   4.127   5.005 -0.0845  0.2113  0.7423
 8155SOL    HW136101   3.432   4.040   4.964 -0.8257  0.9917 -0.8408
 8155SOL    HW236102   3.468   4.173   4.928 -0.9481 -1.6548 -0.7414
 8156SOL     OW36103   4.480   1.316   2.614 -0.5903 -0.2141 -0.9632
 8156SOL    HW136104   4.400   1.364   2.633 -0.1769 -2.2773  5.7000
 8156SOL    HW236105   4.471   1.317   2.518  0.2377 -2.3782 -1.0663
 8157SOL     OW36106   2.062   1.540   8.310  0.4628 -0.6552 -0.6044
 8157SOL    HW136107   2.066   1.625   8.354 -2.5803 -0.5873 -0.4967
 8157SOL    HW236108   1.971   1.521   8.330  1.4896 -2.9091  1.9341
 8158SOL     OW36109   1.016   2.522   3.977 -0.1478 -0.1440 -0.3151
 8158SOL    HW136110   0.948   2.590   3.978 -1.1795 -1.1844  0.9035
 8158SOL    HW236111   1.057   2.545   4.061  0.7440 -1.5080 -0.3713
 8159SOL     OW36112   4.133   0.804   4.075  1.0379 -0.2432  0.1907
 8159SOL    HW136113   4.087   0.741   4.021  0.5517  0.0627  0.2493
 8159SOL    HW236114   4.102   0.782   4.163 -0.5364 -3.8080 -1.2918
 8160SOL     OW36115   0.379   1.892   6.395 -0.1433 -0.0453  0.6582
 8160SOL    HW136116   0.318   1.825   6.363  1.7532 -1.4370 -0.0732
 8160SOL    HW236117   0.336   1.972   6.367 -2.0670 -0.6677  1.8706
 8161SOL     OW36118   2.506   0.061   5.658 -0.3524 -0.5388  0.0769
 8161SOL    HW136119   2.539   0.124   5.594 -1.7554  0.3399  0.2220
 8161SOL    HW236120   2.510   4.719   5.602 -1.6233  1.1306 -2.3099
 8162SOL     OW36121   0.710   3.533   9.287  0.0069 -0.2965 -0.0380
 8162SOL    HW136122   0.648   3.535   9.360  1.7253  0.5411  1.3805
 8162SOL    HW236123   0.647   3.496   9.226 -1.4094 -1.1082  1.9332
 8163SOL     OW36124   3.223   4.691   8.676 -0.7861 -0.5488  0.3411
 8163SOL    HW136125   3.144   0.004   8.700  0.0848  1.2775 -0.5282
 8163SOL    HW236126   3.245   4.733   8.594 -1.3719  0.9252  0.9464
 8164SOL     OW36127   0.031   2.083   8.604  0.2613 -0.2336  0.3979
 8164SOL    HW136128   4.701   2.121   8.545  1.4997 -0.6784 -1.2433
 8164SOL    HW236129   4.716   2.111   8.681  0.1729  1.6276 -0.3333
 8165SOL     OW36130   1.039   4.726  13.238  0.2000 -0.2970  0.1586
 8165SOL    HW136131   1.024   0.059  13.302 -0.9127 -1.1091  0.7606
 8165SOL    HW236132   1.125   0.014  13.201 -0.0245 -1.9417 -1.4363
 8166SOL     OW36133   3.059   0.634   2.165  0.1370 -0.2627  0.5824
 8166SOL    HW136134   3.137   0.665   2.120 -0.2514  0.3240  0.2987
 8166SOL    HW236135   2.998   0.616   2.093  1.2999  0.9173 -0.6958
 8167SOL     OW36136   1.118   2.363   6.527 -0.1973 -0.8773 -0.2465
 8167SOL    HW136137   1.211   2.346   6.542  0.0214  1.7149  1.4539
 8167SOL    HW236138   1.095   2.307   6.452 -0.1178 -0.1976 -0.7834
 8168SOL     OW36139   2.951   0.259   4.113 -0.4474  0.4742 -0.3775
 8168SOL    HW136140   2.866   0.253   4.157  1.0526  0.0829  2.4795
 8168SOL    HW236141   2.976   0.336   4.165  0.3904  1.0705 -1.6684
 8169SOL     OW36142   3.599   1.769  10.337  0.0584 -0.1547  0.2198
 8169SOL    HW136143   3.623   1.704  10.271  1.4661 -0.4899  1.0794
 8169SOL    HW236144   3.523   1.812  10.297 -0.0228 -1.0816 -0.6254
 8170SOL     OW36145   2.762   3.894   9.843  0.3895 -0.6306 -0.2851
 8170SOL    HW136146   2.756   3.819   9.784  0.4687  0.5698 -1.8092
 8170SOL    HW236147   2.795   3.859   9.926 -0.8366 -2.7060 -0.6740
 8171SOL     OW36148   0.685   4.394   6.501  0.2099  0.6295 -0.5914
 8171SOL    HW136149   0.647   4.480   6.522 -0.7101  0.6362 -2.2257
 8171SOL    HW236150   0.612   4.336   6.478  1.8612 -1.8775  0.5652
 8172SOL     OW36151   4.048   1.657   7.323  0.1932  0.3177 -0.4997
 8172SOL    HW136152   4.032   1.589   7.258 -0.1715  1.5036 -1.6606
 8172SOL    HW236153   3.970   1.654   7.379  0.3306 -1.2951 -0.4001
 8173SOL     OW36154   3.712   2.625   4.754  0.2762 -0.6463  0.2056
 8173SOL    HW136155   3.709   2.529   4.759 -0.1826 -0.6414  0.0180
 8173SOL    HW236156   3.784   2.641   4.816 -0.0758 -2.3059  1.0612
 8174SOL     OW36157   1.670   0.658   0.573  0.2459  0.1850  0.4375
 8174SOL    HW136158   1.620   0.679   0.651 -0.1571 -0.7658  0.4290
 8174SOL    HW236159   1.610   0.587   0.552  1.6405 -1.2540  1.2784
 8175SOL     OW36160   0.400   3.995   7.329  0.2412 -0.3122 -0.1921
 8175SOL    HW136161   0.406   3.979   7.235 -3.2329  0.9807 -0.6560
 8175SOL    HW236162   0.312   3.973   7.359  0.4995 -1.6788 -0.4324
 8176SOL     OW36163   3.539   0.205   7.177 -0.1196 -0.0113  0.1891
 8176SOL    HW136164   3.458   0.202   7.227 -0.4447  0.3852 -0.3123
 8176SOL    HW236165   3.545   0.115   7.146  2.4762  0.2810 -0.1722
 8177SOL     OW36166   0.461   3.486  16.687 -0.9806  0.3875  0.3919
 8177SOL    HW136167   0.453   3.392  16.707 -0.8118 -0.0686 -1.6420
 8177SOL    HW236168   0.528   3.509  16.751  0.1470  1.5217 -1.2008
 8178SOL     OW36169   4.350   0.337   8.259 -0.1633  0.2355 -0.0114
 8178SOL    HW136170   4.260   0.369   8.261 -0.1667  0.2047  0.2945
 8178SOL    HW236171   4.387   0.410   8.307 -0.7356  1.4775 -1.4693
 8179SOL     OW36172   4.367   1.372   7.241  0.9321 -0.1196 -0.4410
 8179SOL    HW136173   4.355   1.348   7.333 -2.5578 -0.2322 -0.9266
 8179SOL    HW236174   4.416   1.297   7.208  0.4720 -0.7279  0.2481
 8180SOL     OW36175   1.204   3.660   2.147 -0.5515 -0.0025 -0.1654
 8180SOL    HW136176   1.126   3.707   2.118  1.5925  1.6302 -3.2502
 8180SOL    HW236177   1.246   3.637   2.064  0.9257  0.1177  0.5392
 8181SOL     OW36178   0.646   1.831   1.700 -0.0117 -0.0952  0.5564
 8181SOL    HW136179   0.722   1.849   1.755 -1.6691  0.7177  2.5676
 8181SOL    HW236180   0.631   1.737   1.697 -1.8367  0.3650 -5.5250
 8182SOL     OW36181   1.041   3.166   7.652 -0.3305  0.0171  0.2077
 8182SOL    HW136182   1.109   3.178   7.718  1.4484  0.4589 -1.7017
 8182SOL    HW236183   0.961   3.158   7.703  0.1950  2.0202  1.3249
 8183SOL     OW36184   3.121   1.729   2.112  0.1920  0.0973  0.7766
 8183SOL    HW136185   3.033   1.706   2.082  0.4242  1.1974 -0.7550
 8183SOL    HW236186   3.149   1.786   2.041 -0.0502 -0.7695 -0.0189
 8184SOL     OW36187   0.001   0.045   3.401 -0.1479  0.0949 -0.5691
 8184SOL    HW136188   0.023   0.071   3.312  1.4690 -2.8022 -0.9856
 8184SOL    HW236189   0.087   0.033   3.441  0.2994  0.7538 -1.3376
 8185SOL     OW36190   2.642   1.818   2.454  0.0107  0.0629  0.2036
 8185SOL    HW136191   2.652   1.846   2.363 -0.6193  0.0422  0.1318
 8185SOL    HW236192   2.573   1.751   2.451 -0.1107  0.2074 -0.2799
 8186SOL     OW36193   0.331   1.790   7.698  1.2686  0.6162 -0.2910
 8186SOL    HW136194   0.256   1.849   7.695 -0.4452 -1.7328 -2.7974
 8186SOL    HW236195   0.320   1.766   7.790  0.0929  0.6005 -0.4317
 8187SOL     OW36196   1.619   2.767   9.434 -0.2102  0.6479 -0.0788
 8187SOL    HW136197   1.715   2.759   9.430 -0.4126 -1.6883 -0.2339
 8187SOL    HW236198   1.618   2.816   9.516  2.4464  0.2379  0.2065
 8188SOL     OW36199   3.181   3.788   4.249  0.4735  0.2702 -0.5488
 8188SOL    HW136200   3.238   3.846   4.298 -1.5443  0.5843  1.4422
 8188SOL    HW236201   3.162   3.720   4.314  1.0172 -0.0387 -0.7108
 8189SOL     OW36202   1.733   4.285   5.220 -0.1682 -0.5618 -0.2452
 8189SOL    HW136203   1.828   4.275   5.221 -0.1920 -0.9088 -1.2962
 8189SOL    HW236204   1.703   4.208   5.269 -0.6870  1.0096  1.9284
 8190SOL     OW36205   4.473   4.650   5.719 -0.2333 -0.1835  0.1715
 8190SOL    HW136206   4.416   4.607   5.782  0.0056 -0.9815 -0.1593
 8190SOL    HW236207   4.409   4.704   5.672 -1.0311 -0.0263  1.4491
 8191SOL     OW36208   2.848   1.749  11.775  0.3797  0.1716 -0.5887
 8191SOL    HW136209   2.902   1.764  11.697 -2.3671  0.5301 -2.4064
 8191SOL    HW236210   2.902   1.787  11.844 -1.6697  0.8716  0.6330
 8192SOL     OW36211   0.723   0.611   5.628 -0.1704 -0.1585 -0.5040
 8192SOL    HW136212   0.732   0.519   5.655  1.8749  0.7404  1.9092
 8192SOL    HW236213   0.814   0.641   5.631 -0.1894 -0.2356  0.6833
 8193SOL     OW36214   4.619   0.268   9.028 -0.1797  0.9726 -0.3153
 8193SOL    HW136215   4.536   0.308   9.002 -0.9810 -0.5513 -0.0534
 8193SOL    HW236216   4.627   0.306   9.116  0.0890 -2.6198  1.2070
 8194SOL     OW36217   2.365   2.835  17.268  0.4501  0.3648 -0.2115
 8194SOL    HW136218   2.446   2.863  17.226 -1.5099  1.5875 -3.2367
 8194SOL    HW236219   2.367   2.741  17.251  0.4434  0.3802 -0.2975
 8195SOL     OW36220   0.783   4.074  11.555 -0.7817  0.3434 -0.2191
 8195SOL    HW136221   0.796   3.983  11.530 -1.4983  0.7321 -2.0252
 8195SOL    HW236222   0.846   4.109  11.491  0.0446 -0.7068  0.0310
 8196SOL     OW36223   0.174   0.813   3.036  0.2010 -0.0253 -0.1837
 8196SOL    HW136224   0.213   0.883   3.088  0.7493  0.4395 -1.2068
 8196SOL    HW236225   0.081   0.823   3.056 -0.0571  0.6926 -1.7183
 8197SOL     OW36226   3.689   2.920  13.025 -0.5196 -0.4035 -0.4246
 8197SOL    HW136227   3.712   2.943  13.114 -3.0173  3.7096 -0.8272
 8197SOL    HW236228   3.646   2.836  13.039  1.1077 -1.0010  0.9458
 8198SOL     OW36229   3.400   2.651  11.347 -0.0307 -0.2701  0.1927
 8198SOL    HW136230   3.404   2.735  11.301 -0.0119  0.8047  2.1049
 8198SOL    HW236231   3.352   2.689  11.420 -0.4141  2.6371 -1.5918
 8199SOL     OW36232   2.337   3.576   0.501  0.1852  0.1141 -0.1598
 8199SOL    HW136233   2.326   3.663   0.540  0.3050 -0.4545  1.1398
 8199SOL    HW236234   2.405   3.549   0.562  0.4803  1.2471  0.0222
 8200SOL     OW36235   2.131   4.428  16.876 -0.6753  0.8783 -0.0198
 8200SOL    HW136236   2.189   4.488  16.829 -1.4801  2.3212  0.8272
 8200SOL    HW236237   2.192   4.369  16.921 -2.7109 -0.8262  0.4765
 8201SOL     OW36238   2.192   3.466   5.148 -0.4746  0.0558 -0.2323
 8201SOL    HW136239   2.160   3.527   5.214 -0.7846 -0.3017 -0.0506
 8201SOL    HW236240   2.138   3.388   5.163  1.2962 -0.7457  1.8744
 8202SOL     OW36241   1.597   2.043   9.562 -0.0284  0.9972  0.0900
 8202SOL    HW136242   1.526   1.984   9.588  1.9986 -0.8275  1.4761
 8202SOL    HW236243   1.598   2.032   9.467  2.2896  0.5780  0.1714
 8203SOL     OW36244   2.367   2.910   3.039  0.5821  0.4496 -0.7024
 8203SOL    HW136245   2.334   2.822   3.058 -1.0363  0.9666 -1.1275
 8203SOL    HW236246   2.281   2.943   3.016  0.3216  1.4805  1.6930
 8204SOL     OW36247   0.129   3.505   7.827  0.2084  0.2223 -0.8911
 8204SOL    HW136248   0.171   3.559   7.895 -0.0476  1.4652 -1.7131
 8204SOL    HW236249   0.120   3.422   7.874  1.3108  0.0301 -1.0047
 8205SOL     OW36250   4.015   3.542   1.507  0.3408 -0.4788  0.3672
 8205SOL    HW136251   4.084   3.594   1.466 -3.9012  3.6809 -1.6067
 8205SOL    HW236252   4.050   3.550   1.595  0.4738  1.9609  0.0936
 8206SOL     OW36253   2.883   4.636   5.550  0.8517 -0.2969 -0.1121
 8206SOL    HW136254   2.940   4.585   5.607  0.3144 -1.1408 -0.3281
 8206SOL    HW236255   2.912   4.724   5.572  1.5649 -1.1084  2.2171
 8207SOL     OW36256   2.821   3.852   1.699 -0.5090 -0.6125  0.0141
 8207SOL    HW136257   2.812   3.892   1.785  1.3968 -0.3874  0.1198
 8207SOL    HW236258   2.819   3.765   1.739 -1.3617 -0.6241 -0.0596
 8208SOL     OW36259   0.339   2.261   7.327  0.6059  0.1768 -0.2536
 8208SOL    HW136260   0.405   2.258   7.396 -0.4238 -0.6112  0.6944
 8208SOL    HW236261   0.404   2.247   7.258  0.9562 -0.3484  0.1763
 8209SOL     OW36262   1.379   2.299   6.603  0.1342 -0.0156 -0.0947
 8209SOL    HW136263   1.397   2.236   6.673 -0.4678 -1.6901 -1.4517
 8209SOL    HW236264   1.422   2.376   6.640 -1.7004  0.4306  1.0839
 8210SOL     OW36265   1.094   3.424   4.087  0.2577 -0.2421 -0.7707
 8210SOL    HW136266   1.117   3.471   4.167 -0.6286 -1.3278  0.1157
 8210SOL    HW236267   1.092   3.333   4.119  0.3830  0.3366  0.8453
 8211SOL     OW36268   2.130   4.101   1.956  0.0422  0.4442 -0.1083
 8211SOL    HW136269   2.093   4.126   2.041 -1.7124 -0.7963 -0.5031
 8211SOL    HW236270   2.206   4.157   1.941  1.0015 -0.9215 -0.3009
 8212SOL     OW36271   4.161   3.095   4.014 -0.1285  0.2072 -0.1755
 8212SOL    HW136272   4.114   3.176   3.991 -0.4455 -0.0199 -0.3208
 8212SOL    HW236273   4.249   3.120   3.988  0.1925 -0.7961 -0.0488
 8213SOL     OW36274   0.786   0.141   4.626 -0.5243 -0.5928 -0.0795
 8213SOL    HW136275   0.695   0.143   4.598 -1.3957 -0.4749  2.7241
 8213SOL    HW236276   0.807   0.052   4.598 -0.4129 -0.8104  0.6727
 8214SOL     OW36277   2.637   4.623   0.742  0.0540 -0.1182 -0.5590
 8214SOL    HW136278   2.730   4.646   0.733  0.0450 -0.3883 -1.3864
 8214SOL    HW236279   2.597   4.662   0.664 -4.0162 -0.6762  1.2301
 8215SOL     OW36280   0.169   2.049   7.299 -0.2862  0.0534 -0.1952
 8215SOL    HW136281   0.249   2.101   7.312  0.3099 -0.8564 -0.1732
 8215SOL    HW236282   0.100   2.110   7.325 -0.4279  0.0538 -0.5754
 8216SOL     OW36283   0.629   1.021   2.137 -0.0946 -0.0834 -0.3375
 8216SOL    HW136284   0.549   0.970   2.152  0.2944  0.2768  2.9451
 8216SOL    HW236285   0.688   0.955   2.101 -0.2740  0.1385 -1.0377
 8217SOL     OW36286   2.944   1.441   7.217 -0.6619  0.3720 -0.1481
 8217SOL    HW136287   2.966   1.520   7.167  2.0147 -0.1448  0.2115
 8217SOL    HW236288   2.856   1.465   7.247 -1.8769 -1.8105 -1.9513
 8218SOL     OW36289   4.622   2.333   4.720  0.3663 -0.5789  0.1014
 8218SOL    HW136290   4.705   2.299   4.754  0.8008 -0.2765 -0.6663
 8218SOL    HW236291   4.624   2.421   4.758  0.2223 -0.7801  0.5766
 8219SOL     OW36292   1.928   2.566  17.519 -0.0726 -0.0542  1.0705
 8219SOL    HW136293   2.018   2.557  17.488 -0.4902  0.0794 -0.1658
 8219SOL    HW236294   1.880   2.494  17.476 -0.0674  1.3729 -1.3067
 8220SOL     OW36295   1.352   2.512   7.798  0.5556 -0.1152 -0.0385
 8220SOL    HW136296   1.409   2.586   7.819  0.3499 -0.1383  0.6001
 8220SOL    HW236297   1.268   2.554   7.817 -0.6362 -2.1393 -0.8218
 8221SOL     OW36298   4.114   1.759   8.530  0.1214  0.0842  0.0375
 8221SOL    HW136299   4.067   1.693   8.480 -3.4353  2.9952 -0.4640
 8221SOL    HW236300   4.187   1.702   8.555  0.7599  1.4463  1.2476
 8222SOL     OW36301   3.572   0.591   8.366  0.0831 -0.7552  0.4687
 8222SOL    HW136302   3.577   0.651   8.291  1.2308 -1.0618  0.3011
 8222SOL    HW236303   3.592   0.506   8.326  3.1739 -0.3705  1.1746
 8223SOL     OW36304   2.884   0.040  12.502 -0.3254 -0.4128  0.1659
 8223SOL    HW136305   2.823   0.046  12.576 -0.1292 -0.6201  0.3431
 8223SOL    HW236306   2.825   0.069  12.432 -1.5459  1.1821  1.8550
 8224SOL     OW36307   3.663   4.126  15.678  0.1741  0.3779 -0.1798
 8224SOL    HW136308   3.608   4.183  15.731  3.6268  1.3793  2.2985
 8224SOL    HW236309   3.687   4.186  15.608 -0.2547  0.9115  0.1268
 8225SOL     OW36310   2.787   0.200  13.132 -0.0830  0.0605 -0.0301
 8225SOL    HW136311   2.756   0.170  13.218 -0.6238 -0.6810 -0.4857
 8225SOL    HW236312   2.866   0.251  13.152 -0.9853  0.8487  1.5628
 8226SOL     OW36313   2.345   2.792   0.986 -0.3909 -0.3067  0.0058
 8226SOL    HW136314   2.406   2.731   0.946  0.2759 -0.2076  0.8797
 8226SOL    HW236315   2.272   2.791   0.924 -1.5167  1.0130  1.3286
 8227SOL     OW36316   1.585   2.126  11.232  0.1661 -1.0434  0.2090
 8227SOL    HW136317   1.539   2.094  11.154  0.8575 -2.3483  0.3420
 8227SOL    HW236318   1.598   2.050  11.287 -1.5683 -0.8130  0.9378
 8228SOL     OW36319   3.239   2.404   4.184  0.3656 -0.0475 -0.2126
 8228SOL    HW136320   3.166   2.342   4.176 -0.1612  0.5797 -0.1920
 8228SOL    HW236321   3.192   2.487   4.188  0.3360 -0.0976  0.4517
 8229SOL     OW36322   1.203   4.435  17.059  0.5745 -0.1649  0.2093
 8229SOL    HW136323   1.254   4.427  17.140 -0.6578 -2.6279  0.7158
 8229SOL    HW236324   1.116   4.398  17.075  0.5994 -0.8051 -1.1280
 8230SOL     OW36325   2.150   3.300  15.369 -0.3513  0.5216  0.1089
 8230SOL    HW136326   2.078   3.360  15.390 -0.3785  0.3344  0.5590
 8230SOL    HW236327   2.225   3.340  15.411  0.9179 -0.5831 -1.0870
 8231SOL     OW36328   2.474   0.479   3.302 -0.0194 -0.3552  0.3512
 8231SOL    HW136329   2.488   0.462   3.209 -0.3765  2.6366 -0.2700
 8231SOL    HW236330   2.557   0.525   3.318  0.6850 -1.1029 -1.1797
 8232SOL     OW36331   0.423   1.823  17.545  0.0407  0.4118  0.4804
 8232SOL    HW136332   0.350   1.817  17.607 -0.5366  0.3765 -0.2057
 8232SOL    HW236333   0.503   1.847  17.593 -0.0439 -1.8682  1.7373
 8233SOL     OW36334   3.476   0.606  12.558  0.2271  0.4600 -0.3009
 8233SOL    HW136335   3.417   0.680  12.545 -1.7531 -1.4597 -2.1775
 8233SOL    HW236336   3.483   0.574  12.468 -3.4146  1.6307 -0.9837
 8234SOL     OW36337   2.484   1.783   0.992  0.2027 -0.8767 -0.8181
 8234SOL    HW136338   2.488   1.744   0.905 -0.9291  1.1132 -1.7698
 8234SOL    HW236339   2.577   1.800   1.004 -0.2970  0.3286  1.5277
 8235SOL     OW36340   4.519   2.046   6.383  0.7569 -0.1581 -0.2669
 8235SOL    HW136341   4.440   2.021   6.431  0.4183  3.0407  0.8963
 8235SOL    HW236342   4.565   1.964   6.364  0.5598 -0.5580  0.9541
 8236SOL     OW36343   3.430   0.203   4.903  0.3726  0.3975 -0.3109
 8236SOL    HW136344   3.488   0.170   4.834 -1.0907  0.5822 -1.6200
 8236SOL    HW236345   3.500   0.229   4.964 -1.0958  2.3680  0.5234
 8237SOL     OW36346   3.583   3.405   0.989 -0.1132  0.3939  0.0182
 8237SOL    HW136347   3.672   3.440   0.997 -0.2344  0.3153  1.8059
 8237SOL    HW236348   3.591   3.318   0.949  0.7685  0.5504 -0.1408
 8238SOL     OW36349   0.881   2.560   6.402  0.1386 -0.0996 -0.2702
 8238SOL    HW136350   0.844   2.501   6.468  0.4302  1.3080  1.1255
 8238SOL    HW236351   0.798   2.585   6.359  0.0559  1.1148  0.6055
 8239SOL     OW36352   4.041   4.421   4.807 -0.5005  0.0153 -0.2071
 8239SOL    HW136353   4.066   4.511   4.826 -1.6596  0.6363 -1.7222
 8239SOL    HW236354   3.953   4.431   4.773 -1.6936 -0.4564  2.6790
 8240SOL     OW36355   0.030   0.622   4.112 -0.2568 -0.3451 -0.0371
 8240SOL    HW136356   0.048   0.710   4.078 -0.6909 -0.7819 -1.3853
 8240SOL    HW236357   0.088   0.567   4.059 -0.2108  0.5970 -0.9562
 8241SOL     OW36358   0.159   4.241  14.112 -0.3124 -0.2786  0.4223
 8241SOL    HW136359   0.254   4.240  14.110 -0.2972  1.7994  1.3598
 8241SOL    HW236360   0.138   4.212  14.023 -0.2272 -1.2703  0.7256
 8242SOL     OW36361   3.370   3.109   9.816  1.0792 -0.0295 -0.5121
 8242SOL    HW136362   3.280   3.133   9.838  1.3632  1.2835 -0.7627
 8242SOL    HW236363   3.414   3.110   9.901  1.6594 -1.1848 -0.7935
 8243SOL     OW36364   1.663   3.676  16.654 -0.4457 -0.3244 -0.1932
 8243SOL    HW136365   1.578   3.633  16.651 -1.2780  1.4149 -1.7595
 8243SOL    HW236366   1.708   3.622  16.719  1.1692  1.0333 -0.1706
 8244SOL     OW36367   4.476   2.215  16.182 -0.1906 -0.1420 -0.0631
 8244SOL    HW136368   4.523   2.208  16.099 -1.8325 -2.3417 -0.8112
 8244SOL    HW236369   4.469   2.120  16.193  1.2684 -0.5641 -2.6610
 8245SOL     OW36370   2.670   0.768   6.448  0.5969  0.0992 -0.0996
 8245SOL    HW136371   2.656   0.781   6.542 -0.6693 -0.4318 -0.2156
 8245SOL    HW236372   2.592   0.812   6.416 -0.0860 -0.4591  0.7981
 8246SOL     OW36373   0.517   0.105   4.576  0.4570  0.1141  0.5370
 8246SOL    HW136374   0.477   0.168   4.516 -2.5850 -0.1641  2.3022
 8246SOL    HW236375   0.438   0.074   4.619  0.0045 -1.6146 -1.5542
 8247SOL     OW36376   2.388   4.600   2.323 -0.0756  0.5829  0.7439
 8247SOL    HW136377   2.375   4.682   2.276 -0.6133  0.9128  1.4860
 8247SOL    HW236378   2.296   4.575   2.329 -0.4635  1.4693 -1.2627
 8248SOL     OW36379   1.219   1.845   5.595 -0.5848  0.3079  0.2462
 8248SOL    HW136380   1.253   1.809   5.677  2.1363  2.8481  0.2645
 8248SOL    HW236381   1.295   1.891   5.558 -0.2028 -0.4805  0.0430
 8249SOL     OW36382   1.327   1.384   3.372 -0.8553  0.2167  0.4811
 8249SOL    HW136383   1.240   1.405   3.405 -0.8338 -0.2831  0.8569
 8249SOL    HW236384   1.304   1.300   3.332 -0.4017  0.2457  0.1650
 8250SOL     OW36385   1.416   2.171  14.274 -0.1399  0.1348  0.1084
 8250SOL    HW136386   1.345   2.144  14.216 -0.3310 -0.4499  0.6131
 8250SOL    HW236387   1.375   2.253  14.301 -1.8432 -0.0628 -1.8283
 8251SOL     OW36388   3.701   1.039   5.472  0.5551  0.4267 -0.2728
 8251SOL    HW136389   3.666   1.073   5.390  1.9243  1.1596 -0.5427
 8251SOL    HW236390   3.795   1.043   5.457  0.8900 -2.4408  1.1242
 8252SOL     OW36391   2.862   3.253   8.112  0.1087 -0.1319 -0.0796
 8252SOL    HW136392   2.930   3.224   8.051 -0.9602 -2.7267 -0.0343
 8252SOL    HW236393   2.910   3.309   8.173  0.9921 -0.3668 -0.5666
 8253SOL     OW36394   2.511   4.632   4.631 -0.4444  0.5196  0.4479
 8253SOL    HW136395   2.596   4.597   4.658  0.0892 -0.0213 -1.9488
 8253SOL    HW236396   2.533   4.725   4.634 -2.2422  0.9691 -0.6607
 8254SOL     OW36397   2.638   4.730   7.087  0.0059 -0.1061  0.4317
 8254SOL    HW136398   2.631   4.730   6.991  2.2093 -0.4568  0.2626
 8254SOL    HW236399   2.730   0.017   7.103 -0.6443  0.5259  3.2621
 8255SOL     OW36400   3.681   4.363   8.901  0.6577  0.0070 -0.1519
 8255SOL    HW136401   3.592   4.361   8.935  0.7075  1.0592  0.0259
 8255SOL    HW236402   3.677   4.417   8.822  1.8186  0.3445  0.0220
 8256SOL     OW36403   4.083   1.170  16.637  0.0615 -0.4680 -0.4245
 8256SOL    HW136404   4.088   1.245  16.577 -0.4579 -0.6790 -0.7312
 8256SOL    HW236405   4.107   1.100  16.577  1.4633  0.3184 -0.7791
 8257SOL     OW36406   3.833   1.815   5.363  0.6302 -0.1031  0.3499
 8257SOL    HW136407   3.743   1.843   5.345 -0.9475 -4.0694  2.0743
 8257SOL    HW236408   3.823   1.797   5.456 -0.7308 -3.0475 -0.3552
 8258SOL     OW36409   1.439   0.125   8.653 -0.1552  0.0180 -0.7463
 8258SOL    HW136410   1.470   0.216   8.657  2.3367 -0.8491 -0.3419
 8258SOL    HW236411   1.354   0.145   8.692  0.6154  0.5243  0.6789
 8259SOL     OW36412   1.477   2.373  15.372 -0.1901  0.3993 -0.5456
 8259SOL    HW136413   1.502   2.447  15.427  1.5142 -2.5735  2.6713
 8259SOL    HW236414   1.425   2.427  15.312 -0.8799  1.0323  0.6196
 8260SOL     OW36415   4.721   0.896   3.991 -0.3081  0.3479 -0.0270
 8260SOL    HW136416   4.632   0.862   4.001 -0.5327  0.7791 -0.5315
 8260SOL    HW236417   4.725   0.906   3.896  1.0871 -0.2360 -0.0224
 8261SOL     OW36418   4.474   1.169   7.054  0.3338  0.1300  0.0515
 8261SOL    HW136419   4.534   1.238   7.028  2.5284 -1.8414 -0.1653
 8261SOL    HW236420   4.499   1.086   7.013 -0.2824 -0.0990  0.1301
 8262SOL     OW36421   0.845   2.796   1.253  0.5391 -0.6438  0.2468
 8262SOL    HW136422   0.773   2.795   1.317  0.8595 -2.1641  0.5771
 8262SOL    HW236423   0.899   2.865   1.293  0.3676  1.0261 -2.3644
 8263SOL     OW36424   1.307   4.126   2.353 -0.2367  0.4990 -0.0358
 8263SOL    HW136425   1.259   4.133   2.271 -2.1406  0.5645  1.0786
 8263SOL    HW236426   1.284   4.037   2.381 -0.9488  0.1097 -1.9045
 8264SOL     OW36427   4.364   1.698  10.280 -0.3124 -0.2798  0.4308
 8264SOL    HW136428   4.385   1.630  10.344  1.5039  0.4815  0.6342
 8264SOL    HW236429   4.409   1.770  10.324 -2.2709  1.6953 -0.7706
 8265SOL     OW36430   3.707   2.864   1.488  0.0343  0.0715  0.2689
 8265SOL    HW136431   3.671   2.880   1.401  0.6622  0.2222  0.0396
 8265SOL    HW236432   3.632   2.901   1.535  0.6207  2.9652 -1.0243
 8266SOL     OW36433   1.425   3.277   2.775 -0.9210 -0.3813 -0.4960
 8266SOL    HW136434   1.333   3.258   2.788 -1.0095  0.3002 -0.1067
 8266SOL    HW236435   1.422   3.368   2.806 -0.7927 -0.9295  1.1391
 8267SOL     OW36436   2.428   3.060   3.287 -0.3797 -0.2857  0.4229
 8267SOL    HW136437   2.417   3.007   3.208 -1.1796 -0.7256  0.8230
 8267SOL    HW236438   2.442   3.144   3.242 -1.8958  0.3732  1.1761
 8268SOL     OW36439   1.355   3.188  15.684  0.1180  0.1698  0.3278
 8268SOL    HW136440   1.406   3.137  15.621  0.1862 -1.6481  1.8322
 8268SOL    HW236441   1.272   3.205  15.640 -0.1436 -0.7513  0.4592
 8269SOL     OW36442   0.684   2.062   0.605  0.0215  0.3665 -0.3505
 8269SOL    HW136443   0.721   2.142   0.568  1.0703  0.6498  1.3471
 8269SOL    HW236444   0.597   2.050   0.566  0.1434 -0.0294 -0.5011
 8270SOL     OW36445   3.116   4.094  17.106  0.6018 -0.8802 -0.3876
 8270SOL    HW136446   3.177   4.090  17.179 -0.3739 -0.1549  0.4730
 8270SOL    HW236447   3.042   4.047  17.143 -1.1804  0.7587 -1.8020
 8271SOL     OW36448   4.470   2.659   1.622  0.6288 -0.1108  0.6367
 8271SOL    HW136449   4.408   2.718   1.664 -0.0455  0.8916 -1.7807
 8271SOL    HW236450   4.535   2.672   1.692  0.7081 -0.8096  0.6909
 8272SOL     OW36451   3.734   1.023   4.180  0.5047  0.0021 -0.3867
 8272SOL    HW136452   3.798   0.954   4.164 -0.8678 -1.3537  0.0873
 8272SOL    HW236453   3.652   0.989   4.146 -0.3066 -1.7094  3.2968
 8273SOL     OW36454   0.219   3.277   4.835  0.1598  0.4862  0.7726
 8273SOL    HW136455   0.180   3.208   4.782 -0.8969  1.5494  0.1497
 8273SOL    HW236456   0.299   3.232   4.860 -0.3781 -1.5443 -1.1733
 8274SOL     OW36457   2.913   1.987   7.931 -0.6628  0.7026 -0.0091
 8274SOL    HW136458   2.931   2.076   7.898  0.5677  0.1927 -0.7225
 8274SOL    HW236459   2.994   1.943   7.905 -2.0321  0.2936 -3.5787
 8275SOL     OW36460   2.275   3.169   8.365  0.3116 -0.0582 -0.1481
 8275SOL    HW136461   2.194   3.181   8.315 -0.4421 -0.0868  1.0720
 8275SOL    HW236462   2.332   3.234   8.324  1.5065 -1.0330 -0.0288
 8276SOL     OW36463   2.099   3.039  17.113 -0.5903 -0.0816 -0.1126
 8276SOL    HW136464   2.026   3.008  17.059 -2.1358  2.5035  0.4972
 8276SOL    HW236465   2.167   3.024  17.047 -1.5158 -0.8145 -0.9062
 8277SOL     OW36466   4.283   1.285   7.992 -0.0081  0.1309 -0.5967
 8277SOL    HW136467   4.343   1.213   8.008  1.8529  1.5516 -1.2079
 8277SOL    HW236468   4.220   1.278   8.064  0.6930 -1.9028 -0.1825
 8278SOL     OW36469   1.797   2.996  11.367  0.4799  0.3258 -0.7024
 8278SOL    HW136470   1.773   2.911  11.331 -0.4597 -0.1017  0.9463
 8278SOL    HW236471   1.720   3.046  11.342 -0.3774 -0.0152  1.2884
 8279SOL     OW36472   2.844   1.799   2.625  0.2618 -0.7197 -0.3892
 8279SOL    HW136473   2.768   1.797   2.567 -2.0826 -1.2312  2.6835
 8279SOL    HW236474   2.875   1.709   2.631 -1.4450 -1.2429  0.9423
 8280SOL     OW36475   1.203   2.759   7.275  0.0625  0.1813 -0.3428
 8280SOL    HW136476   1.118   2.801   7.281 -0.0336 -0.2056  1.0566
 8280SOL    HW236477   1.216   2.739   7.368  0.1867 -0.4750 -0.4997
 8281SOL     OW36478   4.462   3.980   8.832 -0.1395  0.2670  0.3664
 8281SOL    HW136479   4.499   4.066   8.813  0.4254  0.5590  2.7764
 8281SOL    HW236480   4.500   3.929   8.760  0.5421  0.8912  0.2876
 8282SOL     OW36481   3.966   4.446   8.818 -0.1974  0.2040 -0.3413
 8282SOL    HW136482   3.893   4.444   8.756 -0.7543 -0.1742  0.3395
 8282SOL    HW236483   3.978   4.541   8.830  1.4839  0.1928 -1.8988
 8283SOL     OW36484   2.947   4.495   1.979  0.2359 -0.8466 -0.0034
 8283SOL    HW136485   2.874   4.491   1.917  1.1291 -1.0401 -1.0310
 8283SOL    HW236486   2.903   4.505   2.064 -0.2483 -0.0597 -0.3485
 8284SOL     OW36487   4.571   3.811   0.627  0.1876 -0.3465 -0.1510
 8284SOL    HW136488   4.549   3.808   0.720  2.5831  1.2706  0.4549
 8284SOL    HW236489   4.603   3.720   0.624 -0.5920 -0.6590  0.9833
 8285SOL     OW36490   1.502   4.142   0.532  0.4377 -0.0254 -0.5970
 8285SOL    HW136491   1.548   4.225   0.542  0.0013  0.0004  1.2588
 8285SOL    HW236492   1.555   4.094   0.596 -1.7703 -1.0641  0.4731
 8286SOL     OW36493   4.540   0.883  16.096  0.4507 -0.0979  0.4443
 8286SOL    HW136494   4.519   0.875  16.189 -2.3011  0.8600 -0.0814
 8286SOL    HW236495   4.479   0.956  16.081 -1.4777 -1.1570  3.0168
 8287SOL     OW36496   3.685   4.338  10.551 -0.0885  0.2902  0.2152
 8287SOL    HW136497   3.755   4.275  10.564 -1.2174 -0.8040  1.1077
 8287SOL    HW236498   3.672   4.385  10.633 -2.0870  0.9684 -0.4739
 8288SOL     OW36499   2.550   2.439   8.394 -0.4142  0.9539 -0.6447
 8288SOL    HW136500   2.542   2.492   8.315 -1.0687  0.0217 -1.2000
 8288SOL    HW236501   2.580   2.358   8.353 -1.2048  0.2655  0.1253
 8289SOL     OW36502   0.098   0.118  14.792 -0.0063 -0.4636  0.1598
 8289SOL    HW136503   0.003   0.102  14.793  0.0981 -1.2446 -2.0244
 8289SOL    HW236504   0.111   0.166  14.874 -0.7175 -2.9435  1.7335
 8290SOL     OW36505   0.371   3.871   3.372  0.3242 -0.6807  0.4122
 8290SOL    HW136506   0.374   3.807   3.301  2.4160 -1.8909  1.5742
 8290SOL    HW236507   0.432   3.836   3.437 -0.5708 -1.3486  0.8798
 8291SOL     OW36508   3.138   2.201  10.382 -0.3765  0.2660 -0.1465
 8291SOL    HW136509   3.138   2.222  10.475  0.5541  3.1664 -0.7986
 8291SOL    HW236510   3.211   2.260  10.361 -0.3609  0.0254 -0.7960
 8292SOL     OW36511   3.632   1.750   2.994 -0.1072  0.0374 -0.3706
 8292SOL    HW136512   3.638   1.841   3.024 -2.2940  0.7573 -2.0504
 8292SOL    HW236513   3.721   1.721   2.979 -0.1692 -0.3387 -0.0097
 8293SOL     OW36514   0.981   3.931  16.763  0.6970 -0.1315 -0.1248
 8293SOL    HW136515   1.037   3.936  16.840  1.0442 -0.2861 -0.3675
 8293SOL    HW236516   1.009   3.992  16.695  0.8908  0.5135  0.5403
 8294SOL     OW36517   3.203   3.465  15.831 -0.3667 -0.6486  0.2127
 8294SOL    HW136518   3.190   3.556  15.803  0.1842 -0.3081  1.0718
 8294SOL    HW236519   3.258   3.476  15.909  1.1202  0.0147 -0.9292
 8295SOL     OW36520   2.253   0.425   8.292  0.2089 -0.1754 -0.1186
 8295SOL    HW136521   2.184   0.466   8.240 -0.6323 -2.7162 -1.0271
 8295SOL    HW236522   2.294   0.385   8.215  0.0247  0.4576 -0.5481
 8296SOL     OW36523   0.466   2.126   8.490 -0.1731 -0.2795  0.3130
 8296SOL    HW136524   0.523   2.060   8.528  1.8385  1.0571 -0.3899
 8296SOL    HW236525   0.480   2.199   8.551  0.6991 -0.6944  0.6004
 8297SOL     OW36526   1.613   3.875   1.299 -0.0183  0.5631  0.4608
 8297SOL    HW136527   1.520   3.893   1.289 -0.2829 -1.3143 -0.4993
 8297SOL    HW236528   1.644   3.855   1.210  0.1543 -1.1853  0.9136
 8298SOL     OW36529   0.853   3.589  13.008  0.7459 -0.2463 -0.0904
 8298SOL    HW136530   0.873   3.542  13.090  2.7037  0.2480 -0.2734
 8298SOL    HW236531   0.839   3.679  13.035  1.4884 -0.5405  1.2926
 8299SOL     OW36532   3.426   0.596   1.159  0.4290  0.3521 -0.5925
 8299SOL    HW136533   3.478   0.519   1.136 -0.5299 -0.3569 -0.4152
 8299SOL    HW236534   3.359   0.606   1.091  0.2000  0.7517 -0.3073
 8300SOL     OW36535   3.959   1.282   4.367  0.4477 -0.3536  0.7081
 8300SOL    HW136536   3.910   1.241   4.438  0.3799  0.8457  1.3498
 8300SOL    HW236537   3.887   1.301   4.308  0.5880 -0.1506  0.6011
 8301SOL     OW36538   2.483   0.138   9.421  0.4903  0.0094  0.1280
 8301SOL    HW136539   2.416   0.146   9.488  1.1238  0.2688  0.7293
 8301SOL    HW236540   2.559   0.144   9.479  1.1241 -1.6000 -0.5270
 8302SOL     OW36541   2.508   1.358  10.274 -0.1035 -0.2504  0.6765
 8302SOL    HW136542   2.469   1.302  10.341 -1.1756 -0.4029 -0.0726
 8302SOL    HW236543   2.508   1.441  10.321 -1.1568 -1.0136  1.9948
 8303SOL     OW36544   1.711   4.541   8.890  0.1884  0.0113 -0.1436
 8303SOL    HW136545   1.638   4.508   8.838  0.3151  0.4074 -0.5707
 8303SOL    HW236546   1.746   4.596   8.820  0.4977  0.5548  0.4354
 8304SOL     OW36547   2.648   4.617  17.106  0.3588  0.3593  0.0720
 8304SOL    HW136548   2.590   4.558  17.059 -0.2966  0.8136  0.3056
 8304SOL    HW236549   2.706   4.651  17.038  3.0351 -2.0936  1.1008
 8305SOL     OW36550   1.787   1.090   8.053 -0.1849 -0.1930  0.4225
 8305SOL    HW136551   1.705   1.098   8.004  0.4735  0.0746 -0.6410
 8305SOL    HW236552   1.840   1.109   7.976  2.0976  0.1153  2.0818
 8306SOL     OW36553   1.304   2.852  15.883  0.5983  0.0278 -0.0790
 8306SOL    HW136554   1.325   2.761  15.905 -0.6484  0.1710  1.7595
 8306SOL    HW236555   1.236   2.861  15.816  0.0856 -4.6780 -0.1920
 8307SOL     OW36556   3.210   1.269   9.516  0.2670 -0.3940 -0.0654
 8307SOL    HW136557   3.155   1.318   9.577  0.0988  0.0473 -0.5810
 8307SOL    HW236558   3.284   1.327   9.501  0.8193 -0.9065  0.6704
 8308SOL     OW36559   1.676   1.982   9.282 -0.6241  0.2745 -0.4016
 8308SOL    HW136560   1.746   2.000   9.345  0.5037 -1.3548 -1.2103
 8308SOL    HW236561   1.722   1.955   9.203  0.0491 -1.2751  0.5302
 8309SOL     OW36562   0.787   3.384   8.955  0.2657 -0.4936  0.0409
 8309SOL    HW136563   0.790   3.343   8.868 -0.4215  2.1451 -1.2597
 8309SOL    HW236564   0.704   3.432   8.955 -0.7995 -2.3153 -3.0661
 8310SOL     OW36565   0.098   3.112  17.664  0.0368 -0.4469 -0.1023
 8310SOL    HW136566   0.173   3.167  17.643 -0.8329  0.4549 -0.8634
 8310SOL    HW236567   0.030   3.166  17.624 -0.0268  0.8670  1.7546
 8311SOL     OW36568   2.713   2.272  14.084 -0.0915 -0.4697 -0.0981
 8311SOL    HW136569   2.707   2.203  14.018  1.5701  0.0254 -0.7544
 8311SOL    HW236570   2.779   2.330  14.045  0.9742  1.2369  4.1883
 8312SOL     OW36571   3.732   0.459   5.358  0.0892  0.2627  0.3432
 8312SOL    HW136572   3.682   0.464   5.440  1.2970  0.4159  1.0740
 8312SOL    HW236573   3.671   0.502   5.298 -0.5163  1.5692  1.8787
 8313SOL     OW36574   3.321   4.408   6.488  0.3137 -0.3081 -0.4357
 8313SOL    HW136575   3.309   4.502   6.474 -2.1643 -0.2519  1.9749
 8313SOL    HW236576   3.247   4.379   6.434 -0.3843 -1.3200  1.0732
 8314SOL     OW36577   2.974   3.442   1.348  0.6575  0.0544 -0.6876
 8314SOL    HW136578   2.998   3.507   1.414 -2.2518  0.7731 -0.3009
 8314SOL    HW236579   2.885   3.474   1.332  0.6932 -0.9800 -2.9495
 8315SOL     OW36580   2.202   1.364  12.780  0.9637 -0.0362 -0.6816
 8315SOL    HW136581   2.296   1.359  12.762  0.9069 -0.5333 -0.8425
 8315SOL    HW236582   2.170   1.309  12.709 -0.3491 -1.0460  0.7079
 8316SOL     OW36583   4.048   3.307  11.642 -0.2294 -1.1088 -1.0018
 8316SOL    HW136584   4.024   3.364  11.569 -1.9174  0.0748  0.4500
 8316SOL    HW236585   3.988   3.235  11.624 -0.9291 -0.6399 -0.5877
 8317SOL     OW36586   3.284   0.232   6.892  0.1199  0.2710  0.2571
 8317SOL    HW136587   3.206   0.210   6.842 -0.3243  1.8055  0.2979
 8317SOL    HW236588   3.278   0.327   6.896  3.0752  0.4023  1.5928
 8318SOL     OW36589   3.300   1.567   5.387 -0.3720 -0.0824  0.3139
 8318SOL    HW136590   3.213   1.528   5.374 -0.5459  1.0606 -2.0939
 8318SOL    HW236591   3.299   1.640   5.324  2.3213 -1.4491 -1.2847
 8319SOL     OW36592   1.645   1.036   5.812  0.8505  0.5283 -0.4886
 8319SOL    HW136593   1.708   1.044   5.740  0.4671  1.9406 -0.6490
 8319SOL    HW236594   1.639   0.940   5.816 -0.4593  0.6063 -0.8530
 8320SOL     OW36595   2.219   2.342  10.331  0.5769  0.0768 -0.0485
 8320SOL    HW136596   2.293   2.287  10.357 -0.7424 -1.7754 -0.1942
 8320SOL    HW236597   2.242   2.354  10.239  0.1272  0.2359 -0.1421
 8321SOL     OW36598   0.999   1.217   2.378  0.3341  0.2526  0.0365
 8321SOL    HW136599   1.027   1.279   2.446 -0.2709  1.2842 -0.6648
 8321SOL    HW236600   0.918   1.257   2.346 -0.1282  0.8315  1.9119
 8322SOL     OW36601   1.008   1.403  11.790 -0.5001  0.0936 -0.3492
 8322SOL    HW136602   1.070   1.344  11.749 -0.7796 -0.2530 -0.2703
 8322SOL    HW236603   0.929   1.349  11.784  0.2342 -1.0210  0.0844
 8323SOL     OW36604   4.058   1.452   3.830 -0.5968 -0.1797 -0.4227
 8323SOL    HW136605   4.115   1.385   3.792  0.3502  0.4773 -0.1709
 8323SOL    HW236606   4.072   1.526   3.770  1.4587 -0.7553 -0.6605
 8324SOL     OW36607   1.155   0.665   4.569 -0.0677 -0.4247 -0.2326
 8324SOL    HW136608   1.129   0.725   4.499 -0.7836  1.2079  1.4326
 8324SOL    HW236609   1.242   0.640   4.539 -0.4024 -1.1287 -0.6102
 8325SOL     OW36610   0.837   2.481   1.551 -0.8155 -0.0901 -0.6792
 8325SOL    HW136611   0.855   2.530   1.631 -0.5101  2.0379 -2.0309
 8325SOL    HW236612   0.757   2.435   1.575 -0.2276 -0.8915 -0.2775
 8326SOL     OW36613   0.516   1.006   1.231 -0.2338 -0.2346 -0.2126
 8326SOL    HW136614   0.525   0.913   1.254 -0.9889 -0.2864 -0.1313
 8326SOL    HW236615   0.512   1.001   1.136  0.8799  0.1423 -0.2804
 8327SOL     OW36616   4.655   0.770  11.433  0.9790 -0.2636 -0.2878
 8327SOL    HW136617   4.587   0.822  11.390  1.8638  1.2616  0.1545
 8327SOL    HW236618   4.642   0.679  11.407  0.5267 -0.8045  1.8868
 8328SOL     OW36619   3.574   0.977   9.717 -0.2760 -0.9186 -0.1110
 8328SOL    HW136620   3.505   1.041   9.735  1.4444  1.2291 -1.0916
 8328SOL    HW236621   3.553   0.962   9.625  0.4612 -0.5833 -0.3365
 8329SOL     OW36622   2.653   2.619   4.639 -0.5992  0.1665  0.4704
 8329SOL    HW136623   2.606   2.562   4.578 -0.1863  1.3978 -0.9885
 8329SOL    HW236624   2.684   2.689   4.582 -1.3192  0.8570  0.9283
 8330SOL     OW36625   1.058   1.006   0.836 -0.3731  0.6650 -0.4334
 8330SOL    HW136626   1.056   0.937   0.769  3.0181  1.1859 -1.0732
 8330SOL    HW236627   0.966   0.995   0.859  0.3382 -0.3914  1.9425
 8331SOL     OW36628   1.707   1.279   6.941 -0.6837  0.1813  0.2389
 8331SOL    HW136629   1.649   1.280   7.017  0.4400  0.7309  1.1006
 8331SOL    HW236630   1.794   1.299   6.975 -1.9184  0.8773  2.9615
 8332SOL     OW36631   2.508   2.379   5.051 -0.2391  0.5133 -0.3048
 8332SOL    HW136632   2.522   2.298   5.100  0.0895 -0.2957 -1.7299
 8332SOL    HW236633   2.415   2.372   5.028 -0.6944 -1.4507  2.1816
 8333SOL     OW36634   4.623   3.479  14.615 -0.3347  0.1651 -0.5580
 8333SOL    HW136635   4.580   3.410  14.564  0.7318  0.1045 -1.3724
 8333SOL    HW236636   4.544   3.532  14.626 -0.6800 -0.5572  0.5030
 8334SOL     OW36637   3.940   2.045   8.806  0.2331  0.5725  0.2317
 8334SOL    HW136638   3.920   1.987   8.733 -1.2594  0.5474  0.6611
 8334SOL    HW236639   3.856   2.090   8.813  0.1870  0.2672  1.7910
 8335SOL     OW36640   0.592   2.464  17.431 -0.3449  0.3085 -0.5423
 8335SOL    HW136641   0.613   2.375  17.457  0.7610  1.2687  1.8661
 8335SOL    HW236642   0.522   2.480  17.494  0.4000 -0.7985  0.5649
 8336SOL     OW36643   1.759   1.702   6.490  0.1082 -0.2377  0.2315
 8336SOL    HW136644   1.722   1.617   6.512  0.7444 -0.7369 -0.6324
 8336SOL    HW236645   1.845   1.674   6.458  1.1789  1.9778  1.1386
 8337SOL     OW36646   0.552   1.783  11.812  0.8048 -0.1012  0.3263
 8337SOL    HW136647   0.573   1.876  11.810 -1.4878  0.4027 -0.7673
 8337SOL    HW236648   0.567   1.763  11.720  0.5328  1.1048  0.0136
 8338SOL     OW36649   3.897   2.079   3.330  0.1240  0.4362  0.5162
 8338SOL    HW136650   3.801   2.075   3.326  0.2706 -0.2487 -2.3103
 8338SOL    HW236651   3.921   2.049   3.418  1.3098 -2.8417 -0.8994
 8339SOL     OW36652   1.214   3.436   6.926 -0.2082  0.7155  0.2407
 8339SOL    HW136653   1.160   3.509   6.896 -0.4406  0.0506 -0.9421
 8339SOL    HW236654   1.273   3.420   6.853  0.7023 -0.5259  1.2457
 8340SOL     OW36655   1.217   0.911   9.079  0.3293 -0.6510  0.1713
 8340SOL    HW136656   1.147   0.967   9.112 -0.3423 -0.7545 -1.0909
 8340SOL    HW236657   1.222   0.854   9.156  1.0880  0.3668  0.8914
 8341SOL     OW36658   4.648   4.413  15.706  0.1872  0.3474  0.3014
 8341SOL    HW136659   4.618   4.397  15.617 -0.5515 -0.8867  0.7773
 8341SOL    HW236660   4.621   4.336  15.755  1.6128  1.5762  3.0178
 8342SOL     OW36661   4.268   0.542   9.670 -0.2881  0.4206 -0.7032
 8342SOL    HW136662   4.199   0.567   9.609 -2.6010 -0.7142  1.4561
 8342SOL    HW236663   4.241   0.454   9.697 -0.0026 -0.3784 -2.9785
 8343SOL     OW36664   4.339   3.678  16.395  0.3815 -0.6903  0.2868
 8343SOL    HW136665   4.416   3.634  16.430 -1.1650 -2.4737  1.4741
 8343SOL    HW236666   4.369   3.698  16.306  0.5549 -0.5281  0.3839
 8344SOL     OW36667   3.749   1.145   7.990 -0.3274 -0.0341 -0.2022
 8344SOL    HW136668   3.763   1.054   7.962 -0.8706  0.3590 -1.7222
 8344SOL    HW236669   3.832   1.178   7.958  0.9456 -1.0269  2.0655
 8345SOL     OW36670   0.907   2.690  13.940  0.0524 -0.2505  0.2600
 8345SOL    HW136671   0.931   2.603  13.970  0.1927  0.0990  1.1874
 8345SOL    HW236672   0.812   2.694  13.932  0.2332  2.9599 -0.4221
 8346SOL     OW36673   1.759   4.636  16.770 -0.1643  0.2050 -0.4922
 8346SOL    HW136674   1.672   4.630  16.811  0.5342  0.9104  1.1152
 8346SOL    HW236675   1.776   4.725  16.801  0.5527 -0.9640  2.5503
 8347SOL     OW36676   4.690   1.827   4.903 -0.1649 -1.0025  0.0956
 8347SOL    HW136677   4.628   1.889   4.864  1.0685 -0.0001 -0.2442
 8347SOL    HW236678   4.721   1.798   4.817  0.2245 -0.2936  0.0031
 8348SOL     OW36679   1.759   4.459   9.501 -0.0641  0.2003  0.1500
 8348SOL    HW136680   1.756   4.391   9.568 -0.4981  0.0141 -0.0583
 8348SOL    HW236681   1.825   4.424   9.441  0.4230 -1.9343  1.9430
 8349SOL     OW36682   1.188   0.116   4.471  0.1170 -0.2744 -0.2394
 8349SOL    HW136683   1.274   0.102   4.432  0.6375  1.9798  0.0728
 8349SOL    HW236684   1.209   0.084   4.558  0.6221  1.4318  0.2708
 8350SOL     OW36685   3.186   0.932   4.331 -0.0716 -0.6565 -0.4387
 8350SOL    HW136686   3.107   0.973   4.365 -1.4168 -2.5900 -1.2238
 8350SOL    HW236687   3.176   0.857   4.390 -0.6593 -0.2996 -0.0849
 8351SOL     OW36688   1.765   2.767  13.677  0.1525  0.7509 -0.0734
 8351SOL    HW136689   1.738   2.730  13.592 -1.6214 -0.3023  0.9462
 8351SOL    HW236690   1.741   2.859  13.667 -3.4664 -0.0692  0.8668
 8352SOL     OW36691   3.989   4.437  16.229 -0.5418  0.4076 -0.4158
 8352SOL    HW136692   4.009   4.345  16.215 -0.9699  0.6465 -2.5498
 8352SOL    HW236693   3.990   4.456  16.323 -0.2184  0.8882 -0.5127
 8353SOL     OW36694   3.508   1.441   0.375 -0.2270  0.0404 -0.3419
 8353SOL    HW136695   3.504   1.508   0.306 -0.6340 -0.0278 -0.3888
 8353SOL    HW236696   3.479   1.495   0.449  1.3837  0.0106  0.2999
 8354SOL     OW36697   3.723   1.737   7.200  0.1269  0.6044 -0.2606
 8354SOL    HW136698   3.732   1.684   7.279  0.3830  0.2305 -0.5402
 8354SOL    HW236699   3.690   1.817   7.240 -1.0308 -1.4316  2.8708
 8355SOL     OW36700   1.465   1.408   2.739  0.1465  0.3817 -0.1703
 8355SOL    HW136701   1.539   1.456   2.778  0.4379 -0.9161  0.8887
 8355SOL    HW236702   1.421   1.377   2.819 -1.4658  3.0084 -0.0438
 8356SOL     OW36703   3.705   3.096  17.447  0.4701  0.0131  0.5874
 8356SOL    HW136704   3.777   3.059  17.395 -2.6252 -2.1763 -2.1108
 8356SOL    HW236705   3.698   3.033  17.519  2.0043 -3.2287 -2.0911
 8357SOL     OW36706   3.186   1.825   7.558 -0.2791  0.0782 -1.0485
 8357SOL    HW136707   3.125   1.759   7.523  0.1811 -1.8291  1.7298
 8357SOL    HW236708   3.256   1.822   7.493  0.3677  1.0719 -0.3973
 8358SOL     OW36709   0.123   2.429  14.169  0.7435 -0.3978 -0.3261
 8358SOL    HW136710   0.201   2.482  14.151 -1.3959  2.4574 -1.2102
 8358SOL    HW236711   0.056   2.493  14.191  1.7160  0.2516  0.7656
 8359SOL     OW36712   4.029   1.687   4.364  0.2634  0.2586  0.5637
 8359SOL    HW136713   4.080   1.758   4.326  1.5753 -0.8493  0.2384
 8359SOL    HW236714   4.064   1.606   4.328  1.3092  0.5666  0.8850
 8360SOL     OW36715   1.728   4.061   0.142 -0.0708 -0.2883  0.2724
 8360SOL    HW136716   1.790   4.040   0.073  0.5475 -0.4584  0.8746
 8360SOL    HW236717   1.782   4.127   0.187  0.1483  0.1716 -0.6587
 8361SOL     OW36718   2.349   1.498   1.406  0.0389  0.0028 -0.4210
 8361SOL    HW136719   2.302   1.427   1.449 -0.6050  0.2897 -0.6424
 8361SOL    HW236720   2.300   1.494   1.323 -2.4872  0.0534  1.0687
 8362SOL     OW36721   1.627   2.714   1.246 -0.4106 -0.1560  0.5526
 8362SOL    HW136722   1.579   2.765   1.312  1.3300  2.2132 -0.0116
 8362SOL    HW236723   1.603   2.624   1.268  1.0608 -0.8437 -0.7055
 8363SOL     OW36724   2.124   1.522  11.270  0.4074  0.5835 -0.1591
 8363SOL    HW136725   2.039   1.497  11.305  1.9428 -0.8922  2.5060
 8363SOL    HW236726   2.136   1.448  11.211  0.7713  1.1331 -0.7715
 8364SOL     OW36727   4.420   1.011   5.486 -0.5553  0.2684 -0.3141
 8364SOL    HW136728   4.462   1.097   5.490 -1.0469  0.4385  1.3616
 8364SOL    HW236729   4.492   0.952   5.463 -0.2640  0.0722  1.1006
 8365SOL     OW36730   1.985   1.260   6.104  0.4334 -0.2996  0.1550
 8365SOL    HW136731   1.927   1.282   6.031 -2.5167  3.7456  3.6863
 8365SOL    HW236732   2.064   1.226   6.062  0.5925  0.3879 -0.0974
 8366SOL     OW36733   2.800   3.511   3.494 -0.1880  0.2121 -0.0366
 8366SOL    HW136734   2.812   3.549   3.407  1.5359 -0.7686 -0.2216
 8366SOL    HW236735   2.751   3.430   3.477  2.3067 -1.7488  2.2126
 8367SOL     OW36736   4.265   3.375   8.619 -0.2444  0.3805 -0.1769
 8367SOL    HW136737   4.217   3.305   8.663  0.6733 -0.2039 -0.1090
 8367SOL    HW236738   4.189   3.430   8.599 -1.3381 -0.8846  0.4901
 8368SOL     OW36739   2.328   4.679   7.295  0.5529  0.4356  0.2836
 8368SOL    HW136740   2.244   4.634   7.306  0.2901  0.6256 -0.9160
 8368SOL    HW236741   2.333   4.681   7.199  0.1671  0.2035  0.2590
 8369SOL     OW36742   2.460   1.644  14.977 -0.0916 -0.0178 -0.1870
 8369SOL    HW136743   2.500   1.728  14.998 -1.3923  0.9903 -1.7066
 8369SOL    HW236744   2.527   1.583  15.009 -0.5525 -1.8873 -2.7997
 8370SOL     OW36745   1.526   3.493  13.358  0.5967  0.2452  0.6334
 8370SOL    HW136746   1.447   3.500  13.305 -0.3425 -2.9498  1.5896
 8370SOL    HW236747   1.495   3.463  13.444  0.1837 -0.2635  0.3033
 8371SOL     OW36748   2.254   0.478   9.873  0.9161  0.2782  0.5444
 8371SOL    HW136749   2.179   0.491   9.930  0.3507 -0.3707 -0.0587
 8371SOL    HW236750   2.291   0.397   9.907  0.4999 -1.0621 -2.1504
 8372SOL     OW36751   3.718   3.610   6.004  0.4749  0.3292  0.1369
 8372SOL    HW136752   3.710   3.623   5.910 -0.4826  3.6695  0.6895
 8372SOL    HW236753   3.769   3.686   6.034  2.1304 -1.1309  1.0600
 8373SOL     OW36754   4.199   4.316   1.830 -0.2578 -0.1144  0.0928
 8373SOL    HW136755   4.196   4.247   1.765 -0.7276  1.7088 -1.8103
 8373SOL    HW236756   4.140   4.373   1.781 -0.4065  0.3310  0.7785
 8374SOL     OW36757   4.305   0.256  14.336  0.1174  0.1578 -0.1237
 8374SOL    HW136758   4.228   0.244  14.281 -1.3417  1.9185  1.5428
 8374SOL    HW236759   4.288   0.347  14.359  1.6362  0.2716  0.5538
 8375SOL     OW36760   3.217   2.700   7.513 -0.6803 -0.2795  0.5206
 8375SOL    HW136761   3.257   2.624   7.470  1.6245  0.9193  0.5372
 8375SOL    HW236762   3.257   2.686   7.599  0.3722  4.5624  0.7961
 8376SOL     OW36763   2.446   3.882   8.002  0.2128  0.0783  0.2018
 8376SOL    HW136764   2.480   3.811   7.948  0.3706 -0.2540  0.7379
 8376SOL    HW236765   2.365   3.838   8.030  0.7752 -1.1992 -0.1761
 8377SOL     OW36766   3.732   1.714   3.486 -0.1383 -0.5459 -0.2056
 8377SOL    HW136767   3.814   1.710   3.438 -0.0833  3.1680 -0.4018
 8377SOL    HW236768   3.664   1.738   3.423 -3.7465  2.1763  4.6957
 8378SOL     OW36769   1.226   0.676  10.398  0.4651  0.5796  0.1497
 8378SOL    HW136770   1.216   0.660  10.492 -0.3994  3.5322  0.5704
 8378SOL    HW236771   1.285   0.607  10.367 -0.6037 -0.4311  0.3634
 8379SOL     OW36772   2.018   4.095   3.848  0.3990  0.0768  0.0682
 8379SOL    HW136773   2.092   4.154   3.832 -0.9279  1.7621  0.2406
 8379SOL    HW236774   1.967   4.144   3.912 -0.6320  0.5813 -1.1307
 8380SOL     OW36775   4.106   1.175   7.567  0.0910 -0.4786 -0.1265
 8380SOL    HW136776   4.191   1.219   7.574 -0.5272  0.7179 -0.0579
 8380SOL    HW236777   4.130   1.086   7.540  1.3918 -0.1612 -0.0519
 8381SOL     OW36778   2.471   1.712  15.259 -0.3918 -0.2871 -0.4548
 8381SOL    HW136779   2.425   1.742  15.338  3.1584  5.1132 -0.4035
 8381SOL    HW236780   2.428   1.771  15.197 -1.6032  0.0808  0.7146
 8382SOL     OW36781   2.517   0.693  14.546 -0.2068  0.2490  0.5831
 8382SOL    HW136782   2.530   0.663  14.636  0.2763 -0.1197  0.3942
 8382SOL    HW236783   2.445   0.754  14.562  1.7277  3.0062 -1.2375
 8383SOL     OW36784   3.551   2.911  13.345 -0.1227 -0.1240  0.7460
 8383SOL    HW136785   3.639   2.949  13.340 -0.5870  0.5902 -1.8537
 8383SOL    HW236786   3.498   2.986  13.321 -2.0044 -1.6304  0.2377
 8384SOL     OW36787   3.511   4.102   8.746  0.1654 -0.5255  0.1126
 8384SOL    HW136788   3.486   4.021   8.702  1.0026 -0.8283  0.2019
 8384SOL    HW236789   3.526   4.155   8.667  0.6369  0.4267  0.8444
 8385SOL     OW36790   4.082   3.029   3.756 -0.1741  0.0372  0.3089
 8385SOL    HW136791   4.099   3.056   3.846 -0.2943 -1.5298  0.7824
 8385SOL    HW236792   4.175   3.029   3.733 -0.4986  1.2472 -1.0206
 8386SOL     OW36793   0.615   4.239   5.756  0.4745 -0.1007 -1.0644
 8386SOL    HW136794   0.543   4.238   5.693  0.1685 -2.8050 -0.6298
 8386SOL    HW236795   0.682   4.285   5.705  0.6519  1.4436  0.5257
 8387SOL     OW36796   1.456   3.300  13.107  0.3147  0.1761 -0.4728
 8387SOL    HW136797   1.502   3.224  13.142 -0.1526  0.7905  1.4303
 8387SOL    HW236798   1.390   3.316  13.174 -1.4165 -0.2086 -2.0814
 8388SOL     OW36799   4.252   0.614   0.537  0.2533 -0.8665  0.4910
 8388SOL    HW136800   4.173   0.640   0.584 -0.1474  0.2474 -0.8032
 8388SOL    HW236801   4.324   0.600   0.598  1.4234 -1.6188 -1.0756
 8389SOL     OW36802   3.645   2.898  12.252 -0.3884 -0.0371  0.5814
 8389SOL    HW136803   3.650   2.905  12.348  0.3469 -0.9901  0.6167
 8389SOL    HW236804   3.550   2.907  12.240 -0.3451 -0.5373 -0.0940
 8390SOL     OW36805   2.988   3.773   6.456  0.2561 -0.3289  0.0745
 8390SOL    HW136806   2.917   3.756   6.395 -1.8180  2.0315  1.8371
 8390SOL    HW236807   2.972   3.697   6.512  3.0658 -2.0331 -1.4684
 8391SOL     OW36808   2.769   4.507   3.224  0.5040 -0.0594 -0.1651
 8391SOL    HW136809   2.830   4.558   3.276 -1.2093  1.6728  0.1488
 8391SOL    HW236810   2.682   4.539   3.250  1.0920  1.8503 -0.5318
 8392SOL     OW36811   3.064   4.664   1.011 -0.2005 -0.2892  0.3216
 8392SOL    HW136812   3.038   0.020   1.005  0.5437  0.0611  2.2102
 8392SOL    HW236813   3.146   4.664   1.061 -0.4327  3.4698  0.7542
 8393SOL     OW36814   2.373   1.186   8.403  0.4198  0.0170  0.8471
 8393SOL    HW136815   2.424   1.207   8.326 -0.9622 -0.7254 -0.2659
 8393SOL    HW236816   2.286   1.200   8.366  0.9460  1.9454  0.3336
 8394SOL     OW36817   2.433   4.712   9.034 -0.1790  0.1510  0.8013
 8394SOL    HW136818   2.355   0.002   9.084 -0.8969  0.7826 -0.6203
 8394SOL    HW236819   2.398   4.636   8.988  0.9013 -0.4994  1.0657
 8395SOL     OW36820   1.173   4.217   7.779  0.3887  0.3533  0.2125
 8395SOL    HW136821   1.160   4.142   7.721  2.3252 -0.8461  1.3204
 8395SOL    HW236822   1.202   4.288   7.722 -1.0840  0.6227 -0.2169
 8396SOL     OW36823   0.945   2.614  12.177  0.4593  0.2883 -0.1170
 8396SOL    HW136824   0.909   2.538  12.133 -0.6671  0.2955  0.7889
 8396SOL    HW236825   1.019   2.620  12.117  0.7813  2.0007  0.4412
 8397SOL     OW36826   2.432   2.404  12.916 -0.3588 -0.0673  0.1207
 8397SOL    HW136827   2.512   2.444  12.882 -1.6154  0.9593 -1.6444
 8397SOL    HW236828   2.466   2.353  12.990 -0.4781 -2.1918 -1.2633
 8398SOL     OW36829   2.641   4.514   5.920  0.3454  0.5296 -0.2961
 8398SOL    HW136830   2.724   4.468   5.905  0.8665  1.0719  0.9161
 8398SOL    HW236831   2.584   4.495   5.846  0.6563 -0.1430 -0.3617
 8399SOL     OW36832   3.900   1.122  13.476  0.6897 -0.0791  0.3966
 8399SOL    HW136833   3.886   1.165  13.560  2.4431 -0.9067  1.1125
 8399SOL    HW236834   3.811   1.090  13.467  0.8395 -0.2957 -0.3188
 8400SOL     OW36835   3.497   1.020   8.612  0.8614 -1.0280 -0.0870
 8400SOL    HW136836   3.419   1.042   8.663  1.5242 -0.9480  0.8923
 8400SOL    HW236837   3.531   0.947   8.663  0.8707  0.7066  2.3868
 8401SOL     OW36838   3.238   4.218   3.669  0.0493 -0.4203  0.2289
 8401SOL    HW136839   3.282   4.138   3.698 -0.2876 -0.7221 -0.0959
 8401SOL    HW236840   3.159   4.178   3.632  0.8704  0.1387 -2.0886
 8402SOL     OW36841   1.226   2.086  15.897 -0.2035 -0.4445  0.0997
 8402SOL    HW136842   1.240   1.997  15.928  0.0339 -0.7059 -0.7467
 8402SOL    HW236843   1.163   2.068  15.827  0.9090 -1.8462 -0.5506
 8403SOL     OW36844   1.523   3.159  11.308 -0.2612  0.0236 -0.4854
 8403SOL    HW136845   1.542   3.248  11.279 -0.4708  0.1324 -0.2928
 8403SOL    HW236846   1.510   3.173  11.401 -1.7185 -2.3873 -0.3250
 8404SOL     OW36847   3.159   0.574   5.428  0.3960  0.0110 -0.3537
 8404SOL    HW136848   3.091   0.640   5.443  0.4490  0.5146 -2.4219
 8404SOL    HW236849   3.148   0.520   5.506  0.2817  0.5432 -0.0023
 8405SOL     OW36850   1.858   2.999   6.171  0.2975 -0.0132 -0.4151
 8405SOL    HW136851   1.929   2.937   6.157 -0.8830 -1.3652 -0.3847
 8405SOL    HW236852   1.857   3.001   6.266 -0.3502 -0.6209 -0.4129
 8406SOL     OW36853   2.950   1.279   6.565 -0.1334  0.1939 -0.0568
 8406SOL    HW136854   2.915   1.366   6.579 -0.4550 -0.3939  2.7697
 8406SOL    HW236855   3.015   1.287   6.496  0.1009 -1.3967 -0.0394
 8407SOL     OW36856   1.244   1.908  13.832 -0.1944  1.1099 -0.4761
 8407SOL    HW136857   1.258   1.818  13.859 -2.6960  1.1141  0.8950
 8407SOL    HW236858   1.278   1.899  13.743 -0.6618 -1.8402 -0.3464
 8408SOL     OW36859   2.826   0.153   4.920  0.0622 -0.2120 -0.3958
 8408SOL    HW136860   2.906   0.194   4.889  0.9405 -1.7322 -0.1577
 8408SOL    HW236861   2.859   0.064   4.906 -0.6034 -0.6915  0.9745
 8409SOL     OW36862   1.658   1.087   8.993  0.2756  0.0810  0.1281
 8409SOL    HW136863   1.656   1.164   9.050 -1.0545 -0.8406  1.3422
 8409SOL    HW236864   1.565   1.066   8.987  0.4729 -1.1280  1.6262
 8410SOL     OW36865   3.009   2.928   7.728  0.6375 -0.1127  0.2630
 8410SOL    HW136866   2.969   2.872   7.662 -1.2508 -0.6810  1.8916
 8410SOL    HW236867   3.021   2.860   7.794 -0.7923 -0.2804  0.3627
 8411SOL     OW36868   1.308   1.579   4.841 -0.4242 -0.4153 -0.0605
 8411SOL    HW136869   1.361   1.517   4.891  1.0237  1.6321  0.9513
 8411SOL    HW236870   1.297   1.658   4.893  0.2617 -0.5996  0.3578
 8412SOL     OW36871   4.622   3.623  16.295  0.2712  0.4875  0.2176
 8412SOL    HW136872   4.708   3.580  16.295  0.2438  0.4426  1.0458
 8412SOL    HW236873   4.599   3.615  16.387  0.6432  0.7779  0.3331
 8413SOL     OW36874   3.826   3.976   2.145 -0.2010  0.2502  0.2847
 8413SOL    HW136875   3.803   3.890   2.179  1.9573 -0.1108  0.7792
 8413SOL    HW236876   3.908   3.964   2.097 -2.6216 -2.6114 -3.1419
 8414SOL     OW36877   1.234   3.857   1.081 -0.0692 -0.8103 -0.5088
 8414SOL    HW136878   1.181   3.816   1.149  0.6667  0.6436  0.9496
 8414SOL    HW236879   1.265   3.931   1.133 -1.0008  0.7924 -2.2305
 8415SOL     OW36880   0.770   2.800   6.296 -0.1268  0.1499  0.3747
 8415SOL    HW136881   0.684   2.758   6.307  0.9070 -2.1240 -0.2407
 8415SOL    HW236882   0.759   2.870   6.361 -0.0197  1.4563 -1.0155
 8416SOL     OW36883   0.427   2.388   3.222 -0.2902 -0.1373  0.4415
 8416SOL    HW136884   0.515   2.393   3.186  0.5628  0.8506  2.6220
 8416SOL    HW236885   0.425   2.294   3.240 -2.0153 -0.1283  0.3162
 8417SOL     OW36886   1.766   2.262   8.774 -0.1098 -0.3762  0.0254
 8417SOL    HW136887   1.768   2.358   8.770  1.3351 -0.4499 -0.9783
 8417SOL    HW236888   1.835   2.245   8.837  1.3420  3.1830 -0.5770
 8418SOL     OW36889   4.529   3.710   2.089 -0.0630  0.0004  0.6388
 8418SOL    HW136890   4.570   3.788   2.127 -1.5837  0.5983  1.0685
 8418SOL    HW236891   4.509   3.730   1.998  1.3062  1.0719  0.5679
 8419SOL     OW36892   4.689   1.130   8.132  0.1042 -0.1834  0.5570
 8419SOL    HW136893   0.006   1.051   8.142  1.6180  0.9363  1.5018
 8419SOL    HW236894   0.017   1.180   8.082 -1.7070  2.1592  0.5841
 8420SOL     OW36895   0.334   4.391   3.334 -0.1802 -0.5197  0.1849
 8420SOL    HW136896   0.424   4.417   3.315 -0.3856 -0.0930 -0.2058
 8420SOL    HW236897   0.352   4.306   3.373  0.1856 -0.5059  0.0461
 8421SOL     OW36898   4.224   2.073   7.834  0.5759 -0.2819  0.1440
 8421SOL    HW136899   4.312   2.044   7.810 -1.1951 -3.6712 -2.2014
 8421SOL    HW236900   4.178   2.011   7.777  1.5691 -2.9217  2.1973
 8422SOL     OW36901   2.134   1.125   9.364 -0.3042 -0.2264 -0.0660
 8422SOL    HW136902   2.136   1.044   9.415  2.1155 -2.0488 -3.0353
 8422SOL    HW236903   2.221   1.132   9.325 -0.7490  0.1036 -1.0197
 8423SOL     OW36904   1.541   4.285   5.575 -0.8329  0.0992 -0.3647
 8423SOL    HW136905   1.607   4.278   5.644 -0.0633 -0.1193 -1.1130
 8423SOL    HW236906   1.455   4.272   5.614 -0.8172  0.9915 -0.0180
 8424SOL     OW36907   3.812   0.716   5.931 -0.5689 -0.2017 -0.4001
 8424SOL    HW136908   3.868   0.790   5.905  0.3493 -1.1355 -1.1358
 8424SOL    HW236909   3.879   0.667   5.979 -0.0066  0.6510 -0.3109
 8425SOL     OW36910   0.450   4.506   3.049  0.1856 -0.5853 -0.0957
 8425SOL    HW136911   0.477   4.571   2.984  0.4988  1.9520  2.5495
 8425SOL    HW236912   0.524   4.448   3.033 -0.3573 -1.4529  0.5803
 8426SOL     OW36913   1.082   3.603   2.851 -0.0909  0.2538  0.2048
 8426SOL    HW136914   0.990   3.627   2.860 -0.1576 -0.1436  0.5908
 8426SOL    HW236915   1.098   3.578   2.942  1.0967  0.7823  0.1424
 8427SOL     OW36916   0.151   4.311   7.955 -0.0457 -0.1011 -0.2474
 8427SOL    HW136917   0.179   4.360   7.877  2.3682 -0.5364  0.3588
 8427SOL    HW236918   0.237   4.296   7.993 -0.0831  0.2854 -0.0080
 8428SOL     OW36919   3.405   3.045  15.531  0.3507  0.1584  0.0720
 8428SOL    HW136920   3.398   3.122  15.588  1.8566  0.9781 -0.8565
 8428SOL    HW236921   3.493   3.046  15.494  1.5923 -0.9198  3.0258
 8429SOL     OW36922   3.794   1.783   9.643 -0.2304 -0.1850 -0.6869
 8429SOL    HW136923   3.727   1.777   9.574  0.7171 -3.3634 -1.3478
 8429SOL    HW236924   3.759   1.737   9.719 -1.0924  0.1080 -0.9008
 8430SOL     OW36925   3.268   0.611   9.689 -0.7524 -0.6127  0.4737
 8430SOL    HW136926   3.294   0.523   9.719  2.7564  0.4111  0.4034
 8430SOL    HW236927   3.231   0.591   9.603  0.2972  2.1644 -0.6205
 8431SOL     OW36928   1.531   3.084   8.653  0.0620  0.3204  0.7451
 8431SOL    HW136929   1.528   3.160   8.711  0.8317  2.5544 -2.1225
 8431SOL    HW236930   1.438   3.079   8.628  0.1274  1.1243  0.3430
 8432SOL     OW36931   0.776   1.569   3.461  0.0680 -0.0328 -0.0507
 8432SOL    HW136932   0.847   1.572   3.525  0.8061 -0.1071 -0.8584
 8432SOL    HW236933   0.792   1.487   3.416 -1.2602  1.4154 -3.1497
 8433SOL     OW36934   1.746   2.332   2.074 -0.1756 -0.5898  0.4694
 8433SOL    HW136935   1.739   2.360   1.983  0.0278  1.0611  0.9648
 8433SOL    HW236936   1.755   2.413   2.125 -0.1251 -1.0008  1.1202
 8434SOL     OW36937   1.028   2.135  13.842  0.0362 -0.6129  0.3922
 8434SOL    HW136938   1.084   2.205  13.808 -0.5191  0.7071  2.1980
 8434SOL    HW236939   0.941   2.146  13.804  0.2435  0.3986  0.2039
 8435SOL     OW36940   0.891   3.822   7.045 -0.1167 -0.8522  0.2272
 8435SOL    HW136941   0.820   3.796   7.105 -0.6484  0.9155  0.3562
 8435SOL    HW236942   0.949   3.857   7.112  0.1222 -0.1056 -0.3816
 8436SOL     OW36943   1.270   2.221  13.625 -0.1798 -0.1234 -0.2777
 8436SOL    HW136944   1.204   2.175  13.573 -0.1858  1.6419 -1.7961
 8436SOL    HW236945   1.314   2.142  13.657 -0.6549  0.7126  2.4536
 8437SOL     OW36946   1.678   0.135   6.370 -0.4012 -0.0424  0.5483
 8437SOL    HW136947   1.763   0.177   6.360 -1.7455  3.0619  2.2845
 8437SOL    HW236948   1.708   0.045   6.359  2.0525  1.1716 -2.5684
 8438SOL     OW36949   1.244   2.067   7.935  0.2243  0.5483 -0.1996
 8438SOL    HW136950   1.157   2.096   7.907  0.5445  1.9759  0.2914
 8438SOL    HW236951   1.225   2.037   8.024 -1.4869 -2.3125 -1.5164
 8439SOL     OW36952   1.726   3.654   5.461 -0.6644 -0.2449  0.4164
 8439SOL    HW136953   1.687   3.580   5.414  1.2929 -1.0919  0.1381
 8439SOL    HW236954   1.790   3.679   5.394 -0.5158 -0.8136  0.3432
 8440SOL     OW36955   0.597   0.274   5.462  0.6563 -0.6126  0.3956
 8440SOL    HW136956   0.502   0.262   5.472  0.2803  1.0214 -1.1885
 8440SOL    HW236957   0.634   0.267   5.550 -1.7317 -1.6252  1.3206
 8441SOL     OW36958   4.487   0.371   2.239  0.2425  0.0337  0.3521
 8441SOL    HW136959   4.404   0.332   2.211  1.7405 -1.8688 -1.4916
 8441SOL    HW236960   4.463   0.396   2.328 -0.8727  0.0777  0.0355
 8442SOL     OW36961   3.166   1.190   0.861  0.4348  0.0732 -0.4538
 8442SOL    HW136962   3.173   1.135   0.939 -0.7923  0.3342 -0.1543
 8442SOL    HW236963   3.084   1.237   0.879 -1.7313 -2.3285 -4.0075
 8443SOL     OW36964   1.939   2.756   4.782  0.0547 -0.3543 -0.6191
 8443SOL    HW136965   2.019   2.724   4.822 -0.9862 -1.8228  0.3127
 8443SOL    HW236966   1.958   2.845   4.756  2.7911 -1.2276 -1.5359
 8444SOL     OW36967   3.664   3.439   2.712 -0.1055 -0.1956 -0.0252
 8444SOL    HW136968   3.591   3.384   2.739 -0.1544  0.3430  0.9526
 8444SOL    HW236969   3.646   3.451   2.619  1.1620  0.1528 -0.2207
 8445SOL     OW36970   0.584   3.143   7.914 -0.1127  0.1544  0.3681
 8445SOL    HW136971   0.586   3.109   8.004 -2.0055 -1.6563 -0.2646
 8445SOL    HW236972   0.527   3.220   7.923  1.6534  1.5554 -0.5658
 8446SOL     OW36973   4.681   2.513  15.119 -0.2662  0.2086  0.2936
 8446SOL    HW136974   4.697   2.577  15.189 -0.8134  0.4856  0.1655
 8446SOL    HW236975   0.034   2.503  15.084  0.0253 -0.6326  1.2689
 8447SOL     OW36976   2.978   3.231   0.549 -0.2162  0.6955 -0.0720
 8447SOL    HW136977   2.976   3.310   0.604 -1.1543  1.8438 -1.7480
 8447SOL    HW236978   2.985   3.261   0.458  0.7951 -0.1182 -0.2685
 8448SOL     OW36979   4.398   4.498   5.401 -0.5151 -0.2462  0.2699
 8448SOL    HW136980   4.444   4.418   5.425 -1.2950 -1.2092 -1.4338
 8448SOL    HW236981   4.348   4.516   5.481  1.5816  3.1410  0.8082
 8449SOL     OW36982   2.631   3.787   3.517 -0.9147 -0.4547 -0.0583
 8449SOL    HW136983   2.627   3.883   3.520  0.3725 -0.4897  3.0581
 8449SOL    HW236984   2.725   3.772   3.530 -1.5643 -2.1250  2.8595
 8450SOL     OW36985   2.265   1.190   6.059  0.0694  0.0125  0.6089
 8450SOL    HW136986   2.301   1.103   6.040 -1.1222 -0.5317  0.7864
 8450SOL    HW236987   2.316   1.214   6.136  0.0650  1.5990  0.1197
 8451SOL     OW36988   2.222   3.900   3.682 -0.8183  0.4604 -0.1916
 8451SOL    HW136989   2.201   3.880   3.773 -1.4312  1.6624 -0.0640
 8451SOL    HW236990   2.146   3.857   3.642 -1.0718  1.5323 -0.8527
 8452SOL     OW36991   1.033   4.630  11.248 -0.0255 -0.5928 -0.0538
 8452SOL    HW136992   1.117   4.634  11.204 -0.7972  1.3398 -1.3718
 8452SOL    HW236993   0.978   4.670  11.181  0.0096 -2.3557 -1.1071
 8453SOL     OW36994   4.558   3.766   9.889  0.4654  0.5441 -0.3249
 8453SOL    HW136995   4.612   3.798   9.817 -0.4693  1.0934 -0.7735
 8453SOL    HW236996   4.506   3.700   9.843  1.6218  0.2447 -1.2136
 8454SOL     OW36997   0.193   3.677   6.595  0.2282  0.1542 -0.4349
 8454SOL    HW136998   0.100   3.686   6.572  0.0007 -1.4151 -0.1009
 8454SOL    HW236999   0.240   3.702   6.515  0.8059  1.8793  0.4382
 8455SOL     OW37000   0.924   1.434   8.114 -0.2102  0.2930  0.2195
 8455SOL    HW137001   0.963   1.444   8.028  2.8272  2.1802  1.8127
 8455SOL    HW237002   0.957   1.511   8.161  1.3615  0.6302 -1.4560
 8456SOL     OW37003   1.005   0.748  15.534  0.3407 -0.1358  0.1450
 8456SOL    HW137004   0.961   0.791  15.461  0.2041 -1.1800 -0.3907
 8456SOL    HW237005   1.083   0.706  15.496  0.0602  0.6390 -1.2808
 8457SOL     OW37006   0.489   1.297   7.979 -0.7826 -0.3260  0.3449
 8457SOL    HW137007   0.472   1.203   7.974  2.6309 -0.9072 -0.0737
 8457SOL    HW237008   0.583   1.296   7.997 -0.7987  1.5352  0.4933
 8458SOL     OW37009   1.899   2.855   0.584  0.1755  0.5064 -0.6866
 8458SOL    HW137010   1.817   2.806   0.595  0.4534  0.4407  1.1890
 8458SOL    HW237011   1.965   2.786   0.594 -3.6514 -2.8424  1.5985
 8459SOL     OW37012   1.579   2.046   4.259  0.3387 -0.0686 -0.1752
 8459SOL    HW137013   1.531   2.015   4.336  0.6306  0.9836  0.4295
 8459SOL    HW237014   1.605   1.959   4.227  1.7245  0.6236 -0.9265
 8460SOL     OW37015   2.085   0.285   2.132 -0.3883  0.6745 -0.0788
 8460SOL    HW137016   2.072   0.208   2.078  0.0448  0.6436 -0.1404
 8460SOL    HW237017   2.122   0.247   2.212  1.6316  0.9102 -0.8773
 8461SOL     OW37018   3.534   1.431   1.592  0.6414 -0.1876 -0.0228
 8461SOL    HW137019   3.620   1.470   1.612 -0.0733  2.4433 -2.0875
 8461SOL    HW237020   3.554   1.369   1.523  2.6346 -0.8257  1.1222
 8462SOL     OW37021   2.538   3.244   6.906  0.3413  0.0911  0.4211
 8462SOL    HW137022   2.606   3.257   6.840 -0.7280 -1.4894 -0.9906
 8462SOL    HW237023   2.568   3.173   6.963  0.8853  0.0162  0.0415
 8463SOL     OW37024   1.482   2.243   8.942 -0.7499  0.2566 -0.2273
 8463SOL    HW137025   1.524   2.328   8.957 -0.7078  0.2434 -0.2707
 8463SOL    HW237026   1.467   2.254   8.848 -1.1653 -2.5612 -0.4690
 8464SOL     OW37027   1.215   3.149  14.896  0.5306 -0.6202  0.1371
 8464SOL    HW137028   1.165   3.182  14.821  1.3345 -0.6871 -0.4278
 8464SOL    HW237029   1.146   3.119  14.955  2.5842  0.3338  3.0209
 8465SOL     OW37030   1.592   3.991   4.604 -0.0165 -0.0847  0.5726
 8465SOL    HW137031   1.519   3.958   4.551 -0.0031  0.9071 -0.0715
 8465SOL    HW237032   1.605   4.080   4.572  0.7727 -0.3784  0.0739
 8466SOL     OW37033   3.522   2.964   9.613  0.2882 -1.0884  0.0685
 8466SOL    HW137034   3.605   2.991   9.654 -0.7217 -0.6216  1.7879
 8466SOL    HW237035   3.461   3.003   9.675  0.3552 -0.4749 -0.2466
 8467SOL     OW37036   3.467   1.387   3.122 -0.7352  0.0464 -0.2630
 8467SOL    HW137037   3.442   1.474   3.152 -0.3034 -0.0187  0.2922
 8467SOL    HW237038   3.381   1.347   3.123  0.0056 -1.5434 -0.5478
 8468SOL     OW37039   2.282   3.474   7.364 -0.1765 -0.1227  0.4599
 8468SOL    HW137040   2.251   3.560   7.393 -0.0903  0.1133 -0.1295
 8468SOL    HW237041   2.232   3.414   7.419 -0.0753 -0.1322  0.5397
 8469SOL     OW37042   2.737   2.565   9.170  0.1367 -0.5701 -0.1434
 8469SOL    HW137043   2.758   2.492   9.112 -1.9649  1.1916 -3.1432
 8469SOL    HW237044   2.650   2.538   9.197  0.2680 -0.9259 -0.0780
 8470SOL     OW37045   2.555   4.078   2.378  0.5132  0.1245 -0.2238
 8470SOL    HW137046   2.602   4.133   2.440  0.5023  1.5968 -1.5356
 8470SOL    HW237047   2.468   4.065   2.416  0.5881 -0.1281 -0.1360
 8471SOL     OW37048   0.305   3.537   3.457  0.4181 -0.4632  0.1505
 8471SOL    HW137049   0.375   3.563   3.397 -0.9111  1.5947 -0.5141
 8471SOL    HW237050   0.322   3.443   3.466  2.1023 -0.0626  1.0307
 8472SOL     OW37051   1.222   0.767   6.391 -0.5864  0.3036  0.4197
 8472SOL    HW137052   1.302   0.803   6.430 -0.6345 -0.8855  1.6084
 8472SOL    HW237053   1.239   0.780   6.297  1.8825  1.9381  1.0950
 8473SOL     OW37054   4.222   4.572   2.645 -0.1937 -0.6305 -0.2636
 8473SOL    HW137055   4.227   4.652   2.696 -1.0184  1.0795 -2.8299
 8473SOL    HW237056   4.215   4.513   2.720  0.2188 -1.4125 -0.8321
 8474SOL     OW37057   0.701   3.215   6.820  0.7091  0.2378  0.2349
 8474SOL    HW137058   0.664   3.288   6.870 -1.6381  0.0390 -1.1806
 8474SOL    HW237059   0.679   3.247   6.732  0.1249 -1.9291 -0.4050
 8475SOL     OW37060   0.292   2.576  13.146 -0.3623 -0.0457  0.5148
 8475SOL    HW137061   0.353   2.630  13.096  0.7326 -1.3779  0.4000
 8475SOL    HW237062   0.350   2.541  13.213  1.6219  1.7875 -0.2559
 8476SOL     OW37063   3.730   4.397   3.079  0.3098  0.2711 -0.2655
 8476SOL    HW137064   3.818   4.408   3.045  0.3489 -2.5102 -1.0014
 8476SOL    HW237065   3.753   4.435   3.164 -0.2798  0.6067 -0.2543
 8477SOL     OW37066   2.334   0.698  10.146  0.0710  0.1775  0.1106
 8477SOL    HW137067   2.385   0.779  10.148 -0.9811  0.8206  1.3786
 8477SOL    HW237068   2.409   0.639  10.143 -0.0897 -0.0759  1.1461
 8478SOL     OW37069   0.947   1.266   6.352 -0.2345 -0.2878 -0.8487
 8478SOL    HW137070   0.983   1.181   6.379  1.2364  0.3088 -0.9844
 8478SOL    HW237071   0.855   1.242   6.339  0.1828 -1.6842 -1.1946
 8479SOL     OW37072   1.164   2.719  13.295  0.0388  0.3892 -0.4464
 8479SOL    HW137073   1.157   2.804  13.252  1.4961  1.3798  1.2473
 8479SOL    HW237074   1.127   2.657  13.233 -0.5924  1.5040 -1.1823
 8480SOL     OW37075   0.308   3.844   2.745 -0.1762  0.0378 -0.5184
 8480SOL    HW137076   0.351   3.910   2.799 -0.1800  1.1101 -1.8291
 8480SOL    HW237077   0.223   3.882   2.719 -0.4373  0.0142  0.3048
 8481SOL     OW37078   2.435   0.551   8.955  0.2108 -0.2902 -0.1048
 8481SOL    HW137079   2.467   0.463   8.974  1.0338  0.0102 -0.0876
 8481SOL    HW237080   2.346   0.544   8.990  0.0930 -3.2200 -1.0099
 8482SOL     OW37081   1.304   2.606   6.452 -0.2918 -0.0287 -0.1556
 8482SOL    HW137082   1.283   2.513   6.453  0.5920 -0.2290  0.2758
 8482SOL    HW237083   1.219   2.649   6.463 -1.9575 -2.6430 -2.9698
 8483SOL     OW37084   2.952   4.724   8.616 -0.2086  0.2181 -0.3386
 8483SOL    HW137085   2.937   0.076   8.579  2.4263 -0.2950 -2.5723
 8483SOL    HW237086   2.866   4.683   8.619 -1.6375  3.2424  0.1492
 8484SOL     OW37087   3.851   1.631   2.920  0.3209  0.1640  0.1186
 8484SOL    HW137088   3.821   1.669   2.837  1.5968 -2.1339 -1.4330
 8484SOL    HW237089   3.891   1.556   2.875 -0.7377 -0.2989 -0.0469
 8485SOL     OW37090   1.832   0.893   9.196 -0.6017  0.0167  0.0686
 8485SOL    HW137091   1.843   0.948   9.274 -2.2370  0.5307 -0.0657
 8485SOL    HW237092   1.737   0.891   9.183 -0.8072  0.7714  1.4340
 8486SOL     OW37093   2.476   2.901   9.047  0.2311  0.7777  0.1945
 8486SOL    HW137094   2.517   2.838   9.106  0.1205  0.0833 -0.4564
 8486SOL    HW237095   2.515   2.869   8.965  1.0044 -0.2641  0.9680
 8487SOL     OW37096   3.589   4.039   0.433 -0.0411 -0.0554 -0.3144
 8487SOL    HW137097   3.522   4.105   0.414  0.4805 -0.9409 -5.2048
 8487SOL    HW237098   3.665   4.095   0.451  0.3526 -1.0708  1.2328
 8488SOL     OW37099   0.196   2.315   8.647  0.7652  0.0401 -0.5597
 8488SOL    HW137100   0.266   2.296   8.710 -1.0285 -1.2095  1.0800
 8488SOL    HW237101   0.171   2.229   8.614 -0.8147 -0.6075  2.3083
 8489SOL     OW37102   4.293   2.590   8.553  0.0625  0.4445 -0.1007
 8489SOL    HW137103   4.369   2.546   8.590 -0.4594 -1.0746 -0.8423
 8489SOL    HW237104   4.223   2.561   8.611 -0.6995  0.1987 -1.1324
 8490SOL     OW37105   4.267   0.373  11.681 -0.1659  0.2845  0.4002
 8490SOL    HW137106   4.186   0.380  11.630 -0.3064 -1.9101  0.3128
 8490SOL    HW237107   4.321   0.343  11.607  0.3269 -1.7375  1.5712
 8491SOL     OW37108   2.245   1.570  14.830  0.5862 -0.4052  0.1465
 8491SOL    HW137109   2.205   1.500  14.883  0.4178  0.5149  1.2366
 8491SOL    HW237110   2.308   1.609  14.891 -0.6022  0.3593  0.8700
 8492SOL     OW37111   4.700   0.778   5.163 -0.2142 -1.2122  0.6660
 8492SOL    HW137112   4.625   0.777   5.104  1.0825  2.7781 -1.0802
 8492SOL    HW237113   0.033   0.830   5.120  0.0327 -1.2094  1.0616
 8493SOL     OW37114   3.019   2.517   6.544 -0.3085  0.2663 -0.2552
 8493SOL    HW137115   3.042   2.583   6.609  0.1757 -1.4482  1.3061
 8493SOL    HW237116   3.077   2.542   6.472  1.6410 -0.3352  1.0967
 8494SOL     OW37117   2.658   0.695   9.076 -0.2955  0.0142  0.2116
 8494SOL    HW137118   2.610   0.647   9.008  0.1111 -0.9425  0.6055
 8494SOL    HW237119   2.745   0.657   9.064  0.4661  1.4392  1.1490
 8495SOL     OW37120   1.779   3.066   2.832 -0.6130  0.5179 -0.8380
 8495SOL    HW137121   1.835   3.097   2.761  1.3497 -0.5838  0.1987
 8495SOL    HW237122   1.700   3.110   2.801 -0.6009  0.5828 -0.7787
 8496SOL     OW37123   2.178   1.031   3.594 -0.0724 -0.1343  0.2230
 8496SOL    HW137124   2.273   1.031   3.586 -0.1339 -0.2994 -0.5263
 8496SOL    HW237125   2.156   1.023   3.687 -1.8080 -1.6399 -0.3051
 8497SOL     OW37126   4.168   0.641  13.920  0.0302  0.5874  0.7038
 8497SOL    HW137127   4.127   0.556  13.937  2.1698 -0.4417  0.7122
 8497SOL    HW237128   4.250   0.633  13.969 -0.5164 -0.8240  1.4167
 8498SOL     OW37129   1.771   3.289   7.631  0.3046  0.0724  0.2334
 8498SOL    HW137130   1.706   3.349   7.668 -0.5636 -0.8303  0.1709
 8498SOL    HW237131   1.720   3.239   7.567  2.2127 -1.6958  0.0758
 8499SOL     OW37132   3.173   3.868   5.890 -0.1264 -0.0103  0.3749
 8499SOL    HW137133   3.156   3.829   5.975 -2.1030 -0.4167 -0.2185
 8499SOL    HW237134   3.231   3.810   5.840  0.3578  1.4479 -0.7777
 8500SOL     OW37135   4.028   0.449   2.751 -0.5415  0.1949 -0.4977
 8500SOL    HW137136   4.055   0.425   2.839 -1.3084  1.2279  0.0240
 8500SOL    HW237137   4.111   0.450   2.702 -0.0823  0.1235  0.2847
 8501SOL     OW37138   3.060   0.181   8.220  0.4612  0.1239  0.3982
 8501SOL    HW137139   2.994   0.235   8.262 -1.1493  0.0551 -2.0593
 8501SOL    HW237140   3.091   0.233   8.147  1.0784 -0.2910  0.3587
 8502SOL     OW37141   2.674   0.275  13.929 -0.5175  0.8172 -0.1008
 8502SOL    HW137142   2.640   0.209  13.990 -1.9064  2.2383  0.6532
 8502SOL    HW237143   2.597   0.273  13.872 -0.5882  0.1658  0.0102
 8503SOL     OW37144   0.207   3.422   5.306 -0.2986  0.1345 -0.4671
 8503SOL    HW137145   0.252   3.435   5.389 -0.5553 -1.4215 -0.0746
 8503SOL    HW237146   0.214   3.328   5.285  0.0290 -0.1803  1.0421
 8504SOL     OW37147   1.314   3.531   6.558  0.2599 -0.1246 -0.4132
 8504SOL    HW137148   1.220   3.549   6.562  0.6615  1.8418 -0.0297
 8504SOL    HW237149   1.337   3.474   6.632  0.5944  1.1796  0.4827
 8505SOL     OW37150   4.581   2.258   8.451 -0.2943 -0.3968 -0.2573
 8505SOL    HW137151   4.485   2.265   8.456 -0.5194 -1.1648 -3.2536
 8505SOL    HW237152   4.596   2.261   8.357 -1.1967  2.1042 -0.3048
 8506SOL     OW37153   4.047   2.936   7.661  0.3156 -0.0415  0.0564
 8506SOL    HW137154   4.073   3.015   7.614  2.1363 -0.0457  1.0741
 8506SOL    HW237155   4.099   2.868   7.619 -0.3948 -0.9034  0.5510
 8507SOL     OW37156   0.697   1.917  10.933  0.2491 -0.3226  0.0677
 8507SOL    HW137157   0.713   1.837  10.983  3.2134  0.5106  0.4461
 8507SOL    HW237158   0.730   1.982  10.995  2.1699 -1.2724  0.0205
 8508SOL     OW37159   2.549   1.997   5.622 -0.2653 -0.4784 -0.1071
 8508SOL    HW137160   2.514   2.013   5.534  0.9768 -0.2838 -0.5617
 8508SOL    HW237161   2.640   1.970   5.607 -0.3213 -0.2532 -0.8867
 8509SOL     OW37162   3.923   1.974   0.455 -0.2184 -0.6910 -0.0697
 8509SOL    HW137163   3.950   1.910   0.521  0.3640 -1.7861 -1.3539
 8509SOL    HW237164   3.967   2.054   0.483 -0.4854 -0.9651  1.1324
 8510SOL     OW37165   1.350   1.973   1.207 -0.1738  0.2421  0.1060
 8510SOL    HW137166   1.278   2.035   1.213 -0.4147  0.0069 -0.4083
 8510SOL    HW237167   1.316   1.903   1.151  1.6442 -1.7447  1.4683
 8511SOL     OW37168   1.123   2.168  11.699 -0.6817  0.2316 -0.2635
 8511SOL    HW137169   1.182   2.120  11.757 -0.8147  2.0293  1.3827
 8511SOL    HW237170   1.168   2.253  11.704  2.2712 -1.4325  1.6389
 8512SOL     OW37171   3.263   2.542  11.696  0.3460  0.0788 -0.1927
 8512SOL    HW137172   3.274   2.609  11.763  2.3371 -0.4781  0.0311
 8512SOL    HW237173   3.200   2.591  11.643  0.1930 -1.9212 -1.8565
 8513SOL     OW37174   3.314   2.795   6.191  0.3079 -0.1323 -1.1666
 8513SOL    HW137175   3.333   2.859   6.260 -1.6932 -0.3651 -0.3895
 8513SOL    HW237176   3.404   2.773   6.165  0.1227 -0.8911 -1.1680
 8514SOL     OW37177   1.420   4.067   3.939 -0.1110 -0.4979 -0.0720
 8514SOL    HW137178   1.462   4.125   4.002 -0.5138 -0.0436 -0.2208
 8514SOL    HW237179   1.443   3.977   3.961 -1.8035 -1.0880 -0.7460
 8515SOL     OW37180   4.108   3.975  15.548  0.2196  0.0857  0.1824
 8515SOL    HW137181   4.167   3.952  15.476  0.0306 -0.5534  0.2266
 8515SOL    HW237182   4.106   4.068  15.526  0.4055  0.3819  1.4185
 8516SOL     OW37183   1.952   0.980  10.894  0.1451  0.4667  0.2981
 8516SOL    HW137184   1.936   1.073  10.878  0.4178  0.4919  0.1782
 8516SOL    HW237185   1.914   0.943  10.815  1.2685  0.2032 -0.1141
 8517SOL     OW37186   0.267   1.517   9.981  0.5505  0.2293 -0.8658
 8517SOL    HW137187   0.272   1.522  10.076 -0.4049 -1.0753 -0.7536
 8517SOL    HW237188   0.350   1.471   9.967  0.5646 -0.0069  0.0076
 8518SOL     OW37189   0.630   1.713  11.567  0.0365  0.3546 -0.0378
 8518SOL    HW137190   0.714   1.739  11.530  1.7922  1.6971  4.9701
 8518SOL    HW237191   0.570   1.733  11.494 -1.1972  0.2151  0.9423
 8519SOL     OW37192   2.298   3.584   3.945 -0.5106  0.0556 -0.1341
 8519SOL    HW137193   2.318   3.496   3.977  2.4740  1.2696  1.3690
 8519SOL    HW237194   2.324   3.571   3.853 -2.4132 -0.8562 -0.5325
 8520SOL     OW37195   1.958   0.728   3.818  0.3387 -0.2167 -0.2432
 8520SOL    HW137196   1.988   0.747   3.728  2.1259 -2.1132 -0.0368
 8520SOL    HW237197   1.988   0.637   3.818 -3.6845 -1.5410 -0.7850
 8521SOL     OW37198   3.309   4.442   7.189  0.4794  0.3453 -0.5703
 8521SOL    HW137199   3.292   4.444   7.095 -3.3213  1.3023  0.1382
 8521SOL    HW237200   3.279   4.354   7.211  1.2145  0.1820 -0.2282
 8522SOL     OW37201   0.449   1.248   5.708  0.4050 -0.2268  0.3332
 8522SOL    HW137202   0.365   1.293   5.719 -0.3602 -1.9726  1.6228
 8522SOL    HW237203   0.458   1.203   5.792  0.1408  0.3926  0.6925
 8523SOL     OW37204   0.028   0.306  10.079 -0.1387 -0.2596  0.0256
 8523SOL    HW137205   4.718   0.308  10.164  0.4477 -0.6443  0.3491
 8523SOL    HW237206   4.733   0.221  10.047  2.6110 -1.0104 -0.6101
 8524SOL     OW37207   2.377   0.514   1.564 -0.1015  0.0942  0.0419
 8524SOL    HW137208   2.352   0.597   1.523 -1.0437 -2.0147 -3.6959
 8524SOL    HW237209   2.473   0.513   1.553 -0.2046 -1.2224 -0.7545
 8525SOL     OW37210   0.002   1.422  17.578 -0.0816 -0.2479 -0.1699
 8525SOL    HW137211   4.714   1.444  17.488  0.0434 -0.9175 -0.3667
 8525SOL    HW237212   0.097   1.414  17.576 -0.2090 -2.3844  2.0360
 8526SOL     OW37213   2.553   4.071   9.880 -0.6374  0.0693  0.2720
 8526SOL    HW137214   2.618   4.005   9.857 -2.4859 -1.3319 -0.9164
 8526SOL    HW237215   2.536   4.129   9.805 -0.5799  0.6774  0.7314
 8527SOL     OW37216   1.396   1.364   7.773  0.0823  0.4826  0.3485
 8527SOL    HW137217   1.487   1.356   7.743 -1.0445  0.3257 -2.9915
 8527SOL    HW237218   1.391   1.459   7.776 -0.1680  0.4083  2.0212
 8528SOL     OW37219   3.490   3.956   7.973 -0.1760 -0.5909  0.0006
 8528SOL    HW137220   3.429   3.892   8.011  0.5382 -2.4311 -1.9186
 8528SOL    HW237221   3.511   3.899   7.899  1.8977 -0.0616  0.1952
 8529SOL     OW37222   1.195   2.082   5.837  0.4332  0.0836 -0.3743
 8529SOL    HW137223   1.147   2.149   5.886  1.7225  0.6852  0.0665
 8529SOL    HW237224   1.206   2.013   5.902 -1.5506 -0.5490 -0.7372
 8530SOL     OW37225   3.612   3.174   6.033 -0.0877 -0.1258 -0.1295
 8530SOL    HW137226   3.531   3.203   6.074  0.8094 -0.1644  1.6868
 8530SOL    HW237227   3.584   3.180   5.942  1.7051 -0.0744 -0.6911
 8531SOL     OW37228   4.372   2.336   2.941 -0.4289 -0.1123 -0.6049
 8531SOL    HW137229   4.419   2.367   2.864 -0.0389  1.0024  0.0858
 8531SOL    HW237230   4.290   2.385   2.931 -0.3890  0.0298 -0.2359
 8532SOL     OW37231   3.738   0.473   2.827 -0.1143  0.3173 -0.4833
 8532SOL    HW137232   3.687   0.433   2.756  1.3931 -0.5987 -1.0439
 8532SOL    HW237233   3.815   0.477   2.770  0.0884  3.0138 -0.0175
 8533SOL     OW37234   2.570   2.417  15.398 -0.3259 -0.4780 -0.0763
 8533SOL    HW137235   2.511   2.465  15.457  0.6057  2.2730 -1.4215
 8533SOL    HW237236   2.537   2.434  15.310  0.0669 -1.5717 -0.4346
 8534SOL     OW37237   0.182   2.071   2.094  0.2809  0.1572  0.4164
 8534SOL    HW137238   0.256   2.024   2.055  0.3604 -0.0296  0.7919
 8534SOL    HW237239   0.218   2.157   2.118 -0.0020  0.6343 -0.8653
 8535SOL     OW37240   2.449   0.744   4.950 -0.5999 -0.7991  0.3926
 8535SOL    HW137241   2.409   0.695   4.878  0.0455  0.0806 -0.5592
 8535SOL    HW237242   2.367   0.770   4.990  0.0351  0.8402  0.6179
 8536SOL     OW37243   3.747   0.868   6.711  0.4586  0.2164 -0.3570
 8536SOL    HW137244   3.755   0.925   6.787 -0.8356  0.9441 -0.7532
 8536SOL    HW237245   3.739   0.934   6.641  0.1667  1.3643  0.7683
 8537SOL     OW37246   3.597   3.585   3.981  0.4559 -0.1525  0.4397
 8537SOL    HW137247   3.508   3.620   3.986  0.7445  0.2754  2.6275
 8537SOL    HW237248   3.596   3.546   3.894 -2.9159 -0.9227  0.8500
 8538SOL     OW37249   1.638   3.004   5.916 -0.3242 -0.2538  0.1314
 8538SOL    HW137250   1.586   3.072   5.958 -0.9432  0.2650 -1.4632
 8538SOL    HW237251   1.717   3.004   5.970  0.6371  1.1599 -1.2530
 8539SOL     OW37252   1.221   2.069  15.542  0.1204  0.2339 -0.7987
 8539SOL    HW137253   1.231   1.977  15.567  1.2896  0.4477 -0.4812
 8539SOL    HW237254   1.309   2.102  15.557  0.6842 -1.1869 -0.9741
 8540SOL     OW37255   0.817   1.253   4.068  0.4652 -0.2299  0.1166
 8540SOL    HW137256   0.743   1.301   4.106  1.9105  1.5952  0.5959
 8540SOL    HW237257   0.894   1.306   4.087  0.8929 -0.4705 -0.8982
 8541SOL     OW37258   1.362   3.418   7.211  0.0581  0.4696  0.2176
 8541SOL    HW137259   1.313   3.494   7.180  1.3341  0.1583 -2.5842
 8541SOL    HW237260   1.298   3.348   7.199  0.7469 -0.0436 -0.5215
 8542SOL     OW37261   3.628   2.091   3.343  0.1509 -0.2391 -0.0833
 8542SOL    HW137262   3.599   2.060   3.428 -0.1142  1.3816  0.4092
 8542SOL    HW237263   3.553   2.149   3.336  0.7778  0.7268  1.1391
 8543SOL     OW37264   4.320   2.938  17.352 -0.6982  0.6417 -0.0418
 8543SOL    HW137265   4.356   2.917  17.266  1.6859  1.2563  0.8242
 8543SOL    HW237266   4.373   2.883  17.410  1.7397  1.3634 -1.6096
 8544SOL     OW37267   0.923   3.972   5.056 -0.5726 -0.2834  1.2564
 8544SOL    HW137268   0.872   4.038   5.102 -0.0249  0.4986  0.7399
 8544SOL    HW237269   1.012   4.004   5.069 -0.0639 -1.7670  1.4903
 8545SOL     OW37270   3.898   0.372  16.330 -0.0110  0.1386 -0.2023
 8545SOL    HW137271   3.891   0.410  16.418 -1.8776 -1.2129  0.2409
 8545SOL    HW237272   3.811   0.338  16.307  0.0231 -0.6768  0.8596
 8546SOL     OW37273   1.757   3.729   3.495  0.1444  0.1651  0.5215
 8546SOL    HW137274   1.693   3.796   3.519 -2.2030 -1.7434 -0.3797
 8546SOL    HW237275   1.826   3.727   3.561  0.7661  0.0546 -0.1338
 8547SOL     OW37276   3.767   4.252   0.488 -0.4258  0.1188  0.9684
 8547SOL    HW137277   3.858   4.277   0.505 -0.7458  0.4954  2.1268
 8547SOL    HW237278   3.735   4.335   0.452  1.1179 -0.9134 -2.7752
 8548SOL     OW37279   3.190   3.295   2.115  0.1944  0.1209 -0.3891
 8548SOL    HW137280   3.124   3.340   2.062  0.0413  0.1842 -0.1483
 8548SOL    HW237281   3.131   3.259   2.182 -2.1933  1.2184 -1.8815
 8549SOL     OW37282   0.384   3.482   8.849 -0.3886 -0.2464  0.0123
 8549SOL    HW137283   0.305   3.505   8.800 -0.9052 -0.6928  0.6338
 8549SOL    HW237284   0.389   3.389   8.825  2.5413 -0.3630  1.0852
 8550SOL     OW37285   2.222   4.571   4.649  0.4247 -0.5550  0.1552
 8550SOL    HW137286   2.215   4.625   4.728 -1.4381 -0.6557  0.0666
 8550SOL    HW237287   2.317   4.569   4.636  0.4515  0.1746  0.2007
 8551SOL     OW37288   3.142   0.897   6.438  0.1833 -0.0948 -0.1033
 8551SOL    HW137289   3.069   0.926   6.384  0.3581  0.7343  0.1024
 8551SOL    HW237290   3.101   0.896   6.524 -0.4921 -0.4668 -0.4328
 8552SOL     OW37291   2.230   4.617  14.245  0.1944 -0.5509  0.0631
 8552SOL    HW137292   2.164   4.553  14.218 -1.4629  0.1968  2.3072
 8552SOL    HW237293   2.185   4.700  14.228 -1.2403 -1.2546  0.3834
 8553SOL     OW37294   0.162   3.119   5.164  0.0223  0.3120 -0.5927
 8553SOL    HW137295   0.082   3.168   5.146 -0.0245  1.3120  2.3913
 8553SOL    HW237296   0.159   3.045   5.103  2.7621 -0.6172  0.3737
 8554SOL     OW37297   0.110   0.224  15.943 -0.3977 -0.0300 -0.2611
 8554SOL    HW137298   0.045   0.199  16.009  0.9653  0.2931  1.2061
 8554SOL    HW237299   0.139   0.141  15.904  0.6042  0.9188 -1.5689
 8555SOL     OW37300   4.568   0.712   6.079  0.1674 -0.4355  0.8048
 8555SOL    HW137301   4.660   0.719   6.102  0.9633  1.0181 -2.9522
 8555SOL    HW237302   4.567   0.630   6.029  2.0726  0.2189 -0.2742
 8556SOL     OW37303   0.789   2.156  12.847  0.1322 -0.7900  0.3987
 8556SOL    HW137304   0.851   2.219  12.812  2.8050 -2.5509  2.0049
 8556SOL    HW237305   0.740   2.136  12.766  0.9152 -0.6711 -0.1030
 8557SOL     OW37306   3.916   0.371   4.831  0.2508  0.1866  0.1666
 8557SOL    HW137307   3.832   0.385   4.788 -0.1636  0.3570  1.0301
 8557SOL    HW237308   3.903   0.415   4.915  0.5475  0.9345 -0.1813
 8558SOL     OW37309   2.525   0.256  12.706 -0.1962  0.2833  0.0292
 8558SOL    HW137310   2.525   0.246  12.611  1.3630  0.5587  0.0024
 8558SOL    HW237311   2.448   0.312  12.717  0.0205  0.7862 -1.0987
 8559SOL     OW37312   0.820   3.641   2.408 -0.0784 -0.0955 -0.1655
 8559SOL    HW137313   0.821   3.725   2.361  0.1230 -0.3527 -0.6194
 8559SOL    HW237314   0.882   3.592   2.355 -1.4738  1.2247 -3.0196
 8560SOL     OW37315   0.434   3.562  11.290 -0.4624  0.5310 -0.6295
 8560SOL    HW137316   0.441   3.630  11.224 -0.9096  0.7127 -0.4964
 8560SOL    HW237317   0.525   3.548  11.316 -1.0174 -0.2514  0.9101
 8561SOL     OW37318   4.244   3.153  17.001 -0.4731 -0.0082 -0.7818
 8561SOL    HW137319   4.230   3.145  16.907  0.8827 -2.2784 -0.8013
 8561SOL    HW237320   4.340   3.144  16.998 -0.1992  1.6936  2.8335
 8562SOL     OW37321   3.265   3.793   9.816 -0.9725  0.0302 -0.2146
 8562SOL    HW137322   3.351   3.759   9.840 -0.8424  1.8533  1.9091
 8562SOL    HW237323   3.241   3.716   9.765  0.0943  0.3961 -1.2727
 8563SOL     OW37324   4.153   2.910   6.197 -0.2648 -0.0854 -0.0478
 8563SOL    HW137325   4.199   2.894   6.115 -1.0519 -1.5281 -0.2048
 8563SOL    HW237326   4.178   2.998   6.225 -0.2141  0.5236 -2.0395
 8564SOL     OW37327   3.101   2.974  11.821 -0.0481  0.5919 -0.0321
 8564SOL    HW137328   3.028   2.944  11.767  1.3359 -2.3401 -0.2742
 8564SOL    HW237329   3.080   2.933  11.905 -1.5384  0.2819 -0.5520
 8565SOL     OW37330   2.961   3.486   9.054 -0.7313  0.1829 -0.3382
 8565SOL    HW137331   2.888   3.425   9.046 -0.4522 -0.5451  2.8357
 8565SOL    HW237332   2.909   3.567   9.048 -0.0600  0.7413  1.2498
 8566SOL     OW37333   2.268   3.100   2.726 -0.1587  0.2484  0.1821
 8566SOL    HW137334   2.236   3.120   2.638  1.5502 -0.3304 -0.5691
 8566SOL    HW237335   2.198   3.068   2.783 -0.0471  0.9391  0.7102
 8567SOL     OW37336   1.779   1.896   6.683  0.2732  0.0955  0.2693
 8567SOL    HW137337   1.874   1.894   6.669  0.1994  0.0361 -0.2146
 8567SOL    HW237338   1.746   1.847   6.608  2.0450  1.0117 -1.0940
 8568SOL     OW37339   1.576   1.705   9.035  0.8478  0.1717 -0.0688
 8568SOL    HW137340   1.539   1.675   9.118  1.2136  0.6453  0.2717
 8568SOL    HW237341   1.500   1.748   8.995  0.7810 -0.9719 -1.1610
 8569SOL     OW37342   3.118   0.070   4.201 -0.2889 -0.1237  0.8139
 8569SOL    HW137343   3.040   0.014   4.210 -0.2270 -0.2044  0.8506
 8569SOL    HW237344   3.076   0.134   4.144  0.3122 -2.1542 -1.9517
 8570SOL     OW37345   3.861   0.662  14.471 -0.0727 -0.1664 -0.2123
 8570SOL    HW137346   3.787   0.721  14.485 -0.1727 -0.9732  2.7509
 8570SOL    HW237347   3.809   0.589  14.440  0.7446 -0.0054 -1.9347
 8571SOL     OW37348   1.415   0.930   2.019  0.5155 -0.3411  0.3941
 8571SOL    HW137349   1.378   0.999   1.964  0.4676 -0.7248 -0.0553
 8571SOL    HW237350   1.339   0.906   2.072  0.6900 -2.2321 -0.1996
 8572SOL     OW37351   2.781   0.288   3.832  0.3869  0.1310  0.2166
 8572SOL    HW137352   2.804   0.362   3.889  0.6919  0.6666 -0.6023
 8572SOL    HW237353   2.730   0.232   3.891  1.0779 -1.2418 -0.4796
 8573SOL     OW37354   0.582   4.232   3.485  0.6239  0.1230  0.2609
 8573SOL    HW137355   0.650   4.271   3.429  1.5312 -0.1332  1.1742
 8573SOL    HW237356   0.622   4.147   3.501  1.0096  0.0108 -1.2972
 8574SOL     OW37357   3.672   0.733   5.557  0.3416 -0.1997 -0.0497
 8574SOL    HW137358   3.598   0.702   5.507  1.2807  1.8860 -2.7331
 8574SOL    HW237359   3.678   0.825   5.531 -1.5092 -0.4386 -1.2616
 8575SOL     OW37360   2.143   3.416   9.064 -0.4365 -0.1028 -0.2712
 8575SOL    HW137361   2.103   3.501   9.049  0.9791  0.2356 -2.1371
 8575SOL    HW237362   2.192   3.399   8.983 -1.8122  1.4272 -1.4398
 8576SOL     OW37363   4.543   3.816   8.313 -0.7511  0.3639 -0.3497
 8576SOL    HW137364   4.628   3.855   8.290 -1.9973  3.2200 -0.1526
 8576SOL    HW237365   4.497   3.886   8.359 -1.0301  0.5313 -0.8753
 8577SOL     OW37366   4.649   2.643   5.378 -0.0038  0.0641 -0.2198
 8577SOL    HW137367   4.621   2.567   5.429 -2.3733  0.5691 -0.7738
 8577SOL    HW237368   0.002   2.659   5.411 -0.1693 -1.0675  0.7332
 8578SOL     OW37369   2.526   1.610  17.195  0.2548  0.1253 -0.1610
 8578SOL    HW137370   2.461   1.540  17.195 -1.7697  1.9993 -1.6101
 8578SOL    HW237371   2.516   1.652  17.280  1.0829  1.0457 -0.5165
 8579SOL     OW37372   2.307   0.577   5.882  0.5111 -0.0269  0.1023
 8579SOL    HW137373   2.261   0.514   5.937 -0.5970  1.3079  0.7245
 8579SOL    HW237374   2.345   0.517   5.818  0.9312 -0.5990  0.8920
 8580SOL     OW37375   4.682   1.694   5.125  0.2257 -0.1048  0.0007
 8580SOL    HW137376   4.706   1.750   5.052 -0.9617 -0.9364 -1.0233
 8580SOL    HW237377   4.661   1.613   5.079  2.7724 -0.6388 -0.1940
 8581SOL     OW37378   0.841   0.006   0.053  0.1015  0.7877  0.1453
 8581SOL    HW137379   0.755   4.730   0.092  0.2788  2.4058  1.0111
 8581SOL    HW237380   0.857   0.100   0.062  3.1326  0.4759 -1.9937
 8582SOL     OW37381   4.094   1.138   5.644  0.2602 -0.9121  0.2351
 8582SOL    HW137382   4.156   1.082   5.690 -0.7551 -0.6421  1.9435
 8582SOL    HW237383   4.085   1.091   5.561 -2.6419  1.3907 -0.7840
 8583SOL     OW37384   4.292   0.019   2.858  0.3828  0.0514  0.3131
 8583SOL    HW137385   4.355   4.702   2.907 -2.2514 -4.4825 -1.1949
 8583SOL    HW237386   4.224   0.014   2.926 -0.6447  1.8968 -0.5596
 8584SOL     OW37387   1.482   0.430   3.456  0.3929  0.3689 -0.1392
 8584SOL    HW137388   1.540   0.465   3.524  1.3999 -2.0669  0.2422
 8584SOL    HW237389   1.409   0.392   3.504  0.8476 -1.5222 -0.9540
 8585SOL     OW37390   4.533   4.147   6.985  0.0351 -0.1061  0.6183
 8585SOL    HW137391   4.603   4.084   6.967 -0.8484 -1.0987  0.6817
 8585SOL    HW237392   4.499   4.169   6.899  2.9788  1.0516 -0.2469
 8586SOL     OW37393   3.655   4.643   2.841 -0.4989 -0.0364  0.6413
 8586SOL    HW137394   3.601   4.720   2.825 -3.2023 -1.2816  3.8620
 8586SOL    HW237395   3.607   4.574   2.794  3.2624 -2.6188  0.6248
 8587SOL     OW37396   3.667   4.476   5.609 -0.0118  0.2853  0.2158
 8587SOL    HW137397   3.594   4.508   5.661  0.0502  1.3650 -0.3685
 8587SOL    HW237398   3.626   4.473   5.523 -2.1730  1.4673  1.2111
 8588SOL     OW37399   0.422   3.078   3.018  0.3452  0.0991  0.2034
 8588SOL    HW137400   0.437   2.998   3.069  0.4284  0.0714  0.1339
 8588SOL    HW237401   0.333   3.055   2.992  0.1266  1.3011 -0.0907
 8589SOL     OW37402   0.019   1.722  10.626 -0.1079 -0.1123 -0.4792
 8589SOL    HW137403   0.074   1.702  10.551 -1.5350 -2.4426 -0.8901
 8589SOL    HW237404   0.007   1.817  10.616  2.3600  0.4040  1.3048
 8590SOL     OW37405   2.907   2.830  15.721  0.3032  0.2785  0.7450
 8590SOL    HW137406   2.902   2.881  15.640  0.1301  1.4076  1.4664
 8590SOL    HW237407   2.949   2.897  15.775  0.9453 -1.5353  2.5075
 8591SOL     OW37408   2.530   0.390   7.615  0.4832 -0.2441 -0.3826
 8591SOL    HW137409   2.551   0.423   7.702 -0.8104  0.7211 -0.4393
 8591SOL    HW237410   2.437   0.368   7.618  0.3660  0.1151 -1.3088
 8592SOL     OW37411   2.533   1.622   2.114  0.0327  0.5454  0.1350
 8592SOL    HW137412   2.490   1.707   2.121  2.4501  1.7078  0.7915
 8592SOL    HW237413   2.467   1.561   2.079  1.9902 -1.7156  0.3777
 8593SOL     OW37414   1.494   2.808   2.975 -0.1113 -0.3603 -0.0513
 8593SOL    HW137415   1.426   2.869   3.004  1.2577  0.6597  1.0511
 8593SOL    HW237416   1.436   2.733   2.990  1.1305 -1.1113  0.9759
 8594SOL     OW37417   3.211   3.734  17.373 -0.3808  0.2032 -0.2464
 8594SOL    HW137418   3.250   3.821  17.365  2.6564 -1.0028  1.1749
 8594SOL    HW237419   3.271   3.682  17.318 -0.2526  0.4499 -0.3387
 8595SOL     OW37420   4.725   2.939   2.750 -0.0337 -0.2749 -0.1041
 8595SOL    HW137421   0.010   3.006   2.685 -0.7294 -0.0941 -0.1417
 8595SOL    HW237422   4.643   2.910   2.710  0.8729  1.0800 -2.9339
 8596SOL     OW37423   3.598   0.615  12.826  0.2805 -0.4368 -0.4810
 8596SOL    HW137424   3.671   0.675  12.811 -1.3090  2.1500  2.1295
 8596SOL    HW237425   3.577   0.586  12.737 -1.5023  0.8191 -0.4601
 8597SOL     OW37426   0.751   2.853   7.921 -0.0121  0.3899  0.2521
 8597SOL    HW137427   0.731   2.768   7.960 -0.2992 -0.0246 -0.7986
 8597SOL    HW237428   0.680   2.906   7.956 -0.5787  0.8844 -1.6304
 8598SOL     OW37429   3.233   1.596   1.341  0.5572  0.1353 -0.2236
 8598SOL    HW137430   3.322   1.628   1.354  0.4408 -0.1302  1.2167
 8598SOL    HW237431   3.177   1.672   1.354 -0.3124 -0.3378 -1.1989
 8599SOL     OW37432   0.687   2.716   5.280  0.2115  0.0803  0.4224
 8599SOL    HW137433   0.670   2.625   5.304  2.0530 -0.2813  0.3239
 8599SOL    HW237434   0.600   2.755   5.286  0.0872  0.1960 -2.3316
 8600SOL     OW37435   3.474   1.794   9.921  0.5860 -0.4271  0.1809
 8600SOL    HW137436   3.462   1.789   9.826 -0.6993 -1.8776  0.4203
 8600SOL    HW237437   3.564   1.760   9.923  0.5122 -0.6406 -0.2659
 8601SOL     OW37438   2.316   3.342   0.754 -0.7139  0.1289  0.4637
 8601SOL    HW137439   2.276   3.394   0.823  1.6438  1.1625  1.0466
 8601SOL    HW237440   2.382   3.405   0.727 -0.5706 -0.1940  0.0584
 8602SOL     OW37441   4.084   3.841  15.809 -0.2451 -0.2239 -0.0871
 8602SOL    HW137442   4.172   3.834  15.846 -0.2227 -0.6799 -0.2367
 8602SOL    HW237443   4.091   3.887  15.726 -0.0987 -1.4167 -0.7274
 8603SOL     OW37444   3.478   2.005   8.004 -0.3850 -0.2094 -0.4869
 8603SOL    HW137445   3.407   2.038   8.059  1.1812 -0.3275  1.6284
 8603SOL    HW237446   3.538   1.965   8.067 -0.5080  1.5466  0.7411
 8604SOL     OW37447   2.685   2.450  12.823  0.0247  0.0377 -0.3473
 8604SOL    HW137448   2.701   2.466  12.730  5.4786  0.0300  0.5797
 8604SOL    HW237449   2.750   2.380  12.834  0.1723  0.1465 -0.5277
 8605SOL     OW37450   2.865   4.606  15.757 -0.4662  0.3022 -0.5278
 8605SOL    HW137451   2.882   4.594  15.850  0.3774  0.3708 -0.6729
 8605SOL    HW237452   2.875   4.517  15.724  0.3068 -0.0780  0.7559
 8606SOL     OW37453   4.679   3.802   1.575  0.1770 -0.8168 -0.5517
 8606SOL    HW137454   4.671   3.887   1.531 -0.8128 -0.1361  0.9276
 8606SOL    HW237455   4.601   3.764   1.534 -0.5113  0.0973 -0.0978
 8607SOL     OW37456   1.862   4.321   0.260  0.3536 -0.0560 -0.1696
 8607SOL    HW137457   1.844   4.405   0.218 -1.2384  0.4910  1.6156
 8607SOL    HW237458   1.957   4.323   0.260  0.3122  1.3788 -0.5005
 8608SOL     OW37459   0.540   2.423   4.849  0.0554  0.4329 -0.1088
 8608SOL    HW137460   0.467   2.402   4.908  0.6846 -0.1564  0.4419
 8608SOL    HW237461   0.535   2.340   4.802  1.9029  0.6970 -0.7675
 8609SOL     OW37462   3.329   1.926  10.907  0.1132  0.6136 -0.4612
 8609SOL    HW137463   3.423   1.940  10.905 -0.0512  1.8208  1.0753
 8609SOL    HW237464   3.302   2.017  10.898  2.3155  1.5543  2.6408
 8610SOL     OW37465   2.786   0.303   9.097  0.4639 -0.0646  0.4811
 8610SOL    HW137466   2.798   0.211   9.118 -1.7204 -0.7246 -1.1476
 8610SOL    HW237467   2.708   0.319   9.150 -0.0236  1.7142 -0.7805
 8611SOL     OW37468   0.161   0.432   4.879 -0.0627 -0.3153 -0.0027
 8611SOL    HW137469   0.166   0.493   4.952 -1.3441  0.2497 -0.3920
 8611SOL    HW237470   0.207   0.479   4.809 -0.8926 -2.2911 -1.8797
 8612SOL     OW37471   3.079   0.159   0.305  0.8624  0.3307 -0.5723
 8612SOL    HW137472   3.116   0.246   0.321 -0.5571  1.0092 -1.0121
 8612SOL    HW237473   2.994   0.174   0.264 -0.0808 -0.1975  1.1921
 8613SOL     OW37474   4.248   2.623   7.721  0.3037 -0.2143 -0.3177
 8613SOL    HW137475   4.330   2.574   7.731  0.0286 -0.8978 -1.4125
 8613SOL    HW237476   4.259   2.702   7.774 -0.0644  0.1631 -0.8037
 8614SOL     OW37477   0.383   4.726  15.243  0.0524  0.0965 -0.2042
 8614SOL    HW137478   0.469   0.014  15.207  0.0231  2.2516  1.1292
 8614SOL    HW237479   0.407   4.659  15.307  1.3646  2.7222  2.0696
 8615SOL     OW37480   2.947   4.491   7.071 -0.9674  0.0261 -0.3624
 8615SOL    HW137481   2.963   4.538   6.990  1.7850 -0.2840  0.0269
 8615SOL    HW237482   2.884   4.424   7.041 -2.3487  1.5487 -0.8586
 8616SOL     OW37483   2.160   0.557   9.064  0.3599 -0.0783 -0.7495
 8616SOL    HW137484   2.113   0.638   9.043  0.3937  0.0958 -0.1670
 8616SOL    HW237485   2.150   0.543   9.158 -0.4893 -1.1394 -1.0119
 8617SOL     OW37486   3.431   2.183   0.081 -0.2078  0.0711  0.2997
 8617SOL    HW137487   3.383   2.163   0.161 -0.5941 -1.9209 -0.4313
 8617SOL    HW237488   3.485   2.106   0.065 -1.2591 -0.6571  0.3238
 8618SOL     OW37489   1.709   1.519   4.029  0.2078 -0.2421  0.0072
 8618SOL    HW137490   1.699   1.604   4.072 -0.5085  0.0017 -0.6398
 8618SOL    HW237491   1.623   1.481   4.044  0.5524 -1.1500 -0.2889
 8619SOL     OW37492   0.519   3.461   4.000  0.1363 -0.3442 -0.2165
 8619SOL    HW137493   0.607   3.489   4.025 -0.5973  2.2259 -0.5592
 8619SOL    HW237494   0.551   3.391   3.944  1.4221 -1.3979  1.8209
 8620SOL     OW37495   0.168   4.391   6.642 -0.4761 -0.4121  0.0469
 8620SOL    HW137496   0.122   4.443   6.708  2.0362  2.6814 -0.6515
 8620SOL    HW237497   0.110   4.403   6.567  1.4523  1.0713 -1.2283
 8621SOL     OW37498   0.304   2.090   5.045  0.1777  0.1098 -0.3125
 8621SOL    HW137499   0.317   2.012   4.992  2.4535 -0.2112  0.7141
 8621SOL    HW237500   0.220   2.118   5.009  0.7122  1.1156 -0.7923
 8622SOL     OW37501   3.991   3.008   6.486 -0.3024 -0.2633 -0.5099
 8622SOL    HW137502   4.038   2.932   6.521 -0.7829 -0.5839 -0.5615
 8622SOL    HW237503   3.999   2.990   6.393  2.5525 -1.3090 -0.0572
 8623SOL     OW37504   3.473   3.425   1.624 -0.3437  0.1008 -0.4384
 8623SOL    HW137505   3.544   3.405   1.685 -2.0228 -3.5263  0.3394
 8623SOL    HW237506   3.511   3.402   1.540  0.8123 -0.3680  0.2153
 8624SOL     OW37507   3.190   2.900   3.691  0.0022 -0.4629  0.0671
 8624SOL    HW137508   3.098   2.925   3.679 -0.5486 -3.5427 -2.1737
 8624SOL    HW237509   3.212   2.876   3.601  0.1154  0.5126 -0.1599
 8625SOL     OW37510   4.476   2.814  17.531 -0.4220 -0.1483 -0.2328
 8625SOL    HW137511   4.566   2.838  17.554 -0.3640 -0.8681  0.3042
 8625SOL    HW237512   4.496   2.723  17.510  2.6350  0.3750  0.3817
 8626SOL     OW37513   0.125   4.324   6.957  0.3046  0.4600  0.1764
 8626SOL    HW137514   0.184   4.396   6.977  1.0588 -0.4420  1.2067
 8626SOL    HW237515   0.110   4.281   7.041 -0.1513 -1.3602 -0.8297
 8627SOL     OW37516   1.193   2.427  13.791 -0.5000  0.5698  0.1093
 8627SOL    HW137517   1.201   2.504  13.736  1.2848 -0.4025 -0.9725
 8627SOL    HW237518   1.213   2.371  13.716 -0.1073  0.2448  0.4566
 8628SOL     OW37519   0.430   0.473  15.739 -0.0635 -0.0149  0.5056
 8628SOL    HW137520   0.423   0.498  15.647  0.2080 -0.6296  0.3152
 8628SOL    HW237521   0.440   0.378  15.728  0.2868  0.1570 -0.5853
 8629SOL     OW37522   0.352   3.958   5.803 -0.0671  0.0038  0.0738
 8629SOL    HW137523   0.317   4.013   5.872  1.5161  2.4925 -1.0939
 8629SOL    HW237524   0.311   3.997   5.725  0.7863 -1.2990 -1.0245
 8630SOL     OW37525   3.392   2.025   4.352  0.2324  0.4355 -0.2376
 8630SOL    HW137526   3.389   2.016   4.257 -0.1159 -1.2765 -0.0589
 8630SOL    HW237527   3.465   1.974   4.387  0.2286 -0.6676 -1.8293
 8631SOL     OW37528   4.191   1.859   1.003  0.5848 -0.1648  0.1923
 8631SOL    HW137529   4.116   1.812   0.967  0.4880  0.5297 -0.4980
 8631SOL    HW237530   4.201   1.821   1.091 -0.2152 -0.3591  0.1959
 8632SOL     OW37531   1.421   3.368   6.762  0.1604  0.7077 -0.4834
 8632SOL    HW137532   1.474   3.364   6.682  2.0474 -1.4681  0.8614
 8632SOL    HW237533   1.464   3.290   6.798 -4.4488 -0.4882  2.3231
 8633SOL     OW37534   4.304   1.050   6.024  0.0420 -0.1694  0.0339
 8633SOL    HW137535   4.284   1.144   6.031 -2.6261 -0.8877  2.1656
 8633SOL    HW237536   4.393   1.056   6.059  0.7679  0.4661 -1.9118
 8634SOL     OW37537   0.689   0.954  17.143  0.1619  0.1082 -0.4242
 8634SOL    HW137538   0.754   0.975  17.210 -1.1774 -0.4715  1.0566
 8634SOL    HW237539   0.616   0.920  17.194 -0.0131  1.5464  0.3061
 8635SOL     OW37540   0.567   1.048   3.340 -0.1386 -0.4108  0.8010
 8635SOL    HW137541   0.638   1.010   3.391  0.1963 -0.0991  0.5682
 8635SOL    HW237542   0.548   1.133   3.379  1.0936 -0.1808  0.9053
 8636SOL     OW37543   2.988   0.338   9.771  0.6526 -0.3171  0.1369
 8636SOL    HW137544   3.028   0.363   9.688 -1.8093  2.2465 -0.3089
 8636SOL    HW237545   3.006   0.244   9.775  0.3084 -0.3913  0.0379
 8637SOL     OW37546   4.339   0.542   4.145  0.0334  0.0616  0.1771
 8637SOL    HW137547   4.343   0.634   4.172  0.1359  0.3566 -0.8782
 8637SOL    HW237548   4.264   0.530   4.086  1.9467 -0.3656 -2.1232
 8638SOL     OW37549   3.755   1.174   9.226  0.2525  0.4071  0.2098
 8638SOL    HW137550   3.685   1.138   9.172  1.1560 -3.6985  1.7929
 8638SOL    HW237551   3.787   1.097   9.273 -1.6287  2.3552  4.6564
 8639SOL     OW37552   4.524   3.322   8.532 -0.3885 -0.3539 -0.0165
 8639SOL    HW137553   4.451   3.318   8.594 -1.0333  0.6428 -0.6937
 8639SOL    HW237554   4.483   3.392   8.481 -0.0341  0.8521  1.3417
 8640SOL     OW37555   2.922   1.837   1.925  0.1422 -0.1797  0.0105
 8640SOL    HW137556   2.835   1.866   1.896  0.6803  1.2203 -0.2160
 8640SOL    HW237557   2.980   1.905   1.891  1.6736 -0.9171  1.1327
 8641SOL     OW37558   3.828   0.769   6.332 -0.0936  0.2054  0.0369
 8641SOL    HW137559   3.770   0.844   6.332 -0.3737 -0.0025  2.5103
 8641SOL    HW237560   3.909   0.818   6.349 -0.2439  0.6742 -0.6101
 8642SOL     OW37561   4.013   1.295   9.101 -0.0148  0.6849 -0.0179
 8642SOL    HW137562   4.085   1.300   9.164  0.8030 -2.0919 -0.7129
 8642SOL    HW237563   3.935   1.284   9.155 -0.1376  1.5345 -0.0183
 8643SOL     OW37564   1.144   4.070   4.449 -0.0380 -0.2907 -0.5823
 8643SOL    HW137565   1.128   3.978   4.428  0.1405 -0.0023 -1.9878
 8643SOL    HW237566   1.210   4.088   4.382 -0.3670  1.2165 -0.4935
 8644SOL     OW37567   2.466   3.817   5.894 -0.7669 -0.5267  0.0112
 8644SOL    HW137568   2.424   3.750   5.839  0.1450 -0.2193 -1.0387
 8644SOL    HW237569   2.536   3.850   5.839 -0.9640 -0.4173 -0.1726
 8645SOL     OW37570   1.788   3.309   9.437 -0.7724  0.2127  0.2788
 8645SOL    HW137571   1.736   3.229   9.437 -0.4263 -0.0076  1.5580
 8645SOL    HW237572   1.726   3.372   9.400 -2.8667 -0.8894  1.8963
 8646SOL     OW37573   1.453   2.263   2.628  0.6260  0.8059 -0.4392
 8646SOL    HW137574   1.432   2.349   2.591 -0.7245 -0.1914 -1.9732
 8646SOL    HW237575   1.533   2.234   2.584  1.2778  1.9577 -0.0352
 8647SOL     OW37576   2.261   0.341   7.554  0.0360  0.2265  0.4051
 8647SOL    HW137577   2.219   0.415   7.510 -1.2365 -0.2158  0.8934
 8647SOL    HW237578   2.200   0.323   7.626  2.1295 -1.2020  1.8319
 8648SOL     OW37579   1.895   2.236   1.088  0.2757  0.4881 -0.1297
 8648SOL    HW137580   1.800   2.245   1.090  0.3005  0.8971 -0.6781
 8648SOL    HW237581   1.909   2.141   1.089 -2.0912  0.1396 -1.7547
 8649SOL     OW37582   1.371   1.301   8.914  0.1382  1.3568 -0.1685
 8649SOL    HW137583   1.282   1.321   8.885  0.6087 -1.0140 -3.2885
 8649SOL    HW237584   1.367   1.318   9.008 -0.7477  0.7860 -0.0957
 8650SOL     OW37585   3.142   1.965   1.809  0.7631 -0.3782  0.2049
 8650SOL    HW137586   3.188   2.018   1.744 -1.9679 -0.2582 -1.6274
 8650SOL    HW237587   3.214   1.912   1.844  0.9814  0.0515  0.4055
 8651SOL     OW37588   4.117   0.032  13.090  0.1184 -0.4564 -0.6662
 8651SOL    HW137589   4.185   4.704  13.069 -0.6187 -1.0733 -1.1463
 8651SOL    HW237590   4.082   0.003  13.174 -1.3057  1.6638 -0.5084
 8652SOL     OW37591   0.458   1.693  16.996  0.2603 -0.5715 -0.2008
 8652SOL    HW137592   0.369   1.670  17.023  0.8712 -1.5129  1.0345
 8652SOL    HW237593   0.509   1.612  17.004  1.0994  0.0163  0.4962
 8653SOL     OW37594   1.900   0.352   3.677 -0.0113  0.2675  0.5534
 8653SOL    HW137595   1.910   0.387   3.589  0.3854 -1.4891 -0.0892
 8653SOL    HW237596   1.987   0.316   3.694  0.2083 -0.1818 -1.6296
 8654SOL     OW37597   2.841   4.695   4.219  0.5626 -0.0045 -0.0091
 8654SOL    HW137598   2.775   0.002   4.165 -0.6699  0.5450  1.9466
 8654SOL    HW237599   2.804   4.611   4.246  0.5804 -0.4254 -1.3089
 8655SOL     OW37600   1.453   2.243   4.562  0.1477 -0.2220 -0.2192
 8655SOL    HW137601   1.440   2.317   4.504 -0.3827 -0.2818 -0.1700
 8655SOL    HW237602   1.365   2.226   4.595  0.9366 -0.9537  1.4985
 8656SOL     OW37603   3.886   1.367  11.725  0.9487 -0.1875 -0.3341
 8656SOL    HW137604   3.818   1.355  11.791  0.9284 -0.6101 -0.4340
 8656SOL    HW237605   3.827   1.400  11.657  0.7325 -1.2561 -0.6729
 8657SOL     OW37606   3.836   4.656  10.097  0.5914  0.3087  0.0930
 8657SOL    HW137607   3.837   4.717  10.023 -3.7364 -0.8883 -0.9895
 8657SOL    HW237608   3.920   4.673  10.138  1.4715 -0.1167 -1.5415
 8658SOL     OW37609   3.382   0.497  14.307  0.0342  0.7993  0.1073
 8658SOL    HW137610   3.434   0.577  14.302  2.6801 -0.9138 -0.0508
 8658SOL    HW237611   3.310   0.536  14.258  1.3571 -0.1209 -2.5673
 8659SOL     OW37612   0.182   2.339  17.514 -0.5097 -0.2352  0.3853
 8659SOL    HW137613   0.198   2.432  17.532  0.7505  0.2639 -3.2333
 8659SOL    HW237614   0.092   2.340  17.480 -0.5329 -0.0665  0.4504
 8660SOL     OW37615   1.629   3.898   5.255  0.4696 -0.3381 -0.4040
 8660SOL    HW137616   1.691   3.946   5.201 -1.1002  0.3663 -1.6007
 8660SOL    HW237617   1.631   3.963   5.325 -0.6232 -1.5359  0.7448
 8661SOL     OW37618   0.376   1.202  17.196 -0.0864 -0.0146 -0.1587
 8661SOL    HW137619   0.401   1.120  17.154  2.1681 -0.3997  1.9372
 8661SOL    HW237620   0.385   1.184  17.289  0.4436 -0.3107 -0.2723
 8662SOL     OW37621   3.185   2.190   7.935  0.1728  0.5782 -0.1562
 8662SOL    HW137622   3.194   2.176   8.029  0.9788  0.5340 -0.2469
 8662SOL    HW237623   3.255   2.138   7.895  0.2955  1.7625 -1.4802
 8663SOL     OW37624   4.171   1.941   8.103  0.7446 -0.0015  0.4231
 8663SOL    HW137625   4.091   1.888   8.102 -0.1330  1.3556 -1.9171
 8663SOL    HW237626   4.178   1.955   8.009 -1.0141 -1.0877  0.1339
 8664SOL     OW37627   3.027   0.208   0.977 -0.8472  0.4422 -0.4114
 8664SOL    HW137628   3.092   0.278   0.985  0.6889 -0.9198 -0.9329
 8664SOL    HW237629   3.016   0.199   0.882 -0.1243  0.3024 -0.4896
 8665SOL     OW37630   4.654   0.352   3.894  0.1536 -0.4509 -0.3055
 8665SOL    HW137631   4.703   0.271   3.880  0.6873  0.1747 -2.1693
 8665SOL    HW237632   4.623   0.345   3.804  0.1537 -1.1623 -0.2490
 8666SOL     OW37633   3.614   4.465   9.419 -0.3788 -0.0832 -0.1022
 8666SOL    HW137634   3.566   4.407   9.360 -0.6488  2.8316 -2.7243
 8666SOL    HW237635   3.598   4.554   9.388  0.8081  0.0197 -0.3875
 8667SOL     OW37636   4.145   1.737  16.182 -0.0563  0.0610 -0.0529
 8667SOL    HW137637   4.052   1.735  16.163 -0.1444  0.9382  0.3216
 8667SOL    HW237638   4.185   1.744  16.095  0.6536  1.4695  0.3854
 8668SOL     OW37639   4.068   3.945   7.902  0.4674 -0.6251  0.0635
 8668SOL    HW137640   4.031   3.912   7.820 -0.4604 -0.7049  0.5138
 8668SOL    HW237641   4.027   4.029   7.922  0.0188 -0.9513  0.5495
 8669SOL     OW37642   0.736   2.442   6.830  0.5195 -0.3164  0.0567
 8669SOL    HW137643   0.827   2.462   6.811  0.2292  3.0322  2.2043
 8669SOL    HW237644   0.746   2.349   6.853  1.4322  0.2284  1.8258
 8670SOL     OW37645   3.144   2.651   3.769 -0.0333 -0.0228  0.4381
 8670SOL    HW137646   3.153   2.745   3.755  1.6818 -0.4579 -1.4992
 8670SOL    HW237647   3.236   2.623   3.766  0.0838  0.4369 -0.3905
 8671SOL     OW37648   4.457   4.320  13.006  0.4458  0.4983 -0.3235
 8671SOL    HW137649   4.461   4.339  13.099 -1.7379  0.3951 -0.2131
 8671SOL    HW237650   4.363   4.313  12.986  0.6902  0.9118 -1.6389
 8672SOL     OW37651   3.392   2.970   6.385 -0.2252  0.0110  0.1173
 8672SOL    HW137652   3.319   2.984   6.446  0.4622 -0.1594  0.9744
 8672SOL    HW237653   3.461   3.000   6.444 -0.4077  0.8127 -0.0806
 8673SOL     OW37654   1.480   1.273  17.639 -0.3639  0.9492  0.5384
 8673SOL    HW137655   1.419   1.341  17.611  0.9272  1.6464 -0.6116
 8673SOL    HW237656   1.505   1.242  17.552 -1.3064 -0.3377  0.7364
 8674SOL     OW37657   2.476   2.059   5.901  0.1307  0.3348 -0.2877
 8674SOL    HW137658   2.520   2.044   5.817 -0.1723 -0.2867 -0.3348
 8674SOL    HW237659   2.397   2.099   5.865 -0.0549  0.3210  0.1063
 8675SOL     OW37660   1.552   3.608   6.928  0.2423  0.0089 -0.5121
 8675SOL    HW137661   1.511   3.526   6.901 -0.2968  0.3304 -0.6780
 8675SOL    HW237662   1.590   3.596   7.014  2.2003 -1.5136 -1.5869
 8676SOL     OW37663   4.626   2.953   2.182 -0.3476 -0.5433  0.3004
 8676SOL    HW137664   4.554   3.013   2.161 -0.1901  0.7865  3.4093
 8676SOL    HW237665   4.692   3.014   2.218 -2.9792  1.0731  2.4227
 8677SOL     OW37666   3.996   1.940   2.357  0.2740  0.1416 -0.0078
 8677SOL    HW137667   3.934   1.868   2.351  0.1663  0.2300  0.0460
 8677SOL    HW237668   3.998   1.950   2.452 -0.4713  1.6986 -0.1520
 8678SOL     OW37669   0.480   1.671   0.230  0.6206  0.2956  0.5012
 8678SOL    HW137670   0.447   1.595   0.182  2.6342 -0.8628  0.9279
 8678SOL    HW237671   0.576   1.665   0.234  0.5994 -0.9900 -0.9851
 8679SOL     OW37672   2.113   2.891  17.331  0.1106 -0.3144 -0.6431
 8679SOL    HW137673   2.092   2.938  17.250 -0.9446  3.1272  1.6460
 8679SOL    HW237674   2.197   2.860  17.298 -0.1819 -0.0697 -1.6262
 8680SOL     OW37675   4.023   3.066   0.170  0.8919  0.1083  0.2740
 8680SOL    HW137676   4.101   3.017   0.143 -1.1787 -2.5202 -0.9041
 8680SOL    HW237677   4.062   3.150   0.194  0.2365  0.5510 -0.2210
 8681SOL     OW37678   1.637   2.901   9.659 -0.0758 -0.2324  0.5904
 8681SOL    HW137679   1.544   2.923   9.659  0.0050  0.1503 -0.6706
 8681SOL    HW237680   1.665   2.951   9.736  2.1256 -2.3531  1.1435
 8682SOL     OW37681   3.337   3.548  17.229  0.1433  0.6661 -0.2088
 8682SOL    HW137682   3.432   3.551  17.241  0.0570  1.1530  0.3693
 8682SOL    HW237683   3.330   3.563  17.135 -1.5477  0.9594 -0.0344
 8683SOL     OW37684   2.415   2.258   6.313 -0.2945  0.2969 -0.0711
 8683SOL    HW137685   2.436   2.350   6.328 -0.6067  0.1486  1.2656
 8683SOL    HW237686   2.500   2.215   6.306  0.3126  1.6155 -0.9258
 8684SOL     OW37687   4.500   0.921   1.919 -0.5117  0.6569  0.4523
 8684SOL    HW137688   4.533   0.964   1.998 -0.1271 -0.3518  0.8521
 8684SOL    HW237689   4.562   0.848   1.924  0.0798  1.0452 -1.4927
 8685SOL     OW37690   1.026   0.985   6.452  0.4564  0.4789 -0.4148
 8685SOL    HW137691   1.118   0.964   6.440  0.6711  0.8489  0.6443
 8685SOL    HW237692   0.987   0.899   6.463 -0.0727  0.7154 -0.4333
 8686SOL     OW37693   1.466   2.690   2.145 -0.3495  0.1447  0.1103
 8686SOL    HW137694   1.414   2.638   2.207 -0.1907 -1.5081 -1.1259
 8686SOL    HW237695   1.479   2.621   2.080 -0.7696 -1.0389  1.2798
 8687SOL     OW37696   0.029   1.277  15.291 -0.0401 -0.0218  0.4540
 8687SOL    HW137697   0.088   1.222  15.239  2.6614  2.1398  1.2082
 8687SOL    HW237698   4.690   1.271  15.232 -0.7141 -1.9641  1.5012
 8688SOL     OW37699   1.958   1.779   1.981 -0.3228  0.3065  0.4270
 8688SOL    HW137700   1.971   1.859   1.929 -1.1270 -0.4284 -0.9057
 8688SOL    HW237701   1.866   1.757   1.970 -0.6332  2.0234 -0.3530
 8689SOL     OW37702   4.380   0.072   7.992 -0.1616  0.1648  0.0877
 8689SOL    HW137703   4.299   0.089   7.944 -1.3178  0.9173  2.3193
 8689SOL    HW237704   4.410   0.162   8.006  0.0556  0.1652 -0.3975
 8690SOL     OW37705   2.784   4.298   6.948 -0.5782 -0.3251  0.0342
 8690SOL    HW137706   2.739   4.282   6.866 -0.4330  3.8501 -0.8574
 8690SOL    HW237707   2.711   4.302   7.010  0.2428  0.7634  0.9357
 8691SOL     OW37708   4.700   0.648   0.488 -0.6291 -0.2612  0.2963
 8691SOL    HW137709   4.668   0.657   0.577  0.7831  0.3977  0.7423
 8691SOL    HW237710   0.051   0.609   0.495 -0.1553  0.1789 -2.7885
 8692SOL     OW37711   4.165   0.257   7.757 -0.5140 -0.2874 -0.5310
 8692SOL    HW137712   4.106   0.214   7.819 -2.2297  0.7357 -1.4629
 8692SOL    HW237713   4.158   0.349   7.779  0.9457 -0.1412 -0.6745
 8693SOL     OW37714   2.406   1.623   2.502  0.1076 -0.0117 -0.0717
 8693SOL    HW137715   2.363   1.623   2.416  3.0828 -0.3621 -1.5549
 8693SOL    HW237716   2.437   1.533   2.512  1.5065  0.6830  1.8601
 8694SOL     OW37717   4.260   2.598  12.780 -0.0966  0.1784  0.3856
 8694SOL    HW137718   4.232   2.688  12.765 -2.3306 -0.4567  0.6547
 8694SOL    HW237719   4.221   2.599  12.868 -0.3233 -0.0405  0.2883
 8695SOL     OW37720   1.210   0.407   8.261 -0.0557  0.0967  0.0947
 8695SOL    HW137721   1.141   0.460   8.221 -1.8144 -2.5141 -0.3406
 8695SOL    HW237722   1.176   0.395   8.350  1.6395 -0.0195  0.7222
 8696SOL     OW37723   4.665   3.853  16.634 -0.2695 -0.4220  0.3202
 8696SOL    HW137724   0.008   3.907  16.622 -1.7218  1.5549 -0.1448
 8696SOL    HW237725   4.682   3.814  16.720 -1.5549 -3.0446 -0.6052
 8697SOL     OW37726   0.947   0.439   3.431  0.4746  0.2834  0.0512
 8697SOL    HW137727   0.865   0.488   3.424 -0.2494 -0.8085  0.8038
 8697SOL    HW237728   0.958   0.430   3.337  1.8138  0.7055  0.1656
 8698SOL     OW37729   2.218   4.146   3.549  0.3295  0.2761  0.0621
 8698SOL    HW137730   2.261   4.105   3.474 -1.9953  1.2244 -1.7940
 8698SOL    HW237731   2.201   4.066   3.599  2.2703 -0.1834 -0.0141
 8699SOL     OW37732   0.130   0.075  12.746 -0.3876  0.0452  0.5760
 8699SOL    HW137733   0.069   0.092  12.817 -0.1104 -0.3387  0.9075
 8699SOL    HW237734   0.109   0.150  12.690  0.2644 -1.3000 -1.4737
 8700SOL     OW37735   3.129   4.349  17.441 -0.3350 -0.6296 -0.1733
 8700SOL    HW137736   3.069   4.289  17.485  0.6670 -1.5921 -0.1182
 8700SOL    HW237737   3.193   4.293  17.398 -1.3889 -1.0569 -1.1795
 8701SOL     OW37738   1.657   4.444   2.255 -0.2503  0.1632 -0.6321
 8701SOL    HW137739   1.625   4.399   2.177  0.1862  0.4887 -0.9984
 8701SOL    HW237740   1.571   4.483   2.271  0.0518  0.2161  0.8226
 8702SOL     OW37741   2.880   1.436   5.228 -0.4236 -0.2599  0.5322
 8702SOL    HW137742   2.922   1.420   5.312  0.6421  0.2550  0.0901
 8702SOL    HW237743   2.900   1.351   5.188 -2.7520 -1.9688  3.0164
 8703SOL     OW37744   1.720   1.097   3.562  0.4106  0.3576  0.1014
 8703SOL    HW137745   1.695   1.037   3.633 -2.1936 -1.9210 -2.7768
 8703SOL    HW237746   1.773   1.044   3.503 -2.0875 -1.9789 -0.0479
 8704SOL     OW37747   3.349   1.910   0.003 -0.0428  0.0807  0.2019
 8704SOL    HW137748   3.401   1.890   0.081 -0.1192 -1.5716 -0.1699
 8704SOL    HW237749   3.282   1.842   0.005 -0.4539  0.5230  1.6369
 8705SOL     OW37750   0.276   2.761   9.760  0.0222 -0.0396 -0.4527
 8705SOL    HW137751   0.247   2.677   9.795  0.1612  0.0563 -0.1160
 8705SOL    HW237752   0.200   2.783   9.706 -1.2800  0.8043  1.7144
 8706SOL     OW37753   4.431   3.815   5.653  0.3415  0.1620 -0.5231
 8706SOL    HW137754   4.343   3.779   5.636  1.1600 -1.7571 -0.6844
 8706SOL    HW237755   4.407   3.907   5.661  1.1025  0.2125  1.0371
 8707SOL     OW37756   4.249   3.661  16.111 -0.2481  0.1309 -0.2133
 8707SOL    HW137757   4.312   3.605  16.066  2.4543  0.2478  3.4946
 8707SOL    HW237758   4.254   3.737  16.052  1.6309 -0.6077 -1.0124
 8708SOL     OW37759   2.186   0.016   3.251 -0.3447  0.1967  0.9184
 8708SOL    HW137760   2.258   0.076   3.273 -0.4435  0.6843 -0.1108
 8708SOL    HW237761   2.130   0.023   3.329 -2.3156  1.1753 -0.5926
 8709SOL     OW37762   0.168   4.214  10.481 -0.0280  0.1131  0.3201
 8709SOL    HW137763   0.100   4.165  10.434  0.4115 -0.9664  0.7944
 8709SOL    HW237764   0.143   4.182  10.568 -0.6140  1.1189  0.5129
 8710SOL     OW37765   0.636   0.928   4.902  0.0636  0.6011 -0.1660
 8710SOL    HW137766   0.553   0.879   4.898 -0.5057  1.5616 -0.3069
 8710SOL    HW237767   0.624   0.978   4.982  0.2652 -0.9122  0.8021
 8711SOL     OW37768   0.668   2.308   5.880 -0.1572  0.6092  0.6540
 8711SOL    HW137769   0.666   2.221   5.841  1.4620  0.8207  0.0726
 8711SOL    HW237770   0.602   2.359   5.833  0.9057  0.2076 -1.2709
 8712SOL     OW37771   1.534   4.639   6.882  0.0702 -0.3958  0.5206
 8712SOL    HW137772   1.501   4.708   6.825 -0.5114 -0.7891  0.3889
 8712SOL    HW237773   1.588   4.589   6.820 -1.0997  1.0700 -1.6817
 8713SOL     OW37774   0.382   3.697   4.342 -0.0220  0.2243  0.2799
 8713SOL    HW137775   0.309   3.757   4.332 -0.5920 -0.7493 -1.4300
 8713SOL    HW237776   0.339   3.611   4.341  0.2840  0.0640  0.5941
 8714SOL     OW37777   0.662   2.750   9.476  0.0898 -0.4242 -0.4204
 8714SOL    HW137778   0.733   2.687   9.465 -0.2005 -0.6011 -1.2875
 8714SOL    HW237779   0.706   2.812   9.418  0.3725 -1.5727 -1.4410
 8715SOL     OW37780   1.567   4.473  15.759 -0.1896  0.2897  0.3784
 8715SOL    HW137781   1.511   4.453  15.684 -0.4262  0.0600  0.6184
 8715SOL    HW237782   1.550   4.566  15.774  2.0312  0.3612  2.5031
 8716SOL     OW37783   3.963   0.695   6.687 -0.6082 -0.3197  0.1453
 8716SOL    HW137784   3.905   0.771   6.685  2.6105  2.0138 -2.5403
 8716SOL    HW237785   3.915   0.637   6.747  1.7804 -2.3492  0.0936
 8717SOL     OW37786   4.668   4.063   4.966  0.4302 -0.2458 -0.1883
 8717SOL    HW137787   4.703   4.093   4.882 -1.7105  0.5754 -0.8022
 8717SOL    HW237788   4.734   4.004   5.002 -0.4501 -1.2197 -0.1556
 8718SOL     OW37789   1.776   0.554   5.819 -0.5023  0.0789 -0.3146
 8718SOL    HW137790   1.871   0.553   5.805 -0.2193  1.8230  1.4793
 8718SOL    HW237791   1.752   0.464   5.799 -2.4587 -0.0507  2.6011
 8719SOL     OW37792   0.783   3.838   8.963 -0.0950  0.6276  0.1408
 8719SOL    HW137793   0.795   3.825   9.057  1.4526 -1.9489 -0.4057
 8719SOL    HW237794   0.836   3.916   8.948 -1.1541  1.0794 -1.2575
 8720SOL     OW37795   2.059   0.754   3.571 -0.0990 -0.0182 -0.1464
 8720SOL    HW137796   2.123   0.823   3.555 -0.6472  0.6823  0.6939
 8720SOL    HW237797   2.004   0.763   3.493  0.0392 -3.6668 -0.6764
 8721SOL     OW37798   0.961   1.356   3.278  0.4081 -0.0360 -0.1742
 8721SOL    HW137799   1.001   1.401   3.352 -0.0733  1.2105 -0.6716
 8721SOL    HW237800   0.950   1.271   3.320 -1.5663  0.0396 -0.5224
 8722SOL     OW37801   0.045   1.289   6.653 -0.6295  0.2038 -0.0612
 8722SOL    HW137802   0.108   1.341   6.601 -2.9463  1.9349 -1.1258
 8722SOL    HW237803   4.707   1.349   6.668 -0.7276 -0.1504  0.8394
 8723SOL     OW37804   0.054   1.639  15.035  0.3611  0.4580  0.0745
 8723SOL    HW137805   4.696   1.621  15.041  0.4927 -0.9643 -2.2389
 8723SOL    HW237806   0.105   1.560  15.055  0.3845  0.1889 -1.0374
 8724SOL     OW37807   1.973   3.634   4.626  0.3008  0.2450  0.1275
 8724SOL    HW137808   2.015   3.572   4.687 -1.4083  0.8748  1.9332
 8724SOL    HW237809   1.884   3.638   4.661  0.4027 -0.1862  0.4423
 8725SOL     OW37810   1.825   1.221   9.692  0.2712 -0.2121 -0.3500
 8725SOL    HW137811   1.894   1.155   9.705  2.2951  1.9598 -0.1474
 8725SOL    HW237812   1.876   1.296   9.663 -0.8849  0.4487 -0.6460
 8726SOL     OW37813   1.323   2.569  17.308  0.1358  0.3904  0.1834
 8726SOL    HW137814   1.370   2.595  17.387  0.6776 -0.8240  0.2573
 8726SOL    HW237815   1.252   2.513  17.339 -0.4198  1.7529  1.3714
 8727SOL     OW37816   2.346   3.651   5.705 -0.3132  0.2923  0.0841
 8727SOL    HW137817   2.325   3.561   5.729 -2.1422  0.2009 -1.8547
 8727SOL    HW237818   2.267   3.674   5.657  0.2443  2.6710  0.2933
 8728SOL     OW37819   4.191   4.532   5.629  0.4820 -0.1155 -0.2604
 8728SOL    HW137820   4.242   4.510   5.707  1.1645 -0.6167 -0.8439
 8728SOL    HW237821   4.147   4.612   5.657 -1.1784 -1.2170  0.2857
 8729SOL     OW37822   2.544   2.162   5.191 -0.3310  0.3156  0.4295
 8729SOL    HW137823   2.497   2.100   5.246 -0.2522 -0.5971 -0.5382
 8729SOL    HW237824   2.634   2.167   5.223 -0.3009 -0.6253  0.4666
 8730SOL     OW37825   3.361   0.931   3.456 -0.0077  0.2188  0.5480
 8730SOL    HW137826   3.310   1.012   3.452  0.4779  0.6238  2.3093
 8730SOL    HW237827   3.306   0.883   3.394 -1.0842  2.2861 -0.1098
 8731SOL     OW37828   4.435   4.069  17.600  0.7997 -0.2180  0.5237
 8731SOL    HW137829   4.456   4.027  17.684  0.7657 -2.4356 -0.5692
 8731SOL    HW237830   4.494   4.143  17.590  2.1556 -1.3388  0.1830
 8732SOL     OW37831   4.429   3.336   1.704  0.3963  0.4752 -1.1117
 8732SOL    HW137832   4.348   3.323   1.654  0.6731 -1.1498 -1.1246
 8732SOL    HW237833   4.436   3.431   1.694  0.9336  0.6824  1.4227
 8733SOL     OW37834   1.602   0.297   2.465 -0.1467  0.1741  0.6930
 8733SOL    HW137835   1.644   0.237   2.526 -0.8213  0.9533  1.9356
 8733SOL    HW237836   1.644   0.380   2.488  0.9055 -0.4882  1.1475
 8734SOL     OW37837   2.536   4.614   1.954  0.4636 -0.5549  0.1343
 8734SOL    HW137838   2.464   4.571   2.000  0.8175 -0.7513  0.4985
 8734SOL    HW237839   2.528   4.708   1.971  1.6880 -0.3470 -0.4169
 8735SOL     OW37840   0.180   4.406   3.115  0.5273  0.2145  0.0943
 8735SOL    HW137841   0.263   4.429   3.074 -0.1208  1.0708 -0.7239
 8735SOL    HW237842   0.209   4.410   3.206 -2.6568 -1.4363  1.1947
 8736SOL     OW37843   4.724   1.278   3.081  0.2870 -0.1570  0.0412
 8736SOL    HW137844   0.042   1.201   3.104 -0.4777 -1.2700 -1.8540
 8736SOL    HW237845   0.047   1.352   3.096  1.7780 -1.0844 -1.1886
 8737SOL     OW37846   2.666   3.522   5.283  0.5742  0.4568 -0.1782
 8737SOL    HW137847   2.698   3.597   5.232  0.7058 -0.3329 -1.2457
 8737SOL    HW237848   2.648   3.553   5.372  0.4789 -0.3573  0.0885
 8738SOL     OW37849   2.193   0.476   6.490  0.3518 -0.1101 -0.8729
 8738SOL    HW137850   2.158   0.402   6.540  1.7056 -0.0738  0.0974
 8738SOL    HW237851   2.155   0.554   6.530 -0.7225 -0.8822 -0.3639
 8739SOL     OW37852   1.550   4.574   5.078 -0.4687  0.2733 -0.1329
 8739SOL    HW137853   1.529   4.543   5.166 -1.3994 -1.3287 -0.9212
 8739SOL    HW237854   1.512   4.662   5.084  0.2027  0.4467  1.5702
 8740SOL     OW37855   3.976   0.921   5.881 -0.3079  0.0391 -0.5560
 8740SOL    HW137856   4.048   0.905   5.819  1.8728  4.1815  0.8457
 8740SOL    HW237857   3.999   1.011   5.906  0.6505 -0.3207 -0.1306
 8741SOL     OW37858   4.552   1.821   1.304 -0.1489  0.1375  0.1495
 8741SOL    HW137859   4.532   1.895   1.246 -1.5789 -0.1226  0.3289
 8741SOL    HW237860   4.463   1.786   1.305  0.7771 -2.1931  0.4274
 8742SOL     OW37861   0.843   1.890  11.341  0.6427 -0.4119  0.6155
 8742SOL    HW137862   0.748   1.893  11.350  0.7040  0.7428  0.8405
 8742SOL    HW237863   0.865   1.896  11.434 -1.8819  0.7211  1.1379
 8743SOL     OW37864   3.335   4.090   8.949  0.5138 -0.0539  0.3672
 8743SOL    HW137865   3.333   3.994   8.945 -0.7541  0.0965 -2.2308
 8743SOL    HW237866   3.411   4.102   8.891 -2.0245  2.8270 -2.3427
 8744SOL     OW37867   4.475   2.055   3.811  0.6390  0.3441  0.3655
 8744SOL    HW137868   4.489   2.146   3.835 -0.0333  1.1099 -2.1581
 8744SOL    HW237869   4.568   2.032   3.807  1.5639  3.8788  1.4353
 8745SOL     OW37870   4.703   4.148   5.892  0.4760  0.2700  0.2251
 8745SOL    HW137871   4.695   4.204   5.815 -1.4669  0.9076  0.9009
 8745SOL    HW237872   4.694   4.063   5.848 -0.2466  0.9218 -0.8712
 8746SOL     OW37873   4.129   2.682   1.714  0.5503 -0.2455  0.3063
 8746SOL    HW137874   4.205   2.706   1.767  0.3598  4.3782 -1.4838
 8746SOL    HW237875   4.130   2.744   1.641  1.4486 -0.8815 -0.2218
 8747SOL     OW37876   2.632   1.358   6.084 -0.3666  0.5403  0.2739
 8747SOL    HW137877   2.668   1.342   5.996  0.4787 -0.9441  0.8840
 8747SOL    HW237878   2.699   1.421   6.110 -1.3058  1.8230 -0.4262
 8748SOL     OW37879   0.000   2.952  16.787  0.5650 -0.5115 -0.1271
 8748SOL    HW137880   4.647   2.916  16.780  0.0928  0.7357 -0.7470
 8748SOL    HW237881   0.022   2.925  16.876  0.3497  0.2022  0.1474
 8749SOL     OW37882   2.439   3.291   6.161  0.6907  0.2216  0.9017
 8749SOL    HW137883   2.479   3.250   6.238 -0.7918 -3.9764 -0.6118
 8749SOL    HW237884   2.356   3.321   6.198  0.3490 -0.6515  0.8412
 8750SOL     OW37885   4.700   2.121   8.877 -0.5567  0.2279  0.4384
 8750SOL    HW137886   4.730   2.212   8.875  2.3030 -0.7446 -1.1236
 8750SOL    HW237887   4.622   2.131   8.931 -0.5936  1.4016  0.1674
 8751SOL     OW37888   2.215   4.640  15.395 -0.0814 -0.1818 -0.0823
 8751SOL    HW137889   2.129   4.632  15.436  0.5283 -1.6437  0.9043
 8751SOL    HW237890   2.240   4.550  15.376 -0.7823 -0.5752  0.9072
 8752SOL     OW37891   3.536   0.429   9.736  0.4476 -0.3560 -0.3842
 8752SOL    HW137892   3.569   0.411   9.824  0.5505  0.2059 -0.3099
 8752SOL    HW237893   3.458   0.373   9.736  0.8516 -0.9598 -3.7462
 8753SOL     OW37894   0.384   0.373   5.978 -0.2359  0.6055 -0.5547
 8753SOL    HW137895   0.371   0.468   5.980 -1.2228  0.4929 -1.4819
 8753SOL    HW237896   0.446   0.353   6.047  0.4240 -0.1603 -1.3604
 8754SOL     OW37897   2.040   0.419   1.379  0.1381  0.0299  0.6616
 8754SOL    HW137898   2.071   0.399   1.468  0.9207 -0.4765  0.2810
 8754SOL    HW237899   2.124   0.415   1.333 -1.3157 -2.1496 -1.8106
 8755SOL     OW37900   2.243   1.992   7.832 -0.3373 -0.9390  0.5757
 8755SOL    HW137901   2.160   1.958   7.798 -0.0339 -1.8407  0.7541
 8755SOL    HW237902   2.222   2.077   7.872 -0.2278 -0.3327 -0.6315
 8756SOL     OW37903   0.181   3.008   9.421  0.0275 -0.1723 -0.1096
 8756SOL    HW137904   0.209   3.004   9.513 -1.9219  1.5347  0.5448
 8756SOL    HW237905   0.100   2.956   9.427  1.0447 -1.7506  0.0309
 8757SOL     OW37906   0.352   0.286   2.095  0.3117 -0.2074 -0.5873
 8757SOL    HW137907   0.360   0.301   2.000 -2.9379 -2.1576 -1.1827
 8757SOL    HW237908   0.262   0.300   2.123  1.2504 -0.5988  2.6485
 8758SOL     OW37909   2.776   4.081   0.725 -0.6021 -0.5063 -0.2557
 8758SOL    HW137910   2.831   4.148   0.684  0.7131 -0.7841  1.0600
 8758SOL    HW237911   2.729   4.134   0.788 -0.7040 -1.4830  0.4862
 8759SOL     OW37912   3.114   1.834   8.362 -0.2185  0.1400 -0.8619
 8759SOL    HW137913   3.080   1.785   8.437 -0.1429  0.5267 -0.5775
 8759SOL    HW237914   3.035   1.823   8.309 -0.4148  1.3924 -0.8102
 8760SOL     OW37915   1.047   4.335   7.973 -0.2482 -0.3589 -0.2247
 8760SOL    HW137916   1.104   4.311   7.899  1.3348  1.7135  0.3276
 8760SOL    HW237917   0.988   4.261   7.987 -1.9803  1.0576 -0.1690
 8761SOL     OW37918   2.179   2.113  10.639 -1.1499 -0.3961 -0.0850
 8761SOL    HW137919   2.201   2.135  10.549  0.6984 -0.7575  0.2807
 8761SOL    HW237920   2.134   2.194  10.663 -1.2895 -0.9403  1.5430
 8762SOL     OW37921   1.980   0.735   0.840 -0.6347  0.1768  0.2200
 8762SOL    HW137922   2.061   0.761   0.883 -0.5931  1.0442 -0.3958
 8762SOL    HW237923   1.921   0.772   0.905 -3.0414 -1.2109 -1.1818
 8763SOL     OW37924   2.232   4.318   8.546 -0.8727 -0.7364 -0.0488
 8763SOL    HW137925   2.206   4.371   8.621  1.4643  2.6583 -1.6078
 8763SOL    HW237926   2.227   4.372   8.467 -0.5718  0.7744  0.9709
 8764SOL     OW37927   1.200   0.651   7.391 -0.0509  0.2173 -0.1732
 8764SOL    HW137928   1.201   0.740   7.357 -0.4887  0.1138 -0.4578
 8764SOL    HW237929   1.278   0.642   7.447 -0.2940  2.2102  0.4691
 8765SOL     OW37930   2.959   3.034  12.874  0.1705  0.2651 -0.0779
 8765SOL    HW137931   2.980   2.965  12.936  0.3627 -0.6415 -1.1437
 8765SOL    HW237932   2.901   3.097  12.917  1.5355  2.2378 -1.1316
 8766SOL     OW37933   1.825   1.073   5.625 -0.1391 -0.0857  0.4167
 8766SOL    HW137934   1.862   1.067   5.537 -0.5508  1.7984  0.1302
 8766SOL    HW237935   1.900   1.060   5.684  2.0568  1.0183 -2.1259
 8767SOL     OW37936   3.881   4.464   9.286  0.1926  0.0096 -0.1070
 8767SOL    HW137937   3.797   4.476   9.330  1.2754  1.4165  1.5852
 8767SOL    HW237938   3.896   4.372   9.305  2.8138  1.3511  4.1463
 8768SOL     OW37939   1.893   2.814   3.120  0.1872  0.3455  0.0340
 8768SOL    HW137940   1.835   2.800   3.045  1.2296  1.5929 -1.0234
 8768SOL    HW237941   1.827   2.814   3.189  0.5784 -0.8732  0.4006
 8769SOL     OW37942   2.106   4.322  12.850  0.1907  0.8020  0.3631
 8769SOL    HW137943   2.091   4.407  12.808  0.0576 -0.4414 -2.1359
 8769SOL    HW237944   2.021   4.296  12.884 -0.5242  1.5720 -0.8154
 8770SOL     OW37945   1.992   2.517   8.680 -0.2416 -0.2525 -0.2586
 8770SOL    HW137946   1.909   2.518   8.728 -1.5042 -1.0191 -2.4691
 8770SOL    HW237947   2.050   2.454   8.724  0.8292 -0.0076 -1.3098
 8771SOL     OW37948   2.566   3.107   7.309  0.7438 -0.6006 -0.0302
 8771SOL    HW137949   2.558   3.100   7.405 -2.5547  0.2510 -0.2372
 8771SOL    HW237950   2.507   3.038   7.280  1.4863 -2.8976  3.8306
 8772SOL     OW37951   2.257   4.084   5.659  0.3573  0.2142 -0.8080
 8772SOL    HW137952   2.293   4.170   5.680 -2.0565  1.0375 -0.0510
 8772SOL    HW237953   2.260   4.040   5.745  1.7964  0.2383 -0.8451
 8773SOL     OW37954   0.714   1.660   5.007 -0.1831  0.7173  0.5628
 8773SOL    HW137955   0.756   1.574   5.006  2.4044  1.9863  0.3547
 8773SOL    HW237956   0.758   1.704   5.080  0.9451  0.3384  0.1108
 8774SOL     OW37957   3.497   3.752   0.924  0.0172 -0.3078 -0.6181
 8774SOL    HW137958   3.566   3.761   0.990  2.1367  0.3813 -2.9567
 8774SOL    HW237959   3.543   3.736   0.842  0.7187  1.0974 -0.4943
 8775SOL     OW37960   1.968   1.048   5.158  0.9060  0.6058  0.1379
 8775SOL    HW137961   1.886   1.096   5.167  1.5515  1.3826  1.8267
 8775SOL    HW237962   1.997   1.081   5.073  1.2214 -2.9902 -1.1433
 8776SOL     OW37963   0.573   4.611   3.549  0.7300 -0.3744 -0.3935
 8776SOL    HW137964   0.652   4.631   3.600  1.1894 -1.9729 -0.4718
 8776SOL    HW237965   0.598   4.521   3.530  0.2501 -0.7822  0.9086
 8777SOL     OW37966   1.505   4.619   8.493  0.2044  0.1922 -0.1206
 8777SOL    HW137967   1.421   4.577   8.473  0.3221 -0.7278  1.3245
 8777SOL    HW237968   1.473   4.699   8.534  2.4566  1.0538 -0.0520
 8778SOL     OW37969   3.817   2.366   9.083 -0.4305  0.4214  0.5881
 8778SOL    HW137970   3.756   2.435   9.054 -0.5261 -0.2846 -0.8880
 8778SOL    HW237971   3.817   2.385   9.177 -1.9856 -1.0633  0.8872
 8779SOL     OW37972   0.861   1.891  12.689  0.2661 -0.5710  0.2824
 8779SOL    HW137973   0.810   1.942  12.626  0.6941 -2.0188 -1.2242
 8779SOL    HW237974   0.921   1.959  12.721  0.2349  1.4029 -3.8294
 8780SOL     OW37975   3.932   3.565   7.404  0.5005 -0.3293  0.0113
 8780SOL    HW137976   3.978   3.633   7.454 -0.1663  0.2837 -0.2189
 8780SOL    HW237977   3.915   3.497   7.469 -0.4429  0.8375  0.9589
 8781SOL     OW37978   3.236   2.612   0.686 -0.6737  1.4259 -0.0335
 8781SOL    HW137979   3.282   2.686   0.725  0.8802  1.1172 -1.2713
 8781SOL    HW237980   3.226   2.646   0.597 -0.9033  0.2894 -0.4462
 8782SOL     OW37981   1.068   3.153   8.689  0.6015  0.3721  0.0469
 8782SOL    HW137982   1.005   3.142   8.760 -0.5668 -0.6168 -1.1551
 8782SOL    HW237983   1.016   3.137   8.611  0.2186 -1.0191  0.5860
 8783SOL     OW37984   1.696   2.377   5.621  0.1224  0.6988 -0.0117
 8783SOL    HW137985   1.601   2.382   5.610 -0.2836 -1.4157  2.3979
 8783SOL    HW237986   1.729   2.404   5.535  2.1443 -0.3519  0.4545
 8784SOL     OW37987   0.980   0.739   6.215 -0.1824  0.6130  0.4658
 8784SOL    HW137988   0.979   0.833   6.198 -1.3569  0.5533  0.2272
 8784SOL    HW237989   1.070   0.729   6.183  0.3661 -0.9701  2.4505
 8785SOL     OW37990   1.874   3.212   2.158  0.3932  0.2313 -0.9748
 8785SOL    HW137991   1.913   3.127   2.178 -0.3754 -0.2896 -1.6965
 8785SOL    HW237992   1.932   3.245   2.089  2.2796 -1.2817 -0.1256
 8786SOL     OW37993   2.155   3.594   6.895  0.3550  0.4141 -0.0500
 8786SOL    HW137994   2.121   3.631   6.977  2.0136 -0.4303  1.0348
 8786SOL    HW237995   2.195   3.516   6.934  0.6237 -0.2075 -1.5913
 8787SOL     OW37996   4.626   2.580  12.540  0.1641  0.3572  0.1420
 8787SOL    HW137997   4.632   2.634  12.461 -0.4220 -0.3140 -0.3489
 8787SOL    HW237998   4.535   2.554  12.527  0.5994 -0.1841 -1.7195
 8788SOL     OW37999   4.114   2.701   8.047 -0.3009 -0.0726  0.3700
 8788SOL    HW138000   4.025   2.693   8.012 -0.2896 -1.1450  0.5691
 8788SOL    HW238001   4.153   2.773   7.998  0.5336 -0.4281  0.5196
 8789SOL     OW38002   2.559   1.745   5.255 -0.4008  0.6607  0.2956
 8789SOL    HW138003   2.618   1.802   5.205  0.2711  0.9351  1.4054
 8789SOL    HW238004   2.620   1.710   5.319 -0.3193  2.2426  1.0875
 8790SOL     OW38005   2.991   0.289   5.396  0.0136 -0.0763  0.2479
 8790SOL    HW138006   3.051   0.261   5.327  0.1166  1.2401 -0.1898
 8790SOL    HW238007   3.032   0.374   5.413 -2.3935  1.0800  0.2463
 8791SOL     OW38008   4.688   2.597   2.253  0.2773 -0.2600  0.0370
 8791SOL    HW138009   4.664   2.508   2.229  1.5867 -0.6807  0.3272
 8791SOL    HW238010   4.609   2.644   2.225  0.2567 -0.0078  0.5126
 8792SOL     OW38011   3.163   3.808   5.070 -0.1791 -0.4510 -0.6089
 8792SOL    HW138012   3.194   3.753   4.998  0.1482 -0.3041 -0.5816
 8792SOL    HW238013   3.236   3.803   5.132 -1.4339  3.4468  1.1889
 8793SOL     OW38014   2.678   2.849   1.603  0.4602 -0.3901 -0.4167
 8793SOL    HW138015   2.642   2.792   1.535 -2.0659 -0.9038  1.3344
 8793SOL    HW238016   2.614   2.920   1.609 -0.7111 -1.5640  1.0406
 8794SOL     OW38017   0.798   3.141   4.317  0.0398  0.0120  0.6404
 8794SOL    HW138018   0.758   3.226   4.298  0.7581 -0.3627 -2.5396
 8794SOL    HW238019   0.786   3.144   4.412  1.2120  1.0508  0.7661
 8795SOL     OW38020   0.071   2.079   2.507  0.5334 -0.3402 -0.1163
 8795SOL    HW138021   0.003   2.019   2.537  1.5987 -1.1927  0.5676
 8795SOL    HW238022   0.035   2.129   2.433  0.3562 -0.6727 -0.2570
 8796SOL     OW38023   4.585   3.356  11.978 -0.5121 -0.0794 -0.3871
 8796SOL    HW138024   4.566   3.267  11.949  2.1167 -0.6525 -0.3547
 8796SOL    HW238025   4.628   3.400  11.904 -0.7860 -0.1813 -0.6094
 8797SOL     OW38026   3.777   4.524  15.801 -0.1681 -0.1101  0.5858
 8797SOL    HW138027   3.697   4.488  15.762  1.9699 -2.5581 -1.5945
 8797SOL    HW238028   3.768   4.504  15.894 -2.1067  0.0974  0.4359
 8798SOL     OW38029   4.077   3.490   9.029  0.3371  0.2338  0.3772
 8798SOL    HW138030   4.065   3.396   9.016  1.1620 -0.1510  2.4286
 8798SOL    HW238031   4.099   3.483   9.122  2.1426 -0.2395 -0.0989
 8799SOL     OW38032   0.111   2.333   3.009  0.0539 -0.2984 -0.0146
 8799SOL    HW138033   0.151   2.288   2.935  2.0352  0.2766  0.7120
 8799SOL    HW238034   0.152   2.281   3.078  2.1545  0.3722 -0.7577
 8800SOL     OW38035   4.110   0.773   1.731 -0.2016  0.0562 -1.1791
 8800SOL    HW138036   4.084   0.684   1.708 -1.8919  0.1468  0.3189
 8800SOL    HW238037   4.205   0.776   1.720 -0.1295 -3.5116 -1.6102
 8801SOL     OW38038   3.600   1.864   9.466 -0.1047  0.5813  0.0699
 8801SOL    HW138039   3.586   1.848   9.373 -0.4599 -0.2578  0.2677
 8801SOL    HW238040   3.594   1.960   9.468  1.6679  0.6970 -0.8231
 8802SOL     OW38041   4.537   3.038   8.527 -0.5406 -0.0805  0.2576
 8802SOL    HW138042   4.493   3.039   8.612 -0.7349  0.0499  0.1530
 8802SOL    HW238043   4.579   3.124   8.527 -0.0749 -0.3073 -0.2228
 8803SOL     OW38044   1.897   3.284   7.908 -0.6547 -0.0356 -0.2451
 8803SOL    HW138045   1.851   3.349   7.961  0.8861 -0.0780  1.1625
 8803SOL    HW238046   1.898   3.328   7.823 -0.7322 -1.4273 -0.9761
 8804SOL     OW38047   0.032   2.437   6.164  0.2660  0.1670  0.0866
 8804SOL    HW138048   0.104   2.410   6.220  0.5480 -0.9058 -0.7915
 8804SOL    HW238049   4.700   2.372   6.185  0.4731  0.6520  2.2672
 8805SOL     OW38050   2.395   0.063   1.528 -0.4441  0.2391  0.5221
 8805SOL    HW138051   2.308   0.053   1.489  0.2935 -1.2003 -0.7656
 8805SOL    HW238052   2.359   0.123   1.594 -1.5688 -0.4051  0.4870
 8806SOL     OW38053   1.635   3.794  17.309  0.7982  0.0488 -0.0380
 8806SOL    HW138054   1.657   3.745  17.387 -0.2035  0.4864  0.5152
 8806SOL    HW238055   1.715   3.843  17.288  0.2747  1.2480  0.8165
 8807SOL     OW38056   2.082   4.603   1.256  0.1984  0.0371 -0.3605
 8807SOL    HW138057   2.037   4.678   1.294 -1.5060 -0.8940 -0.5124
 8807SOL    HW238058   2.014   4.545   1.222  0.9287 -0.9225 -0.2080
 8808SOL     OW38059   3.797   2.516   5.695 -0.7324  0.6404 -0.2283
 8808SOL    HW138060   3.878   2.565   5.680  0.6253 -1.5672 -0.1457
 8808SOL    HW238061   3.761   2.560   5.772  1.3833 -3.3580  3.0020
 8809SOL     OW38062   0.796   1.202  15.226 -0.1288 -0.2702 -0.1570
 8809SOL    HW138063   0.755   1.205  15.312 -0.0457 -2.2401 -0.0504
 8809SOL    HW238064   0.808   1.295  15.204  3.9758 -0.6644  0.3249
 8810SOL     OW38065   4.335   4.189   8.615 -0.5372 -0.6686 -0.1161
 8810SOL    HW138066   4.378   4.214   8.696 -0.2126 -1.0177 -0.1803
 8810SOL    HW238067   4.246   4.184   8.649 -1.0196  1.9754 -0.9669
 8811SOL     OW38068   2.745   1.248   5.539 -0.4423 -0.5239 -0.7382
 8811SOL    HW138069   2.815   1.305   5.507  0.6384 -0.8421  1.0511
 8811SOL    HW238070   2.799   1.194   5.597  0.9556 -0.9767 -2.4588
 8812SOL     OW38071   0.662   4.569   8.988  0.2820  0.5411  0.0232
 8812SOL    HW138072   0.695   4.659   8.992  0.3487  0.3446  3.6400
 8812SOL    HW238073   0.572   4.576   8.955  1.0394 -4.0119 -2.9293
 8813SOL     OW38074   1.758   3.466   8.591 -0.2532 -0.4588 -0.3705
 8813SOL    HW138075   1.696   3.535   8.613 -0.2205 -0.2712 -0.8835
 8813SOL    HW238076   1.706   3.388   8.611  0.8006 -0.8974  0.7009
 8814SOL     OW38077   4.189   0.870   7.485 -0.3572  0.6355 -0.4082
 8814SOL    HW138078   4.174   0.880   7.391  0.6266  3.1654 -0.2881
 8814SOL    HW238079   4.266   0.812   7.483 -0.8168  0.0007  0.5028
 8815SOL     OW38080   3.433   1.322   1.232  0.6480 -0.4406  0.0603
 8815SOL    HW138081   3.375   1.330   1.308  0.1901 -0.6264 -0.2668
 8815SOL    HW238082   3.373   1.353   1.164  0.8556 -0.4969 -0.1476
 8816SOL     OW38083   3.259   0.656   7.984 -1.0032  0.3855 -0.4586
 8816SOL    HW138084   3.325   0.593   8.013 -1.3136  0.2950  0.0490
 8816SOL    HW238085   3.220   0.619   7.905 -1.1552  1.1188 -0.7237
 8817SOL     OW38086   1.882   2.968   9.390 -0.2890  0.1381 -0.2490
 8817SOL    HW138087   1.947   3.026   9.429  0.9644 -0.5791 -1.2732
 8817SOL    HW238088   1.888   2.889   9.444 -0.9005 -0.0785 -0.4983
 8818SOL     OW38089   4.603   1.774   3.782  0.1380 -0.2103 -0.4809
 8818SOL    HW138090   4.668   1.844   3.785 -0.5152  0.3449  0.5228
 8818SOL    HW238091   4.661   1.708   3.745  0.5154 -0.1945  0.0846
 8819SOL     OW38092   1.303   3.307  13.915  0.1857 -0.1559  0.4040
 8819SOL    HW138093   1.329   3.215  13.925 -1.4450 -0.6824 -0.2080
 8819SOL    HW238094   1.368   3.337  13.851  1.5060 -2.3551  0.6979
 8820SOL     OW38095   2.942   3.375   2.270 -0.0606 -0.0371  0.4523
 8820SOL    HW138096   2.867   3.395   2.214 -0.2270 -0.0216  0.6786
 8820SOL    HW238097   2.950   3.460   2.314  1.9623 -0.0204  0.0230
 8821SOL     OW38098   1.763   4.448   4.744 -0.1380  0.4241  0.1353
 8821SOL    HW138099   1.729   4.367   4.781 -1.0822  0.7991  0.1041
 8821SOL    HW238100   1.842   4.459   4.797  0.2934 -1.0532 -0.2134
 8822SOL     OW38101   3.732   4.497  14.472 -0.2005 -0.2622  0.0389
 8822SOL    HW138102   3.805   4.556  14.494 -0.4006 -0.2210  0.5932
 8822SOL    HW238103   3.665   4.565  14.464  0.0564  0.0522  0.5401
 8823SOL     OW38104   0.145   3.757   1.775  0.2771 -0.4205  0.1262
 8823SOL    HW138105   0.210   3.759   1.705 -0.1302  1.6761 -0.1864
 8823SOL    HW238106   0.062   3.770   1.729  0.3507  1.1783  0.4701
 8824SOL     OW38107   4.012   3.657   8.005  0.3757  0.5476 -0.3335
 8824SOL    HW138108   4.013   3.753   8.000 -2.2416  0.5850 -0.1505
 8824SOL    HW238109   3.943   3.638   8.069  3.0677 -1.6120  1.8917
 8825SOL     OW38110   1.207   3.322  11.156 -0.2624  0.4700  0.9773
 8825SOL    HW138111   1.288   3.365  11.181  0.8028 -0.0046 -1.6119
 8825SOL    HW238112   1.153   3.325  11.235 -1.6081 -1.4900  0.1383
 8826SOL     OW38113   3.841   3.946  15.450  0.1407 -0.1358  0.5221
 8826SOL    HW138114   3.929   3.936  15.485  0.9155  0.1409 -1.3256
 8826SOL    HW238115   3.803   3.995  15.522  0.1613 -1.0329  1.1398
 8827SOL     OW38116   0.315   1.652   7.121 -0.4067  0.1465  0.0431
 8827SOL    HW138117   0.403   1.614   7.120 -0.6760 -0.4634 -1.2001
 8827SOL    HW238118   0.284   1.634   7.032  1.4711  1.3764 -0.8643
 8828SOL     OW38119   3.640   1.800   4.398 -0.0112 -0.1126  0.0048
 8828SOL    HW138120   3.618   1.710   4.375  0.8870 -0.6906  1.4279
 8828SOL    HW238121   3.710   1.828   4.340  0.7457  1.3167  1.6270
 8829SOL     OW38122   4.295   0.640  11.528 -0.5605 -0.2826  0.7044
 8829SOL    HW138123   4.374   0.606  11.486 -0.5172 -0.2324  0.7453
 8829SOL    HW238124   4.286   0.722  11.479  0.6399 -2.2144 -2.7890
 8830SOL     OW38125   4.626   2.592   4.852  0.6776 -0.2329 -0.0465
 8830SOL    HW138126   4.696   2.649   4.818 -0.6401  1.4884  0.1076
 8830SOL    HW238127   4.641   2.599   4.946  2.2262 -1.6153 -0.1928
 8831SOL     OW38128   3.036   0.176   3.829  0.4229  0.3254 -0.2164
 8831SOL    HW138129   3.053   0.155   3.921  0.8809  0.7498 -0.2089
 8831SOL    HW238130   2.943   0.200   3.829 -0.3781 -2.7796 -2.1634
 8832SOL     OW38131   4.048   1.216  12.996  0.0124 -0.6181  0.3033
 8832SOL    HW138132   3.984   1.148  13.019 -0.4759 -0.2412  0.0669
 8832SOL    HW238133   4.120   1.201  13.057 -0.4297 -0.5656  0.8414
 8833SOL     OW38134   0.621   2.524   4.416  0.4100 -0.3170  0.5462
 8833SOL    HW138135   0.538   2.488   4.446 -0.2229  0.5867 -0.1200
 8833SOL    HW238136   0.629   2.447   4.360 -1.5722 -1.0038  1.1969
 8834SOL     OW38137   0.451   1.431   4.481  0.1527 -0.0437 -0.2137
 8834SOL    HW138138   0.533   1.407   4.524  1.3988  0.2065 -2.4547
 8834SOL    HW238139   0.404   1.351   4.507  2.5157 -0.7373  1.9157
 8835SOL     OW38140   4.516   1.026  17.268  0.0658 -0.8265  0.3796
 8835SOL    HW138141   4.522   1.085  17.343  1.6538  1.4295 -1.5471
 8835SOL    HW238142   4.477   1.075  17.196 -0.7251  1.1407  2.1434
 8836SOL     OW38143   4.714   2.032  14.925 -0.1954 -0.1617 -0.1653
 8836SOL    HW138144   0.047   2.089  14.888 -0.7220  0.2011 -0.5727
 8836SOL    HW238145   4.685   2.083  15.000  0.2671 -3.8315  2.4958
 8837SOL     OW38146   1.564   2.731   3.790 -0.4006 -0.0599  0.6526
 8837SOL    HW138147   1.597   2.703   3.875 -1.9257 -2.9235  0.3020
 8837SOL    HW238148   1.610   2.678   3.725 -1.9771 -0.6385 -0.0062
 8838SOL     OW38149   0.858   0.347   3.137  0.1096 -0.1078 -0.2026
 8838SOL    HW138150   0.874   0.420   3.077 -0.3462  1.3478  1.4617
 8838SOL    HW238151   0.946   0.310   3.151  1.5492  2.5959 -2.0478
 8839SOL     OW38152   2.236   4.241   6.020  0.2022 -0.1390  0.7038
 8839SOL    HW138153   2.263   4.293   5.945  1.2895 -1.7899 -0.0546
 8839SOL    HW238154   2.241   4.151   5.987 -1.1291  0.2707 -0.5815
 8840SOL     OW38155   4.661   1.403   8.651 -0.4279 -0.4622  0.2854
 8840SOL    HW138156   4.660   1.470   8.583  0.4775 -0.4006  0.3356
 8840SOL    HW238157   4.722   1.440   8.714  0.4901 -0.9814 -0.3019
 8841SOL     OW38158   1.746   0.491   3.163  0.1592  0.0578  0.2804
 8841SOL    HW138159   1.770   0.497   3.070 -2.9254 -0.9379 -0.5900
 8841SOL    HW238160   1.771   0.577   3.196  0.5811  1.0981 -2.7046
 8842SOL     OW38161   2.863   3.095   6.317  0.0113  0.0095  0.2497
 8842SOL    HW138162   2.819   3.047   6.247  0.7945  1.5034 -1.2892
 8842SOL    HW238163   2.936   3.034   6.331  1.7011  1.6621 -1.3428
 8843SOL     OW38164   1.290   0.719  13.830 -0.5056 -0.1558 -0.3216
 8843SOL    HW138165   1.204   0.727  13.789 -1.0584 -0.5148  0.7632
 8843SOL    HW238166   1.319   0.809  13.839 -0.8129 -0.0595 -0.2876
 8844SOL     OW38167   3.234   1.280   7.919  0.0711  0.4782 -0.3147
 8844SOL    HW138168   3.286   1.200   7.924 -0.0084  0.4437 -0.0260
 8844SOL    HW238169   3.199   1.276   7.830 -0.1087  0.9985 -0.2658
 8845SOL     OW38170   2.487   2.591  14.083  0.2162 -0.0244 -0.5176
 8845SOL    HW138171   2.414   2.652  14.096  0.3277 -0.0756  0.3794
 8845SOL    HW238172   2.558   2.615  14.142  0.4402 -0.6798 -0.5150
 8846SOL     OW38173   3.395   1.460   9.566 -0.2055  0.3513 -0.1015
 8846SOL    HW138174   3.343   1.532   9.602  0.3815  2.4572 -3.3950
 8846SOL    HW238175   3.484   1.491   9.584  0.4409 -1.3359 -0.3672
 8847SOL     OW38176   2.752   2.631   2.465  0.1097  0.2261  0.1022
 8847SOL    HW138177   2.728   2.684   2.541  1.6544 -2.4486  2.4738
 8847SOL    HW238178   2.681   2.567   2.472 -1.5920  2.1107 -0.1719
 8848SOL     OW38179   3.703   1.948  17.371  0.7523 -0.9047  0.7761
 8848SOL    HW138180   3.650   2.000  17.431  0.6325 -1.7824  1.4338
 8848SOL    HW238181   3.662   1.864  17.388 -2.8485  0.6401 -0.3851
 8849SOL     OW38182   4.516   1.071   1.661 -0.5246  0.1800  0.1339
 8849SOL    HW138183   4.504   1.164   1.679  1.3425  0.1716  1.4343
 8849SOL    HW238184   4.519   1.029   1.747 -3.8817  0.8417  0.5826
 8850SOL     OW38185   4.145   3.156   8.752 -0.4763  0.8972 -0.6144
 8850SOL    HW138186   4.082   3.084   8.745 -1.3973  1.9142 -2.7644
 8850SOL    HW238187   4.123   3.195   8.837 -0.1037 -0.1805 -0.0240
 8851SOL     OW38188   2.301   0.953   9.701 -0.1982  0.6825 -0.1288
 8851SOL    HW138189   2.374   0.954   9.639  0.5670  0.3956  0.7620
 8851SOL    HW238190   2.327   0.887   9.765  0.3712  2.1004  1.1073
 8852SOL     OW38191   3.097   2.185   4.536  0.0735  0.2770 -0.0166
 8852SOL    HW138192   3.029   2.251   4.552 -0.8599 -0.7677  0.3451
 8852SOL    HW238193   3.161   2.246   4.500  0.4846 -0.0755  0.1258
 8853SOL     OW38194   3.570   4.287  10.310 -0.1388 -0.1996  0.8408
 8853SOL    HW138195   3.609   4.308  10.395  2.7185 -0.1752 -0.4782
 8853SOL    HW238196   3.583   4.368  10.260 -0.7499 -0.1882  0.7044
 8854SOL     OW38197   2.213   3.559   8.300  0.0639  0.4327 -0.3058
 8854SOL    HW138198   2.144   3.583   8.362  1.1242 -0.2710  1.1383
 8854SOL    HW238199   2.167   3.484   8.263 -1.5085  0.6005  1.3130
 8855SOL     OW38200   3.721   2.029   6.933 -0.2468  0.0897 -0.3625
 8855SOL    HW138201   3.631   2.059   6.944  0.5841  2.5366 -0.2148
 8855SOL    HW238202   3.777   2.079   6.993 -1.0367 -3.0524  2.9723
 8856SOL     OW38203   0.552   3.765  16.656 -0.0007 -0.4606 -0.0890
 8856SOL    HW138204   0.524   3.795  16.742 -1.7279  0.9919 -1.1482
 8856SOL    HW238205   0.516   3.677  16.651 -0.8182 -0.0500 -1.6091
 8857SOL     OW38206   2.122   3.723   0.965 -0.2947  0.5109  0.2279
 8857SOL    HW138207   2.167   3.806   0.985  0.1205  0.5422 -0.8478
 8857SOL    HW238208   2.197   3.667   0.984  0.8817  2.3185  0.9705
 8858SOL     OW38209   4.032   4.323   7.886  0.2187  0.2847 -0.1295
 8858SOL    HW138210   4.087   4.342   7.962 -0.7269  0.9057  0.3934
 8858SOL    HW238211   4.005   4.414   7.874 -2.5525 -0.5496 -0.2426
 8859SOL     OW38212   1.997   4.080   7.494 -0.0694 -0.8405 -0.1815
 8859SOL    HW138213   2.062   4.041   7.553  1.8830  2.4636 -0.1689
 8859SOL    HW238214   1.927   4.113   7.550 -0.2504  0.3748 -1.1348
 8860SOL     OW38215   3.372   2.856   0.735  0.4088  0.2254  0.2809
 8860SOL    HW138216   3.366   2.945   0.700 -0.2973 -0.3160 -0.9886
 8860SOL    HW238217   3.418   2.879   0.816 -0.1743  1.1314  0.3540
 8861SOL     OW38218   0.503   3.320   5.303 -0.1360 -0.4113 -0.2007
 8861SOL    HW138219   0.496   3.369   5.221  2.9538 -0.2886 -0.4064
 8861SOL    HW238220   0.561   3.372   5.359  1.2445  1.7277 -3.6053
 8862SOL     OW38221   1.210   3.666   7.116  0.3322 -0.7979 -0.3431
 8862SOL    HW138222   1.147   3.694   7.049 -0.4363 -3.3158 -0.6703
 8862SOL    HW238223   1.273   3.737   7.104 -1.2574  0.5552 -0.7928
 8863SOL     OW38224   1.735   0.571   9.600 -0.1441 -0.7710 -0.2794
 8863SOL    HW138225   1.689   0.629   9.539 -1.3275  0.1534  1.5034
 8863SOL    HW238226   1.666   0.554   9.664  0.4145  2.1673  1.1034
 8864SOL     OW38227   1.207   1.256   5.602  0.2107 -0.2023 -0.0053
 8864SOL    HW138228   1.198   1.315   5.528 -0.3764  0.0836  0.2984
 8864SOL    HW238229   1.303   1.257   5.595  0.1485  1.9549 -0.4065
 8865SOL     OW38230   4.640   3.233   5.632 -0.3963 -0.3257  0.0257
 8865SOL    HW138231   4.695   3.255   5.707  1.1121  0.0211 -1.1790
 8865SOL    HW238232   4.618   3.141   5.648 -0.3401 -0.2602  0.4867
 8866SOL     OW38233   2.311   1.870   8.251  0.0222 -0.4650 -0.3563
 8866SOL    HW138234   2.358   1.931   8.194 -0.2841  0.1658  0.0712
 8866SOL    HW238235   2.241   1.920   8.293  1.4792 -0.0449  1.5416
 8867SOL     OW38236   2.522   4.499   6.774  0.2191 -0.3822  0.4596
 8867SOL    HW138237   2.442   4.454   6.746 -1.7460  2.4997  1.4618
 8867SOL    HW238238   2.579   4.426   6.751  2.5146  1.4774  0.2995
 8868SOL     OW38239   0.147   0.821   2.310  0.1202  0.1845 -0.0250
 8868SOL    HW138240   0.126   0.814   2.403  3.3578  2.1193  0.8675
 8868SOL    HW238241   0.070   0.864   2.273 -2.0042 -3.0816  0.6294
 8869SOL     OW38242   1.123   0.318   3.194  0.5938  0.2950 -0.2500
 8869SOL    HW138243   1.148   0.407   3.218 -0.8130  0.5761  0.2079
 8869SOL    HW238244   1.207   0.277   3.176 -0.6512 -2.3429 -0.1425
 8870SOL     OW38245   3.425   0.063   8.201  0.3033 -0.0709  0.2178
 8870SOL    HW138246   3.369   0.058   8.124  1.6887 -0.1443 -0.7758
 8870SOL    HW238247   3.359   0.057   8.270 -0.5628  1.5447 -0.4513
 8871SOL     OW38248   2.760   2.386   8.031 -0.1238 -0.2767  0.3012
 8871SOL    HW138249   2.674   2.391   7.992  0.4556  0.4063 -0.8658
 8871SOL    HW238250   2.801   2.323   7.971  0.9800 -0.4905  1.2600
 8872SOL     OW38251   0.671   2.763   4.888 -1.2296  0.4600 -0.1658
 8872SOL    HW138252   0.587   2.761   4.933 -1.8105  0.9228 -1.2389
 8872SOL    HW238253   0.663   2.673   4.855  0.9959 -0.4453  1.6827
 8873SOL     OW38254   3.000   4.488  16.746  0.1751  0.8786  0.7986
 8873SOL    HW138255   3.024   4.580  16.756  0.5775  0.9332 -0.6774
 8873SOL    HW238256   3.050   4.445  16.816  0.1223  0.0952  0.3579
 8874SOL     OW38257   0.788   2.978   8.400  0.2592 -0.3457  0.1313
 8874SOL    HW138258   0.868   3.027   8.385  1.4173 -2.1156  0.5795
 8874SOL    HW238259   0.739   3.024   8.469  1.9753  0.0217  1.1022
 8875SOL     OW38260   0.016   0.687  16.057  0.0212 -0.4363  0.2830
 8875SOL    HW138261   4.690   0.616  16.039 -0.9048  0.8862 -1.6913
 8875SOL    HW238262   4.696   0.764  16.069  0.4859 -0.1539  0.6382
 8876SOL     OW38263   4.067   2.104  11.136 -0.1993  0.1148 -0.5158
 8876SOL    HW138264   4.132   2.167  11.104  0.4432 -0.3980 -0.2395
 8876SOL    HW238265   4.118   2.028  11.163  0.1995  0.5826  0.0635
 8877SOL     OW38266   0.641   1.076  15.054 -0.1266  0.2467 -0.3828
 8877SOL    HW138267   0.685   1.126  15.123  3.7638  0.5490 -3.1149
 8877SOL    HW238268   0.690   1.112  14.980  2.1685 -0.5440  0.7502
 8878SOL     OW38269   3.260   3.808  11.005 -0.2036 -0.3114  0.1130
 8878SOL    HW138270   3.300   3.731  11.046 -0.4272 -0.5595 -0.1353
 8878SOL    HW238271   3.301   3.810  10.918  0.5849 -1.7540  0.4598
 8879SOL     OW38272   2.642   4.702   1.013  0.1365 -0.5983 -0.4541
 8879SOL    HW138273   2.700   4.632   1.045 -0.0571 -1.0423 -1.0724
 8879SOL    HW238274   2.609   4.657   0.936  2.9484  0.3007 -2.1732
 8880SOL     OW38275   2.208   2.160   9.119  0.3687 -0.4474  0.2260
 8880SOL    HW138276   2.155   2.087   9.152 -1.1664  1.5954  2.2575
 8880SOL    HW238277   2.294   2.120   9.131  0.1738 -1.1908 -0.8394
 8881SOL     OW38278   0.869   1.783   7.389 -0.2986  0.4681  0.5867
 8881SOL    HW138279   0.925   1.790   7.466 -3.5349  0.5521  2.9166
 8881SOL    HW238280   0.785   1.797   7.432 -1.6591 -0.9161 -1.6575
 8882SOL     OW38281   0.756   3.612   6.342 -0.5864 -0.0988 -0.1118
 8882SOL    HW138282   0.833   3.664   6.361 -1.3189  1.1731 -0.6526
 8882SOL    HW238283   0.800   3.537   6.302  0.3865  0.8451 -0.8058
 8883SOL     OW38284   0.579   4.633   4.977 -0.3123 -0.3705 -0.4001
 8883SOL    HW138285   0.559   4.638   5.070 -1.1925  1.2806 -0.6738
 8883SOL    HW238286   0.594   4.725   4.955  0.4996 -0.6218 -0.9071
 8884SOL     OW38287   4.528   4.156   2.904 -1.1098  0.3466  0.1524
 8884SOL    HW138288   4.467   4.122   2.839  0.1673 -1.5579 -0.0551
 8884SOL    HW238289   4.493   4.101   2.975  1.5650 -0.2882  0.9931
 8885SOL     OW38290   0.949   2.322  12.673  0.9512 -0.0377 -0.8932
 8885SOL    HW138291   0.990   2.319  12.586 -1.3892  0.0704 -2.0088
 8885SOL    HW238292   1.014   2.375  12.719 -0.9415  1.5075 -0.0301
 8886SOL     OW38293   1.558   1.897  15.396 -0.2808 -0.1634 -0.1744
 8886SOL    HW138294   1.531   1.978  15.352 -2.4361 -0.5222  0.4766
 8886SOL    HW238295   1.479   1.881  15.448  0.1198 -0.4094  0.3583
 8887SOL     OW38296   2.824   0.801  15.049  0.2129  0.0687  0.0034
 8887SOL    HW138297   2.820   0.705  15.046 -1.6048  0.1908 -1.8427
 8887SOL    HW238298   2.826   0.831  14.958 -1.3864 -0.0641 -0.0813
 8888SOL     OW38299   3.013   2.025  12.252 -0.1289 -0.1400  0.6529
 8888SOL    HW138300   3.039   2.090  12.186 -0.4284 -1.0106 -0.3135
 8888SOL    HW238301   2.928   2.001  12.215 -1.0111  2.1741  1.1537
 8889SOL     OW38302   2.212   2.805   4.903 -0.9303  0.1294 -0.2260
 8889SOL    HW138303   2.208   2.750   4.981 -1.0360 -0.8929 -0.9613
 8889SOL    HW238304   2.299   2.778   4.873 -2.4539 -2.8685 -1.9775
 8890SOL     OW38305   4.722   4.168   4.038 -0.2610 -0.6968  0.4630
 8890SOL    HW138306   4.720   4.117   4.119  0.8930  0.4954  1.2435
 8890SOL    HW238307   0.047   4.234   4.071 -0.3540 -1.5275  2.3015
 8891SOL     OW38308   2.434   3.285   2.529  0.1453  0.0594  0.1275
 8891SOL    HW138309   2.352   3.281   2.479 -0.9906 -0.4275  2.0531
 8891SOL    HW238310   2.439   3.377   2.552 -1.5452  0.1612  0.1102
 8892SOL     OW38311   1.961   4.397   9.282  0.5265  0.1019  0.3013
 8892SOL    HW138312   1.970   4.378   9.188 -0.4098  0.3855  0.1590
 8892SOL    HW238313   1.978   4.491   9.284  2.0109 -0.1451 -0.0250
 8893SOL     OW38314   2.676   4.264   5.258 -0.1442 -0.0291 -0.0582
 8893SOL    HW138315   2.602   4.223   5.304 -0.6660  0.0497 -0.8194
 8893SOL    HW238316   2.687   4.207   5.182  1.1241  0.9680 -0.6087
 8894SOL     OW38317   2.884   0.109   7.189 -0.1261  0.1434  0.5267
 8894SOL    HW138318   2.952   0.046   7.215  0.2843  0.6083  0.5880
 8894SOL    HW238319   2.944   0.180   7.166  1.3465 -1.1277  0.4301
 8895SOL     OW38320   3.963   2.146   0.753  0.3265 -0.1040 -0.0568
 8895SOL    HW138321   4.038   2.146   0.813  0.3247  1.8656 -0.0287
 8895SOL    HW238322   4.006   2.184   0.676  0.8346  0.2767  0.4185
 8896SOL     OW38323   4.014   0.395  13.936  0.7490 -0.2972  1.1724
 8896SOL    HW138324   4.008   0.310  13.978  1.7046 -1.8340 -1.7901
 8896SOL    HW238325   3.933   0.384  13.887  0.7746  2.1567  0.5520
 8897SOL     OW38326   1.000   2.008  12.985  0.0487  0.3736  0.1123
 8897SOL    HW138327   1.018   1.983  12.894  1.2026 -0.9895  0.7117
 8897SOL    HW238328   0.929   2.068  12.964 -0.2775 -0.2246 -0.5168
 8898SOL     OW38329   0.120   2.733   2.851 -0.1610  0.0026  0.6846
 8898SOL    HW138330   0.107   2.664   2.785  1.4819  0.8236 -0.5216
 8898SOL    HW238331   0.080   2.806   2.804 -1.6285 -1.5378 -0.4572
 8899SOL     OW38332   2.101   3.567   6.396 -0.3011  0.2980 -0.1163
 8899SOL    HW138333   2.102   3.572   6.492 -0.6841  1.6470 -0.1779
 8899SOL    HW238334   2.194   3.585   6.382 -0.9450  1.2845 -2.9825
 8900SOL     OW38335   1.826   2.549  12.530  0.0589  0.2595  0.5520
 8900SOL    HW138336   1.788   2.483  12.472  1.2747 -0.2559  0.3445
 8900SOL    HW238337   1.905   2.577  12.483  0.8245 -1.6855  0.7047
 8901SOL     OW38338   1.076   2.735  12.968 -0.2093  0.8304  0.5162
 8901SOL    HW138339   1.066   2.798  13.040 -0.9315  1.6800 -0.3316
 8901SOL    HW238340   1.087   2.651  13.013  1.0525  0.9999  0.5210
 8902SOL     OW38341   0.683   1.027   6.551  0.0441  0.2142 -0.6136
 8902SOL    HW138342   0.602   0.991   6.585  1.1615 -1.7918 -0.0631
 8902SOL    HW238343   0.677   1.005   6.458  1.3212 -1.7457 -0.2381
 8903SOL     OW38344   1.514   3.324   8.786  0.5710 -0.5729  0.7225
 8903SOL    HW138345   1.465   3.318   8.868 -1.0831  0.4526 -0.1912
 8903SOL    HW238346   1.453   3.348   8.716  1.2958 -0.0835  0.2562
 8904SOL     OW38347   3.830   2.161   7.144  0.3562  0.5838  0.1521
 8904SOL    HW138348   3.792   2.249   7.155 -0.5594  0.3327 -0.9964
 8904SOL    HW238349   3.912   2.167   7.192  0.9408  2.3157 -1.0345
 8905SOL     OW38350   3.565   0.381   1.853  0.0803  0.1748  0.5554
 8905SOL    HW138351   3.638   0.346   1.803 -0.0004 -0.4507  0.8693
 8905SOL    HW238352   3.498   0.335   1.802 -1.3190  1.4280  1.2697
 8906SOL     OW38353   1.667   3.132   3.957  0.2257  0.9021  0.5756
 8906SOL    HW138354   1.648   3.097   3.870  0.3660 -0.0142  0.9144
 8906SOL    HW238355   1.680   3.051   4.006 -2.5760  0.3723  0.4361
 8907SOL     OW38356   3.102   0.376   9.535  0.0123 -0.3699  0.0103
 8907SOL    HW138357   3.131   0.443   9.474  0.8840 -2.6413 -2.0971
 8907SOL    HW238358   3.036   0.331   9.482  1.1618 -2.0450 -0.0065
 8908SOL     OW38359   1.543   2.449  16.245 -0.1277 -0.2641 -0.1204
 8908SOL    HW138360   1.590   2.531  16.227 -0.4727 -0.4407 -1.8553
 8908SOL    HW238361   1.601   2.375  16.225  1.4032  0.5916  1.1453
 8909SOL     OW38362   0.983   2.835   9.136 -0.2058  0.7611 -0.5028
 8909SOL    HW138363   1.045   2.819   9.207  0.2256 -1.5271 -1.4044
 8909SOL    HW238364   0.995   2.764   9.073 -0.5798 -0.3708  0.7320
 8910SOL     OW38365   4.582   2.430   2.049 -0.4961  0.4902  0.1611
 8910SOL    HW138366   4.542   2.349   2.079  0.3941 -0.6894 -1.8565
 8910SOL    HW238367   4.657   2.400   1.999  2.1540  2.8666  2.7039
 8911SOL     OW38368   2.882   4.388   3.789 -0.6527  0.3406 -0.4187
 8911SOL    HW138369   2.872   4.455   3.721  1.2250  1.5915  0.5285
 8911SOL    HW238370   2.960   4.424   3.832  0.6039 -1.7936 -0.8995
 8912SOL     OW38371   2.460   1.514   6.595  0.5848  0.1999 -0.1572
 8912SOL    HW138372   2.424   1.600   6.614  0.5925  0.5465 -1.7492
 8912SOL    HW238373   2.386   1.463   6.628  0.7897 -0.1583 -0.2497
 8913SOL     OW38374   1.411   4.578   2.275 -0.0366  0.0764  0.1290
 8913SOL    HW138375   1.447   4.666   2.267 -0.3700  0.1513 -0.5458
 8913SOL    HW238376   1.316   4.593   2.268  0.2270  2.9815  2.8264
 8914SOL     OW38377   3.526   0.404  12.251 -0.1023  0.1089 -0.0974
 8914SOL    HW138378   3.509   0.343  12.179  0.0288  0.3979 -0.3757
 8914SOL    HW238379   3.612   0.370  12.275  0.4250  1.1990 -0.4496
 8915SOL     OW38380   4.097   1.154   3.213  0.4710 -0.3022  0.5830
 8915SOL    HW138381   4.031   1.088   3.189 -0.6015  1.0692 -0.1890
 8915SOL    HW238382   4.110   1.138   3.306  1.0801  0.3461  0.6089
 8916SOL     OW38383   1.087   0.934  16.652 -0.0171 -0.6362  0.6468
 8916SOL    HW138384   1.122   1.017  16.621  0.7422 -3.3239 -5.5996
 8916SOL    HW238385   1.163   0.879  16.675 -0.5622 -1.5716  0.2296
 8917SOL     OW38386   1.969   0.187   7.133 -0.1316 -0.3352  0.5084
 8917SOL    HW138387   2.023   0.110   7.118 -2.0220 -1.6275  0.4132
 8917SOL    HW238388   1.888   0.153   7.096  0.2641 -0.2314 -0.4647
 8918SOL     OW38389   3.375   3.996   0.903  0.4232  0.2965 -0.4749
 8918SOL    HW138390   3.380   3.901   0.916  0.5614  0.4189  0.3965
 8918SOL    HW238391   3.354   4.008   0.811 -1.1757  1.4430  0.0396
 8919SOL     OW38392   4.501   0.301   4.112  0.0142  0.7909  0.2571
 8919SOL    HW138393   4.555   0.329   4.038 -0.5856  2.0499  0.2991
 8919SOL    HW238394   4.458   0.384   4.133  1.8252  2.0752 -1.1398
 8920SOL     OW38395   1.878   2.782   5.912  0.1229 -0.0376  0.5350
 8920SOL    HW138396   1.816   2.731   5.859  0.0036  0.2575  0.3861
 8920SOL    HW238397   1.958   2.762   5.864 -0.7173 -0.3544 -0.7576
 8921SOL     OW38398   4.547   2.255   6.198  0.1613 -0.1504  0.1795
 8921SOL    HW138399   4.532   2.182   6.258  0.1386  0.7963  1.3324
 8921SOL    HW238400   4.482   2.312   6.239  2.5704  0.7909  2.6636
 8922SOL     OW38401   3.119   0.154   4.857  0.9038 -1.0002  0.1004
 8922SOL    HW138402   3.143   0.105   4.936  0.2739  0.7701  1.3693
 8922SOL    HW238403   3.178   0.115   4.792 -0.9279 -0.3042 -1.9877
 8923SOL     OW38404   4.348   2.745  14.446  0.2693  0.3838  0.0454
 8923SOL    HW138405   4.261   2.760  14.481 -0.0707 -1.2793 -0.1146
 8923SOL    HW238406   4.369   2.838  14.433 -0.4110  0.8116  2.1949
 8924SOL     OW38407   1.626   4.378   0.576  0.1785  0.1132  0.3674
 8924SOL    HW138408   1.715   4.412   0.565 -0.4220  1.5359 -0.0932
 8924SOL    HW238409   1.591   4.449   0.630 -0.3108  0.6132 -0.6037
 8925SOL     OW38410   4.684   4.250   2.686  0.2155  0.0720  0.2337
 8925SOL    HW138411   4.722   4.337   2.673  0.3653  0.0050  0.2199
 8925SOL    HW238412   4.695   4.243   2.781 -0.8174 -0.9778  0.2727
 8926SOL     OW38413   0.773   1.494   9.017 -0.1632  0.5387  0.4462
 8926SOL    HW138414   0.779   1.551   9.095 -2.0112  1.7126 -0.2734
 8926SOL    HW238415   0.691   1.453   9.045 -0.2012 -0.9290 -1.8304
 8927SOL     OW38416   1.923   2.171   9.132 -0.7949  0.0140 -0.7958
 8927SOL    HW138417   1.965   2.194   9.050  0.8178  0.5630  0.1915
 8927SOL    HW238418   1.892   2.259   9.153 -0.8121 -0.0963 -0.3575
 8928SOL     OW38419   2.836   0.789   3.830  0.1793 -0.0119  0.5632
 8928SOL    HW138420   2.924   0.827   3.836  0.4029 -0.4627  0.0894
 8928SOL    HW238421   2.795   0.862   3.876  0.4193 -0.0220  0.7954
 8929SOL     OW38422   1.895   3.665  14.479  0.8450 -0.6858 -0.1629
 8929SOL    HW138423   1.961   3.597  14.485 -0.1992 -1.4119  2.8273
 8929SOL    HW238424   1.844   3.627  14.408 -0.0150  0.2397 -0.0476
 8930SOL     OW38425   2.538   3.805   8.760  0.5910  0.2913 -0.0786
 8930SOL    HW138426   2.567   3.891   8.790 -1.8444  0.3841  1.9564
 8930SOL    HW238427   2.580   3.803   8.674 -0.9725 -0.0617 -0.8307
 8931SOL     OW38428   0.674   4.333   5.316  0.4506 -0.4261 -0.1888
 8931SOL    HW138429   0.679   4.344   5.411  0.1514 -1.2776 -0.0762
 8931SOL    HW238430   0.580   4.347   5.305  0.2030 -0.8205  1.4832
 8932SOL     OW38431   2.263   2.285   4.993  0.8596 -0.2919  0.0245
 8932SOL    HW138432   2.171   2.310   5.000  0.8023 -0.5136  0.0498
 8932SOL    HW238433   2.263   2.237   4.910 -0.4172 -0.9280  0.3893
 8933SOL     OW38434   2.980   0.778   5.875  0.1040  0.1809  0.4266
 8933SOL    HW138435   2.920   0.722   5.924 -0.5169  1.1918  0.8187
 8933SOL    HW238436   3.044   0.715   5.839  1.8858  1.1666  1.8809
 8934SOL     OW38437   0.625   3.549  16.898  0.1370  0.2472 -0.0039
 8934SOL    HW138438   0.644   3.542  16.991  1.1663  1.1171 -0.1539
 8934SOL    HW238439   0.704   3.597  16.874 -0.5660  0.2903 -2.3241
 8935SOL     OW38440   1.415   3.019  13.721  0.1882  0.3456  0.4283
 8935SOL    HW138441   1.362   3.098  13.718 -3.6571 -2.3205 -1.3909
 8935SOL    HW238442   1.487   3.038  13.660 -1.0250  0.3708 -0.9993
 8936SOL     OW38443   2.947   2.575   1.460  0.5065 -0.3190 -0.1004
 8936SOL    HW138444   2.856   2.602   1.469  0.5433  0.2511 -1.4181
 8936SOL    HW238445   2.995   2.658   1.464  2.4284 -1.4621  0.2851
 8937SOL     OW38446   4.036   2.284   7.296 -0.2759 -0.1385 -0.1383
 8937SOL    HW138447   4.110   2.262   7.351 -1.5202  1.2437  2.0744
 8937SOL    HW238448   4.070   2.372   7.278 -0.3069 -0.0046  0.4846
 8938SOL     OW38449   2.064   2.559   4.426  0.3383 -0.4236  0.3032
 8938SOL    HW138450   2.047   2.561   4.332  2.6225 -1.1525 -0.1093
 8938SOL    HW238451   2.123   2.634   4.428 -0.9836  0.6290  0.8408
 8939SOL     OW38452   4.042   3.817  11.786 -0.0476  0.0869 -0.6982
 8939SOL    HW138453   4.012   3.804  11.876  0.1949  1.9974 -0.3297
 8939SOL    HW238454   4.110   3.884  11.792  2.1401 -2.2515  0.5316
 8940SOL     OW38455   2.346   3.201  15.579  0.4462  0.0641 -0.1677
 8940SOL    HW138456   2.428   3.193  15.627 -0.9502 -1.0654  1.9871
 8940SOL    HW238457   2.302   3.122  15.610  1.7720 -0.4242  0.4678
 8941SOL     OW38458   0.651   0.039  10.979 -0.3147 -0.3919 -0.7002
 8941SOL    HW138459   0.668   4.691  11.023 -0.2215 -0.1816 -0.3422
 8941SOL    HW238460   0.587   0.073  11.042  0.4014 -0.7548  0.2228
 8942SOL     OW38461   0.596   0.016   2.816 -0.2687  1.1168  0.9739
 8942SOL    HW138462   0.603   0.036   2.910 -0.2016  1.6765  0.8483
 8942SOL    HW238463   0.676   0.055   2.781 -0.9938  1.0535 -0.7506
 8943SOL     OW38464   4.657   4.681  15.138  0.5353  0.4651 -0.4325
 8943SOL    HW138465   4.616   4.713  15.057  0.9400 -0.9688 -1.1982
 8943SOL    HW238466   4.731   0.006  15.148  1.4308 -0.5618 -0.8525
 8944SOL     OW38467   3.532   2.723   7.042  0.8537  0.3260 -0.6023
 8944SOL    HW138468   3.541   2.690   7.132  0.8658  2.1613  0.0709
 8944SOL    HW238469   3.497   2.640   7.010 -1.7632  0.3833  2.0374
 8945SOL     OW38470   4.404   0.151  12.862  0.4578  0.1496  0.1712
 8945SOL    HW138471   4.489   0.164  12.819 -0.0111  0.4205 -0.6876
 8945SOL    HW238472   4.371   0.073  12.818 -1.1093  1.6380 -1.2989
 8946SOL     OW38473   3.736   3.962   5.597 -0.0533  0.0723 -0.1070
 8946SOL    HW138474   3.795   3.980   5.524 -0.3378 -3.3665 -1.2128
 8946SOL    HW238475   3.758   4.019   5.671  0.6779  1.3393 -1.3070
 8947SOL     OW38476   3.468   0.912  10.115 -0.2620 -0.2017  0.4527
 8947SOL    HW138477   3.510   0.997  10.122 -0.8362 -0.1635  3.4923
 8947SOL    HW238478   3.542   0.863  10.152 -2.1125 -2.7720  0.7552
 8948SOL     OW38479   0.643   3.904   7.810  0.4098 -0.3950  0.2522
 8948SOL    HW138480   0.583   3.895   7.735 -1.4813  0.8240  1.6067
 8948SOL    HW238481   0.726   3.907   7.762 -0.9939  2.4066 -2.0243
 8949SOL     OW38482   3.411   3.916   4.783 -0.3721  0.2798 -0.1225
 8949SOL    HW138483   3.411   3.878   4.695 -0.6567 -0.3491  0.1486
 8949SOL    HW238484   3.355   3.851   4.826  1.3404 -0.4444  0.9793
 8950SOL     OW38485   3.481   3.271   0.626 -0.2732 -0.2895 -0.9955
 8950SOL    HW138486   3.523   3.203   0.679 -0.2944  0.2819 -0.2476
 8950SOL    HW238487   3.476   3.221   0.545  1.0008 -0.5005 -0.9522
 8951SOL     OW38488   3.440   2.794   4.393  0.3756  0.4775 -0.4117
 8951SOL    HW138489   3.483   2.773   4.475 -0.9678  0.3022  0.2472
 8951SOL    HW238490   3.348   2.771   4.404  0.7056 -1.0191 -0.7527
 8952SOL     OW38491   3.671   2.756   3.776 -0.1733  0.7432 -0.1780
 8952SOL    HW138492   3.594   2.810   3.757  0.6014  1.7462 -0.4336
 8952SOL    HW238493   3.746   2.807   3.747  0.7133 -1.1863 -1.3412
 8953SOL     OW38494   2.088   2.981   2.918 -0.1493 -0.1051  0.5026
 8953SOL    HW138495   2.084   2.896   2.874 -1.3022 -0.1468  0.6881
 8953SOL    HW238496   1.997   3.010   2.919  0.7495  2.6326  3.1026
 8954SOL     OW38497   2.658   4.489   5.534 -0.3369 -0.1883  0.0963
 8954SOL    HW138498   2.738   4.542   5.546 -0.7005  0.3912 -0.0245
 8954SOL    HW238499   2.634   4.507   5.443  1.0968 -2.4514 -0.7314
 8955SOL     OW38500   3.442   1.729   9.626  0.3514  0.7163  0.2745
 8955SOL    HW138501   3.486   1.781   9.559  1.3738 -0.2007  0.2265
 8955SOL    HW238502   3.352   1.728   9.595  0.7349 -1.2518 -0.8007
 8956SOL     OW38503   3.725   3.154  15.104  0.2170  0.5333 -0.2851
 8956SOL    HW138504   3.771   3.220  15.155  0.8867  1.1754 -1.7432
 8956SOL    HW238505   3.637   3.178  15.132  0.8552  3.0421 -0.4756
 8957SOL     OW38506   3.581   4.659   7.205  0.3973 -0.7761  0.1128
 8957SOL    HW138507   3.644   4.627   7.270  1.1048  1.0753  0.3363
 8957SOL    HW238508   3.515   4.590   7.194 -0.0863 -0.5386  1.5285
 8958SOL     OW38509   3.293   3.639   2.627 -0.0914  0.1485  0.3431
 8958SOL    HW138510   3.284   3.673   2.717 -1.3897 -3.3117  1.4934
 8958SOL    HW238511   3.329   3.721   2.592 -1.1113  1.0033  1.2878
 8959SOL     OW38512   2.321   2.609   9.342 -0.0534 -0.3893 -0.6692
 8959SOL    HW138513   2.300   2.649   9.258 -2.2844  0.3611  0.2539
 8959SOL    HW238514   2.389   2.668   9.375 -0.1348 -0.0470 -1.1197
 8960SOL     OW38515   2.290   4.598   5.800  0.0791 -0.6718 -0.6442
 8960SOL    HW138516   2.320   4.686   5.775 -0.1143  0.2904  2.4105
 8960SOL    HW238517   2.231   4.624   5.872  1.7360  0.0036  0.4766
 8961SOL     OW38518   2.902   4.188   2.442  0.0002 -0.1675 -0.0064
 8961SOL    HW138519   2.974   4.219   2.497 -2.4314  0.5249  2.8411
 8961SOL    HW238520   2.948   4.118   2.396 -1.3594 -1.5905  0.8118
 8962SOL     OW38521   4.462   1.533   4.402  0.0065 -0.2891  0.6182
 8962SOL    HW138522   4.395   1.510   4.338  2.5245  2.3610 -3.0241
 8962SOL    HW238523   4.544   1.502   4.364 -1.4548 -1.6475 -1.3973
 8963SOL     OW38524   4.046   2.409   2.493  0.5107 -0.3183 -0.5493
 8963SOL    HW138525   4.052   2.362   2.410  2.6104 -0.7164 -0.1918
 8963SOL    HW238526   3.952   2.424   2.502  0.3930 -2.3930  1.5882
 8964SOL     OW38527   3.639   1.426   9.344 -0.0454 -0.6079  0.6081
 8964SOL    HW138528   3.634   1.391   9.433  2.5249 -1.0777  0.5563
 8964SOL    HW238529   3.698   1.356   9.317 -0.3930 -0.4449 -0.5692
 8965SOL     OW38530   2.565   1.107  17.301 -0.1453  0.2745  0.8015
 8965SOL    HW138531   2.572   1.143  17.212 -0.4965 -0.8503  0.3121
 8965SOL    HW238532   2.653   1.069  17.305 -0.6723 -0.6859  3.1617
 8966SOL     OW38533   4.153   1.245   0.751  0.0234 -0.0845 -0.0226
 8966SOL    HW138534   4.161   1.316   0.814 -1.5504 -0.0241  0.1052
 8966SOL    HW238535   4.095   1.183   0.796 -1.7003  0.4550 -1.4873
 8967SOL     OW38536   0.473   0.293   7.322 -0.0769 -0.1169 -0.1540
 8967SOL    HW138537   0.551   0.337   7.288 -0.7316  1.5190  0.4671
 8967SOL    HW238538   0.451   0.347   7.399  1.0062  1.1663 -0.7449
 8968SOL     OW38539   2.644   4.410   7.173 -0.5912  0.4864  0.0519
 8968SOL    HW138540   2.678   4.495   7.147 -2.5826  1.2316 -0.0920
 8968SOL    HW238541   2.579   4.431   7.240 -1.8324  0.6499 -1.2161
 8969SOL     OW38542   3.663   3.930   1.065 -0.5050  0.4897  0.1473
 8969SOL    HW138543   3.602   3.982   1.117  0.3524  2.3148 -0.6672
 8969SOL    HW238544   3.655   3.972   0.980 -1.0865 -0.5139 -0.2886
 8970SOL     OW38545   0.041   0.254   8.793  0.6511  0.0954  0.0296
 8970SOL    HW138546   4.721   0.270   8.870  3.8984  1.0905  2.1316
 8970SOL    HW238547   0.119   0.226   8.840  1.1941 -1.6188 -1.9113
 8971SOL     OW38548   3.987   2.744   9.649 -0.1851 -0.8626  0.1705
 8971SOL    HW138549   3.958   2.749   9.740  1.0572  1.0001  0.4660
 8971SOL    HW238550   3.909   2.698   9.617  0.3747  0.0582 -2.5051
 8972SOL     OW38551   2.642   1.353   8.585 -0.3531  0.1669  1.0013
 8972SOL    HW138552   2.560   1.336   8.632 -0.1928  1.5578  1.7893
 8972SOL    HW238553   2.627   1.430   8.531 -0.3012 -1.7428 -1.7439
 8973SOL     OW38554   2.570   0.597  14.798  0.0083  0.4695  0.1884
 8973SOL    HW138555   2.496   0.587  14.858  1.1842  0.8711  1.7184
 8973SOL    HW238556   2.648   0.579  14.851  1.0866 -0.8436 -1.8422
 8974SOL     OW38557   3.136   4.655   6.457 -0.1280 -0.4723  0.0752
 8974SOL    HW138558   3.053   4.674   6.413  0.8869  2.1675 -0.7321
 8974SOL    HW238559   3.180   0.004   6.448 -0.9309 -0.1325 -0.7371
 8975SOL     OW38560   2.903   3.960   9.259  0.1116 -0.0703 -0.2959
 8975SOL    HW138561   2.947   3.875   9.263 -0.8702 -0.5872 -0.2647
 8975SOL    HW238562   2.868   3.965   9.348  1.2810 -0.6345  0.2009
 8976SOL     OW38563   4.288   3.470   6.084  0.5799  0.2929  0.3077
 8976SOL    HW138564   4.349   3.544   6.078  1.6129 -0.4991  0.8540
 8976SOL    HW238565   4.335   3.401   6.036  0.2133  0.8696 -0.8689
 8977SOL     OW38566   4.656   3.208  10.538  0.0205 -0.0538  0.2643
 8977SOL    HW138567   4.671   3.151  10.462  0.4486  1.6733 -0.9444
 8977SOL    HW238568   4.680   3.294  10.502 -1.2462  0.5538  0.8593
 8978SOL     OW38569   3.609   0.538   3.746  0.5861  0.1381 -0.0028
 8978SOL    HW138570   3.696   0.572   3.765  0.1942  0.7723  0.6770
 8978SOL    HW238571   3.550   0.588   3.804  1.7946 -1.3590  2.5262
 8979SOL     OW38572   1.364   2.253   5.235  0.6639 -0.0112 -0.2558
 8979SOL    HW138573   1.370   2.338   5.192 -0.0847  0.1339 -0.0688
 8979SOL    HW238574   1.408   2.260   5.320 -1.2531  1.2780  0.6339
 8980SOL     OW38575   0.406   3.035  17.135 -0.1640  0.2116 -0.4488
 8980SOL    HW138576   0.490   3.065  17.100  0.7321 -0.2048  1.3401
 8980SOL    HW238577   0.430   2.942  17.126  2.9105  1.3016 -3.5008
 8981SOL     OW38578   4.045   3.636   4.195  0.3778  0.3528 -1.0757
 8981SOL    HW138579   4.076   3.566   4.253  0.9664  1.0800 -0.5191
 8981SOL    HW238580   3.951   3.634   4.207  0.5429 -0.0166  0.1235
 8982SOL     OW38581   1.762   3.959   4.815  0.6508  0.2594 -0.2857
 8982SOL    HW138582   1.697   3.895   4.846  0.5312  1.8048  2.6463
 8982SOL    HW238583   1.744   3.959   4.720 -0.6412  2.1399 -0.0516
 8983SOL     OW38584   0.451   3.464   8.339  0.1518  0.3114  0.1913
 8983SOL    HW138585   0.445   3.557   8.315  1.9365  0.1922 -0.6562
 8983SOL    HW238586   0.390   3.422   8.279  1.3935 -0.6092 -0.4233
 8984SOL     OW38587   2.055   0.913   3.043  0.4141 -0.6786  0.0048
 8984SOL    HW138588   1.985   0.868   3.090  0.7328 -0.4233  0.7235
 8984SOL    HW238589   2.130   0.861   3.070  1.2973  0.7463  0.2814
 8985SOL     OW38590   0.446   3.495   0.325 -0.2791  0.2985 -0.3136
 8985SOL    HW138591   0.480   3.523   0.410  1.3225 -2.5213 -0.0086
 8985SOL    HW238592   0.529   3.500   0.277  1.1598  1.6410  2.2951
 8986SOL     OW38593   1.594   3.125   7.442  0.1939 -0.0883  0.3032
 8986SOL    HW138594   1.548   3.041   7.432  0.5058 -0.1721 -0.4509
 8986SOL    HW238595   1.625   3.139   7.353  0.5673  3.3010  0.9942
 8987SOL     OW38596   2.723   4.498   1.823 -0.4546  0.6686 -0.2128
 8987SOL    HW138597   2.655   4.443   1.784  0.1189 -0.3103  0.1758
 8987SOL    HW238598   2.668   4.562   1.869  1.4540  1.9399  0.3082
 8988SOL     OW38599   0.559   3.688   2.537 -0.0729  0.5994 -0.1179
 8988SOL    HW138600   0.644   3.675   2.495  0.1754  2.0629 -0.0463
 8988SOL    HW238601   0.586   3.728   2.620 -1.2209 -0.1385  0.6205
 8989SOL     OW38602   3.777   1.300  13.974  0.0508  0.2804 -0.2387
 8989SOL    HW138603   3.743   1.226  14.024 -0.8384  1.2109  0.5098
 8989SOL    HW238604   3.713   1.365  14.000 -1.5919 -1.3525 -0.2111
 8990SOL     OW38605   0.877   1.560  17.405  0.1247 -0.4746 -0.4578
 8990SOL    HW138606   0.827   1.606  17.338 -0.1010 -1.2290 -0.8095
 8990SOL    HW238607   0.891   1.475  17.363  0.6699 -0.2118 -0.8111
 8991SOL     OW38608   3.468   2.990   0.489  0.1850 -0.6111 -0.1590
 8991SOL    HW138609   3.382   3.032   0.492  1.6943  2.5706 -0.7128
 8991SOL    HW238610   3.498   2.990   0.580 -1.2062 -2.6913  0.2945
 8992SOL     OW38611   1.255   4.422   3.966 -0.3179 -0.3675  0.0161
 8992SOL    HW138612   1.298   4.369   3.899 -0.7319 -2.0791  1.0912
 8992SOL    HW238613   1.228   4.496   3.912  0.7737 -0.1700 -0.2583
 8993SOL     OW38614   0.320   1.642  11.456 -0.5133  0.3586  0.3463
 8993SOL    HW138615   0.228   1.621  11.472 -0.9174  1.3000 -0.6681
 8993SOL    HW238616   0.332   1.654  11.361 -2.6930 -1.2690 -0.1334
 8994SOL     OW38617   2.606   0.350  15.184  0.1806  0.2400 -0.6687
 8994SOL    HW138618   2.604   0.445  15.172  2.7280  0.6234  1.8450
 8994SOL    HW238619   2.701   0.334  15.188 -0.0710  0.1184  4.1232
 8995SOL     OW38620   4.692   0.769  16.420 -0.0662  0.3951 -0.2324
 8995SOL    HW138621   4.635   0.837  16.383  0.3616 -0.5667 -2.6705
 8995SOL    HW238622   4.680   0.775  16.514 -0.3242  2.2625 -0.3801
 8996SOL     OW38623   3.246   3.256   6.852  0.4487 -0.3048 -0.4361
 8996SOL    HW138624   3.307   3.327   6.874 -1.3007  0.7503  1.0360
 8996SOL    HW238625   3.301   3.180   6.833 -0.4693 -1.5379  1.8000
 8997SOL     OW38626   2.094   0.422   5.373 -0.3392  0.4292 -0.2040
 8997SOL    HW138627   2.175   0.371   5.382  0.3092  1.3723 -0.7207
 8997SOL    HW238628   2.046   0.355   5.324 -0.2604  0.9991 -1.0421
 8998SOL     OW38629   0.789   3.468   3.723  0.5440  0.4163 -0.0117
 8998SOL    HW138630   0.716   3.410   3.747  0.5966  0.0801 -0.6555
 8998SOL    HW238631   0.856   3.414   3.765 -0.7693 -2.4672 -1.6296
 8999SOL     OW38632   2.892   4.549   2.495 -0.4934 -0.3141 -0.0727
 8999SOL    HW138633   2.840   4.521   2.570 -0.3850 -0.3206  0.0004
 8999SOL    HW238634   2.817   4.578   2.443 -1.3091  0.4695  1.5122
 9000SOL     OW38635   4.111   2.803   3.120  0.0591  0.1498  0.3785
 9000SOL    HW138636   4.125   2.883   3.069  0.0520 -0.0734  0.0220
 9000SOL    HW238637   4.174   2.738   3.088  1.0392  0.9838  0.6230
 9001SOL     OW38638   4.532   1.896   3.125 -0.4541 -0.2612  0.1312
 9001SOL    HW138639   4.559   1.939   3.205  0.6365  3.9739 -2.5219
 9001SOL    HW238640   4.439   1.918   3.122 -0.5763 -0.7918 -0.1142
 9002SOL     OW38641   4.272   1.410  13.148  0.0578  0.4071  0.0745
 9002SOL    HW138642   4.253   1.406  13.242  0.0758  2.0380  0.1554
 9002SOL    HW238643   4.235   1.496  13.128 -3.1308 -0.8646  0.4995
 9003SOL     OW38644   1.363   2.964   9.303 -0.5332  0.4084 -0.0104
 9003SOL    HW138645   1.319   2.911   9.369 -1.3146 -0.8655 -1.5307
 9003SOL    HW238646   1.311   2.950   9.223  0.3239  1.0649 -0.6885
 9004SOL     OW38647   0.090   2.507  13.812 -0.2779  0.2266 -0.3639
 9004SOL    HW138648   0.005   2.551  13.819 -1.1588 -1.4803 -0.4405
 9004SOL    HW238649   0.123   2.538  13.896  0.4466  1.5584 -1.1361
 9005SOL     OW38650   3.403   0.833   6.412 -0.1196 -0.2024 -0.0722
 9005SOL    HW138651   3.427   0.781   6.489  2.4266 -0.7026 -1.2247
 9005SOL    HW238652   3.311   0.850   6.436 -0.2345  0.2463 -0.8477
 9006SOL     OW38653   3.363   3.874   2.511 -0.9265 -0.2936  0.2388
 9006SOL    HW138654   3.361   3.909   2.422 -1.0097  0.8601  0.6945
 9006SOL    HW238655   3.421   3.937   2.555 -1.6269  1.3590 -1.2057
 9007SOL     OW38656   0.868   2.582   9.459  0.3706 -0.4667  0.3108
 9007SOL    HW138657   0.897   2.557   9.371  1.5707 -0.5192  0.7195
 9007SOL    HW238658   0.937   2.532   9.502  0.8268 -1.6415 -1.7716
 9008SOL     OW38659   4.535   0.786   4.944  0.1890  0.0191  0.0732
 9008SOL    HW138660   4.612   0.819   4.897  0.1489  0.4583  0.3130
 9008SOL    HW238661   4.464   0.832   4.900 -0.9822 -1.1445  0.7713
 9009SOL     OW38662   2.207   4.069   6.941  0.3379 -0.6143  0.1583
 9009SOL    HW138663   2.200   4.102   7.030 -0.8060 -0.6342  0.0755
 9009SOL    HW238664   2.234   3.977   6.942 -1.0997 -1.0235  1.6227
 9010SOL     OW38665   0.177   2.254   2.720  0.1688  0.3240 -0.2861
 9010SOL    HW138666   0.210   2.182   2.773  1.7847  2.5752  1.8195
 9010SOL    HW238667   0.158   2.210   2.637 -0.7370  0.6845 -0.2631
 9011SOL     OW38668   2.783   1.449   1.347  0.9412  0.3702 -0.2629
 9011SOL    HW138669   2.825   1.531   1.369 -1.0414  1.5101 -0.7140
 9011SOL    HW238670   2.711   1.491   1.299  0.1719 -2.0700 -1.3017
 9012SOL     OW38671   4.341   4.539   4.659  0.1958  0.3228 -0.6712
 9012SOL    HW138672   4.387   4.570   4.581  0.8198  1.9329  0.3450
 9012SOL    HW238673   4.271   4.486   4.620 -0.5425  0.6596  0.1974
 9013SOL     OW38674   2.419   0.951  15.661 -0.5866  0.3506  0.0971
 9013SOL    HW138675   2.409   0.905  15.577 -2.9681 -0.9240  1.0712
 9013SOL    HW238676   2.353   0.906  15.714 -0.2613  1.5302  1.4818
 9014SOL     OW38677   4.083   1.930   7.339  0.2200  0.0801 -0.2074
 9014SOL    HW138678   4.011   1.974   7.293 -0.6381 -1.1987 -0.0948
 9014SOL    HW238679   4.062   1.837   7.330  1.0133  0.0462 -1.6661
 9015SOL     OW38680   4.054   0.731   2.118 -0.1000 -0.4199 -0.1275
 9015SOL    HW138681   4.120   0.679   2.073 -0.1009 -1.2404  0.8337
 9015SOL    HW238682   4.091   0.739   2.205  0.5921  1.6185 -0.5955
 9016SOL     OW38683   1.159   2.548  12.762 -0.1247  0.0221  0.0784
 9016SOL    HW138684   1.141   2.621  12.821  1.5703  1.9757 -1.7920
 9016SOL    HW238685   1.152   2.474  12.821 -0.8081  0.0322  0.0074
 9017SOL     OW38686   0.633   2.294  12.451 -0.1467 -0.0745 -0.0199
 9017SOL    HW138687   0.680   2.377  12.454 -1.9795  0.9348 -0.0530
 9017SOL    HW238688   0.592   2.305  12.366  0.0755 -1.3653 -0.2953
 9018SOL     OW38689   3.589   1.186  10.121  0.6966  0.0570 -0.5781
 9018SOL    HW138690   3.628   1.239  10.191 -2.3025  1.1573  0.2817
 9018SOL    HW238691   3.623   1.225  10.041 -0.4429 -0.7218 -1.4411
 9019SOL     OW38692   4.031   1.368   6.526  0.3467 -0.1273  0.0838
 9019SOL    HW138693   4.063   1.324   6.447 -0.8643  0.3356 -0.6640
 9019SOL    HW238694   4.090   1.443   6.529  2.3178 -1.7294  0.9894
 9020SOL     OW38695   4.552   1.077  10.544 -0.5249  0.1871  0.1899
 9020SOL    HW138696   4.488   1.143  10.518  0.3137  0.4051 -1.2677
 9020SOL    HW238697   4.573   1.035  10.461 -1.9574 -0.2605  0.0539
 9021SOL     OW38698   3.653   0.596   1.577  0.2166 -0.2997  0.4218
 9021SOL    HW138699   3.625   0.507   1.600  2.0765 -0.6509  1.3126
 9021SOL    HW238700   3.580   0.645   1.540 -1.4058 -2.1826  1.0905
 9022SOL     OW38701   3.748   4.649   3.261 -0.1261 -0.5407  0.3790
 9022SOL    HW138702   3.710   4.722   3.310  1.1195  1.1623 -1.2442
 9022SOL    HW238703   3.840   4.662   3.282 -0.1751 -0.7999  0.7596
 9023SOL     OW38704   4.248   0.287   0.814  0.2803 -0.0579  0.5552
 9023SOL    HW138705   4.208   0.369   0.843 -0.3942  0.2559 -1.2921
 9023SOL    HW238706   4.173   0.229   0.803  2.0915 -2.1440 -0.7028
 9024SOL     OW38707   3.063   4.399  17.006 -0.1927 -0.1178 -0.3289
 9024SOL    HW138708   3.015   4.451  17.071 -0.0701 -0.8877  0.3704
 9024SOL    HW238709   3.032   4.310  17.019 -0.6716 -0.5263 -4.1245
 9025SOL     OW38710   2.159   4.275   9.413 -0.2099  0.3952 -0.1000
 9025SOL    HW138711   2.088   4.308   9.359 -1.3838 -1.8802  0.0537
 9025SOL    HW238712   2.242   4.312   9.381  0.2453 -0.1631  0.4210
 9026SOL     OW38713   0.458   2.045  16.860  0.0382  0.2105 -0.3603
 9026SOL    HW138714   0.390   2.111  16.871 -1.7095 -1.4557 -1.2440
 9026SOL    HW238715   0.415   1.987  16.797  0.4995 -1.9516  1.2851
 9027SOL     OW38716   2.746   4.599  10.157  0.1293  0.5471 -0.3358
 9027SOL    HW138717   2.794   4.667  10.205  1.7362  0.4627 -1.8030
 9027SOL    HW238718   2.774   4.519  10.202  1.6151  0.4988 -1.3420
 9028SOL     OW38719   3.706   3.773   5.232  0.0461 -0.5735 -0.1792
 9028SOL    HW138720   3.683   3.865   5.222  1.3093 -0.6278 -3.3879
 9028SOL    HW238721   3.665   3.717   5.165 -2.1832 -1.3369  1.8257
 9029SOL     OW38722   2.819   0.793   1.813 -0.7213 -0.4767 -0.1362
 9029SOL    HW138723   2.864   0.785   1.729  1.1429  1.3123  0.6651
 9029SOL    HW238724   2.875   0.864   1.846 -1.6470  0.6718 -1.0463
 9030SOL     OW38725   1.357   2.288  14.869 -0.3033  0.5913  0.6508
 9030SOL    HW138726   1.428   2.263  14.929 -0.9544 -0.7809  0.8455
 9030SOL    HW238727   1.370   2.228  14.795 -2.1664 -0.5847  1.2756
 9031SOL     OW38728   0.712   1.854  17.569 -0.1726 -0.0448  1.4411
 9031SOL    HW138729   0.799   1.877  17.602  0.3065  1.1950 -0.6785
 9031SOL    HW238730   0.699   1.896  17.484  0.7583 -0.4935  1.0770
 9032SOL     OW38731   2.797   3.905   6.954 -0.7051 -1.0480  0.1237
 9032SOL    HW138732   2.731   3.849   6.994 -3.0670  3.3985  2.5339
 9032SOL    HW238733   2.782   3.882   6.862  0.7223  0.7105 -0.5471
 9033SOL     OW38734   4.725   1.912  11.972 -0.1078 -0.4749  0.0779
 9033SOL    HW138735   4.715   1.900  12.066 -2.2351 -0.9608 -0.2218
 9033SOL    HW238736   4.640   1.955  11.963  1.6481  2.7373 -1.0469
 9034SOL     OW38737   1.730   0.752   3.994 -0.4957 -0.0094 -0.6664
 9034SOL    HW138738   1.802   0.726   3.937 -2.4969 -3.1041 -1.8413
 9034SOL    HW238739   1.737   0.669   4.042 -0.4769 -0.6687 -1.7905
 9035SOL     OW38740   1.109   1.644   0.616  0.1457  0.0917  0.7681
 9035SOL    HW138741   1.157   1.719   0.652 -0.1723  0.9996 -0.7075
 9035SOL    HW238742   1.020   1.663   0.647 -1.6805 -4.1284 -1.8388
 9036SOL     OW38743   2.932   0.596  13.964 -0.1444  0.0431 -0.1892
 9036SOL    HW138744   2.889   0.554  14.038 -2.0160 -0.6738 -1.6914
 9036SOL    HW238745   3.025   0.582  13.983 -0.4329  2.4304  2.8286
 9037SOL     OW38746   1.574   3.620   8.702 -0.2932  0.6755  0.3662
 9037SOL    HW138747   1.587   3.707   8.741 -0.4653  1.8389 -2.1909
 9037SOL    HW238748   1.482   3.613   8.729 -0.8620 -1.7431 -2.1339
 9038SOL     OW38749   2.832   1.534   6.652 -0.8461 -0.4817 -0.6606
 9038SOL    HW138750   2.780   1.479   6.711 -0.9731 -0.4555 -0.7480
 9038SOL    HW238751   2.783   1.616   6.661  1.7916  1.1062 -0.5884
 9039SOL     OW38752   3.883   4.532   5.959  0.3765  0.0990  0.2634
 9039SOL    HW138753   3.910   4.612   5.915  0.4845  0.5848  1.2150
 9039SOL    HW238754   3.936   4.468   5.911 -0.3242 -0.0856 -0.2622
 9040SOL     OW38755   0.952   2.818   6.813  0.0962  0.0365  0.1762
 9040SOL    HW138756   0.935   2.893   6.870 -0.7893 -1.4744  1.9194
 9040SOL    HW238757   0.893   2.753   6.853 -1.3802 -0.0834 -2.1938
 9041SOL     OW38758   2.987   0.001   3.105  0.1506  0.3946  0.0556
 9041SOL    HW138759   2.936   4.661   3.076 -1.1045  1.1650  0.2488
 9041SOL    HW238760   3.070   4.701   3.071 -1.5958 -2.9994 -0.6021
 9042SOL     OW38761   0.995   2.262  15.957 -0.6822 -0.5403 -0.3770
 9042SOL    HW138762   0.938   2.188  15.980 -2.6111  0.9583 -0.2706
 9042SOL    HW238763   1.072   2.223  15.917  0.5965  2.3745 -0.8049
 9043SOL     OW38764   0.207   0.688   4.729 -0.5902  0.4842  0.7026
 9043SOL    HW138765   0.126   0.721   4.690  0.2441  2.0055  0.2582
 9043SOL    HW238766   0.264   0.683   4.652 -2.9469  1.5086 -1.1352
 9044SOL     OW38767   3.582   4.284   2.875 -0.3017 -1.0242 -0.0412
 9044SOL    HW138768   3.549   4.349   2.813  0.2810 -0.4692  0.2263
 9044SOL    HW238769   3.619   4.334   2.947 -1.6852 -1.1150  0.7441
 9045SOL     OW38770   2.297   0.612   7.694 -0.2001 -0.1470  0.1187
 9045SOL    HW138771   2.287   0.676   7.765  2.2451 -1.4001  1.5505
 9045SOL    HW238772   2.256   0.531   7.725 -1.0475 -0.3115 -1.4273
 9046SOL     OW38773   3.619   0.015   5.816 -0.1375 -0.0023 -0.7063
 9046SOL    HW138774   3.599   4.657   5.810  0.6945 -0.3578  1.8638
 9046SOL    HW238775   3.704   0.020   5.772  0.9931  0.8554  1.5781
 9047SOL     OW38776   2.479   2.467   8.970  0.1461  0.2506 -0.0119
 9047SOL    HW138777   2.389   2.440   8.987  0.1205 -0.5587 -1.4721
 9047SOL    HW238778   2.530   2.387   8.979 -1.4054 -0.6386  0.9348
 9048SOL     OW38779   1.557   2.534   4.511 -0.1269  0.3018  0.2747
 9048SOL    HW138780   1.632   2.527   4.570  0.6306 -1.4118 -0.9002
 9048SOL    HW238781   1.536   2.627   4.514 -0.5306  0.2409 -0.6598
 9049SOL     OW38782   3.215   1.845   2.696  0.0817  0.6565  0.4866
 9049SOL    HW138783   3.220   1.765   2.644 -0.7241  1.1687 -0.3652
 9049SOL    HW238784   3.152   1.808   2.757  1.6009 -2.6857  0.0341
 9050SOL     OW38785   2.109   1.851   3.933  0.3642 -0.2863  1.1468
 9050SOL    HW138786   2.028   1.827   3.887 -0.7105  2.2294  1.7668
 9050SOL    HW238787   2.106   1.786   4.003  2.2392 -1.8023 -0.1879
 9051SOL     OW38788   4.043   0.031  16.326  0.2934 -0.5552  0.1837
 9051SOL    HW138789   3.959   0.072  16.345  1.7666  1.2359  2.8246
 9051SOL    HW238790   4.100   0.108  16.324 -0.9611  0.3772  0.3049
 9052SOL     OW38791   3.160   1.512  14.348  0.1659 -0.1882  0.0617
 9052SOL    HW138792   3.145   1.505  14.254  0.1437 -0.4193  0.0825
 9052SOL    HW238793   3.170   1.607  14.348  1.7615 -0.3513  1.0559
 9053SOL     OW38794   0.345   0.602   8.762  0.1088 -0.2852 -0.3522
 9053SOL    HW138795   0.308   0.667   8.821 -1.0269  0.0271 -1.4204
 9053SOL    HW238796   0.394   0.655   8.699  2.5115 -0.2422  1.5296
 9054SOL     OW38797   2.739   3.070   2.728 -0.7423  0.1864  0.0591
 9054SOL    HW138798   2.663   3.070   2.786  0.9576  2.9018  2.3186
 9054SOL    HW238799   2.729   3.153   2.681 -2.7630 -0.2015 -0.1993
 9055SOL     OW38800   4.332   3.932  17.393  0.2085 -0.0345 -0.5871
 9055SOL    HW138801   4.329   4.017  17.349 -2.5233  0.2194  0.1206
 9055SOL    HW238802   4.369   3.963  17.476  1.6615 -1.7493 -0.6088
 9056SOL     OW38803   3.182   2.928  15.539 -0.2220 -0.3641 -0.2089
 9056SOL    HW138804   3.198   2.878  15.619 -0.4506 -0.2690 -0.1057
 9056SOL    HW238805   3.265   2.976  15.534  0.2216 -0.9568  1.3649
 9057SOL     OW38806   3.546   0.326   3.908 -0.5431 -0.3049  0.7756
 9057SOL    HW138807   3.456   0.306   3.884 -0.6783  0.8511  0.3364
 9057SOL    HW238808   3.579   0.380   3.837 -0.3872 -0.8958  0.4038
 9058SOL     OW38809   1.143   2.475   3.740 -0.2203  0.3734 -0.0929
 9058SOL    HW138810   1.106   2.480   3.829 -0.4155  0.4732 -0.1799
 9058SOL    HW238811   1.236   2.455   3.754  0.1076  1.2784 -0.9179
 9059SOL     OW38812   0.557   0.358   6.247  0.3515  0.9504  0.7243
 9059SOL    HW138813   0.593   0.446   6.237 -0.0157  0.8969 -1.2099
 9059SOL    HW238814   0.465   0.379   6.267 -0.2142 -0.5899 -0.2076
 9060SOL     OW38815   0.752   3.349  15.676  0.6612 -0.0312  1.1680
 9060SOL    HW138816   0.797   3.388  15.601 -2.1437 -0.4185 -0.7196
 9060SOL    HW238817   0.663   3.371  15.648  0.2691  0.1254  2.5172
 9061SOL     OW38818   3.364   1.263   4.442  0.2446 -0.3258 -0.3589
 9061SOL    HW138819   3.338   1.250   4.351 -0.2544  0.1864 -0.2874
 9061SOL    HW238820   3.407   1.348   4.435  0.7690 -0.6557 -1.0591
 9062SOL     OW38821   3.002   2.300  10.108  0.3208  0.0994 -0.4328
 9062SOL    HW138822   3.055   2.239  10.160 -0.2209  0.5420  0.6452
 9062SOL    HW238823   3.051   2.383  10.111 -0.7261  0.7472 -1.3195
 9063SOL     OW38824   1.249   0.813   8.824 -0.1385 -0.0501 -0.0120
 9063SOL    HW138825   1.175   0.784   8.770 -0.6778 -1.5265  1.4991
 9063SOL    HW238826   1.208   0.843   8.905  1.2848  0.0503  0.6675
 9064SOL     OW38827   2.577   1.860   8.376 -0.1253  0.1395  0.1897
 9064SOL    HW138828   2.589   1.766   8.392 -1.1942  0.3028  1.8810
 9064SOL    HW238829   2.484   1.874   8.392 -0.3074  0.3460 -1.0039
 9065SOL     OW38830   0.005   0.049   5.946 -0.3616  0.5238 -0.4031
 9065SOL    HW138831   0.058   0.048   5.866  3.3104  0.7402  2.0637
 9065SOL    HW238832   0.059   0.109   5.996 -0.0867 -0.4504  0.4592
 9066SOL     OW38833   4.230   3.802  16.650 -0.6745  0.3734  0.0823
 9066SOL    HW138834   4.156   3.793  16.709 -0.1127  0.0509  0.7405
 9066SOL    HW238835   4.223   3.727  16.590 -0.2265 -0.7412  1.4079
 9067SOL     OW38836   0.388   1.646   7.471  0.1689 -0.6953 -0.1989
 9067SOL    HW138837   0.417   1.710   7.405  2.3450 -0.7658  0.6885
 9067SOL    HW238838   0.381   1.700   7.549  1.2191 -1.3177  0.3202
 9068SOL     OW38839   0.938   1.765   0.255  0.0601  0.1246  0.3996
 9068SOL    HW138840   1.000   1.703   0.219 -0.0036  1.0778 -1.3357
 9068SOL    HW238841   0.942   1.745   0.349 -1.6763  1.5541  0.7918
 9069SOL     OW38842   3.572   1.490   9.772  0.9886 -0.1600  0.6082
 9069SOL    HW138843   3.617   1.432   9.833  2.0001 -0.3149 -0.2791
 9069SOL    HW238844   3.621   1.572   9.781 -0.3262  0.7823 -0.6461
 9070SOL     OW38845   3.092   1.817   7.828 -0.4639  0.2235 -0.2011
 9070SOL    HW138846   3.108   1.836   7.736 -1.7545  1.5845 -0.1498
 9070SOL    HW238847   3.129   1.729   7.835 -2.6844 -0.7918 -1.4101
 9071SOL     OW38848   4.397   3.667   9.138 -0.5465 -0.1265 -0.1168
 9071SOL    HW138849   4.490   3.660   9.161 -0.3399  2.1512 -0.2536
 9071SOL    HW238850   4.365   3.720   9.212 -0.4780  2.1350 -1.6907
 9072SOL     OW38851   4.414   3.046   4.935  0.4671 -0.1474 -0.3300
 9072SOL    HW138852   4.501   3.067   4.901 -0.7833  1.3827 -2.6065
 9072SOL    HW238853   4.400   3.121   4.992  1.8600 -1.6802  2.0369
 9073SOL     OW38854   0.979   0.281   5.787 -0.1425 -0.2058  0.5679
 9073SOL    HW138855   1.031   0.219   5.837 -1.4223 -1.3760  0.4628
 9073SOL    HW238856   1.019   0.266   5.701 -1.1412 -0.2580  0.1060
 9074SOL     OW38857   4.186   0.616   6.517 -0.8183  0.6279 -0.6175
 9074SOL    HW138858   4.126   0.668   6.570 -2.3655  0.5429 -2.2724
 9074SOL    HW238859   4.218   0.679   6.452  0.9186 -0.6596 -0.9920
 9075SOL     OW38860   4.527   2.049   4.974  0.4553  0.5460  0.8598
 9075SOL    HW138861   4.467   1.989   5.019 -2.4325  3.0722  0.3266
 9075SOL    HW238862   4.492   2.031   4.887  1.1171 -2.1045  1.1193
 9076SOL     OW38863   3.942   3.614   3.290  0.2155 -0.3942 -0.1004
 9076SOL    HW138864   4.024   3.663   3.297 -0.9560  1.5313  0.3486
 9076SOL    HW238865   3.975   3.527   3.310 -1.1717 -1.2695 -1.5724
 9077SOL     OW38866   4.338   0.352   3.135  0.1709  0.1127  0.3486
 9077SOL    HW138867   4.393   0.424   3.166  0.8159 -0.2853  0.1190
 9077SOL    HW238868   4.325   0.302   3.216 -0.6216  0.6652  0.5621
 9078SOL     OW38869   3.632   0.670   8.629 -0.2048 -0.1551 -0.4641
 9078SOL    HW138870   3.589   0.622   8.558  1.5617 -1.3419 -0.7226
 9078SOL    HW238871   3.723   0.667   8.601  0.0741 -1.1274  0.5562
 9079SOL     OW38872   1.727   3.939   8.011 -0.1365 -0.0377 -0.0751
 9079SOL    HW138873   1.709   3.846   8.005  0.2686 -0.0896 -0.4345
 9079SOL    HW238874   1.662   3.969   7.948  0.4960  0.2844 -0.5752
 9080SOL     OW38875   3.172   1.849  16.463  0.1895 -0.2374  0.1411
 9080SOL    HW138876   3.168   1.944  16.473 -0.9784 -0.5354  2.2851
 9080SOL    HW238877   3.202   1.826  16.551  0.5199 -1.0110 -0.1745
 9081SOL     OW38878   3.545   4.650  13.617 -0.2281  0.0847  0.0030
 9081SOL    HW138879   3.529   4.694  13.534 -0.5773  0.2135  0.1421
 9081SOL    HW238880   3.518   4.722  13.673  2.9918  0.1442  1.4917
 9082SOL     OW38881   3.092   3.101   6.107  0.5673 -0.5281 -0.0942
 9082SOL    HW138882   3.067   3.029   6.164 -2.3936 -1.0898 -2.1263
 9082SOL    HW238883   3.025   3.168   6.117  2.3884  1.3351 -0.3297
 9083SOL     OW38884   1.761   1.948   7.872 -0.3478  0.1169  0.2065
 9083SOL    HW138885   1.738   1.858   7.894  0.4742  0.1619  1.2438
 9083SOL    HW238886   1.680   1.978   7.832 -1.7676  0.9702  3.7481
 9084SOL     OW38887   1.727   2.405   2.809 -0.2872  0.4014 -0.3475
 9084SOL    HW138888   1.804   2.415   2.753  1.0501  2.5609  1.8677
 9084SOL    HW238889   1.676   2.486   2.807 -1.4738 -0.3662 -1.1718
 9085SOL     OW38890   1.272   4.649  13.054 -0.3091  0.0948  0.1547
 9085SOL    HW138891   1.262   0.006  13.076  0.6752 -0.0271  1.1373
 9085SOL    HW238892   1.225   4.638  12.971 -0.8924  0.8313  0.3848
 9086SOL     OW38893   2.706   3.052   4.571 -0.2403  0.3716 -0.1059
 9086SOL    HW138894   2.660   3.009   4.643 -0.7068 -0.4438 -0.8961
 9086SOL    HW238895   2.652   3.132   4.570 -0.0449  0.5250  2.0700
 9087SOL     OW38896   1.035   3.539   6.496 -0.2675 -0.0669  0.8861
 9087SOL    HW138897   1.050   3.623   6.454 -0.3784 -1.2291 -1.4515
 9087SOL    HW238898   1.017   3.487   6.418 -0.5287  1.0557  0.2019
 9088SOL     OW38899   0.748   0.220   6.085 -0.4833 -0.4189  0.4359
 9088SOL    HW138900   0.683   0.236   6.153  0.5999 -0.5919  1.5313
 9088SOL    HW238901   0.731   0.130   6.057 -0.9117 -0.0939 -0.3312
 9089SOL     OW38902   1.834   3.993   8.256  0.4193  0.3661 -0.0510
 9089SOL    HW138903   1.788   3.996   8.172  1.6579 -0.3216 -0.7647
 9089SOL    HW238904   1.818   3.905   8.290 -2.5565 -1.1150 -5.2551
 9090SOL     OW38905   1.437   0.703   7.567 -0.2465 -0.1636  0.2017
 9090SOL    HW138906   1.487   0.767   7.616 -1.2185 -0.6953  1.8943
 9090SOL    HW238907   1.495   0.651   7.512  1.6974 -0.2649  2.3430
 9091SOL     OW38908   3.142   0.620  14.866  0.0152  0.2129 -0.3337
 9091SOL    HW138909   3.223   0.655  14.829  2.9911 -1.9786  4.0949
 9091SOL    HW238910   3.143   0.672  14.946  0.4251  0.5367 -0.5481
 9092SOL     OW38911   3.277   2.228   5.365 -0.0822  0.3238 -0.2685
 9092SOL    HW138912   3.288   2.276   5.283  1.1996 -0.4582 -0.5662
 9092SOL    HW238913   3.370   2.210   5.379 -1.1613 -4.1789  0.9940
 9093SOL     OW38914   3.759   1.618   6.758  0.1945  0.1060 -0.4570
 9093SOL    HW138915   3.715   1.533   6.760  0.4016  0.0243  0.5745
 9093SOL    HW238916   3.844   1.578   6.775 -1.2456 -2.3998  0.9056
 9094SOL     OW38917   1.405   4.309   8.456  0.4451  0.3670 -0.2679
 9094SOL    HW138918   1.468   4.336   8.389  0.6428 -1.0831 -0.6503
 9094SOL    HW238919   1.442   4.226   8.486 -2.4433 -0.9687 -0.4141
 9095SOL     OW38920   1.372   2.139  14.581  0.1432 -0.0052  0.0776
 9095SOL    HW138921   1.286   2.126  14.542  1.6881 -0.0805 -3.3262
 9095SOL    HW238922   1.389   2.227  14.549  1.3322 -0.6137 -0.9604
 9096SOL     OW38923   4.714   0.512   3.577  0.0549 -0.4251  0.4090
 9096SOL    HW138924   4.703   0.496   3.484  1.2282  2.4099 -0.2145
 9096SOL    HW238925   0.074   0.526   3.581  0.4374 -2.3990 -2.2882
 9097SOL     OW38926   0.444   0.075   6.427 -0.3369 -0.0712  0.4075
 9097SOL    HW138927   0.490   0.148   6.385  0.4912 -0.6839  0.2728
 9097SOL    HW238928   0.446   0.003   6.364 -0.9670  2.0708 -2.0635
 9098SOL     OW38929   3.125   0.362   8.040  0.3963  0.4412  0.0571
 9098SOL    HW138930   3.214   0.382   8.067 -0.8322  1.6128  3.3172
 9098SOL    HW238931   3.105   0.428   7.973 -1.8263 -0.5926 -0.3159
 9099SOL     OW38932   3.834   1.852   1.968  0.0511  0.1141 -0.2388
 9099SOL    HW138933   3.830   1.784   2.035 -0.6255 -0.4733 -0.8783
 9099SOL    HW238934   3.862   1.806   1.889  1.8714  0.8016  0.0020
 9100SOL     OW38935   1.116   4.155  14.554  0.2611  0.0425  0.1400
 9100SOL    HW138936   1.052   4.169  14.624  0.1219 -1.1705  0.2513
 9100SOL    HW238937   1.063   4.098  14.497 -0.4188  0.1787  0.6267
 9101SOL     OW38938   0.168   3.289   9.400  0.1154  1.0812 -0.1716
 9101SOL    HW138939   0.174   3.194   9.402  0.1115  1.0723 -0.8829
 9101SOL    HW238940   0.096   3.308   9.460 -1.2938  3.1243 -2.5230
 9102SOL     OW38941   1.747   0.686   2.260  0.6352 -0.4658  0.6110
 9102SOL    HW138942   1.822   0.731   2.297  1.7258 -2.6379  1.0378
 9102SOL    HW238943   1.681   0.755   2.258 -1.7667 -2.7427  1.7926
 9103SOL     OW38944   2.752   2.050  16.062 -0.2542  0.3808 -0.6667
 9103SOL    HW138945   2.821   2.028  15.999 -1.6504 -2.1820 -1.2816
 9103SOL    HW238946   2.779   2.139  16.087  0.1898  0.1185 -0.2054
 9104SOL     OW38947   2.295   2.557   4.196 -0.0748  0.2514 -0.1165
 9104SOL    HW138948   2.215   2.556   4.143  1.5510 -0.5045 -2.5871
 9104SOL    HW238949   2.266   2.626   4.256 -3.3049  0.2562 -1.6650
 9105SOL     OW38950   2.572   1.159  15.662  0.3236  0.3389 -0.2622
 9105SOL    HW138951   2.524   1.076  15.660  1.7931 -0.5628  1.2216
 9105SOL    HW238952   2.528   1.198  15.587 -0.0145  1.6666  0.6322
 9106SOL     OW38953   3.334   3.249   8.523  0.8566 -0.2428 -0.2235
 9106SOL    HW138954   3.390   3.303   8.578  1.4670 -3.8825  2.7086
 9106SOL    HW238955   3.267   3.316   8.505 -0.4860 -1.0761  1.7797
 9107SOL     OW38956   2.894   1.460  12.863 -0.3693  0.1606  0.2355
 9107SOL    HW138957   2.954   1.444  12.790 -0.2090 -0.9364  0.6087
 9107SOL    HW238958   2.862   1.546  12.835 -0.5140  0.2763  0.7565
 9108SOL     OW38959   3.054   3.596   6.161  0.0657 -0.7361  0.0702
 9108SOL    HW138960   3.040   3.540   6.238 -0.8799  0.4407  0.7502
 9108SOL    HW238961   2.978   3.654   6.171  1.3640  1.2716 -1.8218
 9109SOL     OW38962   2.323   4.262   6.278 -0.1025 -0.6372 -0.3008
 9109SOL    HW138963   2.302   4.238   6.188  1.3430 -0.1058 -0.7792
 9109SOL    HW238964   2.313   4.180   6.326  0.6912 -0.4534  0.1814
 9110SOL     OW38965   3.640   1.737   1.647  0.1667  0.1182  0.5685
 9110SOL    HW138966   3.705   1.694   1.702 -0.7335 -1.8181  0.1015
 9110SOL    HW238967   3.591   1.786   1.714  1.3070  2.0254 -0.0051
 9111SOL     OW38968   1.042   4.665   0.369 -0.3413  0.0280  0.1833
 9111SOL    HW138969   1.025   4.578   0.405  0.5196 -1.1532 -2.2050
 9111SOL    HW238970   1.113   4.650   0.307 -0.1962  1.7268 -0.0590
 9112SOL     OW38971   2.373   3.442  15.455 -0.0447  0.3907  0.1976
 9112SOL    HW138972   2.384   3.356  15.496 -1.5383 -0.2979 -0.8537
 9112SOL    HW238973   2.464   3.467  15.472 -0.2399  1.7185 -0.7696
 9113SOL     OW38974   3.028   2.913   4.481  0.6331 -0.9177 -0.3842
 9113SOL    HW138975   3.079   2.983   4.439  1.9964 -1.3000  0.6404
 9113SOL    HW238976   3.032   2.942   4.572  0.7031  1.2170 -1.0768
 9114SOL     OW38977   1.238   3.878   2.504 -0.1769  0.0605 -0.0911
 9114SOL    HW138978   1.160   3.932   2.509  0.4434  0.8895  0.6121
 9114SOL    HW238979   1.231   3.810   2.571 -0.9023 -0.4718 -0.7061
 9115SOL     OW38980   1.125   2.715   2.949 -0.1601  0.2357  0.2306
 9115SOL    HW138981   1.127   2.789   3.009 -0.6145  0.9585 -0.6561
 9115SOL    HW238982   1.218   2.707   2.929 -0.3948 -0.5686 -0.5731
 9116SOL     OW38983   3.929   3.331  17.001 -0.0109  0.2743  0.2886
 9116SOL    HW138984   3.887   3.399  16.949  1.3734 -0.0514 -1.2370
 9116SOL    HW238985   3.993   3.393  17.036 -0.6693  0.3133  1.4380
 9117SOL     OW38986   1.987   3.602   4.102 -0.3177  0.1878  0.5334
 9117SOL    HW138987   1.949   3.677   4.056 -1.4696  0.4498  1.8976
 9117SOL    HW238988   2.055   3.580   4.039 -0.4078  0.7143  0.2547
 9118SOL     OW38989   4.386   3.090   3.873  0.7335  0.5427 -0.1069
 9118SOL    HW138990   4.372   3.057   3.785 -1.1286 -0.6847  0.6455
 9118SOL    HW238991   4.481   3.091   3.872  0.6749  4.0348 -1.4046
 9119SOL     OW38992   2.414   2.749   2.673  0.1505 -0.7852  0.3998
 9119SOL    HW138993   2.366   2.819   2.628  2.4340  0.4215 -0.1810
 9119SOL    HW238994   2.403   2.691   2.598 -0.0502  1.0639 -1.0136
 9120SOL     OW38995   0.715   2.101   3.644 -0.1707 -0.4657 -0.4107
 9120SOL    HW138996   0.728   2.166   3.712 -1.9680 -1.3851  0.7871
 9120SOL    HW238997   0.743   2.149   3.566 -0.8449 -0.3658 -0.5840
 9121SOL     OW38998   1.141   4.536   7.021  0.2458 -0.3266  0.1286
 9121SOL    HW138999   1.051   4.505   7.021 -0.2245  1.1354  2.5470
 9121SOL    HW239000   1.133   4.628   7.044 -0.7767 -0.4681  0.3380
 9122SOL     OW39001   2.167   4.655   4.905  0.2034  0.2554 -0.3905
 9122SOL    HW139002   2.090   4.712   4.904  1.0750  1.4519  0.5667
 9122SOL    HW239003   2.124   4.570   4.917 -3.4365  1.9830 -1.1935
 9123SOL     OW39004   2.154   3.180  13.348 -0.0172  0.0725 -0.4836
 9123SOL    HW139005   2.115   3.108  13.299 -0.1835 -1.5155  1.9701
 9123SOL    HW239006   2.217   3.209  13.282 -1.2204  2.4790 -0.5797
 9124SOL     OW39007   0.278   1.797  10.914  0.1769 -0.1921  0.3921
 9124SOL    HW139008   0.321   1.749  10.843  1.6637 -0.9617  1.8177
 9124SOL    HW239009   0.299   1.889  10.899  1.9921 -0.4913  1.1624
 9125SOL     OW39010   1.168   2.596   4.197 -0.0902 -0.0573  0.1691
 9125SOL    HW139011   1.233   2.529   4.216 -0.6007 -0.7031 -0.3354
 9125SOL    HW239012   1.227   2.664   4.164  0.4292 -0.0769  1.0904
 9126SOL     OW39013   0.753   3.112   1.336  0.2110  0.2315  0.1330
 9126SOL    HW139014   0.666   3.114   1.296  0.2962  0.6849 -0.0374
 9126SOL    HW239015   0.742   3.179   1.403 -3.5256 -1.7302  1.4238
 9127SOL     OW39016   0.566   0.574   4.303  0.1722  0.8791 -0.3072
 9127SOL    HW139017   0.642   0.630   4.318  1.0837 -0.2055 -0.8647
 9127SOL    HW239018   0.603   0.486   4.296 -3.0330 -0.5453  0.2763
 9128SOL     OW39019   1.807   0.154  16.827 -0.6429  0.1312 -0.3262
 9128SOL    HW139020   1.878   0.218  16.833  0.5933 -1.3636  0.7999
 9128SOL    HW239021   1.734   0.207  16.795 -0.0541  0.5428 -0.9957
 9129SOL     OW39022   2.651   0.853   5.365  0.0457  0.2328 -0.0552
 9129SOL    HW139023   2.732   0.883   5.324 -0.6070  2.0675 -0.0049
 9129SOL    HW239024   2.619   0.795   5.297  2.7061 -1.0167 -0.2479
 9130SOL     OW39025   2.952   0.303  14.122 -0.0791 -0.5407 -0.9353
 9130SOL    HW139026   2.953   0.284  14.028 -3.7632 -0.7062 -0.9488
 9130SOL    HW239027   2.872   0.356  14.126  0.3936 -0.0224  2.3616
 9131SOL     OW39028   0.682   3.710   3.747 -0.0144 -0.3037  0.0167
 9131SOL    HW139029   0.719   3.622   3.755  1.2021  0.2415  0.4173
 9131SOL    HW239030   0.754   3.769   3.770 -0.6745  0.7083 -0.5161
 9132SOL     OW39031   2.338   2.896   5.249 -0.0129 -0.1035  0.4757
 9132SOL    HW139032   2.369   2.810   5.277  2.2269  0.4285 -0.3753
 9132SOL    HW239033   2.338   2.939   5.335  0.1351 -0.0994  0.4744
 9133SOL     OW39034   4.503   0.663   2.868  0.1178  0.3465 -0.0587
 9133SOL    HW139035   4.408   0.672   2.860 -0.0525 -0.2854  1.1963
 9133SOL    HW239036   4.520   0.602   2.797  3.7909 -0.3531  1.4306
 9134SOL     OW39037   3.206   4.526   1.899 -0.2856  0.0048  0.3354
 9134SOL    HW139038   3.125   4.531   1.950 -1.1347  1.0182 -1.0946
 9134SOL    HW239039   3.222   4.432   1.892  1.3057  0.4388 -1.8185
 9135SOL     OW39040   3.268   1.155   8.202 -0.1375  0.9995 -0.0491
 9135SOL    HW139041   3.195   1.163   8.263  0.1532 -1.3361  0.5840
 9135SOL    HW239042   3.274   1.061   8.183 -0.1358  1.1974 -1.0161
 9136SOL     OW39043   3.738   3.022   3.905  0.2756  0.6184  0.8221
 9136SOL    HW139044   3.704   3.077   3.975  1.0027  1.2641  0.6617
 9136SOL    HW239045   3.682   3.044   3.831 -2.3208 -1.1509  2.2446
 9137SOL     OW39046   0.155   0.022   1.828 -0.4753 -0.2311 -0.3490
 9137SOL    HW139047   0.204   4.690   1.875 -0.1473  0.9657  1.0344
 9137SOL    HW239048   0.205   0.102   1.846  0.5960 -0.7426 -1.0072
 9138SOL     OW39049   0.801   1.299   5.335  0.0236  0.3447 -0.7551
 9138SOL    HW139050   0.800   1.209   5.368  1.6910  0.7312  0.3792
 9138SOL    HW239051   0.711   1.331   5.340  0.1835  0.2153  3.1169
 9139SOL     OW39052   4.587   2.921   5.614  0.7796  0.4927  0.2830
 9139SOL    HW139053   4.610   2.948   5.525 -1.0503  3.2736  0.6534
 9139SOL    HW239054   4.667   2.874   5.636  0.2969  0.1825  1.4016
 9140SOL     OW39055   1.509   3.781   3.145  0.2108 -0.1182 -0.2949
 9140SOL    HW139056   1.604   3.794   3.136  0.2576 -1.0144 -1.0723
 9140SOL    HW239057   1.473   3.844   3.083 -0.6372  1.6507  1.9823
 9141SOL     OW39058   1.516   2.259  12.628  0.2932 -0.8776  0.2254
 9141SOL    HW139059   1.455   2.306  12.571 -0.0483  0.8813  2.0156
 9141SOL    HW239060   1.493   2.285  12.717 -1.8287 -2.0438  0.0299
 9142SOL     OW39061   1.988   4.425  14.231  0.4715 -0.0386  0.9749
 9142SOL    HW139062   1.910   4.480  14.223  0.7406  0.1665 -0.1440
 9142SOL    HW239063   1.944   4.341  14.220 -0.0996  0.5829 -1.4126
 9143SOL     OW39064   1.173   2.543  13.544  0.0575  0.3484 -0.5880
 9143SOL    HW139065   1.160   2.638  13.533 -0.6695  0.5007  1.6050
 9143SOL    HW239066   1.091   2.509  13.508  0.5278 -1.0437 -0.3082
 9144SOL     OW39067   4.713   1.640   1.412 -0.1591 -0.0636  0.5050
 9144SOL    HW139068   4.669   1.722   1.385 -0.7401 -1.2894 -2.3240
 9144SOL    HW239069   0.016   1.667   1.495  0.9452  0.8944 -0.3068
 9145SOL     OW39070   2.545   1.454   7.845 -0.3777  0.2711  0.1644
 9145SOL    HW139071   2.552   1.549   7.848 -0.8313  0.3731 -1.9216
 9145SOL    HW239072   2.621   1.439   7.789  0.6105 -0.1187  1.6092
 9146SOL     OW39073   4.488   1.953   5.751  0.3371 -0.6209  0.2838
 9146SOL    HW139074   4.416   1.896   5.779  0.6612 -2.3524 -2.3967
 9146SOL    HW239075   4.549   1.945   5.825  0.5808 -2.2622 -0.1018
 9147SOL     OW39076   3.604   3.656  10.449  0.0149 -0.1322 -0.1433
 9147SOL    HW139077   3.696   3.628  10.456 -0.1377 -0.3546  1.0624
 9147SOL    HW239078   3.621   3.748  10.467  1.8376  0.0268 -2.7568
 9148SOL     OW39079   3.282   2.441   9.254 -0.6276 -0.1613  0.0784
 9148SOL    HW139080   3.294   2.535   9.264 -0.9700 -0.1876  0.7180
 9148SOL    HW239081   3.191   2.437   9.226 -0.2024 -1.3996 -1.1451
 9149SOL     OW39082   0.204   1.123   7.918  0.7487  0.3846  0.2036
 9149SOL    HW139083   0.229   1.193   7.858 -0.1193  0.2310 -0.3317
 9149SOL    HW239084   0.146   1.072   7.862  1.4196 -0.6991  0.4941
 9150SOL     OW39085   1.778   0.004   8.276  0.2907  0.2798 -0.2601
 9150SOL    HW139086   1.805   4.652   8.249  0.2958  0.3749 -0.5626
 9150SOL    HW239087   1.742   0.035   8.192  0.8350 -0.5329 -0.7888
 9151SOL     OW39088   3.207   1.125   7.362  0.2790  0.8443 -0.0593
 9151SOL    HW139089   3.120   1.155   7.333  0.5951 -0.2172 -2.1092
 9151SOL    HW239090   3.202   1.032   7.344 -1.6350  0.7488  0.9334
 9152SOL     OW39091   1.772   2.306  13.615  0.5142  0.3732  0.0894
 9152SOL    HW139092   1.765   2.376  13.680 -1.8462 -1.3371  1.6751
 9152SOL    HW239093   1.708   2.324  13.545 -0.0675 -2.8642 -0.2284
 9153SOL     OW39094   3.566   0.430  17.267  0.3231 -0.0010  0.3638
 9153SOL    HW139095   3.529   0.348  17.298  0.6015 -0.2737 -0.0335
 9153SOL    HW239096   3.609   0.456  17.349  1.8073  0.3420 -0.5240
 9154SOL     OW39097   2.446   2.482   2.775  0.2647  0.8341 -0.7773
 9154SOL    HW139098   2.464   2.576   2.766 -1.8496  1.2970 -0.1502
 9154SOL    HW239099   2.429   2.483   2.869  2.1462  0.3421 -0.4283
 9155SOL     OW39100   4.123   1.619   6.645  0.4127 -0.0932 -0.4891
 9155SOL    HW139101   4.085   1.705   6.630  0.7620  0.1500 -0.0123
 9155SOL    HW239102   4.096   1.616   6.737  2.2480 -0.5458  0.0467
 9156SOL     OW39103   2.871   2.299   4.657  0.6867 -0.3557 -0.8552
 9156SOL    HW139104   2.799   2.301   4.720  2.1085  2.6091  0.6694
 9156SOL    HW239105   2.826   2.313   4.574 -0.2628 -0.7077 -0.4014
 9157SOL     OW39106   4.157   1.964   2.828  0.6095  0.1896  0.0499
 9157SOL    HW139107   4.110   2.012   2.896  3.3003  1.3526  1.0772
 9157SOL    HW239108   4.239   2.012   2.834  1.2811 -0.7428 -1.6701
 9158SOL     OW39109   1.577   1.957   1.351 -0.1887  0.1656 -0.1196
 9158SOL    HW139110   1.499   1.966   1.296  1.2495 -2.4042 -2.5918
 9158SOL    HW239111   1.538   1.939   1.437  1.6254 -0.3656  0.5902
 9159SOL     OW39112   2.402   1.239   8.652  0.2967  0.4651 -0.6545
 9159SOL    HW139113   2.312   1.266   8.632  0.0152 -0.4555 -0.6001
 9159SOL    HW239114   2.422   1.202   8.566 -0.0180 -2.3268  0.4942
 9160SOL     OW39115   3.813   2.366   0.450 -0.1011 -0.4350 -0.3407
 9160SOL    HW139116   3.882   2.305   0.424 -0.4510 -0.5908 -0.8859
 9160SOL    HW239117   3.867   2.442   0.472 -0.7808  0.0889 -0.4944
 9161SOL     OW39118   0.857   2.169   0.333  1.2071 -0.0670  0.2728
 9161SOL    HW139119   0.918   2.219   0.279  1.0069 -0.0221  0.0880
 9161SOL    HW239120   0.823   2.099   0.276  2.8609 -0.5908 -0.0938
 9162SOL     OW39121   3.203   1.407   4.611  0.1525 -0.0090  0.1863
 9162SOL    HW139122   3.201   1.391   4.705  0.5690  0.4552  0.2764
 9162SOL    HW239123   3.252   1.330   4.582  0.5431 -0.1143  1.1216
 9163SOL     OW39124   1.392   2.606   3.135 -0.4124 -0.1310  0.5484
 9163SOL    HW139125   1.448   2.543   3.180 -0.1122  1.9643  3.0546
 9163SOL    HW239126   1.319   2.622   3.194 -0.5794 -1.0033  0.5870
 9164SOL     OW39127   0.424   3.952   5.394 -0.2892  0.4212  0.2186
 9164SOL    HW139128   0.451   3.891   5.462 -0.2295 -1.2101 -1.2822
 9164SOL    HW239129   0.365   3.898   5.341 -0.7780  1.5262 -0.3819
 9165SOL     OW39130   3.358   1.089   1.547  0.1045 -0.4264 -0.5733
 9165SOL    HW139131   3.440   1.066   1.503  0.4848  0.2453 -0.2166
 9165SOL    HW239132   3.331   1.167   1.497 -1.0995  0.5847  1.6632
 9166SOL     OW39133   0.420   3.633   2.904 -0.5688 -0.0375  0.2808
 9166SOL    HW139134   0.368   3.687   2.845  1.0166  2.7824  1.4363
 9166SOL    HW239135   0.443   3.556   2.853 -0.4039  1.0273 -1.2470
 9167SOL     OW39136   3.326   0.454   4.155 -0.7056  0.0210  0.5799
 9167SOL    HW139137   3.316   0.360   4.169  1.1968 -0.1132  1.0150
 9167SOL    HW239138   3.413   0.473   4.190 -0.6633 -2.6826  1.8972
 9168SOL     OW39139   4.219   1.146  10.493 -0.4637 -0.1939  0.0476
 9168SOL    HW139140   4.179   1.090  10.426 -1.6254  1.2982 -0.5024
 9168SOL    HW239141   4.221   1.229  10.447  0.8175 -0.7981 -0.9934
 9169SOL     OW39142   0.641   2.479  10.505 -0.5140 -0.3781 -0.3186
 9169SOL    HW139143   0.559   2.518  10.535  0.3328  0.5905  0.7874
 9169SOL    HW239144   0.687   2.510  10.583  1.6012 -0.6000 -1.4746
 9170SOL     OW39145   0.015   4.200   5.244 -0.3589 -0.1587 -0.5258
 9170SOL    HW139146   0.053   4.116   5.218 -0.8867 -0.9676  1.2810
 9170SOL    HW239147   4.662   4.164   5.240  0.1931 -1.6737  0.6280
 9171SOL     OW39148   0.205   0.741  15.797  0.3639 -0.2481 -0.2103
 9171SOL    HW139149   0.243   0.736  15.885  0.5357 -0.1395 -0.2779
 9171SOL    HW239150   0.160   0.657  15.786  1.2142 -0.4886 -1.9401
 9172SOL     OW39151   0.988   2.508  14.803  0.0321 -0.4782  0.5969
 9172SOL    HW139152   1.014   2.599  14.818  0.7240 -0.6383  0.3750
 9172SOL    HW239153   0.896   2.526  14.823 -0.5280  0.1039 -2.4869
 9173SOL     OW39154   2.334   0.521   2.381  0.2347  0.0433  0.1724
 9173SOL    HW139155   2.255   0.493   2.427  0.3733 -0.8408 -0.1300
 9173SOL    HW239156   2.295   0.544   2.297  1.1812 -0.8067 -0.4979
 9174SOL     OW39157   1.171   0.803  11.776 -0.3065  0.4058 -0.1004
 9174SOL    HW139158   1.123   0.886  11.787 -2.1535 -0.6948  0.1775
 9174SOL    HW239159   1.215   0.822  11.693 -2.3867  0.3683 -1.2060
 9175SOL     OW39160   3.406   1.209   3.719 -0.0070  0.0084  0.1451
 9175SOL    HW139161   3.459   1.260   3.780  0.8642 -0.1867 -0.4436
 9175SOL    HW239162   3.474   1.150   3.687 -0.8857 -0.1661 -1.4493
 9176SOL     OW39163   3.660   3.817  16.281  0.1497 -0.6201  0.4647
 9176SOL    HW139164   3.691   3.788  16.367  2.8714 -0.6064 -0.5156
 9176SOL    HW239165   3.737   3.858  16.242 -0.2656  0.1472  0.4608
 9177SOL     OW39166   0.918   0.073   4.878  0.1491  0.2663 -0.2005
 9177SOL    HW139167   0.881   0.051   4.792 -2.0830  0.1919  0.7900
 9177SOL    HW239168   1.003   0.031   4.867 -1.7536 -3.8196  0.4903
 9178SOL     OW39169   4.253   2.854   7.875  0.2231  0.4201 -0.1522
 9178SOL    HW139170   4.304   2.903   7.939  1.5784 -1.9737  0.6190
 9178SOL    HW239171   4.194   2.917   7.832 -2.8005 -1.8272  0.6493
 9179SOL     OW39172   3.240   2.778  10.980  0.4875  0.3343  0.2156
 9179SOL    HW139173   3.276   2.818  11.059  0.6360 -1.2546  0.9684
 9179SOL    HW239174   3.213   2.689  11.004 -1.9173  0.9850 -0.0925
 9180SOL     OW39175   4.477   4.219   4.333 -0.6192 -0.1034 -0.1748
 9180SOL    HW139176   4.571   4.236   4.338 -1.2189  2.6491  1.5441
 9180SOL    HW239177   4.460   4.183   4.246 -0.2823 -0.0991 -0.2417
 9181SOL     OW39178   1.242   2.166   5.576 -0.1978 -0.0227 -0.8447
 9181SOL    HW139179   1.230   2.126   5.662 -3.5490  4.3600  0.7336
 9181SOL    HW239180   1.151   2.180   5.549  0.0553  1.2790 -1.0242
 9182SOL     OW39181   4.456   4.274   9.141  0.2446  0.0103  0.0340
 9182SOL    HW139182   4.551   4.262   9.149  0.5380  1.7173 -0.9259
 9182SOL    HW239183   4.447   4.366   9.118  2.1056  0.4567  1.1112
 9183SOL     OW39184   0.403   0.173   5.142 -0.0633 -0.2938  0.0545
 9183SOL    HW139185   0.488   0.187   5.101 -0.3959 -2.3206 -1.3653
 9183SOL    HW239186   0.429   0.088   5.179  2.3616  0.5669  0.3275
 9184SOL     OW39187   0.428   4.221  14.118 -0.3475  0.2127 -0.0795
 9184SOL    HW139188   0.509   4.238  14.166  2.0111  0.1118 -3.9893
 9184SOL    HW239189   0.450   4.137  14.078  0.0315  1.5842 -2.7347
 9185SOL     OW39190   4.540   2.550  14.132 -0.0896 -0.1127 -0.4238
 9185SOL    HW139191   4.462   2.518  14.177  1.0776 -1.9744  0.2803
 9185SOL    HW239192   4.568   2.599  14.209 -1.0675  0.4794 -0.4507
 9186SOL     OW39193   2.115   3.431   2.355 -0.0057 -0.2284  0.2876
 9186SOL    HW139194   2.176   3.487   2.308 -1.3540  1.9918  1.1273
 9186SOL    HW239195   2.042   3.432   2.293 -1.3228  2.7983  1.8645
 9187SOL     OW39196   1.600   2.938  16.993 -0.4644  0.0947 -0.6816
 9187SOL    HW139197   1.631   2.860  16.947 -2.2292 -0.5848 -0.7275
 9187SOL    HW239198   1.681   2.955  17.042  0.4555  0.8746 -2.4976
 9188SOL     OW39199   1.988   1.963   3.594  0.4861 -0.5229  0.2040
 9188SOL    HW139200   2.010   1.871   3.579 -0.0648 -0.6043 -0.1106
 9188SOL    HW239201   1.971   1.951   3.687 -0.6332 -1.5493 -0.1302
 9189SOL     OW39202   3.834   0.242   5.774 -0.3780 -0.2356  0.3486
 9189SOL    HW139203   3.838   0.250   5.869 -2.5262  0.0257  0.4172
 9189SOL    HW239204   3.803   0.331   5.756 -0.1766 -0.3619 -0.6203
 9190SOL     OW39205   3.127   0.271   8.730  0.3161 -0.0696 -0.1915
 9190SOL    HW139206   3.187   0.344   8.741 -1.0073  1.4683 -3.1549
 9190SOL    HW239207   3.121   0.244   8.821  0.5003 -2.5516 -0.9123
 9191SOL     OW39208   4.173   0.918   5.454 -0.0246  0.1026  0.3978
 9191SOL    HW139209   4.257   0.963   5.458 -0.2327  0.5515 -0.3596
 9191SOL    HW239210   4.199   0.832   5.487  0.2577 -0.7829 -2.1543
 9192SOL     OW39211   1.520   3.526   3.273  0.1277 -0.5230  0.3205
 9192SOL    HW139212   1.456   3.487   3.213 -0.7570 -0.1460  1.0125
 9192SOL    HW239213   1.522   3.615   3.238 -0.7628 -0.8048 -0.4536
 9193SOL     OW39214   1.935   2.594   3.819 -0.2588  0.0022  0.4489
 9193SOL    HW139215   1.842   2.600   3.841 -0.2306  0.9236  0.3243
 9193SOL    HW239216   1.972   2.522   3.871 -0.2168  0.2705  0.7984
 9194SOL     OW39217   4.386   2.058   8.244 -0.1971  0.3039  0.8671
 9194SOL    HW139218   4.313   2.001   8.222 -0.3012  1.2761 -1.2717
 9194SOL    HW239219   4.346   2.141   8.218 -1.5075 -1.2730 -2.1452
 9195SOL     OW39220   3.336   1.824   1.932 -0.0524 -0.0801  0.0158
 9195SOL    HW139221   3.386   1.766   1.989  3.0770 -0.2817 -2.9349
 9195SOL    HW239222   3.413   1.879   1.914 -0.3622 -0.1092 -1.3804
 9196SOL     OW39223   0.219   2.428   4.177  0.1109 -0.6053  0.0269
 9196SOL    HW139224   0.255   2.516   4.169  0.1505 -0.7960 -1.9732
 9196SOL    HW239225   0.180   2.412   4.091 -3.0479 -1.4757  1.6403
 9197SOL     OW39226   4.589   0.220   5.611  0.6928 -0.2019  0.2315
 9197SOL    HW139227   4.600   0.144   5.554 -0.7400  0.5785 -1.0781
 9197SOL    HW239228   4.494   0.220   5.607  0.6526 -0.6363  1.2491
 9198SOL     OW39229   4.115   0.485   4.428  0.3754  0.0683 -0.3280
 9198SOL    HW139230   4.099   0.434   4.508  0.3624 -2.2630 -1.8309
 9198SOL    HW239231   4.209   0.500   4.440  0.6474 -0.8820 -1.2950
 9199SOL     OW39232   2.161   2.459   5.308 -0.2790  0.5279 -0.1658
 9199SOL    HW139233   2.158   2.365   5.321 -0.9196  0.4448 -0.9036
 9199SOL    HW239234   2.232   2.494   5.361  0.2081 -1.4437  0.4550
 9200SOL     OW39235   0.370   1.818  12.048  0.1745  0.3614 -0.3267
 9200SOL    HW139236   0.367   1.737  12.099  1.1543 -0.3027 -1.3380
 9200SOL    HW239237   0.443   1.793  11.992 -0.1730 -0.5290 -0.3857
 9201SOL     OW39238   4.529   0.592   7.941 -0.2194  0.2102 -0.5358
 9201SOL    HW139239   4.496   0.670   7.986 -0.1692 -0.3203  0.4387
 9201SOL    HW239240   4.564   0.622   7.857 -2.3906 -2.2696 -2.2954
 9202SOL     OW39241   1.251   3.826  10.583 -0.7519 -0.5173  0.3186
 9202SOL    HW139242   1.181   3.822  10.518  0.6120  0.1051 -1.2010
 9202SOL    HW239243   1.272   3.733  10.580 -0.9821 -0.5333 -0.6543
 9203SOL     OW39244   3.115   1.288   4.842 -0.2745  0.3146 -0.2459
 9203SOL    HW139245   3.146   1.343   4.914  0.7286 -1.3968  0.6209
 9203SOL    HW239246   3.033   1.256   4.881 -1.1083  0.4985 -1.8508
 9204SOL     OW39247   4.040   0.279   4.091  0.3789 -0.2401  0.1037
 9204SOL    HW139248   4.072   0.198   4.051  1.5439  0.0368  0.4527
 9204SOL    HW239249   3.945   0.279   4.079  0.3022  0.5481  0.7305
 9205SOL     OW39250   3.053   3.338   7.376 -0.4274  0.6249  0.0410
 9205SOL    HW139251   2.967   3.307   7.405 -0.2081 -0.8138 -0.8676
 9205SOL    HW239252   3.018   3.404   7.316  1.3589 -0.5761 -2.3393
 9206SOL     OW39253   3.282   0.590   9.427  0.4487 -0.0466 -0.1402
 9206SOL    HW139254   3.314   0.537   9.354  1.4600  1.0414 -0.4974
 9206SOL    HW239255   3.260   0.669   9.376  0.8801 -0.3445 -0.7834
 9207SOL     OW39256   0.957   2.298   4.132 -0.1129  0.2768  0.4605
 9207SOL    HW139257   0.965   2.393   4.119  0.5176 -0.3681 -3.9374
 9207SOL    HW239258   0.929   2.275   4.043 -0.5182  3.1851 -0.1869
 9208SOL     OW39259   2.727   4.420  11.827  0.0920  0.0858  0.0574
 9208SOL    HW139260   2.713   4.503  11.874  2.1839 -0.0331  0.9358
 9208SOL    HW239261   2.821   4.430  11.810 -0.2996 -0.1414 -2.2191
 9209SOL     OW39262   2.584   3.575  16.216 -0.0276  0.2790  0.0391
 9209SOL    HW139263   2.553   3.609  16.300 -1.6018  0.2934 -0.5363
 9209SOL    HW239264   2.592   3.653  16.162  0.7077  1.0602  1.2778
 9210SOL     OW39265   4.081   1.629  10.226 -0.0997  0.3799  0.0487
 9210SOL    HW139266   4.170   1.662  10.240  1.2487 -1.9660 -3.1275
 9210SOL    HW239267   4.035   1.695  10.278  1.5167 -0.9792  3.2408
 9211SOL     OW39268   3.221   3.112   2.789  0.8438 -0.3350  0.2726
 9211SOL    HW139269   3.261   3.026   2.803  0.1544 -0.6937  0.0363
 9211SOL    HW239270   3.133   3.099   2.753  0.7429 -0.7879  0.6781
 9212SOL     OW39271   2.756   0.296   2.971  0.1786  0.0461 -0.0194
 9212SOL    HW139272   2.662   0.314   2.973 -0.0299 -0.9228 -1.3921
 9212SOL    HW239273   2.771   0.316   3.063 -0.0092 -0.4715  0.1225
 9213SOL     OW39274   2.706   3.602   5.826 -0.0255  0.0947 -0.1133
 9213SOL    HW139275   2.643   3.549   5.876  2.8892 -3.2994 -0.0312
 9213SOL    HW239276   2.741   3.657   5.896 -2.8418  0.5758  0.9169
 9214SOL     OW39277   0.375   1.623   0.527 -0.6025 -0.2612  0.2129
 9214SOL    HW139278   0.422   1.540   0.534 -1.2393 -0.5962  0.4930
 9214SOL    HW239279   0.419   1.665   0.453 -0.6119 -1.3821 -0.4233
 9215SOL     OW39280   2.652   3.006   9.277  0.1493 -0.0106 -0.4410
 9215SOL    HW139281   2.630   2.996   9.184  2.6765  2.5020 -1.3160
 9215SOL    HW239282   2.623   3.098   9.281 -1.0781 -0.4273  0.1300
 9216SOL     OW39283   2.633   1.552   9.883 -0.1788 -0.3115  0.0978
 9216SOL    HW139284   2.723   1.521   9.872 -0.5028 -0.9689 -0.6822
 9216SOL    HW239285   2.604   1.479   9.938 -1.5279  0.7286  0.7528
 9217SOL     OW39286   2.206   0.748   5.110  0.2259 -0.5996 -0.2250
 9217SOL    HW139287   2.134   0.685   5.101 -1.0931  0.9029 -0.2845
 9217SOL    HW239288   2.183   0.796   5.190  0.1089 -1.2143  0.1107
 9218SOL     OW39289   0.759   1.984   7.904 -0.1191 -0.0696 -0.1546
 9218SOL    HW139290   0.673   1.981   7.861 -0.1617  0.4544 -0.1095
 9218SOL    HW239291   0.764   1.889   7.914 -0.8275  0.1580  2.3357
 9219SOL     OW39292   3.776   2.816   7.204  0.1610  0.1123 -0.1505
 9219SOL    HW139293   3.800   2.841   7.293  1.8797 -0.0259 -0.5569
 9219SOL    HW239294   3.728   2.892   7.172 -0.5117 -0.0187  0.5577
 9220SOL     OW39295   2.716   4.444   6.235  0.0448 -0.0846  0.6704
 9220SOL    HW139296   2.672   4.449   6.150  2.5629  4.5102 -0.3324
 9220SOL    HW239297   2.752   4.355   6.242 -0.9115 -0.4944  0.3634
 9221SOL     OW39298   2.548   1.962   4.542  0.6644  0.4462 -0.0976
 9221SOL    HW139299   2.552   2.055   4.565  1.2667  0.2678  0.5097
 9221SOL    HW239300   2.497   1.924   4.613  2.4217 -0.8440  0.4805
 9222SOL     OW39301   2.558   1.002   4.275 -0.3844 -0.1090  0.4530
 9222SOL    HW139302   2.592   0.927   4.324 -2.4307 -1.3641 -0.0638
 9222SOL    HW239303   2.478   0.973   4.233 -0.7728  0.1657  1.0051
 9223SOL     OW39304   1.839   3.666   8.842  0.1271 -0.3760 -0.2628
 9223SOL    HW139305   1.773   3.610   8.800 -1.7091  0.4567  1.5145
 9223SOL    HW239306   1.818   3.628   8.928 -0.3071  0.1315 -0.1417
 9224SOL     OW39307   4.198   3.729   5.097 -0.0993 -0.3638 -0.3626
 9224SOL    HW139308   4.248   3.761   5.172  1.7137  1.7356 -2.5001
 9224SOL    HW239309   4.227   3.638   5.104 -1.2273 -0.5966  1.2911
 9225SOL     OW39310   2.771   0.475   5.380 -0.3524  0.2599 -0.2276
 9225SOL    HW139311   2.828   0.417   5.330  1.6656  1.4107  0.7029
 9225SOL    HW239312   2.714   0.496   5.306  0.0795  2.6573  0.0947
 9226SOL     OW39313   0.019   4.117   3.351  0.3395 -0.4717  0.5261
 9226SOL    HW139314   0.024   4.027   3.320  1.5820  0.2945 -1.4711
 9226SOL    HW239315   0.113   4.128   3.365 -0.3887  2.7882  3.0200
 9227SOL     OW39316   0.048   2.959   4.291 -0.4503 -0.4697 -0.0328
 9227SOL    HW139317   0.044   2.956   4.387  0.1850  0.0428  0.0077
 9227SOL    HW239318   4.727   2.885   4.268  0.5983 -1.4497  0.5016
 9228SOL     OW39319   2.166   2.688   0.121  0.3719 -0.2303 -0.0982
 9228SOL    HW139320   2.198   2.763   0.172 -0.5640  1.4201 -1.9578
 9228SOL    HW239321   2.078   2.722   0.104  0.6190  1.0747  1.2039
 9229SOL     OW39322   2.379   0.188   3.335 -0.3158  0.2116  0.4180
 9229SOL    HW139323   2.316   0.260   3.335 -0.8652 -0.2755 -0.1492
 9229SOL    HW239324   2.458   0.234   3.364  1.0180 -2.5175  1.1079
 9230SOL     OW39325   1.014   4.182   3.061  0.0445 -0.4521 -0.7522
 9230SOL    HW139326   0.921   4.202   3.066  0.5449  1.2539  1.7911
 9230SOL    HW239327   1.036   4.257   3.005 -0.1947 -1.1707 -1.8181
 9231SOL     OW39328   4.166   3.068   2.964 -0.1447 -0.5453 -0.5826
 9231SOL    HW139329   4.243   3.118   2.938  2.1111 -2.9668  1.5702
 9231SOL    HW239330   4.110   3.094   2.890 -0.1698 -1.7483 -0.9987
 9232SOL     OW39331   4.092   3.375  13.646 -0.1704 -0.6121  0.4283
 9232SOL    HW139332   4.113   3.469  13.647 -0.7609 -0.5095  2.7656
 9232SOL    HW239333   4.173   3.340  13.681 -0.5050 -1.0209  0.7945
 9233SOL     OW39334   0.663   2.186  17.468  0.4926  0.5110 -0.2286
 9233SOL    HW139335   0.572   2.161  17.450  1.4078 -0.6807 -3.1926
 9233SOL    HW239336   0.710   2.130  17.406 -0.1328  1.8558 -1.9195
 9234SOL     OW39337   4.590   3.396   4.270  0.3504  0.2478  0.1686
 9234SOL    HW139338   4.553   3.484   4.262  3.2364  1.4881  0.5011
 9234SOL    HW239339   4.512   3.342   4.252  0.0198  0.0468  2.2316
 9235SOL     OW39340   2.350   3.686   6.665 -0.3166  0.3832  0.8972
 9235SOL    HW139341   2.379   3.698   6.756  3.5093  0.2468 -0.2776
 9235SOL    HW239342   2.257   3.703   6.676 -1.0273 -2.8972 -0.2995
 9236SOL     OW39343   3.427   0.493   2.062 -0.0251  0.0304  0.1758
 9236SOL    HW139344   3.413   0.410   2.107  0.1818  1.1831  2.3669
 9236SOL    HW239345   3.476   0.464   1.985 -2.0348 -3.2498  0.1755
 9237SOL     OW39346   4.324   3.845  10.938  0.4257  0.2292 -0.2755
 9237SOL    HW139347   4.300   3.931  10.972 -1.8657 -0.5201 -0.0068
 9237SOL    HW239348   4.335   3.859  10.844  0.1111  1.6445 -0.0897
 9238SOL     OW39349   1.684   4.413   4.229 -0.2891 -0.3978 -0.5977
 9238SOL    HW139350   1.735   4.459   4.296  2.3008  0.2340 -2.9813
 9238SOL    HW239351   1.662   4.488   4.174  0.7424 -1.5290 -2.5474
 9239SOL     OW39352   1.042   1.857   4.055 -0.2575  0.1436  0.1045
 9239SOL    HW139353   1.054   1.947   4.022 -1.5314 -0.0720 -0.9371
 9239SOL    HW239354   0.951   1.849   4.028  0.0312  1.5262 -1.3033
 9240SOL     OW39355   4.204   1.215  12.760 -0.3307 -0.2009 -0.1880
 9240SOL    HW139356   4.268   1.213  12.830  0.3564  2.2303 -0.7582
 9240SOL    HW239357   4.121   1.222  12.807  1.3874  2.0906  2.4865
 9241SOL     OW39358   3.607   2.455   3.149  0.1264  0.6442 -0.4719
 9241SOL    HW139359   3.693   2.440   3.188  0.5460  0.0113 -1.6091
 9241SOL    HW239360   3.553   2.407   3.211  1.7062 -0.8098 -0.2256
 9242SOL     OW39361   0.034   4.538   2.890  0.4197  0.5773  0.4997
 9242SOL    HW139362   4.715   4.616   2.891 -0.5029 -0.0618 -0.2429
 9242SOL    HW239363   0.059   4.538   2.982  2.4878 -1.0544 -0.0418
 9243SOL     OW39364   4.199   1.902   8.911  0.4349  0.3735  0.0205
 9243SOL    HW139365   4.130   1.965   8.933  0.0628  0.2827 -0.9104
 9243SOL    HW239366   4.188   1.884   8.818 -0.2012  0.1727  0.1350
 9244SOL     OW39367   2.800   3.870   5.954  0.5213  0.5006  0.7407
 9244SOL    HW139368   2.832   3.957   5.975 -0.5876  0.9131  0.7094
 9244SOL    HW239369   2.731   3.883   5.889 -1.7339 -1.9256  2.6406
 9245SOL     OW39370   4.216   3.929  14.291 -0.2787  0.3672  0.2508
 9245SOL    HW139371   4.155   3.882  14.234 -0.5929  0.3195  0.6288
 9245SOL    HW239372   4.223   3.862  14.359 -0.3031 -2.2586 -2.3689
 9246SOL     OW39373   2.466   1.795  13.623  0.2000 -0.0586 -0.4187
 9246SOL    HW139374   2.440   1.783  13.714 -2.8282  1.0391 -1.1392
 9246SOL    HW239375   2.396   1.746  13.580  0.7053 -0.3167 -0.9545
 9247SOL     OW39376   3.904   1.953   0.171  0.1260 -0.5134 -0.2894
 9247SOL    HW139377   3.929   1.973   0.262 -0.8039 -1.4616  0.1718
 9247SOL    HW239378   3.988   1.966   0.126  1.0814 -0.3088  1.5456
 9248SOL     OW39379   3.233   2.967   1.993  0.2947 -0.3465 -0.9309
 9248SOL    HW139380   3.299   2.899   2.010  1.7125  0.9459 -1.2362
 9248SOL    HW239381   3.289   3.037   1.957  1.8310 -0.3839  1.3745
 9249SOL     OW39382   3.485   1.272  11.395 -0.1703 -0.3351  0.6710
 9249SOL    HW139383   3.466   1.195  11.341 -1.4397  1.2480 -1.1683
 9249SOL    HW239384   3.492   1.342  11.329 -1.6664  0.0084  0.8679
 9250SOL     OW39385   1.265   4.599   0.192 -0.4300 -0.3539 -0.5168
 9250SOL    HW139386   1.199   4.543   0.150  1.7872 -2.7752 -0.8093
 9250SOL    HW239387   1.323   4.623   0.120  0.8718  1.2137  1.0766
 9251SOL     OW39388   0.379   2.782   7.936  0.6124  0.3520  0.1204
 9251SOL    HW139389   0.292   2.743   7.943 -0.6078  3.6918  3.4246
 9251SOL    HW239390   0.432   2.702   7.944  0.0024  0.0168  0.7704
 9252SOL     OW39391   3.080   0.498   5.984 -0.5298 -1.1192 -0.2306
 9252SOL    HW139392   3.032   0.418   6.008  0.3022 -2.3385 -2.7011
 9252SOL    HW239393   3.096   0.528   6.074 -0.5116  0.9643 -0.9350
 9253SOL     OW39394   0.427   2.483   9.762 -0.3803 -0.1479  0.6868
 9253SOL    HW139395   0.343   2.467   9.807 -1.3066 -2.5417 -1.9223
 9253SOL    HW239396   0.393   2.501   9.675 -2.2532  0.0104  1.4455
 9254SOL     OW39397   1.642   2.416  17.354 -0.1105  0.2704 -0.2974
 9254SOL    HW139398   1.577   2.447  17.290 -0.1976 -1.1692 -0.8989
 9254SOL    HW239399   1.589   2.438  17.431  0.0684 -2.1914  0.5425
 9255SOL     OW39400   2.588   4.636   8.357 -0.1215  0.3926 -0.1966
 9255SOL    HW139401   2.526   4.567   8.332  0.0197  0.8469 -1.8006
 9255SOL    HW239402   2.594   4.683   8.273  2.3516  0.0056 -0.2316
 9256SOL     OW39403   3.113   2.880   0.362 -1.1838  0.0498 -0.1276
 9256SOL    HW139404   3.023   2.857   0.383 -0.8456  1.9366  3.4812
 9256SOL    HW239405   3.148   2.792   0.349 -0.7188  0.1952  0.1411
 9257SOL     OW39406   1.825   2.200   4.185 -0.3145  0.3106 -0.1663
 9257SOL    HW139407   1.738   2.168   4.211  0.0865 -0.7477 -0.1211
 9257SOL    HW239408   1.886   2.132   4.214  0.0866  0.9258  0.4030
 9258SOL     OW39409   0.105   1.804   7.190 -0.2887 -0.1058 -0.1533
 9258SOL    HW139410   0.184   1.767   7.151 -0.3715  1.8411 -2.1758
 9258SOL    HW239411   0.132   1.893   7.212  2.0066 -1.2043  1.4647
 9259SOL     OW39412   4.458   3.149   6.420  0.0757 -0.7911 -0.0624
 9259SOL    HW139413   4.550   3.164   6.397 -0.7441  2.1187 -1.4310
 9259SOL    HW239414   4.419   3.129   6.335  0.1512  0.3503 -0.3599
 9260SOL     OW39415   3.285   1.313   5.531  0.0073  0.7805  0.1685
 9260SOL    HW139416   3.321   1.340   5.446  1.8377  0.2246  0.7621
 9260SOL    HW239417   3.347   1.240   5.544 -2.8582 -1.3006  2.0977
 9261SOL     OW39418   2.919   0.971   6.932 -0.3486 -0.2947 -0.1380
 9261SOL    HW139419   2.861   0.956   7.007 -1.4860 -1.8319 -1.3249
 9261SOL    HW239420   2.910   1.065   6.919  2.1221 -0.0265  0.1350
 9262SOL     OW39421   0.138   3.066   1.844 -0.3480 -0.0240 -0.3947
 9262SOL    HW139422   0.140   3.152   1.886 -1.4002 -0.3229  0.2532
 9262SOL    HW239423   0.128   3.015   1.925 -0.7377  1.8153  0.7100
 9263SOL     OW39424   0.219   1.735  15.596  0.4709  0.0159  0.1550
 9263SOL    HW139425   0.306   1.721  15.557 -0.7742 -0.1620 -2.5822
 9263SOL    HW239426   0.171   1.669  15.546  2.4257 -1.9549  0.8897
 9264SOL     OW39427   1.886   0.902   5.972  0.3127 -0.3072 -0.0127
 9264SOL    HW139428   1.960   0.844   5.991 -0.9497 -1.6408  0.7773
 9264SOL    HW239429   1.920   0.950   5.896  0.4100  1.0573  0.8876
 9265SOL     OW39430   1.214   2.607   3.351  0.5713  0.1730  0.4384
 9265SOL    HW139431   1.145   2.673   3.351  1.5238  1.1557 -0.9298
 9265SOL    HW239432   1.267   2.640   3.423  1.1007 -1.7756  0.9321
 9266SOL     OW39433   3.791   1.091   7.706  0.0046  0.2780 -0.3222
 9266SOL    HW139434   3.861   1.147   7.738  0.5288 -1.7849  2.1128
 9266SOL    HW239435   3.839   1.047   7.636 -1.8614 -0.7763 -0.9653
 9267SOL     OW39436   2.950   3.994   4.750 -0.0342 -0.1312 -0.6564
 9267SOL    HW139437   2.916   4.035   4.671  0.2580  0.8660 -0.2714
 9267SOL    HW239438   2.917   4.042   4.827 -1.6516 -2.2832  0.0093
 9268SOL     OW39439   0.649   3.630   3.053  0.1204  0.4833 -0.1567
 9268SOL    HW139440   0.569   3.644   3.003 -0.1465 -1.4443 -0.2412
 9268SOL    HW239441   0.625   3.567   3.122 -0.5868  0.2071 -0.6605
 9269SOL     OW39442   4.248   0.770   2.861  0.0790  0.2840 -0.3478
 9269SOL    HW139443   4.152   0.773   2.855  0.1803  1.6779 -1.2435
 9269SOL    HW239444   4.256   0.845   2.920  0.8045  0.0245 -0.1241
 9270SOL     OW39445   1.814   1.805   5.278  0.2612 -0.3641  0.4018
 9270SOL    HW139446   1.832   1.888   5.233 -1.7138 -0.2779 -0.2233
 9270SOL    HW239447   1.831   1.818   5.371  0.2173  3.6317 -0.1171
 9271SOL     OW39448   3.137   0.987   4.782 -0.1399  0.0943 -0.8889
 9271SOL    HW139449   3.048   0.954   4.791  1.1378 -2.6619  1.6347
 9271SOL    HW239450   3.131   1.065   4.837 -2.4449 -0.8130  0.1483
 9272SOL     OW39451   3.832   2.047   8.014 -0.1919 -0.4827 -0.1067
 9272SOL    HW139452   3.763   2.003   8.064 -0.0194  2.0075  2.3265
 9272SOL    HW239453   3.845   1.990   7.938  0.6789 -0.6922  0.1956
 9273SOL     OW39454   4.508   3.959   3.281  0.0649 -0.3147 -0.4400
 9273SOL    HW139455   4.434   3.987   3.334  0.7913  1.0516 -0.1374
 9273SOL    HW239456   4.562   3.915   3.347  1.9822  3.6890  0.6744
 9274SOL     OW39457   0.920   2.147   0.854 -0.3389 -0.0035 -0.0152
 9274SOL    HW139458   0.887   2.181   0.771  0.1869 -0.8062 -0.5408
 9274SOL    HW239459   1.004   2.190   0.871  0.1939 -0.6971 -0.9458
 9275SOL     OW39460   2.465   3.233   9.696 -0.1373 -0.2288 -0.3415
 9275SOL    HW139461   2.371   3.246   9.681 -0.9500 -1.2973  3.6086
 9275SOL    HW239462   2.458   3.143   9.666 -1.6393 -0.1007 -0.3717
 9276SOL     OW39463   2.060   3.484   8.653  0.7075  0.1213 -0.0237
 9276SOL    HW139464   2.090   3.470   8.563  1.8668  1.3187  0.1757
 9276SOL    HW239465   1.965   3.492   8.646  0.7479  0.3101 -0.3527
 9277SOL     OW39466   3.387   2.995   2.258 -0.1901  0.1087  0.1432
 9277SOL    HW139467   3.346   3.029   2.337 -1.4364 -0.2304 -0.3606
 9277SOL    HW239468   3.342   3.050   2.193  1.5246  0.3221 -0.8603
 9278SOL     OW39469   0.684   2.672   4.163  0.1990 -0.0449  0.2019
 9278SOL    HW139470   0.698   2.609   4.233  0.9659 -0.3290 -0.2127
 9278SOL    HW239471   0.694   2.755   4.209 -1.1085 -0.7719  1.7810
 9279SOL     OW39472   1.259   3.609  13.284  0.2150  0.4652 -0.0277
 9279SOL    HW139473   1.230   3.696  13.257  1.4776  1.3142  1.3471
 9279SOL    HW239474   1.243   3.612  13.379 -0.5952 -0.4776 -0.1383
 9280SOL     OW39475   3.606   2.203   1.885  0.3001  0.2975  0.7343
 9280SOL    HW139476   3.587   2.191   1.978 -0.6597  0.7189  0.5933
 9280SOL    HW239477   3.632   2.294   1.898  0.5439 -0.0037  2.3518
 9281SOL     OW39478   4.309   0.720   3.527  0.1770 -0.4643 -0.2229
 9281SOL    HW139479   4.279   0.665   3.455  1.2058 -1.1270 -0.1521
 9281SOL    HW239480   4.376   0.773   3.484 -0.1242  1.4360  1.6447
 9282SOL     OW39481   0.530   4.246   2.806  0.0683 -0.0062 -0.3291
 9282SOL    HW139482   0.568   4.327   2.770 -0.0605  0.5508  0.7927
 9282SOL    HW239483   0.438   4.266   2.794  0.1707 -0.0226 -1.1908
 9283SOL     OW39484   1.548   3.190   0.628  0.1434 -0.2499 -0.4017
 9283SOL    HW139485   1.573   3.098   0.617 -0.9065 -0.4620 -0.9792
 9283SOL    HW239486   1.631   3.233   0.609  1.5204 -2.2383  1.1774
 9284SOL     OW39487   3.699   2.752   6.363 -0.2209  0.5893  0.1350
 9284SOL    HW139488   3.794   2.760   6.360 -0.1749 -0.1028 -0.5081
 9284SOL    HW239489   3.678   2.814   6.432  1.2425  0.9801  0.2191
 9285SOL     OW39490   2.328   0.150  14.047  0.0196  0.4656 -0.1211
 9285SOL    HW139491   2.325   0.246  14.046  0.5954  0.4734 -0.7348
 9285SOL    HW239492   2.236   0.136  14.072  0.1332  1.7855  1.0678
 9286SOL     OW39493   2.900   2.817   5.693 -0.0966  0.0921 -0.2565
 9286SOL    HW139494   2.968   2.763   5.734 -1.3664  0.9702  2.9626
 9286SOL    HW239495   2.927   2.787   5.606 -1.2019  0.5788 -0.7582
 9287SOL     OW39496   3.062   3.721   8.088  0.3563  0.2330 -0.6235
 9287SOL    HW139497   3.073   3.816   8.089 -0.6572  0.3634 -1.8673
 9287SOL    HW239498   2.968   3.706   8.100  0.3138 -0.7239 -2.2353
 9288SOL     OW39499   1.079   2.924  17.266 -0.1336 -0.3286  0.1097
 9288SOL    HW139500   1.131   2.910  17.187 -0.5778  0.1602 -0.2644
 9288SOL    HW239501   1.019   2.988  17.229 -1.4513 -1.1755  0.7783
 9289SOL     OW39502   1.779   1.346   5.541 -0.1777  0.1387  0.3513
 9289SOL    HW139503   1.748   1.394   5.618 -0.6215 -3.1802  2.2153
 9289SOL    HW239504   1.773   1.259   5.579  1.4695 -0.3859 -0.5760
 9290SOL     OW39505   2.546   2.368   9.302 -0.1936  0.4145 -0.1507
 9290SOL    HW139506   2.550   2.341   9.393  2.1777 -0.4514 -0.5097
 9290SOL    HW239507   2.458   2.405   9.292 -0.6726  0.3409  3.9032
 9291SOL     OW39508   3.556   0.301   8.251 -0.0872  0.6312  0.1541
 9291SOL    HW139509   3.622   0.277   8.316  0.5216  0.4222 -0.5573
 9291SOL    HW239510   3.482   0.244   8.272  0.8049 -0.5329  0.0995
 9292SOL     OW39511   3.797   1.670   7.889 -0.6030  0.2518 -0.3638
 9292SOL    HW139512   3.726   1.690   7.829 -0.7906  2.9628  0.7732
 9292SOL    HW239513   3.766   1.584   7.918 -5.5319  2.2504  0.2277
 9293SOL     OW39514   3.232   0.733  15.122 -0.0398 -0.4682  0.8064
 9293SOL    HW139515   3.265   0.679  15.194  1.3376 -3.0920 -1.8163
 9293SOL    HW239516   3.296   0.803  15.112 -0.5530 -0.0065  0.7507
 9294SOL     OW39517   2.530   2.053   3.002 -0.1730  0.2116 -0.1134
 9294SOL    HW139518   2.588   2.107   2.949 -1.3254  2.0480  0.4836
 9294SOL    HW239519   2.508   2.117   3.070 -1.4134  0.6239 -0.9089
 9295SOL     OW39520   1.561   0.403   5.141  0.6829 -0.2376 -0.4049
 9295SOL    HW139521   1.475   0.409   5.098  0.1539 -3.2864  0.2144
 9295SOL    HW239522   1.555   0.470   5.209 -0.1072 -0.4863 -0.2242
 9296SOL     OW39523   1.086   3.101   1.563 -0.4705 -0.3238  0.2963
 9296SOL    HW139524   1.030   3.146   1.626 -1.1453  0.2165 -0.6789
 9296SOL    HW239525   1.123   3.171   1.509 -2.4356 -0.1821 -0.8409
 9297SOL     OW39526   0.883   3.513   0.468  0.3867 -0.2157 -0.6238
 9297SOL    HW139527   0.843   3.549   0.547  1.2077 -1.0715  0.1889
 9297SOL    HW239528   0.975   3.534   0.485 -0.6407  2.4417  1.6634
 9298SOL     OW39529   3.210   0.828   7.370  0.5913  0.2599  0.1193
 9298SOL    HW139530   3.239   0.777   7.446 -1.3349 -0.0854  0.6066
 9298SOL    HW239531   3.117   0.809   7.366  0.3168  1.0575  3.0103
 9299SOL     OW39532   0.533   3.718   6.758 -0.3272 -0.1617  0.2711
 9299SOL    HW139533   0.559   3.706   6.667  0.3406  0.1849  0.4148
 9299SOL    HW239534   0.457   3.776   6.756  0.2372  0.4663 -3.7835
 9300SOL     OW39535   3.834   0.232  10.201 -0.4818  0.4521 -0.0254
 9300SOL    HW139536   3.868   0.315  10.232 -1.4375  1.0542 -0.5977
 9300SOL    HW239537   3.891   0.166  10.241 -1.5270 -2.0322 -2.6258
 9301SOL     OW39538   4.120   3.728  17.462 -0.1320  0.1575  0.3094
 9301SOL    HW139539   4.167   3.668  17.519 -0.1496  0.5169  0.7069
 9301SOL    HW239540   4.193   3.777  17.423  0.3856  0.1791  1.3077
 9302SOL     OW39541   4.589   2.246   1.749 -0.3327  0.1282  0.0979
 9302SOL    HW139542   4.498   2.256   1.776  0.4230 -0.8956  3.0581
 9302SOL    HW239543   4.602   2.309   1.678  2.9722  0.5074  1.0303
 9303SOL     OW39544   4.190   2.932   2.288 -0.1995  0.7147 -0.5771
 9303SOL    HW139545   4.232   2.986   2.354  0.3728 -1.2469  0.6575
 9303SOL    HW239546   4.105   2.914   2.327 -0.1442  0.6982 -0.4657
 9304SOL     OW39547   1.678   3.604   4.507  1.1937 -0.3067  0.8907
 9304SOL    HW139548   1.678   3.514   4.475  1.6691  0.6912 -1.9261
 9304SOL    HW239549   1.675   3.592   4.602  0.6258 -0.9635  0.7882
 9305SOL     OW39550   0.277   4.026   3.037  0.3474  0.0652  0.0764
 9305SOL    HW139551   0.216   4.086   2.994  0.9593  1.2431  0.8718
 9305SOL    HW239552   0.225   3.947   3.052  0.1214  0.2696  0.3570
 9306SOL     OW39553   4.108   3.210  11.003  0.2385 -0.4157  0.4702
 9306SOL    HW139554   4.178   3.145  11.007 -0.0205 -0.7212 -0.0109
 9306SOL    HW239555   4.179   3.274  11.013  1.0212 -1.1494 -0.4581
 9307SOL     OW39556   0.884   1.655  11.825 -0.0721 -0.3535 -0.3505
 9307SOL    HW139557   0.790   1.640  11.833 -0.0621  2.2192  4.7924
 9307SOL    HW239558   0.923   1.568  11.834 -0.4839 -0.6600 -1.6136
 9308SOL     OW39559   0.948   1.090   3.349 -0.2648 -0.4641  0.2622
 9308SOL    HW139560   0.993   1.058   3.428  3.5035  1.3610 -1.1252
 9308SOL    HW239561   0.885   1.019   3.340 -1.7075  1.1021 -1.7772
 9309SOL     OW39562   1.956   3.370   5.899 -0.7956 -0.0669  0.1519
 9309SOL    HW139563   2.015   3.295   5.897  2.1610  2.2923 -1.4884
 9309SOL    HW239564   1.910   3.355   5.982 -1.0763 -0.2401 -0.0339
 9310SOL     OW39565   0.333   1.409   5.932  0.1830 -0.0465 -0.0895
 9310SOL    HW139566   0.354   1.407   6.025  0.9350  0.1616 -0.2595
 9310SOL    HW239567   0.243   1.377   5.939  0.5323 -0.3057  2.8534
 9311SOL     OW39568   0.233   2.049   8.381 -0.2163  0.3875  0.4889
 9311SOL    HW139569   0.323   2.054   8.412  0.1593 -0.4718 -0.4523
 9311SOL    HW239570   0.180   2.055   8.460 -1.0695  0.2616 -0.0729
 9312SOL     OW39571   3.584   1.887  10.566 -0.3259  0.0966 -0.4790
 9312SOL    HW139572   3.595   1.855  10.476  0.5480  0.8024 -0.6228
 9312SOL    HW239573   3.492   1.866  10.581  0.0714 -0.3744  1.3105
 9313SOL     OW39574   4.469   3.521  16.022 -0.4824  0.5046  0.6156
 9313SOL    HW139575   4.484   3.432  16.052  1.3922  0.0916 -1.4793
 9313SOL    HW239576   4.556   3.557  16.040 -0.5938  0.1826  1.8190
 9314SOL     OW39577   0.018   2.144   5.519  0.4285  0.2192  0.1074
 9314SOL    HW139578   0.073   2.116   5.446  0.4537 -0.3457  0.3368
 9314SOL    HW239579   0.049   2.081   5.585 -0.5778  2.1337  2.4040
 9315SOL     OW39580   2.515   3.064   5.827 -0.1637  0.2033 -0.4179
 9315SOL    HW139581   2.478   3.136   5.775  0.9600  0.7537 -0.4415
 9315SOL    HW239582   2.571   3.117   5.883  0.8553 -0.5295 -0.7433
 9316SOL     OW39583   3.740   2.328  10.497 -0.1314  0.2342  0.1435
 9316SOL    HW139584   3.790   2.315  10.416 -2.3526  0.1879 -1.2266
 9316SOL    HW239585   3.674   2.390  10.468 -0.6839 -0.0548  0.7990
 9317SOL     OW39586   3.739   1.707   9.899 -0.1372 -0.2104 -0.6623
 9317SOL    HW139587   3.811   1.644   9.904  0.1159 -0.0961 -2.8004
 9317SOL    HW239588   3.785   1.784   9.933 -0.2500 -0.2450 -0.4292
 9318SOL     OW39589   0.886   3.466   8.592 -0.4537  0.7571  0.2327
 9318SOL    HW139590   0.906   3.555   8.561 -2.6581  0.1800 -2.8755
 9318SOL    HW239591   0.856   3.482   8.681  0.0827  0.0936  0.5259
 9319SOL     OW39592   2.560   1.256   1.547 -0.2336 -0.5753 -0.4678
 9319SOL    HW139593   2.564   1.308   1.627  0.7535 -0.7037 -0.4384
 9319SOL    HW239594   2.476   1.280   1.509 -0.1932 -0.9734 -0.8058
 9320SOL     OW39595   0.026   2.714   2.518 -0.5261  0.4875 -0.3105
 9320SOL    HW139596   4.675   2.733   2.554 -0.7049 -0.8067 -0.0509
 9320SOL    HW239597   0.007   2.679   2.431  1.2766  0.0724 -0.5380
 9321SOL     OW39598   3.097   3.749   2.244  0.0473  0.1176  0.1312
 9321SOL    HW139599   3.153   3.686   2.201  0.0158 -0.1021  0.4109
 9321SOL    HW239600   3.057   3.696   2.313 -0.7697 -1.6222 -1.6756
 9322SOL     OW39601   2.664   0.839   0.954  0.0231 -0.0424  0.0167
 9322SOL    HW139602   2.686   0.745   0.954 -0.1925 -0.0942 -1.0691
 9322SOL    HW239603   2.579   0.840   0.909  0.4413 -1.0161 -0.8141
 9323SOL     OW39604   3.222   2.037   5.140 -0.3901  0.9343  0.0705
 9323SOL    HW139605   3.244   2.128   5.118  2.8063  0.2815  0.4691
 9323SOL    HW239606   3.218   1.995   5.054  0.4209  2.2864 -0.6308
 9324SOL     OW39607   1.382   3.921   5.504  0.1859  0.4241  0.0371
 9324SOL    HW139608   1.381   3.869   5.424 -0.5774  1.5763 -0.6966
 9324SOL    HW239609   1.341   4.003   5.477 -3.7480 -1.1445  1.3028
 9325SOL     OW39610   3.798   3.732   8.716  0.0515  0.2594  0.0878
 9325SOL    HW139611   3.792   3.763   8.806 -0.1336 -1.8934  0.8025
 9325SOL    HW239612   3.773   3.811   8.667  3.0432 -0.1207 -2.0670
 9326SOL     OW39613   1.641   2.756  17.242 -0.6433  0.6382 -0.0327
 9326SOL    HW139614   1.683   2.693  17.184  0.4390 -0.1838  1.6374
 9326SOL    HW239615   1.552   2.766  17.208 -0.7941 -0.8679 -0.0716
 9327SOL     OW39616   2.250   1.389   4.639 -0.3518  0.3880 -0.1451
 9327SOL    HW139617   2.217   1.300   4.648  0.8719 -0.0153  0.4401
 9327SOL    HW239618   2.343   1.385   4.615 -0.2640  0.6244  0.1562
 9328SOL     OW39619   1.231   4.087   9.329  0.0878 -0.0377  0.3622
 9328SOL    HW139620   1.185   4.165   9.297  2.0781  0.9704 -0.0905
 9328SOL    HW239621   1.190   4.022   9.271  0.4611 -0.1366  0.2080
 9329SOL     OW39622   0.879   3.767   4.134 -0.2830  0.2545  0.6915
 9329SOL    HW139623   0.919   3.745   4.218 -1.4941  3.7144  2.1701
 9329SOL    HW239624   0.852   3.681   4.104 -2.3596  0.9634  0.5629
 9330SOL     OW39625   3.656   2.046   2.388 -0.6612 -0.3358  0.3900
 9330SOL    HW139626   3.591   2.037   2.457 -1.7117  0.2892 -0.5281
 9330SOL    HW239627   3.686   1.955   2.378  0.9307  0.2175  0.0600
 9331SOL     OW39628   3.280   4.577  12.481 -0.6179 -0.4076 -0.0741
 9331SOL    HW139629   3.371   4.601  12.464 -0.4781 -1.7317 -1.2241
 9331SOL    HW239630   3.291   4.581  12.576 -1.7833  0.4159  0.0224
 9332SOL     OW39631   0.153   4.043   7.682 -0.2372  0.1311  0.0574
 9332SOL    HW139632   0.203   4.124   7.672  0.6930  0.0287  3.9232
 9332SOL    HW239633   0.072   4.086   7.708  0.5404  0.9647  1.0959
 9333SOL     OW39634   1.867   1.111   9.362  0.0460 -0.0602 -0.0236
 9333SOL    HW139635   1.869   1.148   9.450  2.1274  0.2269 -0.2010
 9333SOL    HW239636   1.958   1.124   9.335 -0.1719  1.1085 -0.1699
 9334SOL     OW39637   1.144   1.482   9.108 -0.1297 -0.2662  0.1577
 9334SOL    HW139638   1.130   1.573   9.081  0.1417  0.1370  1.3946
 9334SOL    HW239639   1.139   1.440   9.022 -1.6497 -0.7401  0.4763
 9335SOL     OW39640   0.344   0.296   1.828  0.1583 -0.2422 -0.1620
 9335SOL    HW139641   0.264   0.321   1.781 -0.3604  0.4417  1.0859
 9335SOL    HW239642   0.416   0.333   1.778 -0.8910  1.0462 -0.7057
 9336SOL     OW39643   3.498   0.263   8.626 -0.1531 -0.3260 -0.8636
 9336SOL    HW139644   3.456   0.204   8.562 -0.1929  0.4624 -1.5641
 9336SOL    HW239645   3.519   0.194   8.688 -4.4511  0.5604  1.5483
 9337SOL     OW39646   1.324   3.193  13.413  0.4369 -0.5933  0.1892
 9337SOL    HW139647   1.370   3.253  13.472 -0.5424  3.2161 -2.9223
 9337SOL    HW239648   1.267   3.248  13.360  1.5940 -1.0562 -1.5611
 9338SOL     OW39649   1.139   2.203  10.052 -0.4064  0.3879  0.7219
 9338SOL    HW139650   1.097   2.129  10.095  2.1751 -1.3828  0.2179
 9338SOL    HW239651   1.231   2.178  10.061 -0.4563 -0.2016 -0.3320
 9339SOL     OW39652   4.014   2.005   4.534  0.6853  0.0587  0.0469
 9339SOL    HW139653   4.042   1.929   4.586 -0.2162  1.3511  2.4139
 9339SOL    HW239654   3.927   2.021   4.569  1.1180  0.7117  0.8385
 9340SOL     OW39655   3.816   2.771  10.310  0.2619  0.5166 -1.2342
 9340SOL    HW139656   3.854   2.691  10.273  0.7640  0.3445 -0.3389
 9340SOL    HW239657   3.723   2.756  10.295  0.2894  1.2177 -2.1240
 9341SOL     OW39658   1.344   2.515  12.576 -0.0608  0.4653 -0.0637
 9341SOL    HW139659   1.419   2.570  12.598  1.9129 -1.6997 -1.4875
 9341SOL    HW239660   1.290   2.543  12.651  0.0621  0.8463 -0.1187
 9342SOL     OW39661   1.563   2.128  12.250 -0.1194  0.4525  0.1640
 9342SOL    HW139662   1.536   2.083  12.330  0.0033  0.9113  0.4654
 9342SOL    HW239663   1.484   2.126  12.197 -1.4241 -0.8154  2.1677
 9343SOL     OW39664   3.266   3.000   8.448  0.4543 -0.0455 -0.9931
 9343SOL    HW139665   3.175   2.991   8.475  0.9901  1.4185  1.2967
 9343SOL    HW239666   3.273   3.095   8.450 -3.8877  0.1527  3.7529
 9344SOL     OW39667   1.827   0.389   5.053  0.1092  0.3632  0.0327
 9344SOL    HW139668   1.818   0.395   4.958 -0.1701  2.1800  0.1774
 9344SOL    HW239669   1.738   0.382   5.087  0.6035  1.2112  1.5157
 9345SOL     OW39670   1.112   3.653   7.364 -0.5716  0.3356 -0.0888
 9345SOL    HW139671   1.031   3.610   7.339  0.3737 -0.1354 -2.4173
 9345SOL    HW239672   1.160   3.662   7.281 -3.7069 -0.3097 -1.9415
 9346SOL     OW39673   0.301   4.617   6.973 -0.2346  0.3606 -0.2424
 9346SOL    HW139674   0.390   4.600   7.005 -1.2054 -0.8137  1.8031
 9346SOL    HW239675   0.321   4.680   6.904 -1.5909  1.2214  0.1538
 9347SOL     OW39676   3.673   4.565   6.111 -0.0952  0.0488 -0.1031
 9347SOL    HW139677   3.757   4.535   6.077  0.9832  1.1001  1.6309
 9347SOL    HW239678   3.649   4.621   6.037  0.3289 -0.8168 -0.8903
 9348SOL     OW39679   1.920   3.559   4.981  0.4663  0.1157  0.2405
 9348SOL    HW139680   1.997   3.616   4.982 -0.8718  1.9215 -0.4899
 9348SOL    HW239681   1.933   3.489   4.917  1.0533  0.0007  0.4858
 9349SOL     OW39682   2.082   4.577  16.397 -0.4943 -0.0280 -0.4926
 9349SOL    HW139683   2.108   4.485  16.387  0.2801  0.3916 -2.4127
 9349SOL    HW239684   2.142   4.622  16.338 -0.3781 -1.8233 -1.7785
 9350SOL     OW39685   0.254   1.257   4.268 -0.4694 -0.1570  0.3691
 9350SOL    HW139686   0.201   1.182   4.244 -0.3790 -0.6815  1.7953
 9350SOL    HW239687   0.230   1.287   4.356  1.2769 -0.2605  0.8944
 9351SOL     OW39688   3.278   0.019  10.419 -0.3287 -0.0275 -0.3802
 9351SOL    HW139689   3.288   0.016  10.324 -0.0784 -1.8679 -0.2958
 9351SOL    HW239690   3.353   4.706  10.453 -1.2449 -1.3804 -0.2636
 9352SOL     OW39691   3.476   2.987   1.572  0.3895 -0.3686  0.1926
 9352SOL    HW139692   3.475   3.038   1.653 -0.1475  1.4819 -0.9955
 9352SOL    HW239693   3.381   2.978   1.563  0.0022  0.3099  3.4381
 9353SOL     OW39694   3.507   2.742   2.350 -0.0662  0.2021 -0.6755
 9353SOL    HW139695   3.501   2.834   2.325  1.2194  1.0360  2.0550
 9353SOL    HW239696   3.559   2.746   2.431  0.8731 -0.0101 -1.2733
 9354SOL     OW39697   3.775   3.307   8.442  0.6480 -0.3753  0.1104
 9354SOL    HW139698   3.742   3.243   8.380  1.9447 -1.0262  0.1057
 9354SOL    HW239699   3.757   3.255   8.521 -1.1784  0.3565  0.1875
 9355SOL     OW39700   1.680   4.109   5.424  0.8567 -0.1893 -0.3178
 9355SOL    HW139701   1.618   4.174   5.457  2.7083  1.7969 -0.7543
 9355SOL    HW239702   1.767   4.148   5.435  1.1014 -0.8941  0.1988
 9356SOL     OW39703   3.279   3.647   4.862 -0.2797 -0.2494  0.0050
 9356SOL    HW139704   3.346   3.583   4.882 -0.1092  0.2415  0.9932
 9356SOL    HW239705   3.239   3.586   4.800 -2.0234 -0.2693  1.1404
 9357SOL     OW39706   4.698   3.882   6.847  0.1096  0.0078  0.0939
 9357SOL    HW139707   0.043   3.870   6.797 -0.1583 -0.5676 -0.2023
 9357SOL    HW239708   4.687   3.799   6.894  0.4413 -0.4663 -0.6769
 9358SOL     OW39709   2.912   0.910   8.785  0.6953  0.1333  0.4485
 9358SOL    HW139710   2.905   0.999   8.751 -0.4267 -0.2462 -0.3157
 9358SOL    HW239711   2.834   0.900   8.840 -0.2102 -0.7178 -1.0116
 9359SOL     OW39712   3.407   1.753   4.920 -0.1448 -0.6266  0.4437
 9359SOL    HW139713   3.406   1.783   4.830 -1.0484  0.0480  0.6770
 9359SOL    HW239714   3.498   1.731   4.941  0.9260  2.0856 -1.4053
 9360SOL     OW39715   2.667   1.885   6.966  0.1929  0.5363  0.2134
 9360SOL    HW139716   2.677   1.913   7.057 -1.1021 -1.2241  0.8958
 9360SOL    HW239717   2.654   1.969   6.923 -0.4216  1.2922  1.8867
 9361SOL     OW39718   1.097   0.526   2.569 -0.9048 -0.2149 -0.0620
 9361SOL    HW139719   1.184   0.553   2.598 -0.2938 -0.2305 -1.9485
 9361SOL    HW239720   1.101   0.539   2.475  3.2297 -1.7250 -0.0758
 9362SOL     OW39721   0.668   1.186  14.205 -0.0696  0.1582  0.0689
 9362SOL    HW139722   0.605   1.240  14.253  2.2983  1.8729  1.2423
 9362SOL    HW239723   0.728   1.248  14.165 -1.3197  1.6107  0.4519
 9363SOL     OW39724   1.039   3.841   2.031 -0.3758 -0.2300 -1.0945
 9363SOL    HW139725   1.054   3.849   1.936  0.7037  1.7385 -0.7520
 9363SOL    HW239726   0.947   3.865   2.038 -0.2353  0.6127 -2.1078
 9364SOL     OW39727   4.406   1.336  12.609  0.0995  0.1892 -0.7452
 9364SOL    HW139728   4.349   1.387  12.551  0.3290  0.6741 -0.5410
 9364SOL    HW239729   4.339   1.288  12.659  1.1434  1.4775  1.8880
 9365SOL     OW39730   3.777   0.649  17.198 -0.8521 -0.0416  0.2753
 9365SOL    HW139731   3.682   0.650  17.188 -0.5414  0.5018 -2.5992
 9365SOL    HW239732   3.799   0.719  17.136  0.5099  0.6578  1.5654
 9366SOL     OW39733   0.362   0.049   7.384 -0.1806 -0.3567 -0.1072
 9366SOL    HW139734   0.420   0.023   7.312 -1.6070 -0.5136 -1.1921
 9366SOL    HW239735   0.401   0.134   7.400 -0.1202 -0.6202  1.1064
 9367SOL     OW39736   1.405   2.792   8.490 -0.5275 -0.7074  0.8046
 9367SOL    HW139737   1.441   2.837   8.414 -3.5153 -1.4402 -1.0342
 9367SOL    HW239738   1.391   2.870   8.545  1.1934  0.4365 -0.3847
 9368SOL     OW39739   3.004   2.108   6.946  0.1050  0.2921  0.3853
 9368SOL    HW139740   3.021   2.155   7.027 -0.6102 -1.0807  1.3281
 9368SOL    HW239741   2.980   2.180   6.888  0.7185 -0.4027 -0.7520
 9369SOL     OW39742   2.210   0.671  13.191 -0.0316  0.0810  0.6833
 9369SOL    HW139743   2.268   0.704  13.122 -1.0584  1.5854  0.5162
 9369SOL    HW239744   2.149   0.611  13.148 -1.5622  2.2136 -0.1312
 9370SOL     OW39745   2.198   1.442   5.342 -0.6169  0.2983  0.1402
 9370SOL    HW139746   2.248   1.439   5.424 -0.4671 -0.2740  0.0193
 9370SOL    HW239747   2.255   1.397   5.281  0.9139  1.8808  0.3950
 9371SOL     OW39748   0.415   0.750   2.689 -0.2751  0.1336 -0.5010
 9371SOL    HW139749   0.452   0.757   2.601  2.7552  1.1448  0.8539
 9371SOL    HW239750   0.345   0.686   2.676  0.5688 -1.1134  1.0786
 9372SOL     OW39751   3.107   1.586   8.799 -0.5059 -0.0128  0.0968
 9372SOL    HW139752   3.131   1.544   8.881 -1.2413 -0.0853  0.2698
 9372SOL    HW239753   3.019   1.604   8.833 -0.1411  0.8223  0.6006
 9373SOL     OW39754   2.168   0.494   8.743 -0.5842 -0.2831  0.8485
 9373SOL    HW139755   2.249   0.543   8.730 -0.9006  0.5305  1.9509
 9373SOL    HW239756   2.108   0.565   8.764 -0.1194  0.3850 -0.1044
 9374SOL     OW39757   3.058   0.490   4.240 -0.1625 -0.4347 -0.1025
 9374SOL    HW139758   3.126   0.536   4.190 -0.4821 -0.7221 -0.8147
 9374SOL    HW239759   3.116   0.451   4.304  0.2673  0.7014  0.2050
 9375SOL     OW39760   3.975   3.269   9.339  0.7014 -0.0289 -0.1442
 9375SOL    HW139761   4.047   3.332   9.345  1.3563 -0.8234  0.3785
 9375SOL    HW239762   3.913   3.311   9.280  0.2666 -0.2972  0.1225
 9376SOL     OW39763   4.018   3.475   1.834  0.4736  0.3240 -0.4393
 9376SOL    HW139764   4.069   3.489   1.914 -2.4347 -1.4746  1.7266
 9376SOL    HW239765   3.943   3.535   1.837  0.0509 -0.2817  1.2664
 9377SOL     OW39766   3.817   1.327   6.939 -0.0264 -0.4024 -0.2889
 9377SOL    HW139767   3.773   1.299   6.859 -2.5769 -0.4089  1.1252
 9377SOL    HW239768   3.836   1.242   6.979  0.3267  0.1810  0.7723
 9378SOL     OW39769   1.097   0.460   5.109  0.5442  0.5240 -0.0991
 9378SOL    HW139770   1.070   0.469   5.017  0.5425 -0.8328 -0.2375
 9378SOL    HW239771   1.019   0.424   5.151  0.0808  0.5418 -0.9353
 9379SOL     OW39772   2.758   3.327   7.281 -0.3521 -0.4100 -0.3189
 9379SOL    HW139773   2.700   3.261   7.318 -2.0922  1.0594 -0.4408
 9379SOL    HW239774   2.702   3.405   7.288 -0.1879 -0.3562  0.3714
 9380SOL     OW39775   3.079   0.916  16.046 -0.0922 -0.1991  0.2037
 9380SOL    HW139776   3.013   0.876  16.104  0.3456 -0.7191  0.3436
 9380SOL    HW239777   3.126   0.839  16.015  0.0479  0.2859 -0.7719
 9381SOL     OW39778   3.995   1.208   7.839 -0.2100 -0.1768 -0.3457
 9381SOL    HW139779   4.005   1.272   7.769 -0.8145  2.0463  1.6177
 9381SOL    HW239780   4.088   1.188   7.851 -0.4560  0.2015  2.1193
 9382SOL     OW39781   2.022   3.356   3.327 -0.6371 -0.3807 -0.0672
 9382SOL    HW139782   1.935   3.392   3.346 -0.0104  1.8610 -1.4322
 9382SOL    HW239783   1.988   3.274   3.292 -1.0688 -1.1338  2.1141
 9383SOL     OW39784   4.253   1.426   5.141  0.1246 -0.2319  0.1524
 9383SOL    HW139785   4.180   1.397   5.087  0.0580  1.0981 -0.4548
 9383SOL    HW239786   4.306   1.483   5.086  0.5286  0.0523  0.8306
 9384SOL     OW39787   4.176   3.826   7.460  0.7584  0.1146  0.0913
 9384SOL    HW139788   4.224   3.797   7.382  1.8656  3.0317 -0.3005
 9384SOL    HW239789   4.250   3.829   7.521 -0.1452  2.3199  1.0734
 9385SOL     OW39790   0.028   4.507  14.724 -0.5718 -0.1184  1.0512
 9385SOL    HW139791   4.722   4.589  14.697 -0.8793 -0.0492  1.7316
 9385SOL    HW239792   0.122   4.526  14.719 -0.3279 -1.4318  0.6368
 9386SOL     OW39793   1.020   2.503   8.703  0.1372  0.4405  0.3527
 9386SOL    HW139794   0.964   2.580   8.695  0.2806  0.4338 -0.6729
 9386SOL    HW239795   1.096   2.521   8.648 -0.6902  0.7481 -0.7052
 9387SOL     OW39796   4.201   3.095   3.351  0.7185 -0.3448  0.0494
 9387SOL    HW139797   4.273   3.080   3.290  0.8099 -0.2976  0.1474
 9387SOL    HW239798   4.185   3.005   3.380  0.1497 -0.6104 -1.0664
 9388SOL     OW39799   1.549   1.257   4.131  0.7997  0.0678  0.4565
 9388SOL    HW139800   1.590   1.260   4.044  0.5677  0.3090  0.3547
 9388SOL    HW239801   1.631   1.248   4.180  0.7461  0.5278  0.6324
 9389SOL     OW39802   4.375   1.576  10.042 -0.0165  0.6259 -0.5975
 9389SOL    HW139803   4.378   1.484  10.067  0.5281  0.6667 -0.4981
 9389SOL    HW239804   4.376   1.611  10.131 -0.7076 -1.4096  0.2037
 9390SOL     OW39805   0.143   2.593   2.033 -0.2633  0.2560 -0.4838
 9390SOL    HW139806   0.112   2.506   2.006  0.5456 -0.0407 -0.4834
 9390SOL    HW239807   0.208   2.568   2.099 -1.0744 -0.4434  0.0542
 9391SOL     OW39808   3.912   0.978  10.621  0.5993  0.2373 -0.0684
 9391SOL    HW139809   3.889   1.016  10.537 -0.4063 -1.1986 -0.4433
 9391SOL    HW239810   3.991   1.027  10.645 -0.0518  2.6308 -2.9354
 9392SOL     OW39811   2.592   1.778   9.712  0.0226 -0.5369  0.0316
 9392SOL    HW139812   2.589   1.700   9.767 -1.3372 -0.5894 -0.1207
 9392SOL    HW239813   2.625   1.745   9.628  1.0538  0.7022 -0.0515
 9393SOL     OW39814   0.671   1.647   8.216 -0.6238 -0.4257 -0.0615
 9393SOL    HW139815   0.640   1.678   8.302 -1.9906 -0.0490 -0.6832
 9393SOL    HW239816   0.722   1.573   8.249  2.8188  1.9338 -0.1350
 9394SOL     OW39817   3.760   3.006   9.727 -0.3494  0.4361  0.0973
 9394SOL    HW139818   3.831   3.031   9.668 -0.3001 -0.3516 -0.1758
 9394SOL    HW239819   3.813   2.949   9.782  0.5337  1.5162  0.3687
 9395SOL     OW39820   0.169   2.722   5.496  0.2774 -0.0968  0.1928
 9395SOL    HW139821   0.143   2.756   5.582 -1.2341 -0.8365  0.0259
 9395SOL    HW239822   0.239   2.666   5.529  0.9248  0.5571 -0.0684
 9396SOL     OW39823   2.381   0.283  12.260  0.6249  0.7850 -0.6420
 9396SOL    HW139824   2.299   0.279  12.210 -0.7309 -1.9277  1.7742
 9396SOL    HW239825   2.396   0.377  12.251  0.7261  0.8970  0.7393
 9397SOL     OW39826   1.109   0.315   3.849 -0.1176 -0.3075  0.3826
 9397SOL    HW139827   1.067   0.395   3.818  0.3347 -0.2402 -0.0578
 9397SOL    HW239828   1.038   0.258   3.879  0.6174 -1.2355  0.3627
 9398SOL     OW39829   1.168   0.805   4.941 -0.1865  0.6406 -0.4126
 9398SOL    HW139830   1.141   0.878   4.884 -0.3555  0.1299 -0.9829
 9398SOL    HW239831   1.125   0.724   4.913  0.5155  0.4711 -0.9806
 9399SOL     OW39832   4.129   3.165   1.163 -0.3390 -0.0059 -0.3003
 9399SOL    HW139833   4.223   3.162   1.181 -0.3689 -2.4083 -0.5184
 9399SOL    HW239834   4.095   3.176   1.252  2.1696 -0.2987  0.7181
 9400SOL     OW39835   0.957   2.156   8.282  0.1072 -0.2899  0.1939
 9400SOL    HW139836   0.921   2.193   8.201  1.1266 -1.9021 -0.9788
 9400SOL    HW239837   0.953   2.229   8.345  0.1175  0.8421 -1.1017
 9401SOL     OW39838   0.049   1.902   6.575 -0.3472  0.2102  0.0461
 9401SOL    HW139839   0.028   1.885   6.667  1.2863  1.1881  0.5797
 9401SOL    HW239840   0.139   1.933   6.577 -0.9672  2.0218 -0.0798
 9402SOL     OW39841   2.956   1.964  16.640  0.1224  0.1143 -0.3026
 9402SOL    HW139842   3.043   2.001  16.653  0.9757 -1.7770 -0.6814
 9402SOL    HW239843   2.926   2.016  16.566  0.9120  2.4226  0.9829
 9403SOL     OW39844   0.314   0.358   5.321  0.1031 -0.3139 -0.1820
 9403SOL    HW139845   0.336   0.316   5.238  0.2098  0.9876 -0.8184
 9403SOL    HW239846   0.335   0.450   5.304 -3.5710  0.6404  0.4283
 9404SOL     OW39847   2.677   0.161   7.805  0.1435  0.1149  0.3077
 9404SOL    HW139848   2.716   0.123   7.727 -0.5494  0.7029 -0.3293
 9404SOL    HW239849   2.750   0.213   7.839 -1.5892  2.3585  0.6441
 9405SOL     OW39850   1.459   4.381   3.193  0.1052  0.4358  0.2421
 9405SOL    HW139851   1.448   4.448   3.261 -0.2693  1.3325 -0.7066
 9405SOL    HW239852   1.386   4.321   3.209  1.3291 -0.9551  0.6192
 9406SOL     OW39853   0.829   0.597  15.713  0.1472 -0.5727  0.8443
 9406SOL    HW139854   0.881   0.655  15.657  0.5144  0.1944  1.9766
 9406SOL    HW239855   0.902   0.539  15.737  1.4752  0.4581 -0.7379
 9407SOL     OW39856   0.159   0.149  16.268  0.3037  0.3313  0.9394
 9407SOL    HW139857   0.209   0.173  16.189  0.1391  0.7872  0.9780
 9407SOL    HW239858   0.093   0.216  16.255  0.1859  0.1818  0.7652
 9408SOL     OW39859   0.216   1.044  15.443 -0.0573 -0.5169 -0.4304
 9408SOL    HW139860   0.147   1.084  15.391 -1.7020  0.1959  2.3198
 9408SOL    HW239861   0.182   0.955  15.448  0.0683 -0.4148  2.3138
 9409SOL     OW39862   2.415   1.310   2.217 -0.6014  0.3954 -0.2875
 9409SOL    HW139863   2.366   1.389   2.238 -1.2925 -0.3084  0.7468
 9409SOL    HW239864   2.404   1.262   2.299  1.6201  1.0820  0.4144
 9410SOL     OW39865   3.621   3.725   0.657  0.3624  0.3493  0.5874
 9410SOL    HW139866   3.604   3.743   0.565  0.2699 -0.2871  0.4749
 9410SOL    HW239867   3.708   3.686   0.646 -0.3053 -0.0622 -3.2756
 9411SOL     OW39868   2.531   1.447   1.751 -0.9482 -0.0267  0.0922
 9411SOL    HW139869   2.450   1.444   1.803 -0.7899  0.1311  0.3508
 9411SOL    HW239870   2.553   1.537   1.776  2.2334 -1.0995  1.1661
 9412SOL     OW39871   3.209   0.764   8.923 -0.2461 -0.3497  0.5030
 9412SOL    HW139872   3.216   0.811   8.839  0.7958  0.5508  1.1008
 9412SOL    HW239873   3.273   0.693   8.920 -0.9483 -0.9998  1.1254
 9413SOL     OW39874   1.511   3.987   0.302  0.0147 -0.5078  0.0930
 9413SOL    HW139875   1.526   4.033   0.384 -0.3476  0.1792 -0.2301
 9413SOL    HW239876   1.564   4.033   0.237 -0.7030  1.1822  0.7080
 9414SOL     OW39877   0.282   1.195  12.891 -0.1632 -0.1595  0.1450
 9414SOL    HW139878   0.205   1.251  12.901  0.4170  0.6679 -0.0647
 9414SOL    HW239879   0.274   1.195  12.796 -0.0209  2.7216  0.1415
 9415SOL     OW39880   2.766   4.533   7.548  0.3068  0.4041  0.4199
 9415SOL    HW139881   2.754   4.438   7.549 -0.6919  0.5450  1.7809
 9415SOL    HW239882   2.770   4.545   7.643 -0.7863 -2.6190  0.8593
 9416SOL     OW39883   1.735   1.887  13.532  0.5667  0.1721  0.6838
 9416SOL    HW139884   1.667   1.835  13.489  0.1830 -0.6290  2.2806
 9416SOL    HW239885   1.799   1.892  13.461 -0.0840  0.0465  0.0891
 9417SOL     OW39886   4.245   3.221  11.821  0.2115  0.0754  0.4736
 9417SOL    HW139887   4.179   3.243  11.756  1.0738  2.6223  0.4328
 9417SOL    HW239888   4.205   3.231  11.908 -1.4441  3.7799 -0.7027
 9418SOL     OW39889   2.214   0.537   1.166 -0.0782  0.0954  0.6976
 9418SOL    HW139890   2.211   0.611   1.227 -0.1378  0.4290  0.2927
 9418SOL    HW239891   2.305   0.510   1.172  0.5976  2.0337 -0.6337
 9419SOL     OW39892   3.410   4.419   7.656 -0.0843  0.2420  0.3774
 9419SOL    HW139893   3.449   4.355   7.598  0.4015  0.7472  0.1430
 9419SOL    HW239894   3.318   4.394   7.644 -0.2540 -0.2049  2.5566
 9420SOL     OW39895   2.643   1.652   4.594  0.2035 -0.1220  0.2064
 9420SOL    HW139896   2.569   1.702   4.628  1.4603  0.9471  1.3792
 9420SOL    HW239897   2.710   1.706   4.636  0.5881 -0.0802 -0.4475
 9421SOL     OW39898   0.602   1.883   2.218  0.2628  0.1745  0.5676
 9421SOL    HW139899   0.691   1.918   2.228  0.2110  0.6972 -0.7869
 9421SOL    HW239900   0.582   1.860   2.309 -0.7128  0.1589  0.3484
 9422SOL     OW39901   0.410   1.041   7.220 -0.3234  0.1638  0.4738
 9422SOL    HW139902   0.465   0.963   7.231  0.5025  0.6230 -0.3951
 9422SOL    HW239903   0.441   1.097   7.291  0.7035 -0.4133  0.4851
 9423SOL     OW39904   1.119   3.673   3.112  0.4019 -0.0709 -0.6500
 9423SOL    HW139905   1.130   3.738   3.182  0.4858  0.4194 -1.1153
 9423SOL    HW239906   1.123   3.742   3.046 -2.8903  0.6862 -0.0646
 9424SOL     OW39907   0.158   2.214  10.448 -0.1162 -0.3202  0.5016
 9424SOL    HW139908   0.232   2.253  10.494 -0.8144  2.7939 -1.0115
 9424SOL    HW239909   0.084   2.255  10.492 -0.8656  2.5159 -3.3745
 9425SOL     OW39910   3.875   1.379   4.717  0.2060  0.2513 -0.1209
 9425SOL    HW139911   3.783   1.379   4.691  0.3207 -0.6060 -0.5288
 9425SOL    HW239912   3.902   1.296   4.677  2.6707  0.0039  2.0635
 9426SOL     OW39913   0.462   3.392  11.693  0.6215  0.2146  0.6128
 9426SOL    HW139914   0.471   3.344  11.776 -0.4076 -1.0893 -0.0333
 9426SOL    HW239915   0.379   3.438  11.707  1.8277  1.9600  2.0829
 9427SOL     OW39916   3.363   3.282  17.134  0.3588  0.4409 -0.4981
 9427SOL    HW139917   3.321   3.312  17.215 -1.2974  0.9185 -1.5530
 9427SOL    HW239918   3.281   3.260  17.091  0.4403  2.3854 -1.6263
 9428SOL     OW39919   1.878   0.720   2.877  0.2336 -0.2967  0.0043
 9428SOL    HW139920   1.958   0.737   2.828  1.5349 -1.9618  1.5656
 9428SOL    HW239921   1.881   0.628   2.904 -0.9490  0.2023  1.8590
 9429SOL     OW39922   3.358   3.814   8.409 -0.2403  0.4482  0.8258
 9429SOL    HW139923   3.353   3.868   8.488 -0.5952  1.0432  0.3962
 9429SOL    HW239924   3.396   3.738   8.453 -0.1382  0.6155  1.0251
 9430SOL     OW39925   2.426   2.519   6.815  0.1866  0.1718  0.1295
 9430SOL    HW139926   2.391   2.436   6.846  1.8471 -1.7637 -3.0998
 9430SOL    HW239927   2.503   2.526   6.872  1.5653  1.9274 -1.9503
 9431SOL     OW39928   3.075   2.224   4.857 -0.3020 -0.0183 -0.3919
 9431SOL    HW139929   3.037   2.231   4.769  2.7102 -0.0094 -1.7095
 9431SOL    HW239930   3.135   2.150   4.847  0.1758  0.3403 -0.1526
 9432SOL     OW39931   3.251   3.493  11.316 -0.4994 -0.2979 -0.5546
 9432SOL    HW139932   3.196   3.474  11.392  0.6644 -2.1122 -0.1572
 9432SOL    HW239933   3.298   3.409  11.311  1.5517  0.8633 -0.5295
 9433SOL     OW39934   1.902   2.533   3.190  0.1306  0.4918 -0.3982
 9433SOL    HW139935   1.921   2.614   3.143 -0.5675  0.4101 -0.8081
 9433SOL    HW239936   1.965   2.473   3.151  0.7620  0.4349  0.6858
 9434SOL     OW39937   1.195   0.566  15.888 -0.1403  0.4144  0.0249
 9434SOL    HW139938   1.119   0.512  15.910  0.4773 -1.0991 -1.5260
 9434SOL    HW239939   1.180   0.645  15.940  0.4861  0.2595  0.4420
 9435SOL     OW39940   2.595   3.450   1.855 -0.3196  0.4023  0.4812
 9435SOL    HW139941   2.570   3.525   1.909 -0.1904  1.0962 -0.4226
 9435SOL    HW239942   2.624   3.390   1.925 -0.7256 -0.7021 -0.2989
 9436SOL     OW39943   2.229   3.081   2.285 -0.1751 -0.4674  0.4375
 9436SOL    HW139944   2.210   3.049   2.197 -1.0960  1.8759 -0.2087
 9436SOL    HW239945   2.153   3.047   2.332  0.0972 -0.7490  0.6766
 9437SOL     OW39946   3.778   4.649  13.356 -0.0204  0.4336 -0.7820
 9437SOL    HW139947   3.726   4.730  13.356  0.0379  0.4704 -0.8888
 9437SOL    HW239948   3.717   4.576  13.367  0.8533 -0.3247 -0.9137
 9438SOL     OW39949   2.550   2.622   8.601 -1.0399  0.1708 -0.1524
 9438SOL    HW139950   2.599   2.692   8.558 -0.9154  0.6843  0.8155
 9438SOL    HW239951   2.542   2.558   8.530  0.8546  0.5865 -0.7604
 9439SOL     OW39952   0.339   0.350   8.885  0.2728 -0.4661  0.3351
 9439SOL    HW139953   0.393   0.303   8.821 -1.2256 -2.2286  0.3807
 9439SOL    HW239954   0.335   0.433   8.837  0.7982 -1.4029 -1.3553
 9440SOL     OW39955   1.232   1.193  17.223  0.2967  0.2665 -0.1274
 9440SOL    HW139956   1.326   1.210  17.219  0.1755  0.4499 -2.1917
 9440SOL    HW239957   1.207   1.268  17.170  1.9541  1.2306  0.4605
 9441SOL     OW39958   0.275   3.665   7.981 -0.4706 -0.0254  0.8213
 9441SOL    HW139959   0.318   3.743   8.016 -0.8329 -0.4330  2.1609
 9441SOL    HW239960   0.197   3.665   8.036 -0.5531  2.4256  0.7145
 9442SOL     OW39961   3.861   1.390   1.639 -0.0229 -0.4434  0.8112
 9442SOL    HW139962   3.869   1.393   1.544 -0.1187  1.5261  0.8670
 9442SOL    HW239963   3.942   1.343   1.663 -0.1493 -0.7305  0.6686
 9443SOL     OW39964   0.438   2.300   8.764  0.4948 -0.0559  0.3412
 9443SOL    HW139965   0.453   2.367   8.831  0.2240 -0.8802  1.2200
 9443SOL    HW239966   0.529   2.269   8.761 -0.2492 -2.2873  0.7926
 9444SOL     OW39967   1.074   4.465   0.038  0.7354  0.7803 -0.1630
 9444SOL    HW139968   1.063   4.374   0.063  0.5409  0.0957 -2.6957
 9444SOL    HW239969   0.984   4.484   0.012  0.2031 -0.1196  1.0123
 9445SOL     OW39970   1.973   4.434   9.007 -0.0406 -0.5026  0.1212
 9445SOL    HW139971   1.999   4.393   8.925 -0.7505  1.9271 -1.3262
 9445SOL    HW239972   1.911   4.505   8.987  1.8715  1.2012  0.2298
 9446SOL     OW39973   3.105   0.701   6.677 -0.0123  0.3925 -0.0644
 9446SOL    HW139974   3.019   0.659   6.679  0.2004  0.0544  2.0120
 9446SOL    HW239975   3.084   0.793   6.691 -1.8154 -0.3610  2.1323
 9447SOL     OW39976   1.365   3.698   6.167 -0.1574 -0.5039  0.2629
 9447SOL    HW139977   1.383   3.773   6.110  0.3411 -0.4209  0.5361
 9447SOL    HW239978   1.269   3.699   6.158 -0.1237  1.3504  0.0597
 9448SOL     OW39979   1.014   3.213   6.667  0.3051  0.8106  0.2574
 9448SOL    HW139980   1.058   3.134   6.698 -1.0136  0.9118  2.3658
 9448SOL    HW239981   1.016   3.277   6.738  1.5603  2.1805 -1.0059
 9449SOL     OW39982   2.012   4.405   4.893 -0.0499 -0.2656  0.2168
 9449SOL    HW139983   2.001   4.346   4.818 -0.1762  0.1424 -0.0844
 9449SOL    HW239984   2.072   4.352   4.946 -0.8259  0.4471  1.7936
 9450SOL     OW39985   3.385   1.938   5.690 -0.0732 -0.0723 -0.0286
 9450SOL    HW139986   3.453   1.966   5.752 -1.1592 -0.5087  1.3552
 9450SOL    HW239987   3.439   1.936   5.611 -1.3073  0.7995 -0.8904
 9451SOL     OW39988   2.029   3.139   5.045  0.9251  0.7412 -0.2429
 9451SOL    HW139989   2.023   3.191   5.125 -0.3573  1.6951 -0.9552
 9451SOL    HW239990   2.041   3.057   5.092 -1.8405  0.3473 -0.1786
 9452SOL     OW39991   4.509   1.856  10.439  0.1377 -0.0550 -0.7514
 9452SOL    HW139992   4.484   1.944  10.411  0.3756 -0.5799 -2.6680
 9452SOL    HW239993   4.603   1.864  10.424 -0.0420 -0.0105 -1.8639
 9453SOL     OW39994   0.836   3.286   8.059  0.4245 -0.3588  0.5880
 9453SOL    HW139995   0.782   3.298   8.137 -0.0316  1.1244  0.0490
 9453SOL    HW239996   0.843   3.191   8.065  0.1144 -0.3545  0.9991
 9454SOL     OW39997   3.901   2.833   9.146  0.1969 -0.2485  0.4782
 9454SOL    HW139998   3.846   2.876   9.212 -2.8506 -2.8836 -0.3952
 9454SOL    HW239999   3.844   2.782   9.089 -0.4295  0.8839  0.0868
 9455SOL     OW40000   3.781   2.522   2.630  0.1223 -0.1500  0.1576
 9455SOL    HW140001   3.736   2.519   2.714  0.0931 -0.4793  0.1268
 9455SOL    HW240002   3.745   2.448   2.581 -0.3337 -0.9436  1.6995
 9456SOL     OW40003   0.930   0.430   9.354  0.7803  0.1499  0.4438
 9456SOL    HW140004   0.999   0.486   9.387 -2.4980  2.3582  3.5175
 9456SOL    HW240005   0.991   0.356   9.349 -0.3915 -0.8222  0.4550
 9457SOL     OW40006   1.749   3.486   3.812 -0.2041  0.0368  0.2958
 9457SOL    HW140007   1.653   3.477   3.815 -0.4079  1.5465 -1.6309
 9457SOL    HW240008   1.792   3.453   3.891  1.1949  0.8659 -0.1280
 9458SOL     OW40009   0.186   3.943   7.941  0.0284  0.5112 -0.0331
 9458SOL    HW140010   0.180   3.981   7.854 -1.2012 -0.4624 -0.3735
 9458SOL    HW240011   0.277   3.960   7.966 -0.4538  2.2524  0.5352
 9459SOL     OW40012   2.462   0.486   6.471 -0.3003  0.1953 -0.1166
 9459SOL    HW140013   2.369   0.505   6.456 -0.3602  1.1683  1.5122
 9459SOL    HW240014   2.478   0.541   6.548  0.8557 -1.5190  0.8742
 9460SOL     OW40015   1.784   0.560   8.736  0.4853  0.9951 -0.2808
 9460SOL    HW140016   1.720   0.597   8.674 -0.0637 -0.6537 -0.6960
 9460SOL    HW240017   1.863   0.612   8.724  0.7688  1.0759  1.9581
 9461SOL     OW40018   1.975   0.475   3.454  0.0432  0.0022  0.2825
 9461SOL    HW140019   2.038   0.429   3.398 -2.5235 -2.7645 -0.2980
 9461SOL    HW240020   2.028   0.534   3.507 -0.3538  1.8210 -1.3477
 9462SOL     OW40021   4.628   0.755   3.091  0.0918  0.0683  0.1232
 9462SOL    HW140022   4.577   0.835   3.104  2.2023  1.8738 -2.7093
 9462SOL    HW240023   4.584   0.703   3.024  0.1307  0.7251 -0.4152
 9463SOL     OW40024   0.182   0.784   7.929  0.2950 -0.1301 -0.0231
 9463SOL    HW140025   0.102   0.836   7.924  0.2127 -0.1059  1.6353
 9463SOL    HW240026   0.153   0.693   7.935 -0.3257  0.1003  0.4878
 9464SOL     OW40027   0.870   1.345   8.797  0.0461  0.1947  0.4974
 9464SOL    HW140028   0.778   1.319   8.800 -0.6209  1.9869 -4.4597
 9464SOL    HW240029   0.865   1.402   8.874  0.8685  0.5206  0.3142
 9465SOL     OW40030   0.135   0.283   8.075  0.4581 -0.1545 -0.3054
 9465SOL    HW140031   0.047   0.250   8.060  0.9860 -0.9728 -1.5777
 9465SOL    HW240032   0.185   0.233   8.010 -0.5274 -0.7219 -0.6246
 9466SOL     OW40033   4.725   3.382  17.041  0.0619 -0.8734  0.0858
 9466SOL    HW140034   4.722   3.413  17.131  0.3483  0.3252 -0.3184
 9466SOL    HW240035   0.084   3.385  17.029  0.2180 -0.8097  1.3921
 9467SOL     OW40036   2.957   1.478   3.968 -0.2302 -0.0964 -0.3395
 9467SOL    HW140037   2.880   1.437   3.928  0.9679 -1.0738 -1.6589
 9467SOL    HW240038   2.932   1.570   3.964 -1.1443 -0.2878  0.8475
 9468SOL     OW40039   2.819   3.910  12.452  0.1757  0.8625 -0.0106
 9468SOL    HW140040   2.809   3.815  12.458  1.6297  0.7689  1.3286
 9468SOL    HW240041   2.893   3.921  12.392  0.0810 -1.2237 -0.5017
 9469SOL     OW40042   0.187   3.794   6.336  0.7521 -0.6708 -0.1504
 9469SOL    HW140043   0.135   3.865   6.372 -0.6487 -1.9973  0.4283
 9469SOL    HW240044   0.119   3.729   6.319 -1.7410  1.4689  1.6589
 9470SOL     OW40045   3.964   2.301   8.096  0.1357  0.4106 -0.5726
 9470SOL    HW140046   3.930   2.223   8.139  0.3412  0.8893  0.4471
 9470SOL    HW240047   4.059   2.300   8.112 -0.1796 -0.2864  1.2357
 9471SOL     OW40048   0.290   3.279  17.027  0.3148 -0.1225  0.2212
 9471SOL    HW140049   0.379   3.302  17.053 -0.0525  0.1493  1.2396
 9471SOL    HW240050   0.302   3.185  17.028  3.4620  0.2982  0.3041
 9472SOL     OW40051   0.635   1.824   7.505  0.2787  0.4268  0.4516
 9472SOL    HW140052   0.553   1.834   7.458 -0.6852  0.1026  2.0631
 9472SOL    HW240053   0.621   1.871   7.587 -1.7711  0.8803 -0.1577
 9473SOL     OW40054   0.152   2.009   7.623 -0.1626  0.1139 -0.2019
 9473SOL    HW140055   0.219   2.031   7.559  0.3187 -0.5126  0.0861
 9473SOL    HW240056   0.108   1.951   7.562 -0.7652 -0.5136  0.8230
 9474SOL     OW40057   2.104   2.136   6.717  0.0169 -0.2211  0.2010
 9474SOL    HW140058   2.118   2.223   6.680  0.9916  0.2171  1.5991
 9474SOL    HW240059   2.196   2.113   6.706  0.6925  2.6738 -0.3001
 9475SOL     OW40060   0.246   3.440  15.562  0.3487 -0.5797 -1.0275
 9475SOL    HW140061   0.238   3.446  15.467  0.1662 -0.4298 -1.0025
 9475SOL    HW240062   0.203   3.518  15.599  1.8303 -0.1037 -0.3310
 9476SOL     OW40063   2.097   4.402   4.181  0.4133 -0.2496 -0.1794
 9476SOL    HW140064   2.113   4.493   4.158  2.0818 -0.1013  1.4874
 9476SOL    HW240065   2.102   4.396   4.277  4.0004  3.0309 -0.1397
 9477SOL     OW40066   2.886   1.442   1.718  0.3470  0.4673 -0.3351
 9477SOL    HW140067   2.949   1.514   1.723 -0.1874  0.8044  1.5978
 9477SOL    HW240068   2.829   1.487   1.656 -0.0001  0.3305 -0.1196
 9478SOL     OW40069   4.463   2.348   2.438  0.0865  0.8615 -0.0495
 9478SOL    HW140070   4.391   2.346   2.375 -0.4112  0.8686  0.5250
 9478SOL    HW240071   4.436   2.275   2.492 -0.5325  2.2845  1.5647
 9479SOL     OW40072   0.610   3.505   6.872 -0.3111 -0.3476  0.5658
 9479SOL    HW140073   0.572   3.589   6.845 -0.7001 -0.2779  1.3279
 9479SOL    HW240074   0.696   3.500   6.830 -0.5452 -2.7955  0.3850
 9480SOL     OW40075   2.391   3.727   9.312 -0.3267  0.0759  0.1156
 9480SOL    HW140076   2.363   3.810   9.273  2.3291  1.5088  1.2238
 9480SOL    HW240077   2.326   3.668   9.275 -0.1230 -1.5046  2.2815
 9481SOL     OW40078   0.985   1.837  12.420  0.0434  0.2335 -0.5084
 9481SOL    HW140079   0.970   1.862  12.512  1.4371 -0.0412 -0.2053
 9481SOL    HW240080   0.919   1.887  12.372  1.2962  0.6267 -1.8166
 9482SOL     OW40081   1.300   3.101   8.997 -0.0962  0.2840 -0.5541
 9482SOL    HW140082   1.227   3.162   9.009  0.6695  0.9668  0.6569
 9482SOL    HW240083   1.375   3.151   9.027 -0.3802 -0.5372  1.5609
 9483SOL     OW40084   0.302   2.158  17.648  0.0622  0.4812 -0.3408
 9483SOL    HW140085   0.336   2.112  17.571 -0.0705 -1.7378  0.9057
 9483SOL    HW240086   0.250   2.219  17.596  0.8662  0.8100 -0.7554
 9484SOL     OW40087   4.216   4.375   9.271  0.0529  0.0899  0.3690
 9484SOL    HW140088   4.307   4.374   9.241  0.4825  1.8534  1.6003
 9484SOL    HW240089   4.167   4.320   9.210 -1.0693  1.1304  0.3531
 9485SOL     OW40090   3.228   4.652   7.394  0.1263  0.3403  0.3256
 9485SOL    HW140091   3.288   4.592   7.351 -0.8509 -0.3774 -0.0234
 9485SOL    HW240092   3.145   4.612   7.369 -0.5148  1.7980  0.1317
 9486SOL     OW40093   0.052   2.207   4.908  0.3558 -0.4432  0.2131
 9486SOL    HW140094   4.701   2.178   4.937  1.1714 -0.9573  2.1358
 9486SOL    HW240095   0.071   2.142   4.841  1.4645 -0.9829  1.0434
 9487SOL     OW40096   3.251   2.222  10.868 -0.0181  0.4095  0.5138
 9487SOL    HW140097   3.230   2.237  10.776  1.2700  0.8660  0.2899
 9487SOL    HW240098   3.176   2.250  10.920  0.3341 -2.0051  2.3157
 9488SOL     OW40099   1.688   3.937   9.356  0.3536  0.0154 -0.2760
 9488SOL    HW140100   1.657   4.019   9.395 -0.4648 -0.6668  0.5121
 9488SOL    HW240101   1.605   3.893   9.336  0.3567 -1.3881  2.8508
 9489SOL     OW40102   2.291   2.844   6.841  0.1828 -0.0316 -0.0372
 9489SOL    HW140103   2.319   2.821   6.930  0.0772  0.8946  0.2431
 9489SOL    HW240104   2.297   2.940   6.843 -0.2411  0.0103 -0.9208
 9490SOL     OW40105   0.307   3.880  15.484  0.4406  0.1932  0.1336
 9490SOL    HW140106   0.244   3.809  15.496 -2.0292  2.6577  1.6923
 9490SOL    HW240107   0.308   3.880  15.388  0.9849  1.5804  0.1432
 9491SOL     OW40108   1.266   3.341   8.654  0.6673 -0.2741  0.4031
 9491SOL    HW140109   1.241   3.432   8.642  3.1359  0.5503  1.5657
 9491SOL    HW240110   1.181   3.305   8.680  2.0665 -3.4819  0.6166
 9492SOL     OW40111   3.730   2.707   8.247  0.2460  0.1646  0.1640
 9492SOL    HW140112   3.793   2.682   8.315  1.7963 -3.1621 -2.5273
 9492SOL    HW240113   3.650   2.706   8.299 -0.4624  1.1476 -0.9126
 9493SOL     OW40114   0.549   4.549   7.817  0.2972  0.0405 -0.4282
 9493SOL    HW140115   0.593   4.593   7.744  0.4079 -0.1243 -0.4596
 9493SOL    HW240116   0.590   4.464   7.804  0.8209  0.6594 -2.9330
 9494SOL     OW40117   0.838   1.958  13.217 -0.8779  0.1660 -0.0056
 9494SOL    HW140118   0.885   1.975  13.136 -0.4894  1.8304  0.5683
 9494SOL    HW240119   0.850   2.044  13.257  1.8850 -0.1686 -0.1103
 9495SOL     OW40120   2.789   4.056  17.332  0.1261 -0.7474  0.3450
 9495SOL    HW140121   2.752   4.136  17.293  0.0169 -1.3309 -0.7425
 9495SOL    HW240122   2.810   4.011  17.251  0.5532 -1.9947  1.1426
 9496SOL     OW40123   2.528   1.805  12.223  0.2349  0.0271  0.9950
 9496SOL    HW140124   2.440   1.793  12.187 -0.3210  4.2049  0.9705
 9496SOL    HW240125   2.508   1.871  12.289 -0.4170 -0.7190  1.5344
 9497SOL     OW40126   4.011   4.704   7.454 -0.7428 -0.2576 -0.2228
 9497SOL    HW140127   3.972   0.032   7.513  2.0042  0.9162  0.3493
 9497SOL    HW240128   3.971   0.006   7.376 -2.8543 -1.1851  0.4116
 9498SOL     OW40129   2.658   1.944   6.546  0.3015 -0.2060 -0.3485
 9498SOL    HW140130   2.604   1.909   6.617 -1.6779 -1.4004 -2.4638
 9498SOL    HW240131   2.720   1.999   6.594  1.8865 -1.8890 -0.4401
 9499SOL     OW40132   3.815   2.969   5.238 -0.2696  0.3916  0.2157
 9499SOL    HW140133   3.729   2.987   5.201  0.1359  1.1007 -0.3726
 9499SOL    HW240134   3.880   3.020   5.191  1.2075 -1.3877  0.2982
 9500SOL     OW40135   4.303   0.632  16.220 -0.2106 -0.2285 -0.0387
 9500SOL    HW140136   4.217   0.614  16.256 -0.1330  2.7571  1.6353
 9500SOL    HW240137   4.277   0.659  16.132 -0.6543  0.3613  0.2755
 9501SOL     OW40138   2.138   1.968   3.297 -0.3322  0.1949 -0.1005
 9501SOL    HW140139   2.137   2.056   3.333  0.3151 -0.9481  2.6569
 9501SOL    HW240140   2.223   1.941   3.329  1.5970  1.6404 -3.9679
 9502SOL     OW40141   4.338   0.908   7.012 -0.3990 -0.5678 -0.2403
 9502SOL    HW140142   4.425   0.900   6.973 -0.1667  0.0602  0.1494
 9502SOL    HW240143   4.299   0.844   6.953 -0.6614 -0.6971  0.0702
 9503SOL     OW40144   3.646   2.324   3.639 -0.2719 -0.4802  0.4310
 9503SOL    HW140145   3.568   2.280   3.671 -1.1469  1.5978  1.1501
 9503SOL    HW240146   3.676   2.379   3.712  1.2943 -1.5295  0.5819
 9504SOL     OW40147   2.085   3.465  14.480  0.4307  0.0094  0.1499
 9504SOL    HW140148   2.143   3.510  14.419 -0.1868 -1.1508 -1.3019
 9504SOL    HW240149   2.090   3.375  14.448 -2.0242  0.5268 -1.7529
 9505SOL     OW40150   2.644   2.677  11.548  0.0514 -0.1787  0.1651
 9505SOL    HW140151   2.644   2.732  11.469  2.5600  0.6570  0.7603
 9505SOL    HW240152   2.585   2.604  11.528 -1.3764  1.2712 -0.9975
 9506SOL     OW40153   0.573   1.356  17.641  0.9552 -0.4752 -0.1882
 9506SOL    HW140154   0.630   1.429  17.667  0.0948 -0.4054  1.5024
 9506SOL    HW240155   0.490   1.386  17.679  0.9006 -0.9428  0.0622
 9507SOL     OW40156   1.096   2.556  17.103 -0.0616  0.4105 -0.2977
 9507SOL    HW140157   1.135   2.484  17.054 -2.1335  0.1814 -1.6592
 9507SOL    HW240158   1.171   2.609  17.129 -0.6364  1.4909 -0.8129
 9508SOL     OW40159   3.376   0.020   0.462 -0.9496  0.3177  0.1101
 9508SOL    HW140160   3.417   4.674   0.489 -1.8855  0.1434  1.0026
 9508SOL    HW240161   3.422   0.083   0.518  1.8236 -1.2281 -0.4162
 9509SOL     OW40162   2.117   3.228   3.947 -0.0488 -0.0617 -0.1756
 9509SOL    HW140163   2.202   3.273   3.944  0.1987 -0.7439 -3.1680
 9509SOL    HW240164   2.066   3.284   3.888 -1.3043  0.8427  1.7712
 9510SOL     OW40165   1.356   0.236  17.060  0.0974  0.2107 -0.2996
 9510SOL    HW140166   1.313   0.151  17.057 -0.4114  0.5374 -2.6649
 9510SOL    HW240167   1.281   0.292  17.081 -0.2094 -0.3748  0.1510
 9511SOL     OW40168   1.009   1.447   4.133  0.2895 -0.1320  0.5855
 9511SOL    HW140169   1.056   1.509   4.077  0.1055 -0.0725  0.4980
 9511SOL    HW240170   1.077   1.446   4.200 -0.3929  0.6111  1.2878
 9512SOL     OW40171   2.941   2.906   3.561 -0.0797 -0.1901 -0.1902
 9512SOL    HW140172   2.994   2.917   3.482 -0.0711 -0.9441 -0.2976
 9512SOL    HW240173   2.898   2.990   3.571 -0.3292 -0.1352 -1.7535
 9513SOL     OW40174   4.236   3.174   5.140 -0.5656  0.2572  0.3709
 9513SOL    HW140175   4.214   3.082   5.134  0.6840 -0.2323  3.1869
 9513SOL    HW240176   4.239   3.185   5.235  0.3534  2.2899  0.1122
 9514SOL     OW40177   1.790   3.111  16.386 -0.2113 -0.3385  0.6320
 9514SOL    HW140178   1.724   3.114  16.455  0.5497  2.1460  1.2310
 9514SOL    HW240179   1.822   3.201  16.388 -0.2753 -0.2537 -1.9506
 9515SOL     OW40180   3.733   3.724   1.249 -0.4550 -0.5748  0.3690
 9515SOL    HW140181   3.778   3.772   1.318  3.4081 -1.3160 -1.6380
 9515SOL    HW240182   3.704   3.798   1.195 -2.0930 -0.6462  1.1550
 9516SOL     OW40183   2.693   4.138   4.120 -0.8193 -0.2381  0.3843
 9516SOL    HW140184   2.607   4.096   4.119 -0.2931 -1.3911  3.9213
 9516SOL    HW240185   2.703   4.148   4.026 -1.1789 -0.6825  0.2958
 9517SOL     OW40186   2.315   1.099  17.245 -0.4667 -0.5947 -0.0762
 9517SOL    HW140187   2.259   1.065  17.315  0.6977 -1.6887  0.3255
 9517SOL    HW240188   2.397   1.079  17.290 -0.3848 -3.9474 -1.6870
 9518SOL     OW40189   3.350   3.832   6.895  0.7491 -0.4668 -0.3856
 9518SOL    HW140190   3.445   3.833   6.884  0.6477 -2.2144 -1.4131
 9518SOL    HW240191   3.337   3.922   6.925 -1.9677 -1.8426  2.5944
 9519SOL     OW40192   4.583   0.883   1.444 -0.1396  0.4159  0.4561
 9519SOL    HW140193   4.595   0.964   1.494 -0.5656  1.1318 -0.5943
 9519SOL    HW240194   4.498   0.854   1.478 -0.8643  2.5366  0.4390
 9520SOL     OW40195   2.009   2.691   2.819 -0.2424 -0.2869 -0.5729
 9520SOL    HW140196   1.924   2.677   2.861 -0.1437 -0.6816 -0.5014
 9520SOL    HW240197   1.993   2.652   2.733 -1.4035 -1.0653 -0.0224
 9521SOL     OW40198   2.263   0.392   3.552 -0.2905 -0.1000 -0.1244
 9521SOL    HW140199   2.353   0.418   3.574 -0.6076 -1.0029  2.2879
 9521SOL    HW240200   2.262   0.432   3.466 -1.1013  0.3204  0.0827
 9522SOL     OW40201   4.366   3.580   6.390  0.7283 -0.0423 -0.7148
 9522SOL    HW140202   4.347   3.605   6.480 -1.5495 -1.4252 -0.8001
 9522SOL    HW240203   4.312   3.501   6.384 -0.3379  0.7852 -1.9700
 9523SOL     OW40204   2.191   4.373   9.958  0.1905 -0.0072  0.5227
 9523SOL    HW140205   2.281   4.361   9.986 -0.8409 -1.2155  3.3068
 9523SOL    HW240206   2.191   4.346   9.866  2.9060 -0.1822  0.5998
 9524SOL     OW40207   3.185   4.649   0.288  0.2557  0.3205 -0.3851
 9524SOL    HW140208   3.280   4.657   0.299 -0.0138  1.9190  0.6968
 9524SOL    HW240209   3.165   0.001   0.321 -1.3016 -0.7883  1.6164
 9525SOL     OW40210   4.161   4.445  13.326 -0.3662 -0.2141  0.5570
 9525SOL    HW140211   4.162   4.445  13.231  0.3259 -0.5206  0.5619
 9525SOL    HW240212   4.127   4.533  13.342 -0.6761 -0.3234  0.4978
 9526SOL     OW40213   4.020   3.899   1.352  0.5817 -0.4714  0.1433
 9526SOL    HW140214   4.068   3.951   1.288  1.0216 -0.1093  0.7731
 9526SOL    HW240215   4.092   3.852   1.394  0.1702 -1.5266 -0.3133
 9527SOL     OW40216   4.072   3.792   5.662  0.4400  0.1151 -0.1949
 9527SOL    HW140217   4.005   3.780   5.729  1.9584 -0.9875  1.1202
 9527SOL    HW240218   4.091   3.886   5.659  0.8174  0.0773  1.0301
 9528SOL     OW40219   0.548   0.770   5.502 -0.0530  0.4428 -0.4558
 9528SOL    HW140220   0.597   0.706   5.552 -1.5158 -0.2830  0.0551
 9528SOL    HW240221   0.609   0.784   5.429 -1.5502  0.5758 -1.6892
 9529SOL     OW40222   3.799   0.734  16.139 -0.2061 -0.2400  0.2878
 9529SOL    HW140223   3.738   0.773  16.202  0.6704 -0.2724  1.1543
 9529SOL    HW240224   3.746   0.749  16.060  1.8999  1.2249 -0.8699
 9530SOL     OW40225   3.411   1.239   2.748 -0.0876  0.0152 -0.0100
 9530SOL    HW140226   3.433   1.309   2.809  0.8392 -0.3625  0.0979
 9530SOL    HW240227   3.479   1.246   2.681 -0.3766 -0.6756 -0.3763
 9531SOL     OW40228   0.179   0.317   8.495 -0.1064  0.2025  0.1506
 9531SOL    HW140229   0.108   0.381   8.495 -2.6721 -2.6265  1.2075
 9531SOL    HW240230   0.161   0.261   8.571 -1.8606 -1.4929 -1.4885
 9532SOL     OW40231   1.777   1.852   3.362 -0.3754 -0.4914  0.1274
 9532SOL    HW140232   1.864   1.814   3.360 -0.4078 -0.6204  1.4062
 9532SOL    HW240233   1.803   1.934   3.320  0.2990  0.1492  1.7889
 9533SOL     OW40234   1.285   4.340   2.091 -0.0993 -0.2714 -0.5299
 9533SOL    HW140235   1.252   4.414   2.141 -0.4682 -1.1577  0.5429
 9533SOL    HW240236   1.208   4.283   2.092  0.0052 -0.3795  1.9225
 9534SOL     OW40237   4.195   3.784   2.638 -0.3174 -0.1085  0.5145
 9534SOL    HW140238   4.279   3.745   2.663  0.0759  1.5027  1.6626
 9534SOL    HW240239   4.165   3.811   2.725 -0.5141 -0.6718  0.6218
 9535SOL     OW40240   2.352   3.359  14.577 -0.2044  0.6761  0.3651
 9535SOL    HW140241   2.273   3.394  14.535  1.0170 -0.9895 -3.3076
 9535SOL    HW240242   2.400   3.319  14.505  0.9002  1.8701  0.4445
 9536SOL     OW40243   3.692   1.840   8.907 -0.0220  0.1197 -0.4938
 9536SOL    HW140244   3.740   1.922   8.925 -1.0545  0.0023  2.8176
 9536SOL    HW240245   3.729   1.801   8.987  0.2112  2.2551  0.4553
 9537SOL     OW40246   3.008   0.897   9.062 -0.4173  0.2651  0.0774
 9537SOL    HW140247   2.976   0.909   8.972  1.0467  4.6866  0.1364
 9537SOL    HW240248   3.083   0.844   9.035  0.3627  1.5480 -0.2458
 9538SOL     OW40249   4.215   2.630   5.055 -0.3213 -0.5536  0.2177
 9538SOL    HW140250   4.229   2.718   5.090  2.3894 -0.9604  0.1656
 9538SOL    HW240251   4.185   2.586   5.134 -0.0660 -0.0649  0.5885
 9539SOL     OW40252   1.218   0.300   4.849  0.1763  0.2248  0.0622
 9539SOL    HW140253   1.177   0.343   4.774  0.5480  1.1368  0.3755
 9539SOL    HW240254   1.240   0.211   4.824  0.3773  0.8671 -2.1061
 9540SOL     OW40255   3.246   2.358   6.217 -0.2691 -0.1716 -0.1104
 9540SOL    HW140256   3.201   2.285   6.260 -2.4925 -0.9113 -3.6737
 9540SOL    HW240257   3.333   2.320   6.205 -0.2108  0.3034 -1.2206
 9541SOL     OW40258   3.090   1.492   6.738  1.0052  0.2179  0.2997
 9541SOL    HW140259   3.133   1.555   6.795  0.9809  0.8188 -0.3409
 9541SOL    HW240260   2.999   1.523   6.734  1.1426  0.5594 -0.2050
 9542SOL     OW40261   4.612   4.304  17.632  0.2492  0.7910 -0.1788
 9542SOL    HW140262   4.536   4.351  17.667  0.0574 -0.1986  0.7515
 9542SOL    HW240263   4.686   4.338  17.681  1.5002 -0.1217 -1.4373
 9543SOL     OW40264   0.815   4.621   4.535 -0.0225  0.1878 -0.0908
 9543SOL    HW140265   0.788   4.616   4.444 -3.7713 -2.2237  1.1432
 9543SOL    HW240266   0.799   4.535   4.574  0.1877  0.3804  0.4264
 9544SOL     OW40267   0.008   2.643   5.115  0.3320 -0.2912 -0.1992
 9544SOL    HW140268   4.699   2.674   5.194  0.6035  1.0040 -0.5415
 9544SOL    HW240269   0.047   2.560   5.143 -1.2574 -0.7280  0.7143
 9545SOL     OW40270   4.522   4.509   8.595  0.5422  0.2277 -0.0475
 9545SOL    HW140271   4.524   4.457   8.514  0.7035  1.1099 -0.6065
 9545SOL    HW240272   4.610   4.546   8.595  0.7842 -0.3006 -2.7040
 9546SOL     OW40273   3.019   2.654  14.062 -0.5329 -0.2449 -0.2405
 9546SOL    HW140274   2.943   2.687  14.014 -1.1768 -0.1140  0.8555
 9546SOL    HW240275   3.025   2.565  14.028  0.5710  0.2249 -1.2674
 9547SOL     OW40276   3.928   2.970  17.334 -0.2584  0.8965 -0.2609
 9547SOL    HW140277   3.963   2.894  17.287 -2.9861  1.4355 -3.1358
 9547SOL    HW240278   3.980   3.040  17.294 -0.9955  0.3549 -2.1781
 9548SOL     OW40279   3.238   3.370   1.714  0.2546  0.3918  0.3719
 9548SOL    HW140280   3.321   3.411   1.690  0.5954 -1.3571 -1.4638
 9548SOL    HW240281   3.179   3.446   1.714 -0.5748 -0.2495 -2.9530
 9549SOL     OW40282   4.607   3.727   7.788  0.1670  0.5935 -0.3055
 9549SOL    HW140283   4.671   3.794   7.766 -2.7874  3.6033  0.3125
 9549SOL    HW240284   4.674   3.660   7.804 -0.8204 -0.6109 -1.1404
 9550SOL     OW40285   0.563   2.582   6.637  0.1436  0.3074  0.4121
 9550SOL    HW140286   0.620   2.650   6.601  0.1179  0.0983 -0.0199
 9550SOL    HW240287   0.625   2.512   6.660 -2.3638 -1.4955  1.7256
 9551SOL     OW40288   3.539   1.703   6.219 -0.4777  1.0393  0.0241
 9551SOL    HW140289   3.582   1.633   6.267  1.5430  1.2376 -1.4925
 9551SOL    HW240290   3.611   1.732   6.163 -0.0103  1.5174  0.8532
 9552SOL     OW40291   3.633   1.596  11.854 -0.1928  0.4046  0.6621
 9552SOL    HW140292   3.660   1.511  11.888  0.5654 -0.0615 -1.0800
 9552SOL    HW240293   3.712   1.648  11.841 -1.5129  1.9222 -1.4786
 9553SOL     OW40294   0.584   3.881   4.617  0.2309  0.6547 -0.5861
 9553SOL    HW140295   0.624   3.935   4.550 -0.4472 -0.5999 -1.9908
 9553SOL    HW240296   0.648   3.897   4.686 -0.4930  2.1139 -0.2477
 9554SOL     OW40297   2.257   0.408  11.432 -0.1911 -0.2829 -0.2772
 9554SOL    HW140298   2.299   0.341  11.485 -2.6570 -0.6190  1.2755
 9554SOL    HW240299   2.261   0.367  11.346 -1.0718 -0.8211 -0.0689
 9555SOL     OW40300   4.646   1.397  14.314  0.7946  0.2628  0.8277
 9555SOL    HW140301   4.694   1.479  14.311 -0.6810  1.0303 -1.9889
 9555SOL    HW240302   4.688   1.371  14.396  1.3937 -1.4805 -0.0201
 9556SOL     OW40303   3.087   1.808   4.211  0.4094 -0.1020 -0.3115
 9556SOL    HW140304   3.067   1.824   4.304 -0.3824  0.2949 -0.5485
 9556SOL    HW240305   3.039   1.729   4.186  1.9716 -1.1633  0.0853
 9557SOL     OW40306   1.393   3.772   2.295  0.5956 -0.4452  0.4919
 9557SOL    HW140307   1.325   3.793   2.359  0.7797  1.8286 -0.0568
 9557SOL    HW240308   1.340   3.721   2.233 -0.0150  1.6730 -0.7324
 9558SOL     OW40309   0.910   3.664   9.765  0.4339  0.2542 -0.2209
 9558SOL    HW140310   0.916   3.677   9.670  2.8966 -0.3191 -0.1316
 9558SOL    HW240311   0.893   3.570   9.769  0.9080  0.2825  2.4224
 9559SOL     OW40312   4.232   2.776   7.488 -0.2202 -0.6212 -0.6638
 9559SOL    HW140313   4.327   2.771   7.486 -0.1066  1.4473 -0.1989
 9559SOL    HW240314   4.223   2.724   7.568 -0.0417  0.6384  0.1822
 9560SOL     OW40315   3.446   2.930   3.756  0.4141 -0.1154 -0.0443
 9560SOL    HW140316   3.351   2.921   3.747  0.4627  0.7707 -1.3944
 9560SOL    HW240317   3.460   3.019   3.726  0.3239 -0.5937 -1.5053
 9561SOL     OW40318   1.814   2.702   9.770 -0.4483 -0.2804  0.3828
 9561SOL    HW140319   1.767   2.759   9.709  0.1359  1.6058  1.6911
 9561SOL    HW240320   1.904   2.721   9.745 -0.8167 -0.6462 -1.1961
 9562SOL     OW40321   2.132   1.266   8.271  0.0517  0.3912 -0.3830
 9562SOL    HW140322   2.066   1.232   8.211 -0.5747  1.4809 -0.3017
 9562SOL    HW240323   2.083   1.339   8.307 -0.2937 -1.0165  2.0482
 9563SOL     OW40324   2.692   1.801   0.336  0.0025  0.7026 -0.1013
 9563SOL    HW140325   2.667   1.834   0.422 -1.6741  0.8736 -0.6582
 9563SOL    HW240326   2.656   1.712   0.341  1.5381  0.1320  0.5963
 9564SOL     OW40327   0.088   0.145  11.052  0.0258  0.2540 -0.1537
 9564SOL    HW140328   0.001   0.111  11.034  0.3547 -0.4302 -0.4730
 9564SOL    HW240329   0.139   0.108  10.979 -1.6823 -1.6488 -0.3839
 9565SOL     OW40330   1.396   2.110  11.832 -0.2806 -0.4406 -0.2423
 9565SOL    HW140331   1.377   2.027  11.877 -1.2883  0.0924  0.3052
 9565SOL    HW240332   1.455   2.085  11.761  1.2344 -0.1239  0.9272
 9566SOL     OW40333   4.125   3.588   2.967 -0.5951  0.4204  0.3960
 9566SOL    HW140334   4.122   3.669   2.917  3.8057 -0.2781 -1.0289
 9566SOL    HW240335   4.217   3.575   2.991 -1.3496 -2.8663  1.5170
 9567SOL     OW40336   3.250   3.462  11.921  0.0987 -0.1138  0.0797
 9567SOL    HW140337   3.279   3.374  11.900 -1.2747 -0.2843 -1.1111
 9567SOL    HW240338   3.328   3.508  11.892  0.0002 -0.7999 -1.2875
 9568SOL     OW40339   0.639   3.013   8.162 -0.2711  0.2208  0.4768
 9568SOL    HW140340   0.564   3.047   8.211  1.4588  1.9477  1.9482
 9568SOL    HW240341   0.698   2.996   8.235  0.1404  0.8425  0.2891
 9569SOL     OW40342   2.478   4.262   0.508  0.2176 -0.4955 -0.3239
 9569SOL    HW140343   2.388   4.233   0.496 -0.2752  1.5728 -1.5454
 9569SOL    HW240344   2.529   4.186   0.479  2.0213  0.4495  0.3576
   4.73550   4.73550  17.74077
